PSF EXT CMAP XPLOR

         3 !NTITLE
* GENERATED BY CHARMM-GUI (HTTP://WWW.CHARMM-GUI.ORG) V3.7 ON JUL, 03. 2026. JOB
* GET A DIFFERENT CONFORMATION FOR LIPIDS PENETRATING PROTEIN / CHOL            
*  DATE:     7/ 3/26      3:43:29      CREATED BY USER: charmm-gui              

     49832 !NATOM
         1 MEMB     1        POPE     N        NH3L    -0.300000       14.0070           0
         2 MEMB     1        POPE     HN1      HCL      0.330000       1.00800           0
         3 MEMB     1        POPE     HN2      HCL      0.330000       1.00800           0
         4 MEMB     1        POPE     HN3      HCL      0.330000       1.00800           0
         5 MEMB     1        POPE     C12      CTL2     0.130000       12.0110           0
         6 MEMB     1        POPE     H12A     HAL2     0.900000E-01   1.00800           0
         7 MEMB     1        POPE     H12B     HAL2     0.900000E-01   1.00800           0
         8 MEMB     1        POPE     C11      CTL2    -0.800000E-01   12.0110           0
         9 MEMB     1        POPE     H11A     HAL2     0.900000E-01   1.00800           0
        10 MEMB     1        POPE     H11B     HAL2     0.900000E-01   1.00800           0
        11 MEMB     1        POPE     P        PL        1.50000       30.9740           0
        12 MEMB     1        POPE     O13      O2L     -0.780000       15.9994           0
        13 MEMB     1        POPE     O14      O2L     -0.780000       15.9994           0
        14 MEMB     1        POPE     O11      OSLP    -0.570000       15.9994           0
        15 MEMB     1        POPE     O12      OSLP    -0.570000       15.9994           0
        16 MEMB     1        POPE     C1       CTL2    -0.800000E-01   12.0110           0
        17 MEMB     1        POPE     HA       HAL2     0.900000E-01   1.00800           0
        18 MEMB     1        POPE     HB       HAL2     0.900000E-01   1.00800           0
        19 MEMB     1        POPE     C2       CTL1     0.170000       12.0110           0
        20 MEMB     1        POPE     HS       HAL1     0.900000E-01   1.00800           0
        21 MEMB     1        POPE     O21      OSL     -0.490000       15.9994           0
        22 MEMB     1        POPE     C21      CL       0.900000       12.0110           0
        23 MEMB     1        POPE     O22      OBL     -0.630000       15.9994           0
        24 MEMB     1        POPE     C22      CTL2    -0.220000       12.0110           0
        25 MEMB     1        POPE     H2R      HAL2     0.900000E-01   1.00800           0
        26 MEMB     1        POPE     H2S      HAL2     0.900000E-01   1.00800           0
        27 MEMB     1        POPE     C3       CTL2     0.800000E-01   12.0110           0
        28 MEMB     1        POPE     HX       HAL2     0.900000E-01   1.00800           0
        29 MEMB     1        POPE     HY       HAL2     0.900000E-01   1.00800           0
        30 MEMB     1        POPE     O31      OSL     -0.490000       15.9994           0
        31 MEMB     1        POPE     C31      CL       0.900000       12.0110           0
        32 MEMB     1        POPE     O32      OBL     -0.630000       15.9994           0
        33 MEMB     1        POPE     C32      CTL2    -0.220000       12.0110           0
        34 MEMB     1        POPE     H2X      HAL2     0.900000E-01   1.00800           0
        35 MEMB     1        POPE     H2Y      HAL2     0.900000E-01   1.00800           0
        36 MEMB     1        POPE     C23      CTL2    -0.180000       12.0110           0
        37 MEMB     1        POPE     H3R      HAL2     0.900000E-01   1.00800           0
        38 MEMB     1        POPE     H3S      HAL2     0.900000E-01   1.00800           0
        39 MEMB     1        POPE     C24      CTL2    -0.180000       12.0110           0
        40 MEMB     1        POPE     H4R      HAL2     0.900000E-01   1.00800           0
        41 MEMB     1        POPE     H4S      HAL2     0.900000E-01   1.00800           0
        42 MEMB     1        POPE     C25      CTL2    -0.180000       12.0110           0
        43 MEMB     1        POPE     H5R      HAL2     0.900000E-01   1.00800           0
        44 MEMB     1        POPE     H5S      HAL2     0.900000E-01   1.00800           0
        45 MEMB     1        POPE     C26      CTL2    -0.180000       12.0110           0
        46 MEMB     1        POPE     H6R      HAL2     0.900000E-01   1.00800           0
        47 MEMB     1        POPE     H6S      HAL2     0.900000E-01   1.00800           0
        48 MEMB     1        POPE     C27      CTL2    -0.180000       12.0110           0
        49 MEMB     1        POPE     H7R      HAL2     0.900000E-01   1.00800           0
        50 MEMB     1        POPE     H7S      HAL2     0.900000E-01   1.00800           0
        51 MEMB     1        POPE     C28      CTL2    -0.180000       12.0110           0
        52 MEMB     1        POPE     H8R      HAL2     0.900000E-01   1.00800           0
        53 MEMB     1        POPE     H8S      HAL2     0.900000E-01   1.00800           0
        54 MEMB     1        POPE     C29      CEL1    -0.150000       12.0110           0
        55 MEMB     1        POPE     H91      HEL1     0.150000       1.00800           0
        56 MEMB     1        POPE     C210     CEL1    -0.150000       12.0110           0
        57 MEMB     1        POPE     H101     HEL1     0.150000       1.00800           0
        58 MEMB     1        POPE     C211     CTL2    -0.180000       12.0110           0
        59 MEMB     1        POPE     H11R     HAL2     0.900000E-01   1.00800           0
        60 MEMB     1        POPE     H11S     HAL2     0.900000E-01   1.00800           0
        61 MEMB     1        POPE     C212     CTL2    -0.180000       12.0110           0
        62 MEMB     1        POPE     H12R     HAL2     0.900000E-01   1.00800           0
        63 MEMB     1        POPE     H12S     HAL2     0.900000E-01   1.00800           0
        64 MEMB     1        POPE     C213     CTL2    -0.180000       12.0110           0
        65 MEMB     1        POPE     H13R     HAL2     0.900000E-01   1.00800           0
        66 MEMB     1        POPE     H13S     HAL2     0.900000E-01   1.00800           0
        67 MEMB     1        POPE     C214     CTL2    -0.180000       12.0110           0
        68 MEMB     1        POPE     H14R     HAL2     0.900000E-01   1.00800           0
        69 MEMB     1        POPE     H14S     HAL2     0.900000E-01   1.00800           0
        70 MEMB     1        POPE     C215     CTL2    -0.180000       12.0110           0
        71 MEMB     1        POPE     H15R     HAL2     0.900000E-01   1.00800           0
        72 MEMB     1        POPE     H15S     HAL2     0.900000E-01   1.00800           0
        73 MEMB     1        POPE     C216     CTL2    -0.180000       12.0110           0
        74 MEMB     1        POPE     H16R     HAL2     0.900000E-01   1.00800           0
        75 MEMB     1        POPE     H16S     HAL2     0.900000E-01   1.00800           0
        76 MEMB     1        POPE     C217     CTL2    -0.180000       12.0110           0
        77 MEMB     1        POPE     H17R     HAL2     0.900000E-01   1.00800           0
        78 MEMB     1        POPE     H17S     HAL2     0.900000E-01   1.00800           0
        79 MEMB     1        POPE     C218     CTL3    -0.270000       12.0110           0
        80 MEMB     1        POPE     H18R     HAL3     0.900000E-01   1.00800           0
        81 MEMB     1        POPE     H18S     HAL3     0.900000E-01   1.00800           0
        82 MEMB     1        POPE     H18T     HAL3     0.900000E-01   1.00800           0
        83 MEMB     1        POPE     C33      CTL2    -0.180000       12.0110           0
        84 MEMB     1        POPE     H3X      HAL2     0.900000E-01   1.00800           0
        85 MEMB     1        POPE     H3Y      HAL2     0.900000E-01   1.00800           0
        86 MEMB     1        POPE     C34      CTL2    -0.180000       12.0110           0
        87 MEMB     1        POPE     H4X      HAL2     0.900000E-01   1.00800           0
        88 MEMB     1        POPE     H4Y      HAL2     0.900000E-01   1.00800           0
        89 MEMB     1        POPE     C35      CTL2    -0.180000       12.0110           0
        90 MEMB     1        POPE     H5X      HAL2     0.900000E-01   1.00800           0
        91 MEMB     1        POPE     H5Y      HAL2     0.900000E-01   1.00800           0
        92 MEMB     1        POPE     C36      CTL2    -0.180000       12.0110           0
        93 MEMB     1        POPE     H6X      HAL2     0.900000E-01   1.00800           0
        94 MEMB     1        POPE     H6Y      HAL2     0.900000E-01   1.00800           0
        95 MEMB     1        POPE     C37      CTL2    -0.180000       12.0110           0
        96 MEMB     1        POPE     H7X      HAL2     0.900000E-01   1.00800           0
        97 MEMB     1        POPE     H7Y      HAL2     0.900000E-01   1.00800           0
        98 MEMB     1        POPE     C38      CTL2    -0.180000       12.0110           0
        99 MEMB     1        POPE     H8X      HAL2     0.900000E-01   1.00800           0
       100 MEMB     1        POPE     H8Y      HAL2     0.900000E-01   1.00800           0
       101 MEMB     1        POPE     C39      CTL2    -0.180000       12.0110           0
       102 MEMB     1        POPE     H9X      HAL2     0.900000E-01   1.00800           0
       103 MEMB     1        POPE     H9Y      HAL2     0.900000E-01   1.00800           0
       104 MEMB     1        POPE     C310     CTL2    -0.180000       12.0110           0
       105 MEMB     1        POPE     H10X     HAL2     0.900000E-01   1.00800           0
       106 MEMB     1        POPE     H10Y     HAL2     0.900000E-01   1.00800           0
       107 MEMB     1        POPE     C311     CTL2    -0.180000       12.0110           0
       108 MEMB     1        POPE     H11X     HAL2     0.900000E-01   1.00800           0
       109 MEMB     1        POPE     H11Y     HAL2     0.900000E-01   1.00800           0
       110 MEMB     1        POPE     C312     CTL2    -0.180000       12.0110           0
       111 MEMB     1        POPE     H12X     HAL2     0.900000E-01   1.00800           0
       112 MEMB     1        POPE     H12Y     HAL2     0.900000E-01   1.00800           0
       113 MEMB     1        POPE     C313     CTL2    -0.180000       12.0110           0
       114 MEMB     1        POPE     H13X     HAL2     0.900000E-01   1.00800           0
       115 MEMB     1        POPE     H13Y     HAL2     0.900000E-01   1.00800           0
       116 MEMB     1        POPE     C314     CTL2    -0.180000       12.0110           0
       117 MEMB     1        POPE     H14X     HAL2     0.900000E-01   1.00800           0
       118 MEMB     1        POPE     H14Y     HAL2     0.900000E-01   1.00800           0
       119 MEMB     1        POPE     C315     CTL2    -0.180000       12.0110           0
       120 MEMB     1        POPE     H15X     HAL2     0.900000E-01   1.00800           0
       121 MEMB     1        POPE     H15Y     HAL2     0.900000E-01   1.00800           0
       122 MEMB     1        POPE     C316     CTL3    -0.270000       12.0110           0
       123 MEMB     1        POPE     H16X     HAL3     0.900000E-01   1.00800           0
       124 MEMB     1        POPE     H16Y     HAL3     0.900000E-01   1.00800           0
       125 MEMB     1        POPE     H16Z     HAL3     0.900000E-01   1.00800           0
       126 MEMB     2        PMPE     N        NH3L    -0.300000       14.0070           0
       127 MEMB     2        PMPE     HN1      HCL      0.330000       1.00800           0
       128 MEMB     2        PMPE     HN2      HCL      0.330000       1.00800           0
       129 MEMB     2        PMPE     HN3      HCL      0.330000       1.00800           0
       130 MEMB     2        PMPE     C12      CTL2     0.130000       12.0110           0
       131 MEMB     2        PMPE     H12A     HAL2     0.900000E-01   1.00800           0
       132 MEMB     2        PMPE     H12B     HAL2     0.900000E-01   1.00800           0
       133 MEMB     2        PMPE     C11      CTL2    -0.800000E-01   12.0110           0
       134 MEMB     2        PMPE     H11A     HAL2     0.900000E-01   1.00800           0
       135 MEMB     2        PMPE     H11B     HAL2     0.900000E-01   1.00800           0
       136 MEMB     2        PMPE     P        PL        1.50000       30.9740           0
       137 MEMB     2        PMPE     O13      O2L     -0.780000       15.9994           0
       138 MEMB     2        PMPE     O14      O2L     -0.780000       15.9994           0
       139 MEMB     2        PMPE     O11      OSLP    -0.570000       15.9994           0
       140 MEMB     2        PMPE     O12      OSLP    -0.570000       15.9994           0
       141 MEMB     2        PMPE     C1       CTL2    -0.800000E-01   12.0110           0
       142 MEMB     2        PMPE     HA       HAL2     0.900000E-01   1.00800           0
       143 MEMB     2        PMPE     HB       HAL2     0.900000E-01   1.00800           0
       144 MEMB     2        PMPE     C2       CTL1     0.170000       12.0110           0
       145 MEMB     2        PMPE     HS       HAL1     0.900000E-01   1.00800           0
       146 MEMB     2        PMPE     O21      OSL     -0.490000       15.9994           0
       147 MEMB     2        PMPE     C21      CL       0.900000       12.0110           0
       148 MEMB     2        PMPE     O22      OBL     -0.630000       15.9994           0
       149 MEMB     2        PMPE     C22      CTL2    -0.220000       12.0110           0
       150 MEMB     2        PMPE     H2R      HAL2     0.900000E-01   1.00800           0
       151 MEMB     2        PMPE     H2S      HAL2     0.900000E-01   1.00800           0
       152 MEMB     2        PMPE     C3       CTL2     0.800000E-01   12.0110           0
       153 MEMB     2        PMPE     HX       HAL2     0.900000E-01   1.00800           0
       154 MEMB     2        PMPE     HY       HAL2     0.900000E-01   1.00800           0
       155 MEMB     2        PMPE     O31      OSL     -0.490000       15.9994           0
       156 MEMB     2        PMPE     C31      CL       0.900000       12.0110           0
       157 MEMB     2        PMPE     O32      OBL     -0.630000       15.9994           0
       158 MEMB     2        PMPE     C32      CTL2    -0.220000       12.0110           0
       159 MEMB     2        PMPE     H2X      HAL2     0.900000E-01   1.00800           0
       160 MEMB     2        PMPE     H2Y      HAL2     0.900000E-01   1.00800           0
       161 MEMB     2        PMPE     C23      CTL2    -0.180000       12.0110           0
       162 MEMB     2        PMPE     H3R      HAL2     0.900000E-01   1.00800           0
       163 MEMB     2        PMPE     H3S      HAL2     0.900000E-01   1.00800           0
       164 MEMB     2        PMPE     C24      CTL2    -0.180000       12.0110           0
       165 MEMB     2        PMPE     H4R      HAL2     0.900000E-01   1.00800           0
       166 MEMB     2        PMPE     H4S      HAL2     0.900000E-01   1.00800           0
       167 MEMB     2        PMPE     C25      CTL2    -0.180000       12.0110           0
       168 MEMB     2        PMPE     H5R      HAL2     0.900000E-01   1.00800           0
       169 MEMB     2        PMPE     H5S      HAL2     0.900000E-01   1.00800           0
       170 MEMB     2        PMPE     C26      CTL2    -0.180000       12.0110           0
       171 MEMB     2        PMPE     H6R      HAL2     0.900000E-01   1.00800           0
       172 MEMB     2        PMPE     H6S      HAL2     0.900000E-01   1.00800           0
       173 MEMB     2        PMPE     C27      CTL2    -0.180000       12.0110           0
       174 MEMB     2        PMPE     H7R      HAL2     0.900000E-01   1.00800           0
       175 MEMB     2        PMPE     H7S      HAL2     0.900000E-01   1.00800           0
       176 MEMB     2        PMPE     C28      CTL2    -0.180000       12.0110           0
       177 MEMB     2        PMPE     H8R      HAL2     0.900000E-01   1.00800           0
       178 MEMB     2        PMPE     H8S      HAL2     0.900000E-01   1.00800           0
       179 MEMB     2        PMPE     C29      CG3RC1  -0.900000E-01   12.0110           0
       180 MEMB     2        PMPE     H9R      HGA1     0.900000E-01   1.00800           0
       181 MEMB     2        PMPE     C217     CG3C31  -0.180000       12.0110           0
       182 MEMB     2        PMPE     H17R     HGA2     0.900000E-01   1.00800           0
       183 MEMB     2        PMPE     H17S     HGA2     0.900000E-01   1.00800           0
       184 MEMB     2        PMPE     C210     CG3RC1  -0.900000E-01   12.0110           0
       185 MEMB     2        PMPE     H10R     HGA1     0.900000E-01   1.00800           0
       186 MEMB     2        PMPE     C211     CTL2    -0.180000       12.0110           0
       187 MEMB     2        PMPE     H11R     HAL2     0.900000E-01   1.00800           0
       188 MEMB     2        PMPE     H11S     HAL2     0.900000E-01   1.00800           0
       189 MEMB     2        PMPE     C212     CTL2    -0.180000       12.0110           0
       190 MEMB     2        PMPE     H12R     HAL2     0.900000E-01   1.00800           0
       191 MEMB     2        PMPE     H12S     HAL2     0.900000E-01   1.00800           0
       192 MEMB     2        PMPE     C213     CTL2    -0.180000       12.0110           0
       193 MEMB     2        PMPE     H13R     HAL2     0.900000E-01   1.00800           0
       194 MEMB     2        PMPE     H13S     HAL2     0.900000E-01   1.00800           0
       195 MEMB     2        PMPE     C214     CTL2    -0.180000       12.0110           0
       196 MEMB     2        PMPE     H14R     HAL2     0.900000E-01   1.00800           0
       197 MEMB     2        PMPE     H14S     HAL2     0.900000E-01   1.00800           0
       198 MEMB     2        PMPE     C215     CTL2    -0.180000       12.0110           0
       199 MEMB     2        PMPE     H15R     HAL2     0.900000E-01   1.00800           0
       200 MEMB     2        PMPE     H15S     HAL2     0.900000E-01   1.00800           0
       201 MEMB     2        PMPE     C216     CTL3    -0.270000       12.0110           0
       202 MEMB     2        PMPE     H16R     HAL3     0.900000E-01   1.00800           0
       203 MEMB     2        PMPE     H16S     HAL3     0.900000E-01   1.00800           0
       204 MEMB     2        PMPE     H16T     HAL3     0.900000E-01   1.00800           0
       205 MEMB     2        PMPE     C33      CTL2    -0.180000       12.0110           0
       206 MEMB     2        PMPE     H3X      HAL2     0.900000E-01   1.00800           0
       207 MEMB     2        PMPE     H3Y      HAL2     0.900000E-01   1.00800           0
       208 MEMB     2        PMPE     C34      CTL2    -0.180000       12.0110           0
       209 MEMB     2        PMPE     H4X      HAL2     0.900000E-01   1.00800           0
       210 MEMB     2        PMPE     H4Y      HAL2     0.900000E-01   1.00800           0
       211 MEMB     2        PMPE     C35      CTL2    -0.180000       12.0110           0
       212 MEMB     2        PMPE     H5X      HAL2     0.900000E-01   1.00800           0
       213 MEMB     2        PMPE     H5Y      HAL2     0.900000E-01   1.00800           0
       214 MEMB     2        PMPE     C36      CTL2    -0.180000       12.0110           0
       215 MEMB     2        PMPE     H6X      HAL2     0.900000E-01   1.00800           0
       216 MEMB     2        PMPE     H6Y      HAL2     0.900000E-01   1.00800           0
       217 MEMB     2        PMPE     C37      CTL2    -0.180000       12.0110           0
       218 MEMB     2        PMPE     H7X      HAL2     0.900000E-01   1.00800           0
       219 MEMB     2        PMPE     H7Y      HAL2     0.900000E-01   1.00800           0
       220 MEMB     2        PMPE     C38      CTL2    -0.180000       12.0110           0
       221 MEMB     2        PMPE     H8X      HAL2     0.900000E-01   1.00800           0
       222 MEMB     2        PMPE     H8Y      HAL2     0.900000E-01   1.00800           0
       223 MEMB     2        PMPE     C39      CTL2    -0.180000       12.0110           0
       224 MEMB     2        PMPE     H9X      HAL2     0.900000E-01   1.00800           0
       225 MEMB     2        PMPE     H9Y      HAL2     0.900000E-01   1.00800           0
       226 MEMB     2        PMPE     C310     CTL2    -0.180000       12.0110           0
       227 MEMB     2        PMPE     H10X     HAL2     0.900000E-01   1.00800           0
       228 MEMB     2        PMPE     H10Y     HAL2     0.900000E-01   1.00800           0
       229 MEMB     2        PMPE     C311     CTL2    -0.180000       12.0110           0
       230 MEMB     2        PMPE     H11X     HAL2     0.900000E-01   1.00800           0
       231 MEMB     2        PMPE     H11Y     HAL2     0.900000E-01   1.00800           0
       232 MEMB     2        PMPE     C312     CTL2    -0.180000       12.0110           0
       233 MEMB     2        PMPE     H12X     HAL2     0.900000E-01   1.00800           0
       234 MEMB     2        PMPE     H12Y     HAL2     0.900000E-01   1.00800           0
       235 MEMB     2        PMPE     C313     CTL2    -0.180000       12.0110           0
       236 MEMB     2        PMPE     H13X     HAL2     0.900000E-01   1.00800           0
       237 MEMB     2        PMPE     H13Y     HAL2     0.900000E-01   1.00800           0
       238 MEMB     2        PMPE     C314     CTL2    -0.180000       12.0110           0
       239 MEMB     2        PMPE     H14X     HAL2     0.900000E-01   1.00800           0
       240 MEMB     2        PMPE     H14Y     HAL2     0.900000E-01   1.00800           0
       241 MEMB     2        PMPE     C315     CTL2    -0.180000       12.0110           0
       242 MEMB     2        PMPE     H15X     HAL2     0.900000E-01   1.00800           0
       243 MEMB     2        PMPE     H15Y     HAL2     0.900000E-01   1.00800           0
       244 MEMB     2        PMPE     C316     CTL3    -0.270000       12.0110           0
       245 MEMB     2        PMPE     H16X     HAL3     0.900000E-01   1.00800           0
       246 MEMB     2        PMPE     H16Y     HAL3     0.900000E-01   1.00800           0
       247 MEMB     2        PMPE     H16Z     HAL3     0.900000E-01   1.00800           0
       248 MEMB     3        PMPE     N        NH3L    -0.300000       14.0070           0
       249 MEMB     3        PMPE     HN1      HCL      0.330000       1.00800           0
       250 MEMB     3        PMPE     HN2      HCL      0.330000       1.00800           0
       251 MEMB     3        PMPE     HN3      HCL      0.330000       1.00800           0
       252 MEMB     3        PMPE     C12      CTL2     0.130000       12.0110           0
       253 MEMB     3        PMPE     H12A     HAL2     0.900000E-01   1.00800           0
       254 MEMB     3        PMPE     H12B     HAL2     0.900000E-01   1.00800           0
       255 MEMB     3        PMPE     C11      CTL2    -0.800000E-01   12.0110           0
       256 MEMB     3        PMPE     H11A     HAL2     0.900000E-01   1.00800           0
       257 MEMB     3        PMPE     H11B     HAL2     0.900000E-01   1.00800           0
       258 MEMB     3        PMPE     P        PL        1.50000       30.9740           0
       259 MEMB     3        PMPE     O13      O2L     -0.780000       15.9994           0
       260 MEMB     3        PMPE     O14      O2L     -0.780000       15.9994           0
       261 MEMB     3        PMPE     O11      OSLP    -0.570000       15.9994           0
       262 MEMB     3        PMPE     O12      OSLP    -0.570000       15.9994           0
       263 MEMB     3        PMPE     C1       CTL2    -0.800000E-01   12.0110           0
       264 MEMB     3        PMPE     HA       HAL2     0.900000E-01   1.00800           0
       265 MEMB     3        PMPE     HB       HAL2     0.900000E-01   1.00800           0
       266 MEMB     3        PMPE     C2       CTL1     0.170000       12.0110           0
       267 MEMB     3        PMPE     HS       HAL1     0.900000E-01   1.00800           0
       268 MEMB     3        PMPE     O21      OSL     -0.490000       15.9994           0
       269 MEMB     3        PMPE     C21      CL       0.900000       12.0110           0
       270 MEMB     3        PMPE     O22      OBL     -0.630000       15.9994           0
       271 MEMB     3        PMPE     C22      CTL2    -0.220000       12.0110           0
       272 MEMB     3        PMPE     H2R      HAL2     0.900000E-01   1.00800           0
       273 MEMB     3        PMPE     H2S      HAL2     0.900000E-01   1.00800           0
       274 MEMB     3        PMPE     C3       CTL2     0.800000E-01   12.0110           0
       275 MEMB     3        PMPE     HX       HAL2     0.900000E-01   1.00800           0
       276 MEMB     3        PMPE     HY       HAL2     0.900000E-01   1.00800           0
       277 MEMB     3        PMPE     O31      OSL     -0.490000       15.9994           0
       278 MEMB     3        PMPE     C31      CL       0.900000       12.0110           0
       279 MEMB     3        PMPE     O32      OBL     -0.630000       15.9994           0
       280 MEMB     3        PMPE     C32      CTL2    -0.220000       12.0110           0
       281 MEMB     3        PMPE     H2X      HAL2     0.900000E-01   1.00800           0
       282 MEMB     3        PMPE     H2Y      HAL2     0.900000E-01   1.00800           0
       283 MEMB     3        PMPE     C23      CTL2    -0.180000       12.0110           0
       284 MEMB     3        PMPE     H3R      HAL2     0.900000E-01   1.00800           0
       285 MEMB     3        PMPE     H3S      HAL2     0.900000E-01   1.00800           0
       286 MEMB     3        PMPE     C24      CTL2    -0.180000       12.0110           0
       287 MEMB     3        PMPE     H4R      HAL2     0.900000E-01   1.00800           0
       288 MEMB     3        PMPE     H4S      HAL2     0.900000E-01   1.00800           0
       289 MEMB     3        PMPE     C25      CTL2    -0.180000       12.0110           0
       290 MEMB     3        PMPE     H5R      HAL2     0.900000E-01   1.00800           0
       291 MEMB     3        PMPE     H5S      HAL2     0.900000E-01   1.00800           0
       292 MEMB     3        PMPE     C26      CTL2    -0.180000       12.0110           0
       293 MEMB     3        PMPE     H6R      HAL2     0.900000E-01   1.00800           0
       294 MEMB     3        PMPE     H6S      HAL2     0.900000E-01   1.00800           0
       295 MEMB     3        PMPE     C27      CTL2    -0.180000       12.0110           0
       296 MEMB     3        PMPE     H7R      HAL2     0.900000E-01   1.00800           0
       297 MEMB     3        PMPE     H7S      HAL2     0.900000E-01   1.00800           0
       298 MEMB     3        PMPE     C28      CTL2    -0.180000       12.0110           0
       299 MEMB     3        PMPE     H8R      HAL2     0.900000E-01   1.00800           0
       300 MEMB     3        PMPE     H8S      HAL2     0.900000E-01   1.00800           0
       301 MEMB     3        PMPE     C29      CG3RC1  -0.900000E-01   12.0110           0
       302 MEMB     3        PMPE     H9R      HGA1     0.900000E-01   1.00800           0
       303 MEMB     3        PMPE     C217     CG3C31  -0.180000       12.0110           0
       304 MEMB     3        PMPE     H17R     HGA2     0.900000E-01   1.00800           0
       305 MEMB     3        PMPE     H17S     HGA2     0.900000E-01   1.00800           0
       306 MEMB     3        PMPE     C210     CG3RC1  -0.900000E-01   12.0110           0
       307 MEMB     3        PMPE     H10R     HGA1     0.900000E-01   1.00800           0
       308 MEMB     3        PMPE     C211     CTL2    -0.180000       12.0110           0
       309 MEMB     3        PMPE     H11R     HAL2     0.900000E-01   1.00800           0
       310 MEMB     3        PMPE     H11S     HAL2     0.900000E-01   1.00800           0
       311 MEMB     3        PMPE     C212     CTL2    -0.180000       12.0110           0
       312 MEMB     3        PMPE     H12R     HAL2     0.900000E-01   1.00800           0
       313 MEMB     3        PMPE     H12S     HAL2     0.900000E-01   1.00800           0
       314 MEMB     3        PMPE     C213     CTL2    -0.180000       12.0110           0
       315 MEMB     3        PMPE     H13R     HAL2     0.900000E-01   1.00800           0
       316 MEMB     3        PMPE     H13S     HAL2     0.900000E-01   1.00800           0
       317 MEMB     3        PMPE     C214     CTL2    -0.180000       12.0110           0
       318 MEMB     3        PMPE     H14R     HAL2     0.900000E-01   1.00800           0
       319 MEMB     3        PMPE     H14S     HAL2     0.900000E-01   1.00800           0
       320 MEMB     3        PMPE     C215     CTL2    -0.180000       12.0110           0
       321 MEMB     3        PMPE     H15R     HAL2     0.900000E-01   1.00800           0
       322 MEMB     3        PMPE     H15S     HAL2     0.900000E-01   1.00800           0
       323 MEMB     3        PMPE     C216     CTL3    -0.270000       12.0110           0
       324 MEMB     3        PMPE     H16R     HAL3     0.900000E-01   1.00800           0
       325 MEMB     3        PMPE     H16S     HAL3     0.900000E-01   1.00800           0
       326 MEMB     3        PMPE     H16T     HAL3     0.900000E-01   1.00800           0
       327 MEMB     3        PMPE     C33      CTL2    -0.180000       12.0110           0
       328 MEMB     3        PMPE     H3X      HAL2     0.900000E-01   1.00800           0
       329 MEMB     3        PMPE     H3Y      HAL2     0.900000E-01   1.00800           0
       330 MEMB     3        PMPE     C34      CTL2    -0.180000       12.0110           0
       331 MEMB     3        PMPE     H4X      HAL2     0.900000E-01   1.00800           0
       332 MEMB     3        PMPE     H4Y      HAL2     0.900000E-01   1.00800           0
       333 MEMB     3        PMPE     C35      CTL2    -0.180000       12.0110           0
       334 MEMB     3        PMPE     H5X      HAL2     0.900000E-01   1.00800           0
       335 MEMB     3        PMPE     H5Y      HAL2     0.900000E-01   1.00800           0
       336 MEMB     3        PMPE     C36      CTL2    -0.180000       12.0110           0
       337 MEMB     3        PMPE     H6X      HAL2     0.900000E-01   1.00800           0
       338 MEMB     3        PMPE     H6Y      HAL2     0.900000E-01   1.00800           0
       339 MEMB     3        PMPE     C37      CTL2    -0.180000       12.0110           0
       340 MEMB     3        PMPE     H7X      HAL2     0.900000E-01   1.00800           0
       341 MEMB     3        PMPE     H7Y      HAL2     0.900000E-01   1.00800           0
       342 MEMB     3        PMPE     C38      CTL2    -0.180000       12.0110           0
       343 MEMB     3        PMPE     H8X      HAL2     0.900000E-01   1.00800           0
       344 MEMB     3        PMPE     H8Y      HAL2     0.900000E-01   1.00800           0
       345 MEMB     3        PMPE     C39      CTL2    -0.180000       12.0110           0
       346 MEMB     3        PMPE     H9X      HAL2     0.900000E-01   1.00800           0
       347 MEMB     3        PMPE     H9Y      HAL2     0.900000E-01   1.00800           0
       348 MEMB     3        PMPE     C310     CTL2    -0.180000       12.0110           0
       349 MEMB     3        PMPE     H10X     HAL2     0.900000E-01   1.00800           0
       350 MEMB     3        PMPE     H10Y     HAL2     0.900000E-01   1.00800           0
       351 MEMB     3        PMPE     C311     CTL2    -0.180000       12.0110           0
       352 MEMB     3        PMPE     H11X     HAL2     0.900000E-01   1.00800           0
       353 MEMB     3        PMPE     H11Y     HAL2     0.900000E-01   1.00800           0
       354 MEMB     3        PMPE     C312     CTL2    -0.180000       12.0110           0
       355 MEMB     3        PMPE     H12X     HAL2     0.900000E-01   1.00800           0
       356 MEMB     3        PMPE     H12Y     HAL2     0.900000E-01   1.00800           0
       357 MEMB     3        PMPE     C313     CTL2    -0.180000       12.0110           0
       358 MEMB     3        PMPE     H13X     HAL2     0.900000E-01   1.00800           0
       359 MEMB     3        PMPE     H13Y     HAL2     0.900000E-01   1.00800           0
       360 MEMB     3        PMPE     C314     CTL2    -0.180000       12.0110           0
       361 MEMB     3        PMPE     H14X     HAL2     0.900000E-01   1.00800           0
       362 MEMB     3        PMPE     H14Y     HAL2     0.900000E-01   1.00800           0
       363 MEMB     3        PMPE     C315     CTL2    -0.180000       12.0110           0
       364 MEMB     3        PMPE     H15X     HAL2     0.900000E-01   1.00800           0
       365 MEMB     3        PMPE     H15Y     HAL2     0.900000E-01   1.00800           0
       366 MEMB     3        PMPE     C316     CTL3    -0.270000       12.0110           0
       367 MEMB     3        PMPE     H16X     HAL3     0.900000E-01   1.00800           0
       368 MEMB     3        PMPE     H16Y     HAL3     0.900000E-01   1.00800           0
       369 MEMB     3        PMPE     H16Z     HAL3     0.900000E-01   1.00800           0
       370 MEMB     4        POPE     N        NH3L    -0.300000       14.0070           0
       371 MEMB     4        POPE     HN1      HCL      0.330000       1.00800           0
       372 MEMB     4        POPE     HN2      HCL      0.330000       1.00800           0
       373 MEMB     4        POPE     HN3      HCL      0.330000       1.00800           0
       374 MEMB     4        POPE     C12      CTL2     0.130000       12.0110           0
       375 MEMB     4        POPE     H12A     HAL2     0.900000E-01   1.00800           0
       376 MEMB     4        POPE     H12B     HAL2     0.900000E-01   1.00800           0
       377 MEMB     4        POPE     C11      CTL2    -0.800000E-01   12.0110           0
       378 MEMB     4        POPE     H11A     HAL2     0.900000E-01   1.00800           0
       379 MEMB     4        POPE     H11B     HAL2     0.900000E-01   1.00800           0
       380 MEMB     4        POPE     P        PL        1.50000       30.9740           0
       381 MEMB     4        POPE     O13      O2L     -0.780000       15.9994           0
       382 MEMB     4        POPE     O14      O2L     -0.780000       15.9994           0
       383 MEMB     4        POPE     O11      OSLP    -0.570000       15.9994           0
       384 MEMB     4        POPE     O12      OSLP    -0.570000       15.9994           0
       385 MEMB     4        POPE     C1       CTL2    -0.800000E-01   12.0110           0
       386 MEMB     4        POPE     HA       HAL2     0.900000E-01   1.00800           0
       387 MEMB     4        POPE     HB       HAL2     0.900000E-01   1.00800           0
       388 MEMB     4        POPE     C2       CTL1     0.170000       12.0110           0
       389 MEMB     4        POPE     HS       HAL1     0.900000E-01   1.00800           0
       390 MEMB     4        POPE     O21      OSL     -0.490000       15.9994           0
       391 MEMB     4        POPE     C21      CL       0.900000       12.0110           0
       392 MEMB     4        POPE     O22      OBL     -0.630000       15.9994           0
       393 MEMB     4        POPE     C22      CTL2    -0.220000       12.0110           0
       394 MEMB     4        POPE     H2R      HAL2     0.900000E-01   1.00800           0
       395 MEMB     4        POPE     H2S      HAL2     0.900000E-01   1.00800           0
       396 MEMB     4        POPE     C3       CTL2     0.800000E-01   12.0110           0
       397 MEMB     4        POPE     HX       HAL2     0.900000E-01   1.00800           0
       398 MEMB     4        POPE     HY       HAL2     0.900000E-01   1.00800           0
       399 MEMB     4        POPE     O31      OSL     -0.490000       15.9994           0
       400 MEMB     4        POPE     C31      CL       0.900000       12.0110           0
       401 MEMB     4        POPE     O32      OBL     -0.630000       15.9994           0
       402 MEMB     4        POPE     C32      CTL2    -0.220000       12.0110           0
       403 MEMB     4        POPE     H2X      HAL2     0.900000E-01   1.00800           0
       404 MEMB     4        POPE     H2Y      HAL2     0.900000E-01   1.00800           0
       405 MEMB     4        POPE     C23      CTL2    -0.180000       12.0110           0
       406 MEMB     4        POPE     H3R      HAL2     0.900000E-01   1.00800           0
       407 MEMB     4        POPE     H3S      HAL2     0.900000E-01   1.00800           0
       408 MEMB     4        POPE     C24      CTL2    -0.180000       12.0110           0
       409 MEMB     4        POPE     H4R      HAL2     0.900000E-01   1.00800           0
       410 MEMB     4        POPE     H4S      HAL2     0.900000E-01   1.00800           0
       411 MEMB     4        POPE     C25      CTL2    -0.180000       12.0110           0
       412 MEMB     4        POPE     H5R      HAL2     0.900000E-01   1.00800           0
       413 MEMB     4        POPE     H5S      HAL2     0.900000E-01   1.00800           0
       414 MEMB     4        POPE     C26      CTL2    -0.180000       12.0110           0
       415 MEMB     4        POPE     H6R      HAL2     0.900000E-01   1.00800           0
       416 MEMB     4        POPE     H6S      HAL2     0.900000E-01   1.00800           0
       417 MEMB     4        POPE     C27      CTL2    -0.180000       12.0110           0
       418 MEMB     4        POPE     H7R      HAL2     0.900000E-01   1.00800           0
       419 MEMB     4        POPE     H7S      HAL2     0.900000E-01   1.00800           0
       420 MEMB     4        POPE     C28      CTL2    -0.180000       12.0110           0
       421 MEMB     4        POPE     H8R      HAL2     0.900000E-01   1.00800           0
       422 MEMB     4        POPE     H8S      HAL2     0.900000E-01   1.00800           0
       423 MEMB     4        POPE     C29      CEL1    -0.150000       12.0110           0
       424 MEMB     4        POPE     H91      HEL1     0.150000       1.00800           0
       425 MEMB     4        POPE     C210     CEL1    -0.150000       12.0110           0
       426 MEMB     4        POPE     H101     HEL1     0.150000       1.00800           0
       427 MEMB     4        POPE     C211     CTL2    -0.180000       12.0110           0
       428 MEMB     4        POPE     H11R     HAL2     0.900000E-01   1.00800           0
       429 MEMB     4        POPE     H11S     HAL2     0.900000E-01   1.00800           0
       430 MEMB     4        POPE     C212     CTL2    -0.180000       12.0110           0
       431 MEMB     4        POPE     H12R     HAL2     0.900000E-01   1.00800           0
       432 MEMB     4        POPE     H12S     HAL2     0.900000E-01   1.00800           0
       433 MEMB     4        POPE     C213     CTL2    -0.180000       12.0110           0
       434 MEMB     4        POPE     H13R     HAL2     0.900000E-01   1.00800           0
       435 MEMB     4        POPE     H13S     HAL2     0.900000E-01   1.00800           0
       436 MEMB     4        POPE     C214     CTL2    -0.180000       12.0110           0
       437 MEMB     4        POPE     H14R     HAL2     0.900000E-01   1.00800           0
       438 MEMB     4        POPE     H14S     HAL2     0.900000E-01   1.00800           0
       439 MEMB     4        POPE     C215     CTL2    -0.180000       12.0110           0
       440 MEMB     4        POPE     H15R     HAL2     0.900000E-01   1.00800           0
       441 MEMB     4        POPE     H15S     HAL2     0.900000E-01   1.00800           0
       442 MEMB     4        POPE     C216     CTL2    -0.180000       12.0110           0
       443 MEMB     4        POPE     H16R     HAL2     0.900000E-01   1.00800           0
       444 MEMB     4        POPE     H16S     HAL2     0.900000E-01   1.00800           0
       445 MEMB     4        POPE     C217     CTL2    -0.180000       12.0110           0
       446 MEMB     4        POPE     H17R     HAL2     0.900000E-01   1.00800           0
       447 MEMB     4        POPE     H17S     HAL2     0.900000E-01   1.00800           0
       448 MEMB     4        POPE     C218     CTL3    -0.270000       12.0110           0
       449 MEMB     4        POPE     H18R     HAL3     0.900000E-01   1.00800           0
       450 MEMB     4        POPE     H18S     HAL3     0.900000E-01   1.00800           0
       451 MEMB     4        POPE     H18T     HAL3     0.900000E-01   1.00800           0
       452 MEMB     4        POPE     C33      CTL2    -0.180000       12.0110           0
       453 MEMB     4        POPE     H3X      HAL2     0.900000E-01   1.00800           0
       454 MEMB     4        POPE     H3Y      HAL2     0.900000E-01   1.00800           0
       455 MEMB     4        POPE     C34      CTL2    -0.180000       12.0110           0
       456 MEMB     4        POPE     H4X      HAL2     0.900000E-01   1.00800           0
       457 MEMB     4        POPE     H4Y      HAL2     0.900000E-01   1.00800           0
       458 MEMB     4        POPE     C35      CTL2    -0.180000       12.0110           0
       459 MEMB     4        POPE     H5X      HAL2     0.900000E-01   1.00800           0
       460 MEMB     4        POPE     H5Y      HAL2     0.900000E-01   1.00800           0
       461 MEMB     4        POPE     C36      CTL2    -0.180000       12.0110           0
       462 MEMB     4        POPE     H6X      HAL2     0.900000E-01   1.00800           0
       463 MEMB     4        POPE     H6Y      HAL2     0.900000E-01   1.00800           0
       464 MEMB     4        POPE     C37      CTL2    -0.180000       12.0110           0
       465 MEMB     4        POPE     H7X      HAL2     0.900000E-01   1.00800           0
       466 MEMB     4        POPE     H7Y      HAL2     0.900000E-01   1.00800           0
       467 MEMB     4        POPE     C38      CTL2    -0.180000       12.0110           0
       468 MEMB     4        POPE     H8X      HAL2     0.900000E-01   1.00800           0
       469 MEMB     4        POPE     H8Y      HAL2     0.900000E-01   1.00800           0
       470 MEMB     4        POPE     C39      CTL2    -0.180000       12.0110           0
       471 MEMB     4        POPE     H9X      HAL2     0.900000E-01   1.00800           0
       472 MEMB     4        POPE     H9Y      HAL2     0.900000E-01   1.00800           0
       473 MEMB     4        POPE     C310     CTL2    -0.180000       12.0110           0
       474 MEMB     4        POPE     H10X     HAL2     0.900000E-01   1.00800           0
       475 MEMB     4        POPE     H10Y     HAL2     0.900000E-01   1.00800           0
       476 MEMB     4        POPE     C311     CTL2    -0.180000       12.0110           0
       477 MEMB     4        POPE     H11X     HAL2     0.900000E-01   1.00800           0
       478 MEMB     4        POPE     H11Y     HAL2     0.900000E-01   1.00800           0
       479 MEMB     4        POPE     C312     CTL2    -0.180000       12.0110           0
       480 MEMB     4        POPE     H12X     HAL2     0.900000E-01   1.00800           0
       481 MEMB     4        POPE     H12Y     HAL2     0.900000E-01   1.00800           0
       482 MEMB     4        POPE     C313     CTL2    -0.180000       12.0110           0
       483 MEMB     4        POPE     H13X     HAL2     0.900000E-01   1.00800           0
       484 MEMB     4        POPE     H13Y     HAL2     0.900000E-01   1.00800           0
       485 MEMB     4        POPE     C314     CTL2    -0.180000       12.0110           0
       486 MEMB     4        POPE     H14X     HAL2     0.900000E-01   1.00800           0
       487 MEMB     4        POPE     H14Y     HAL2     0.900000E-01   1.00800           0
       488 MEMB     4        POPE     C315     CTL2    -0.180000       12.0110           0
       489 MEMB     4        POPE     H15X     HAL2     0.900000E-01   1.00800           0
       490 MEMB     4        POPE     H15Y     HAL2     0.900000E-01   1.00800           0
       491 MEMB     4        POPE     C316     CTL3    -0.270000       12.0110           0
       492 MEMB     4        POPE     H16X     HAL3     0.900000E-01   1.00800           0
       493 MEMB     4        POPE     H16Y     HAL3     0.900000E-01   1.00800           0
       494 MEMB     4        POPE     H16Z     HAL3     0.900000E-01   1.00800           0
       495 MEMB     5        PMPE     N        NH3L    -0.300000       14.0070           0
       496 MEMB     5        PMPE     HN1      HCL      0.330000       1.00800           0
       497 MEMB     5        PMPE     HN2      HCL      0.330000       1.00800           0
       498 MEMB     5        PMPE     HN3      HCL      0.330000       1.00800           0
       499 MEMB     5        PMPE     C12      CTL2     0.130000       12.0110           0
       500 MEMB     5        PMPE     H12A     HAL2     0.900000E-01   1.00800           0
       501 MEMB     5        PMPE     H12B     HAL2     0.900000E-01   1.00800           0
       502 MEMB     5        PMPE     C11      CTL2    -0.800000E-01   12.0110           0
       503 MEMB     5        PMPE     H11A     HAL2     0.900000E-01   1.00800           0
       504 MEMB     5        PMPE     H11B     HAL2     0.900000E-01   1.00800           0
       505 MEMB     5        PMPE     P        PL        1.50000       30.9740           0
       506 MEMB     5        PMPE     O13      O2L     -0.780000       15.9994           0
       507 MEMB     5        PMPE     O14      O2L     -0.780000       15.9994           0
       508 MEMB     5        PMPE     O11      OSLP    -0.570000       15.9994           0
       509 MEMB     5        PMPE     O12      OSLP    -0.570000       15.9994           0
       510 MEMB     5        PMPE     C1       CTL2    -0.800000E-01   12.0110           0
       511 MEMB     5        PMPE     HA       HAL2     0.900000E-01   1.00800           0
       512 MEMB     5        PMPE     HB       HAL2     0.900000E-01   1.00800           0
       513 MEMB     5        PMPE     C2       CTL1     0.170000       12.0110           0
       514 MEMB     5        PMPE     HS       HAL1     0.900000E-01   1.00800           0
       515 MEMB     5        PMPE     O21      OSL     -0.490000       15.9994           0
       516 MEMB     5        PMPE     C21      CL       0.900000       12.0110           0
       517 MEMB     5        PMPE     O22      OBL     -0.630000       15.9994           0
       518 MEMB     5        PMPE     C22      CTL2    -0.220000       12.0110           0
       519 MEMB     5        PMPE     H2R      HAL2     0.900000E-01   1.00800           0
       520 MEMB     5        PMPE     H2S      HAL2     0.900000E-01   1.00800           0
       521 MEMB     5        PMPE     C3       CTL2     0.800000E-01   12.0110           0
       522 MEMB     5        PMPE     HX       HAL2     0.900000E-01   1.00800           0
       523 MEMB     5        PMPE     HY       HAL2     0.900000E-01   1.00800           0
       524 MEMB     5        PMPE     O31      OSL     -0.490000       15.9994           0
       525 MEMB     5        PMPE     C31      CL       0.900000       12.0110           0
       526 MEMB     5        PMPE     O32      OBL     -0.630000       15.9994           0
       527 MEMB     5        PMPE     C32      CTL2    -0.220000       12.0110           0
       528 MEMB     5        PMPE     H2X      HAL2     0.900000E-01   1.00800           0
       529 MEMB     5        PMPE     H2Y      HAL2     0.900000E-01   1.00800           0
       530 MEMB     5        PMPE     C23      CTL2    -0.180000       12.0110           0
       531 MEMB     5        PMPE     H3R      HAL2     0.900000E-01   1.00800           0
       532 MEMB     5        PMPE     H3S      HAL2     0.900000E-01   1.00800           0
       533 MEMB     5        PMPE     C24      CTL2    -0.180000       12.0110           0
       534 MEMB     5        PMPE     H4R      HAL2     0.900000E-01   1.00800           0
       535 MEMB     5        PMPE     H4S      HAL2     0.900000E-01   1.00800           0
       536 MEMB     5        PMPE     C25      CTL2    -0.180000       12.0110           0
       537 MEMB     5        PMPE     H5R      HAL2     0.900000E-01   1.00800           0
       538 MEMB     5        PMPE     H5S      HAL2     0.900000E-01   1.00800           0
       539 MEMB     5        PMPE     C26      CTL2    -0.180000       12.0110           0
       540 MEMB     5        PMPE     H6R      HAL2     0.900000E-01   1.00800           0
       541 MEMB     5        PMPE     H6S      HAL2     0.900000E-01   1.00800           0
       542 MEMB     5        PMPE     C27      CTL2    -0.180000       12.0110           0
       543 MEMB     5        PMPE     H7R      HAL2     0.900000E-01   1.00800           0
       544 MEMB     5        PMPE     H7S      HAL2     0.900000E-01   1.00800           0
       545 MEMB     5        PMPE     C28      CTL2    -0.180000       12.0110           0
       546 MEMB     5        PMPE     H8R      HAL2     0.900000E-01   1.00800           0
       547 MEMB     5        PMPE     H8S      HAL2     0.900000E-01   1.00800           0
       548 MEMB     5        PMPE     C29      CG3RC1  -0.900000E-01   12.0110           0
       549 MEMB     5        PMPE     H9R      HGA1     0.900000E-01   1.00800           0
       550 MEMB     5        PMPE     C217     CG3C31  -0.180000       12.0110           0
       551 MEMB     5        PMPE     H17R     HGA2     0.900000E-01   1.00800           0
       552 MEMB     5        PMPE     H17S     HGA2     0.900000E-01   1.00800           0
       553 MEMB     5        PMPE     C210     CG3RC1  -0.900000E-01   12.0110           0
       554 MEMB     5        PMPE     H10R     HGA1     0.900000E-01   1.00800           0
       555 MEMB     5        PMPE     C211     CTL2    -0.180000       12.0110           0
       556 MEMB     5        PMPE     H11R     HAL2     0.900000E-01   1.00800           0
       557 MEMB     5        PMPE     H11S     HAL2     0.900000E-01   1.00800           0
       558 MEMB     5        PMPE     C212     CTL2    -0.180000       12.0110           0
       559 MEMB     5        PMPE     H12R     HAL2     0.900000E-01   1.00800           0
       560 MEMB     5        PMPE     H12S     HAL2     0.900000E-01   1.00800           0
       561 MEMB     5        PMPE     C213     CTL2    -0.180000       12.0110           0
       562 MEMB     5        PMPE     H13R     HAL2     0.900000E-01   1.00800           0
       563 MEMB     5        PMPE     H13S     HAL2     0.900000E-01   1.00800           0
       564 MEMB     5        PMPE     C214     CTL2    -0.180000       12.0110           0
       565 MEMB     5        PMPE     H14R     HAL2     0.900000E-01   1.00800           0
       566 MEMB     5        PMPE     H14S     HAL2     0.900000E-01   1.00800           0
       567 MEMB     5        PMPE     C215     CTL2    -0.180000       12.0110           0
       568 MEMB     5        PMPE     H15R     HAL2     0.900000E-01   1.00800           0
       569 MEMB     5        PMPE     H15S     HAL2     0.900000E-01   1.00800           0
       570 MEMB     5        PMPE     C216     CTL3    -0.270000       12.0110           0
       571 MEMB     5        PMPE     H16R     HAL3     0.900000E-01   1.00800           0
       572 MEMB     5        PMPE     H16S     HAL3     0.900000E-01   1.00800           0
       573 MEMB     5        PMPE     H16T     HAL3     0.900000E-01   1.00800           0
       574 MEMB     5        PMPE     C33      CTL2    -0.180000       12.0110           0
       575 MEMB     5        PMPE     H3X      HAL2     0.900000E-01   1.00800           0
       576 MEMB     5        PMPE     H3Y      HAL2     0.900000E-01   1.00800           0
       577 MEMB     5        PMPE     C34      CTL2    -0.180000       12.0110           0
       578 MEMB     5        PMPE     H4X      HAL2     0.900000E-01   1.00800           0
       579 MEMB     5        PMPE     H4Y      HAL2     0.900000E-01   1.00800           0
       580 MEMB     5        PMPE     C35      CTL2    -0.180000       12.0110           0
       581 MEMB     5        PMPE     H5X      HAL2     0.900000E-01   1.00800           0
       582 MEMB     5        PMPE     H5Y      HAL2     0.900000E-01   1.00800           0
       583 MEMB     5        PMPE     C36      CTL2    -0.180000       12.0110           0
       584 MEMB     5        PMPE     H6X      HAL2     0.900000E-01   1.00800           0
       585 MEMB     5        PMPE     H6Y      HAL2     0.900000E-01   1.00800           0
       586 MEMB     5        PMPE     C37      CTL2    -0.180000       12.0110           0
       587 MEMB     5        PMPE     H7X      HAL2     0.900000E-01   1.00800           0
       588 MEMB     5        PMPE     H7Y      HAL2     0.900000E-01   1.00800           0
       589 MEMB     5        PMPE     C38      CTL2    -0.180000       12.0110           0
       590 MEMB     5        PMPE     H8X      HAL2     0.900000E-01   1.00800           0
       591 MEMB     5        PMPE     H8Y      HAL2     0.900000E-01   1.00800           0
       592 MEMB     5        PMPE     C39      CTL2    -0.180000       12.0110           0
       593 MEMB     5        PMPE     H9X      HAL2     0.900000E-01   1.00800           0
       594 MEMB     5        PMPE     H9Y      HAL2     0.900000E-01   1.00800           0
       595 MEMB     5        PMPE     C310     CTL2    -0.180000       12.0110           0
       596 MEMB     5        PMPE     H10X     HAL2     0.900000E-01   1.00800           0
       597 MEMB     5        PMPE     H10Y     HAL2     0.900000E-01   1.00800           0
       598 MEMB     5        PMPE     C311     CTL2    -0.180000       12.0110           0
       599 MEMB     5        PMPE     H11X     HAL2     0.900000E-01   1.00800           0
       600 MEMB     5        PMPE     H11Y     HAL2     0.900000E-01   1.00800           0
       601 MEMB     5        PMPE     C312     CTL2    -0.180000       12.0110           0
       602 MEMB     5        PMPE     H12X     HAL2     0.900000E-01   1.00800           0
       603 MEMB     5        PMPE     H12Y     HAL2     0.900000E-01   1.00800           0
       604 MEMB     5        PMPE     C313     CTL2    -0.180000       12.0110           0
       605 MEMB     5        PMPE     H13X     HAL2     0.900000E-01   1.00800           0
       606 MEMB     5        PMPE     H13Y     HAL2     0.900000E-01   1.00800           0
       607 MEMB     5        PMPE     C314     CTL2    -0.180000       12.0110           0
       608 MEMB     5        PMPE     H14X     HAL2     0.900000E-01   1.00800           0
       609 MEMB     5        PMPE     H14Y     HAL2     0.900000E-01   1.00800           0
       610 MEMB     5        PMPE     C315     CTL2    -0.180000       12.0110           0
       611 MEMB     5        PMPE     H15X     HAL2     0.900000E-01   1.00800           0
       612 MEMB     5        PMPE     H15Y     HAL2     0.900000E-01   1.00800           0
       613 MEMB     5        PMPE     C316     CTL3    -0.270000       12.0110           0
       614 MEMB     5        PMPE     H16X     HAL3     0.900000E-01   1.00800           0
       615 MEMB     5        PMPE     H16Y     HAL3     0.900000E-01   1.00800           0
       616 MEMB     5        PMPE     H16Z     HAL3     0.900000E-01   1.00800           0
       617 MEMB     6        POPE     N        NH3L    -0.300000       14.0070           0
       618 MEMB     6        POPE     HN1      HCL      0.330000       1.00800           0
       619 MEMB     6        POPE     HN2      HCL      0.330000       1.00800           0
       620 MEMB     6        POPE     HN3      HCL      0.330000       1.00800           0
       621 MEMB     6        POPE     C12      CTL2     0.130000       12.0110           0
       622 MEMB     6        POPE     H12A     HAL2     0.900000E-01   1.00800           0
       623 MEMB     6        POPE     H12B     HAL2     0.900000E-01   1.00800           0
       624 MEMB     6        POPE     C11      CTL2    -0.800000E-01   12.0110           0
       625 MEMB     6        POPE     H11A     HAL2     0.900000E-01   1.00800           0
       626 MEMB     6        POPE     H11B     HAL2     0.900000E-01   1.00800           0
       627 MEMB     6        POPE     P        PL        1.50000       30.9740           0
       628 MEMB     6        POPE     O13      O2L     -0.780000       15.9994           0
       629 MEMB     6        POPE     O14      O2L     -0.780000       15.9994           0
       630 MEMB     6        POPE     O11      OSLP    -0.570000       15.9994           0
       631 MEMB     6        POPE     O12      OSLP    -0.570000       15.9994           0
       632 MEMB     6        POPE     C1       CTL2    -0.800000E-01   12.0110           0
       633 MEMB     6        POPE     HA       HAL2     0.900000E-01   1.00800           0
       634 MEMB     6        POPE     HB       HAL2     0.900000E-01   1.00800           0
       635 MEMB     6        POPE     C2       CTL1     0.170000       12.0110           0
       636 MEMB     6        POPE     HS       HAL1     0.900000E-01   1.00800           0
       637 MEMB     6        POPE     O21      OSL     -0.490000       15.9994           0
       638 MEMB     6        POPE     C21      CL       0.900000       12.0110           0
       639 MEMB     6        POPE     O22      OBL     -0.630000       15.9994           0
       640 MEMB     6        POPE     C22      CTL2    -0.220000       12.0110           0
       641 MEMB     6        POPE     H2R      HAL2     0.900000E-01   1.00800           0
       642 MEMB     6        POPE     H2S      HAL2     0.900000E-01   1.00800           0
       643 MEMB     6        POPE     C3       CTL2     0.800000E-01   12.0110           0
       644 MEMB     6        POPE     HX       HAL2     0.900000E-01   1.00800           0
       645 MEMB     6        POPE     HY       HAL2     0.900000E-01   1.00800           0
       646 MEMB     6        POPE     O31      OSL     -0.490000       15.9994           0
       647 MEMB     6        POPE     C31      CL       0.900000       12.0110           0
       648 MEMB     6        POPE     O32      OBL     -0.630000       15.9994           0
       649 MEMB     6        POPE     C32      CTL2    -0.220000       12.0110           0
       650 MEMB     6        POPE     H2X      HAL2     0.900000E-01   1.00800           0
       651 MEMB     6        POPE     H2Y      HAL2     0.900000E-01   1.00800           0
       652 MEMB     6        POPE     C23      CTL2    -0.180000       12.0110           0
       653 MEMB     6        POPE     H3R      HAL2     0.900000E-01   1.00800           0
       654 MEMB     6        POPE     H3S      HAL2     0.900000E-01   1.00800           0
       655 MEMB     6        POPE     C24      CTL2    -0.180000       12.0110           0
       656 MEMB     6        POPE     H4R      HAL2     0.900000E-01   1.00800           0
       657 MEMB     6        POPE     H4S      HAL2     0.900000E-01   1.00800           0
       658 MEMB     6        POPE     C25      CTL2    -0.180000       12.0110           0
       659 MEMB     6        POPE     H5R      HAL2     0.900000E-01   1.00800           0
       660 MEMB     6        POPE     H5S      HAL2     0.900000E-01   1.00800           0
       661 MEMB     6        POPE     C26      CTL2    -0.180000       12.0110           0
       662 MEMB     6        POPE     H6R      HAL2     0.900000E-01   1.00800           0
       663 MEMB     6        POPE     H6S      HAL2     0.900000E-01   1.00800           0
       664 MEMB     6        POPE     C27      CTL2    -0.180000       12.0110           0
       665 MEMB     6        POPE     H7R      HAL2     0.900000E-01   1.00800           0
       666 MEMB     6        POPE     H7S      HAL2     0.900000E-01   1.00800           0
       667 MEMB     6        POPE     C28      CTL2    -0.180000       12.0110           0
       668 MEMB     6        POPE     H8R      HAL2     0.900000E-01   1.00800           0
       669 MEMB     6        POPE     H8S      HAL2     0.900000E-01   1.00800           0
       670 MEMB     6        POPE     C29      CEL1    -0.150000       12.0110           0
       671 MEMB     6        POPE     H91      HEL1     0.150000       1.00800           0
       672 MEMB     6        POPE     C210     CEL1    -0.150000       12.0110           0
       673 MEMB     6        POPE     H101     HEL1     0.150000       1.00800           0
       674 MEMB     6        POPE     C211     CTL2    -0.180000       12.0110           0
       675 MEMB     6        POPE     H11R     HAL2     0.900000E-01   1.00800           0
       676 MEMB     6        POPE     H11S     HAL2     0.900000E-01   1.00800           0
       677 MEMB     6        POPE     C212     CTL2    -0.180000       12.0110           0
       678 MEMB     6        POPE     H12R     HAL2     0.900000E-01   1.00800           0
       679 MEMB     6        POPE     H12S     HAL2     0.900000E-01   1.00800           0
       680 MEMB     6        POPE     C213     CTL2    -0.180000       12.0110           0
       681 MEMB     6        POPE     H13R     HAL2     0.900000E-01   1.00800           0
       682 MEMB     6        POPE     H13S     HAL2     0.900000E-01   1.00800           0
       683 MEMB     6        POPE     C214     CTL2    -0.180000       12.0110           0
       684 MEMB     6        POPE     H14R     HAL2     0.900000E-01   1.00800           0
       685 MEMB     6        POPE     H14S     HAL2     0.900000E-01   1.00800           0
       686 MEMB     6        POPE     C215     CTL2    -0.180000       12.0110           0
       687 MEMB     6        POPE     H15R     HAL2     0.900000E-01   1.00800           0
       688 MEMB     6        POPE     H15S     HAL2     0.900000E-01   1.00800           0
       689 MEMB     6        POPE     C216     CTL2    -0.180000       12.0110           0
       690 MEMB     6        POPE     H16R     HAL2     0.900000E-01   1.00800           0
       691 MEMB     6        POPE     H16S     HAL2     0.900000E-01   1.00800           0
       692 MEMB     6        POPE     C217     CTL2    -0.180000       12.0110           0
       693 MEMB     6        POPE     H17R     HAL2     0.900000E-01   1.00800           0
       694 MEMB     6        POPE     H17S     HAL2     0.900000E-01   1.00800           0
       695 MEMB     6        POPE     C218     CTL3    -0.270000       12.0110           0
       696 MEMB     6        POPE     H18R     HAL3     0.900000E-01   1.00800           0
       697 MEMB     6        POPE     H18S     HAL3     0.900000E-01   1.00800           0
       698 MEMB     6        POPE     H18T     HAL3     0.900000E-01   1.00800           0
       699 MEMB     6        POPE     C33      CTL2    -0.180000       12.0110           0
       700 MEMB     6        POPE     H3X      HAL2     0.900000E-01   1.00800           0
       701 MEMB     6        POPE     H3Y      HAL2     0.900000E-01   1.00800           0
       702 MEMB     6        POPE     C34      CTL2    -0.180000       12.0110           0
       703 MEMB     6        POPE     H4X      HAL2     0.900000E-01   1.00800           0
       704 MEMB     6        POPE     H4Y      HAL2     0.900000E-01   1.00800           0
       705 MEMB     6        POPE     C35      CTL2    -0.180000       12.0110           0
       706 MEMB     6        POPE     H5X      HAL2     0.900000E-01   1.00800           0
       707 MEMB     6        POPE     H5Y      HAL2     0.900000E-01   1.00800           0
       708 MEMB     6        POPE     C36      CTL2    -0.180000       12.0110           0
       709 MEMB     6        POPE     H6X      HAL2     0.900000E-01   1.00800           0
       710 MEMB     6        POPE     H6Y      HAL2     0.900000E-01   1.00800           0
       711 MEMB     6        POPE     C37      CTL2    -0.180000       12.0110           0
       712 MEMB     6        POPE     H7X      HAL2     0.900000E-01   1.00800           0
       713 MEMB     6        POPE     H7Y      HAL2     0.900000E-01   1.00800           0
       714 MEMB     6        POPE     C38      CTL2    -0.180000       12.0110           0
       715 MEMB     6        POPE     H8X      HAL2     0.900000E-01   1.00800           0
       716 MEMB     6        POPE     H8Y      HAL2     0.900000E-01   1.00800           0
       717 MEMB     6        POPE     C39      CTL2    -0.180000       12.0110           0
       718 MEMB     6        POPE     H9X      HAL2     0.900000E-01   1.00800           0
       719 MEMB     6        POPE     H9Y      HAL2     0.900000E-01   1.00800           0
       720 MEMB     6        POPE     C310     CTL2    -0.180000       12.0110           0
       721 MEMB     6        POPE     H10X     HAL2     0.900000E-01   1.00800           0
       722 MEMB     6        POPE     H10Y     HAL2     0.900000E-01   1.00800           0
       723 MEMB     6        POPE     C311     CTL2    -0.180000       12.0110           0
       724 MEMB     6        POPE     H11X     HAL2     0.900000E-01   1.00800           0
       725 MEMB     6        POPE     H11Y     HAL2     0.900000E-01   1.00800           0
       726 MEMB     6        POPE     C312     CTL2    -0.180000       12.0110           0
       727 MEMB     6        POPE     H12X     HAL2     0.900000E-01   1.00800           0
       728 MEMB     6        POPE     H12Y     HAL2     0.900000E-01   1.00800           0
       729 MEMB     6        POPE     C313     CTL2    -0.180000       12.0110           0
       730 MEMB     6        POPE     H13X     HAL2     0.900000E-01   1.00800           0
       731 MEMB     6        POPE     H13Y     HAL2     0.900000E-01   1.00800           0
       732 MEMB     6        POPE     C314     CTL2    -0.180000       12.0110           0
       733 MEMB     6        POPE     H14X     HAL2     0.900000E-01   1.00800           0
       734 MEMB     6        POPE     H14Y     HAL2     0.900000E-01   1.00800           0
       735 MEMB     6        POPE     C315     CTL2    -0.180000       12.0110           0
       736 MEMB     6        POPE     H15X     HAL2     0.900000E-01   1.00800           0
       737 MEMB     6        POPE     H15Y     HAL2     0.900000E-01   1.00800           0
       738 MEMB     6        POPE     C316     CTL3    -0.270000       12.0110           0
       739 MEMB     6        POPE     H16X     HAL3     0.900000E-01   1.00800           0
       740 MEMB     6        POPE     H16Y     HAL3     0.900000E-01   1.00800           0
       741 MEMB     6        POPE     H16Z     HAL3     0.900000E-01   1.00800           0
       742 MEMB     7        PMPE     N        NH3L    -0.300000       14.0070           0
       743 MEMB     7        PMPE     HN1      HCL      0.330000       1.00800           0
       744 MEMB     7        PMPE     HN2      HCL      0.330000       1.00800           0
       745 MEMB     7        PMPE     HN3      HCL      0.330000       1.00800           0
       746 MEMB     7        PMPE     C12      CTL2     0.130000       12.0110           0
       747 MEMB     7        PMPE     H12A     HAL2     0.900000E-01   1.00800           0
       748 MEMB     7        PMPE     H12B     HAL2     0.900000E-01   1.00800           0
       749 MEMB     7        PMPE     C11      CTL2    -0.800000E-01   12.0110           0
       750 MEMB     7        PMPE     H11A     HAL2     0.900000E-01   1.00800           0
       751 MEMB     7        PMPE     H11B     HAL2     0.900000E-01   1.00800           0
       752 MEMB     7        PMPE     P        PL        1.50000       30.9740           0
       753 MEMB     7        PMPE     O13      O2L     -0.780000       15.9994           0
       754 MEMB     7        PMPE     O14      O2L     -0.780000       15.9994           0
       755 MEMB     7        PMPE     O11      OSLP    -0.570000       15.9994           0
       756 MEMB     7        PMPE     O12      OSLP    -0.570000       15.9994           0
       757 MEMB     7        PMPE     C1       CTL2    -0.800000E-01   12.0110           0
       758 MEMB     7        PMPE     HA       HAL2     0.900000E-01   1.00800           0
       759 MEMB     7        PMPE     HB       HAL2     0.900000E-01   1.00800           0
       760 MEMB     7        PMPE     C2       CTL1     0.170000       12.0110           0
       761 MEMB     7        PMPE     HS       HAL1     0.900000E-01   1.00800           0
       762 MEMB     7        PMPE     O21      OSL     -0.490000       15.9994           0
       763 MEMB     7        PMPE     C21      CL       0.900000       12.0110           0
       764 MEMB     7        PMPE     O22      OBL     -0.630000       15.9994           0
       765 MEMB     7        PMPE     C22      CTL2    -0.220000       12.0110           0
       766 MEMB     7        PMPE     H2R      HAL2     0.900000E-01   1.00800           0
       767 MEMB     7        PMPE     H2S      HAL2     0.900000E-01   1.00800           0
       768 MEMB     7        PMPE     C3       CTL2     0.800000E-01   12.0110           0
       769 MEMB     7        PMPE     HX       HAL2     0.900000E-01   1.00800           0
       770 MEMB     7        PMPE     HY       HAL2     0.900000E-01   1.00800           0
       771 MEMB     7        PMPE     O31      OSL     -0.490000       15.9994           0
       772 MEMB     7        PMPE     C31      CL       0.900000       12.0110           0
       773 MEMB     7        PMPE     O32      OBL     -0.630000       15.9994           0
       774 MEMB     7        PMPE     C32      CTL2    -0.220000       12.0110           0
       775 MEMB     7        PMPE     H2X      HAL2     0.900000E-01   1.00800           0
       776 MEMB     7        PMPE     H2Y      HAL2     0.900000E-01   1.00800           0
       777 MEMB     7        PMPE     C23      CTL2    -0.180000       12.0110           0
       778 MEMB     7        PMPE     H3R      HAL2     0.900000E-01   1.00800           0
       779 MEMB     7        PMPE     H3S      HAL2     0.900000E-01   1.00800           0
       780 MEMB     7        PMPE     C24      CTL2    -0.180000       12.0110           0
       781 MEMB     7        PMPE     H4R      HAL2     0.900000E-01   1.00800           0
       782 MEMB     7        PMPE     H4S      HAL2     0.900000E-01   1.00800           0
       783 MEMB     7        PMPE     C25      CTL2    -0.180000       12.0110           0
       784 MEMB     7        PMPE     H5R      HAL2     0.900000E-01   1.00800           0
       785 MEMB     7        PMPE     H5S      HAL2     0.900000E-01   1.00800           0
       786 MEMB     7        PMPE     C26      CTL2    -0.180000       12.0110           0
       787 MEMB     7        PMPE     H6R      HAL2     0.900000E-01   1.00800           0
       788 MEMB     7        PMPE     H6S      HAL2     0.900000E-01   1.00800           0
       789 MEMB     7        PMPE     C27      CTL2    -0.180000       12.0110           0
       790 MEMB     7        PMPE     H7R      HAL2     0.900000E-01   1.00800           0
       791 MEMB     7        PMPE     H7S      HAL2     0.900000E-01   1.00800           0
       792 MEMB     7        PMPE     C28      CTL2    -0.180000       12.0110           0
       793 MEMB     7        PMPE     H8R      HAL2     0.900000E-01   1.00800           0
       794 MEMB     7        PMPE     H8S      HAL2     0.900000E-01   1.00800           0
       795 MEMB     7        PMPE     C29      CG3RC1  -0.900000E-01   12.0110           0
       796 MEMB     7        PMPE     H9R      HGA1     0.900000E-01   1.00800           0
       797 MEMB     7        PMPE     C217     CG3C31  -0.180000       12.0110           0
       798 MEMB     7        PMPE     H17R     HGA2     0.900000E-01   1.00800           0
       799 MEMB     7        PMPE     H17S     HGA2     0.900000E-01   1.00800           0
       800 MEMB     7        PMPE     C210     CG3RC1  -0.900000E-01   12.0110           0
       801 MEMB     7        PMPE     H10R     HGA1     0.900000E-01   1.00800           0
       802 MEMB     7        PMPE     C211     CTL2    -0.180000       12.0110           0
       803 MEMB     7        PMPE     H11R     HAL2     0.900000E-01   1.00800           0
       804 MEMB     7        PMPE     H11S     HAL2     0.900000E-01   1.00800           0
       805 MEMB     7        PMPE     C212     CTL2    -0.180000       12.0110           0
       806 MEMB     7        PMPE     H12R     HAL2     0.900000E-01   1.00800           0
       807 MEMB     7        PMPE     H12S     HAL2     0.900000E-01   1.00800           0
       808 MEMB     7        PMPE     C213     CTL2    -0.180000       12.0110           0
       809 MEMB     7        PMPE     H13R     HAL2     0.900000E-01   1.00800           0
       810 MEMB     7        PMPE     H13S     HAL2     0.900000E-01   1.00800           0
       811 MEMB     7        PMPE     C214     CTL2    -0.180000       12.0110           0
       812 MEMB     7        PMPE     H14R     HAL2     0.900000E-01   1.00800           0
       813 MEMB     7        PMPE     H14S     HAL2     0.900000E-01   1.00800           0
       814 MEMB     7        PMPE     C215     CTL2    -0.180000       12.0110           0
       815 MEMB     7        PMPE     H15R     HAL2     0.900000E-01   1.00800           0
       816 MEMB     7        PMPE     H15S     HAL2     0.900000E-01   1.00800           0
       817 MEMB     7        PMPE     C216     CTL3    -0.270000       12.0110           0
       818 MEMB     7        PMPE     H16R     HAL3     0.900000E-01   1.00800           0
       819 MEMB     7        PMPE     H16S     HAL3     0.900000E-01   1.00800           0
       820 MEMB     7        PMPE     H16T     HAL3     0.900000E-01   1.00800           0
       821 MEMB     7        PMPE     C33      CTL2    -0.180000       12.0110           0
       822 MEMB     7        PMPE     H3X      HAL2     0.900000E-01   1.00800           0
       823 MEMB     7        PMPE     H3Y      HAL2     0.900000E-01   1.00800           0
       824 MEMB     7        PMPE     C34      CTL2    -0.180000       12.0110           0
       825 MEMB     7        PMPE     H4X      HAL2     0.900000E-01   1.00800           0
       826 MEMB     7        PMPE     H4Y      HAL2     0.900000E-01   1.00800           0
       827 MEMB     7        PMPE     C35      CTL2    -0.180000       12.0110           0
       828 MEMB     7        PMPE     H5X      HAL2     0.900000E-01   1.00800           0
       829 MEMB     7        PMPE     H5Y      HAL2     0.900000E-01   1.00800           0
       830 MEMB     7        PMPE     C36      CTL2    -0.180000       12.0110           0
       831 MEMB     7        PMPE     H6X      HAL2     0.900000E-01   1.00800           0
       832 MEMB     7        PMPE     H6Y      HAL2     0.900000E-01   1.00800           0
       833 MEMB     7        PMPE     C37      CTL2    -0.180000       12.0110           0
       834 MEMB     7        PMPE     H7X      HAL2     0.900000E-01   1.00800           0
       835 MEMB     7        PMPE     H7Y      HAL2     0.900000E-01   1.00800           0
       836 MEMB     7        PMPE     C38      CTL2    -0.180000       12.0110           0
       837 MEMB     7        PMPE     H8X      HAL2     0.900000E-01   1.00800           0
       838 MEMB     7        PMPE     H8Y      HAL2     0.900000E-01   1.00800           0
       839 MEMB     7        PMPE     C39      CTL2    -0.180000       12.0110           0
       840 MEMB     7        PMPE     H9X      HAL2     0.900000E-01   1.00800           0
       841 MEMB     7        PMPE     H9Y      HAL2     0.900000E-01   1.00800           0
       842 MEMB     7        PMPE     C310     CTL2    -0.180000       12.0110           0
       843 MEMB     7        PMPE     H10X     HAL2     0.900000E-01   1.00800           0
       844 MEMB     7        PMPE     H10Y     HAL2     0.900000E-01   1.00800           0
       845 MEMB     7        PMPE     C311     CTL2    -0.180000       12.0110           0
       846 MEMB     7        PMPE     H11X     HAL2     0.900000E-01   1.00800           0
       847 MEMB     7        PMPE     H11Y     HAL2     0.900000E-01   1.00800           0
       848 MEMB     7        PMPE     C312     CTL2    -0.180000       12.0110           0
       849 MEMB     7        PMPE     H12X     HAL2     0.900000E-01   1.00800           0
       850 MEMB     7        PMPE     H12Y     HAL2     0.900000E-01   1.00800           0
       851 MEMB     7        PMPE     C313     CTL2    -0.180000       12.0110           0
       852 MEMB     7        PMPE     H13X     HAL2     0.900000E-01   1.00800           0
       853 MEMB     7        PMPE     H13Y     HAL2     0.900000E-01   1.00800           0
       854 MEMB     7        PMPE     C314     CTL2    -0.180000       12.0110           0
       855 MEMB     7        PMPE     H14X     HAL2     0.900000E-01   1.00800           0
       856 MEMB     7        PMPE     H14Y     HAL2     0.900000E-01   1.00800           0
       857 MEMB     7        PMPE     C315     CTL2    -0.180000       12.0110           0
       858 MEMB     7        PMPE     H15X     HAL2     0.900000E-01   1.00800           0
       859 MEMB     7        PMPE     H15Y     HAL2     0.900000E-01   1.00800           0
       860 MEMB     7        PMPE     C316     CTL3    -0.270000       12.0110           0
       861 MEMB     7        PMPE     H16X     HAL3     0.900000E-01   1.00800           0
       862 MEMB     7        PMPE     H16Y     HAL3     0.900000E-01   1.00800           0
       863 MEMB     7        PMPE     H16Z     HAL3     0.900000E-01   1.00800           0
       864 MEMB     8        PMPE     N        NH3L    -0.300000       14.0070           0
       865 MEMB     8        PMPE     HN1      HCL      0.330000       1.00800           0
       866 MEMB     8        PMPE     HN2      HCL      0.330000       1.00800           0
       867 MEMB     8        PMPE     HN3      HCL      0.330000       1.00800           0
       868 MEMB     8        PMPE     C12      CTL2     0.130000       12.0110           0
       869 MEMB     8        PMPE     H12A     HAL2     0.900000E-01   1.00800           0
       870 MEMB     8        PMPE     H12B     HAL2     0.900000E-01   1.00800           0
       871 MEMB     8        PMPE     C11      CTL2    -0.800000E-01   12.0110           0
       872 MEMB     8        PMPE     H11A     HAL2     0.900000E-01   1.00800           0
       873 MEMB     8        PMPE     H11B     HAL2     0.900000E-01   1.00800           0
       874 MEMB     8        PMPE     P        PL        1.50000       30.9740           0
       875 MEMB     8        PMPE     O13      O2L     -0.780000       15.9994           0
       876 MEMB     8        PMPE     O14      O2L     -0.780000       15.9994           0
       877 MEMB     8        PMPE     O11      OSLP    -0.570000       15.9994           0
       878 MEMB     8        PMPE     O12      OSLP    -0.570000       15.9994           0
       879 MEMB     8        PMPE     C1       CTL2    -0.800000E-01   12.0110           0
       880 MEMB     8        PMPE     HA       HAL2     0.900000E-01   1.00800           0
       881 MEMB     8        PMPE     HB       HAL2     0.900000E-01   1.00800           0
       882 MEMB     8        PMPE     C2       CTL1     0.170000       12.0110           0
       883 MEMB     8        PMPE     HS       HAL1     0.900000E-01   1.00800           0
       884 MEMB     8        PMPE     O21      OSL     -0.490000       15.9994           0
       885 MEMB     8        PMPE     C21      CL       0.900000       12.0110           0
       886 MEMB     8        PMPE     O22      OBL     -0.630000       15.9994           0
       887 MEMB     8        PMPE     C22      CTL2    -0.220000       12.0110           0
       888 MEMB     8        PMPE     H2R      HAL2     0.900000E-01   1.00800           0
       889 MEMB     8        PMPE     H2S      HAL2     0.900000E-01   1.00800           0
       890 MEMB     8        PMPE     C3       CTL2     0.800000E-01   12.0110           0
       891 MEMB     8        PMPE     HX       HAL2     0.900000E-01   1.00800           0
       892 MEMB     8        PMPE     HY       HAL2     0.900000E-01   1.00800           0
       893 MEMB     8        PMPE     O31      OSL     -0.490000       15.9994           0
       894 MEMB     8        PMPE     C31      CL       0.900000       12.0110           0
       895 MEMB     8        PMPE     O32      OBL     -0.630000       15.9994           0
       896 MEMB     8        PMPE     C32      CTL2    -0.220000       12.0110           0
       897 MEMB     8        PMPE     H2X      HAL2     0.900000E-01   1.00800           0
       898 MEMB     8        PMPE     H2Y      HAL2     0.900000E-01   1.00800           0
       899 MEMB     8        PMPE     C23      CTL2    -0.180000       12.0110           0
       900 MEMB     8        PMPE     H3R      HAL2     0.900000E-01   1.00800           0
       901 MEMB     8        PMPE     H3S      HAL2     0.900000E-01   1.00800           0
       902 MEMB     8        PMPE     C24      CTL2    -0.180000       12.0110           0
       903 MEMB     8        PMPE     H4R      HAL2     0.900000E-01   1.00800           0
       904 MEMB     8        PMPE     H4S      HAL2     0.900000E-01   1.00800           0
       905 MEMB     8        PMPE     C25      CTL2    -0.180000       12.0110           0
       906 MEMB     8        PMPE     H5R      HAL2     0.900000E-01   1.00800           0
       907 MEMB     8        PMPE     H5S      HAL2     0.900000E-01   1.00800           0
       908 MEMB     8        PMPE     C26      CTL2    -0.180000       12.0110           0
       909 MEMB     8        PMPE     H6R      HAL2     0.900000E-01   1.00800           0
       910 MEMB     8        PMPE     H6S      HAL2     0.900000E-01   1.00800           0
       911 MEMB     8        PMPE     C27      CTL2    -0.180000       12.0110           0
       912 MEMB     8        PMPE     H7R      HAL2     0.900000E-01   1.00800           0
       913 MEMB     8        PMPE     H7S      HAL2     0.900000E-01   1.00800           0
       914 MEMB     8        PMPE     C28      CTL2    -0.180000       12.0110           0
       915 MEMB     8        PMPE     H8R      HAL2     0.900000E-01   1.00800           0
       916 MEMB     8        PMPE     H8S      HAL2     0.900000E-01   1.00800           0
       917 MEMB     8        PMPE     C29      CG3RC1  -0.900000E-01   12.0110           0
       918 MEMB     8        PMPE     H9R      HGA1     0.900000E-01   1.00800           0
       919 MEMB     8        PMPE     C217     CG3C31  -0.180000       12.0110           0
       920 MEMB     8        PMPE     H17R     HGA2     0.900000E-01   1.00800           0
       921 MEMB     8        PMPE     H17S     HGA2     0.900000E-01   1.00800           0
       922 MEMB     8        PMPE     C210     CG3RC1  -0.900000E-01   12.0110           0
       923 MEMB     8        PMPE     H10R     HGA1     0.900000E-01   1.00800           0
       924 MEMB     8        PMPE     C211     CTL2    -0.180000       12.0110           0
       925 MEMB     8        PMPE     H11R     HAL2     0.900000E-01   1.00800           0
       926 MEMB     8        PMPE     H11S     HAL2     0.900000E-01   1.00800           0
       927 MEMB     8        PMPE     C212     CTL2    -0.180000       12.0110           0
       928 MEMB     8        PMPE     H12R     HAL2     0.900000E-01   1.00800           0
       929 MEMB     8        PMPE     H12S     HAL2     0.900000E-01   1.00800           0
       930 MEMB     8        PMPE     C213     CTL2    -0.180000       12.0110           0
       931 MEMB     8        PMPE     H13R     HAL2     0.900000E-01   1.00800           0
       932 MEMB     8        PMPE     H13S     HAL2     0.900000E-01   1.00800           0
       933 MEMB     8        PMPE     C214     CTL2    -0.180000       12.0110           0
       934 MEMB     8        PMPE     H14R     HAL2     0.900000E-01   1.00800           0
       935 MEMB     8        PMPE     H14S     HAL2     0.900000E-01   1.00800           0
       936 MEMB     8        PMPE     C215     CTL2    -0.180000       12.0110           0
       937 MEMB     8        PMPE     H15R     HAL2     0.900000E-01   1.00800           0
       938 MEMB     8        PMPE     H15S     HAL2     0.900000E-01   1.00800           0
       939 MEMB     8        PMPE     C216     CTL3    -0.270000       12.0110           0
       940 MEMB     8        PMPE     H16R     HAL3     0.900000E-01   1.00800           0
       941 MEMB     8        PMPE     H16S     HAL3     0.900000E-01   1.00800           0
       942 MEMB     8        PMPE     H16T     HAL3     0.900000E-01   1.00800           0
       943 MEMB     8        PMPE     C33      CTL2    -0.180000       12.0110           0
       944 MEMB     8        PMPE     H3X      HAL2     0.900000E-01   1.00800           0
       945 MEMB     8        PMPE     H3Y      HAL2     0.900000E-01   1.00800           0
       946 MEMB     8        PMPE     C34      CTL2    -0.180000       12.0110           0
       947 MEMB     8        PMPE     H4X      HAL2     0.900000E-01   1.00800           0
       948 MEMB     8        PMPE     H4Y      HAL2     0.900000E-01   1.00800           0
       949 MEMB     8        PMPE     C35      CTL2    -0.180000       12.0110           0
       950 MEMB     8        PMPE     H5X      HAL2     0.900000E-01   1.00800           0
       951 MEMB     8        PMPE     H5Y      HAL2     0.900000E-01   1.00800           0
       952 MEMB     8        PMPE     C36      CTL2    -0.180000       12.0110           0
       953 MEMB     8        PMPE     H6X      HAL2     0.900000E-01   1.00800           0
       954 MEMB     8        PMPE     H6Y      HAL2     0.900000E-01   1.00800           0
       955 MEMB     8        PMPE     C37      CTL2    -0.180000       12.0110           0
       956 MEMB     8        PMPE     H7X      HAL2     0.900000E-01   1.00800           0
       957 MEMB     8        PMPE     H7Y      HAL2     0.900000E-01   1.00800           0
       958 MEMB     8        PMPE     C38      CTL2    -0.180000       12.0110           0
       959 MEMB     8        PMPE     H8X      HAL2     0.900000E-01   1.00800           0
       960 MEMB     8        PMPE     H8Y      HAL2     0.900000E-01   1.00800           0
       961 MEMB     8        PMPE     C39      CTL2    -0.180000       12.0110           0
       962 MEMB     8        PMPE     H9X      HAL2     0.900000E-01   1.00800           0
       963 MEMB     8        PMPE     H9Y      HAL2     0.900000E-01   1.00800           0
       964 MEMB     8        PMPE     C310     CTL2    -0.180000       12.0110           0
       965 MEMB     8        PMPE     H10X     HAL2     0.900000E-01   1.00800           0
       966 MEMB     8        PMPE     H10Y     HAL2     0.900000E-01   1.00800           0
       967 MEMB     8        PMPE     C311     CTL2    -0.180000       12.0110           0
       968 MEMB     8        PMPE     H11X     HAL2     0.900000E-01   1.00800           0
       969 MEMB     8        PMPE     H11Y     HAL2     0.900000E-01   1.00800           0
       970 MEMB     8        PMPE     C312     CTL2    -0.180000       12.0110           0
       971 MEMB     8        PMPE     H12X     HAL2     0.900000E-01   1.00800           0
       972 MEMB     8        PMPE     H12Y     HAL2     0.900000E-01   1.00800           0
       973 MEMB     8        PMPE     C313     CTL2    -0.180000       12.0110           0
       974 MEMB     8        PMPE     H13X     HAL2     0.900000E-01   1.00800           0
       975 MEMB     8        PMPE     H13Y     HAL2     0.900000E-01   1.00800           0
       976 MEMB     8        PMPE     C314     CTL2    -0.180000       12.0110           0
       977 MEMB     8        PMPE     H14X     HAL2     0.900000E-01   1.00800           0
       978 MEMB     8        PMPE     H14Y     HAL2     0.900000E-01   1.00800           0
       979 MEMB     8        PMPE     C315     CTL2    -0.180000       12.0110           0
       980 MEMB     8        PMPE     H15X     HAL2     0.900000E-01   1.00800           0
       981 MEMB     8        PMPE     H15Y     HAL2     0.900000E-01   1.00800           0
       982 MEMB     8        PMPE     C316     CTL3    -0.270000       12.0110           0
       983 MEMB     8        PMPE     H16X     HAL3     0.900000E-01   1.00800           0
       984 MEMB     8        PMPE     H16Y     HAL3     0.900000E-01   1.00800           0
       985 MEMB     8        PMPE     H16Z     HAL3     0.900000E-01   1.00800           0
       986 MEMB     9        PMPE     N        NH3L    -0.300000       14.0070           0
       987 MEMB     9        PMPE     HN1      HCL      0.330000       1.00800           0
       988 MEMB     9        PMPE     HN2      HCL      0.330000       1.00800           0
       989 MEMB     9        PMPE     HN3      HCL      0.330000       1.00800           0
       990 MEMB     9        PMPE     C12      CTL2     0.130000       12.0110           0
       991 MEMB     9        PMPE     H12A     HAL2     0.900000E-01   1.00800           0
       992 MEMB     9        PMPE     H12B     HAL2     0.900000E-01   1.00800           0
       993 MEMB     9        PMPE     C11      CTL2    -0.800000E-01   12.0110           0
       994 MEMB     9        PMPE     H11A     HAL2     0.900000E-01   1.00800           0
       995 MEMB     9        PMPE     H11B     HAL2     0.900000E-01   1.00800           0
       996 MEMB     9        PMPE     P        PL        1.50000       30.9740           0
       997 MEMB     9        PMPE     O13      O2L     -0.780000       15.9994           0
       998 MEMB     9        PMPE     O14      O2L     -0.780000       15.9994           0
       999 MEMB     9        PMPE     O11      OSLP    -0.570000       15.9994           0
      1000 MEMB     9        PMPE     O12      OSLP    -0.570000       15.9994           0
      1001 MEMB     9        PMPE     C1       CTL2    -0.800000E-01   12.0110           0
      1002 MEMB     9        PMPE     HA       HAL2     0.900000E-01   1.00800           0
      1003 MEMB     9        PMPE     HB       HAL2     0.900000E-01   1.00800           0
      1004 MEMB     9        PMPE     C2       CTL1     0.170000       12.0110           0
      1005 MEMB     9        PMPE     HS       HAL1     0.900000E-01   1.00800           0
      1006 MEMB     9        PMPE     O21      OSL     -0.490000       15.9994           0
      1007 MEMB     9        PMPE     C21      CL       0.900000       12.0110           0
      1008 MEMB     9        PMPE     O22      OBL     -0.630000       15.9994           0
      1009 MEMB     9        PMPE     C22      CTL2    -0.220000       12.0110           0
      1010 MEMB     9        PMPE     H2R      HAL2     0.900000E-01   1.00800           0
      1011 MEMB     9        PMPE     H2S      HAL2     0.900000E-01   1.00800           0
      1012 MEMB     9        PMPE     C3       CTL2     0.800000E-01   12.0110           0
      1013 MEMB     9        PMPE     HX       HAL2     0.900000E-01   1.00800           0
      1014 MEMB     9        PMPE     HY       HAL2     0.900000E-01   1.00800           0
      1015 MEMB     9        PMPE     O31      OSL     -0.490000       15.9994           0
      1016 MEMB     9        PMPE     C31      CL       0.900000       12.0110           0
      1017 MEMB     9        PMPE     O32      OBL     -0.630000       15.9994           0
      1018 MEMB     9        PMPE     C32      CTL2    -0.220000       12.0110           0
      1019 MEMB     9        PMPE     H2X      HAL2     0.900000E-01   1.00800           0
      1020 MEMB     9        PMPE     H2Y      HAL2     0.900000E-01   1.00800           0
      1021 MEMB     9        PMPE     C23      CTL2    -0.180000       12.0110           0
      1022 MEMB     9        PMPE     H3R      HAL2     0.900000E-01   1.00800           0
      1023 MEMB     9        PMPE     H3S      HAL2     0.900000E-01   1.00800           0
      1024 MEMB     9        PMPE     C24      CTL2    -0.180000       12.0110           0
      1025 MEMB     9        PMPE     H4R      HAL2     0.900000E-01   1.00800           0
      1026 MEMB     9        PMPE     H4S      HAL2     0.900000E-01   1.00800           0
      1027 MEMB     9        PMPE     C25      CTL2    -0.180000       12.0110           0
      1028 MEMB     9        PMPE     H5R      HAL2     0.900000E-01   1.00800           0
      1029 MEMB     9        PMPE     H5S      HAL2     0.900000E-01   1.00800           0
      1030 MEMB     9        PMPE     C26      CTL2    -0.180000       12.0110           0
      1031 MEMB     9        PMPE     H6R      HAL2     0.900000E-01   1.00800           0
      1032 MEMB     9        PMPE     H6S      HAL2     0.900000E-01   1.00800           0
      1033 MEMB     9        PMPE     C27      CTL2    -0.180000       12.0110           0
      1034 MEMB     9        PMPE     H7R      HAL2     0.900000E-01   1.00800           0
      1035 MEMB     9        PMPE     H7S      HAL2     0.900000E-01   1.00800           0
      1036 MEMB     9        PMPE     C28      CTL2    -0.180000       12.0110           0
      1037 MEMB     9        PMPE     H8R      HAL2     0.900000E-01   1.00800           0
      1038 MEMB     9        PMPE     H8S      HAL2     0.900000E-01   1.00800           0
      1039 MEMB     9        PMPE     C29      CG3RC1  -0.900000E-01   12.0110           0
      1040 MEMB     9        PMPE     H9R      HGA1     0.900000E-01   1.00800           0
      1041 MEMB     9        PMPE     C217     CG3C31  -0.180000       12.0110           0
      1042 MEMB     9        PMPE     H17R     HGA2     0.900000E-01   1.00800           0
      1043 MEMB     9        PMPE     H17S     HGA2     0.900000E-01   1.00800           0
      1044 MEMB     9        PMPE     C210     CG3RC1  -0.900000E-01   12.0110           0
      1045 MEMB     9        PMPE     H10R     HGA1     0.900000E-01   1.00800           0
      1046 MEMB     9        PMPE     C211     CTL2    -0.180000       12.0110           0
      1047 MEMB     9        PMPE     H11R     HAL2     0.900000E-01   1.00800           0
      1048 MEMB     9        PMPE     H11S     HAL2     0.900000E-01   1.00800           0
      1049 MEMB     9        PMPE     C212     CTL2    -0.180000       12.0110           0
      1050 MEMB     9        PMPE     H12R     HAL2     0.900000E-01   1.00800           0
      1051 MEMB     9        PMPE     H12S     HAL2     0.900000E-01   1.00800           0
      1052 MEMB     9        PMPE     C213     CTL2    -0.180000       12.0110           0
      1053 MEMB     9        PMPE     H13R     HAL2     0.900000E-01   1.00800           0
      1054 MEMB     9        PMPE     H13S     HAL2     0.900000E-01   1.00800           0
      1055 MEMB     9        PMPE     C214     CTL2    -0.180000       12.0110           0
      1056 MEMB     9        PMPE     H14R     HAL2     0.900000E-01   1.00800           0
      1057 MEMB     9        PMPE     H14S     HAL2     0.900000E-01   1.00800           0
      1058 MEMB     9        PMPE     C215     CTL2    -0.180000       12.0110           0
      1059 MEMB     9        PMPE     H15R     HAL2     0.900000E-01   1.00800           0
      1060 MEMB     9        PMPE     H15S     HAL2     0.900000E-01   1.00800           0
      1061 MEMB     9        PMPE     C216     CTL3    -0.270000       12.0110           0
      1062 MEMB     9        PMPE     H16R     HAL3     0.900000E-01   1.00800           0
      1063 MEMB     9        PMPE     H16S     HAL3     0.900000E-01   1.00800           0
      1064 MEMB     9        PMPE     H16T     HAL3     0.900000E-01   1.00800           0
      1065 MEMB     9        PMPE     C33      CTL2    -0.180000       12.0110           0
      1066 MEMB     9        PMPE     H3X      HAL2     0.900000E-01   1.00800           0
      1067 MEMB     9        PMPE     H3Y      HAL2     0.900000E-01   1.00800           0
      1068 MEMB     9        PMPE     C34      CTL2    -0.180000       12.0110           0
      1069 MEMB     9        PMPE     H4X      HAL2     0.900000E-01   1.00800           0
      1070 MEMB     9        PMPE     H4Y      HAL2     0.900000E-01   1.00800           0
      1071 MEMB     9        PMPE     C35      CTL2    -0.180000       12.0110           0
      1072 MEMB     9        PMPE     H5X      HAL2     0.900000E-01   1.00800           0
      1073 MEMB     9        PMPE     H5Y      HAL2     0.900000E-01   1.00800           0
      1074 MEMB     9        PMPE     C36      CTL2    -0.180000       12.0110           0
      1075 MEMB     9        PMPE     H6X      HAL2     0.900000E-01   1.00800           0
      1076 MEMB     9        PMPE     H6Y      HAL2     0.900000E-01   1.00800           0
      1077 MEMB     9        PMPE     C37      CTL2    -0.180000       12.0110           0
      1078 MEMB     9        PMPE     H7X      HAL2     0.900000E-01   1.00800           0
      1079 MEMB     9        PMPE     H7Y      HAL2     0.900000E-01   1.00800           0
      1080 MEMB     9        PMPE     C38      CTL2    -0.180000       12.0110           0
      1081 MEMB     9        PMPE     H8X      HAL2     0.900000E-01   1.00800           0
      1082 MEMB     9        PMPE     H8Y      HAL2     0.900000E-01   1.00800           0
      1083 MEMB     9        PMPE     C39      CTL2    -0.180000       12.0110           0
      1084 MEMB     9        PMPE     H9X      HAL2     0.900000E-01   1.00800           0
      1085 MEMB     9        PMPE     H9Y      HAL2     0.900000E-01   1.00800           0
      1086 MEMB     9        PMPE     C310     CTL2    -0.180000       12.0110           0
      1087 MEMB     9        PMPE     H10X     HAL2     0.900000E-01   1.00800           0
      1088 MEMB     9        PMPE     H10Y     HAL2     0.900000E-01   1.00800           0
      1089 MEMB     9        PMPE     C311     CTL2    -0.180000       12.0110           0
      1090 MEMB     9        PMPE     H11X     HAL2     0.900000E-01   1.00800           0
      1091 MEMB     9        PMPE     H11Y     HAL2     0.900000E-01   1.00800           0
      1092 MEMB     9        PMPE     C312     CTL2    -0.180000       12.0110           0
      1093 MEMB     9        PMPE     H12X     HAL2     0.900000E-01   1.00800           0
      1094 MEMB     9        PMPE     H12Y     HAL2     0.900000E-01   1.00800           0
      1095 MEMB     9        PMPE     C313     CTL2    -0.180000       12.0110           0
      1096 MEMB     9        PMPE     H13X     HAL2     0.900000E-01   1.00800           0
      1097 MEMB     9        PMPE     H13Y     HAL2     0.900000E-01   1.00800           0
      1098 MEMB     9        PMPE     C314     CTL2    -0.180000       12.0110           0
      1099 MEMB     9        PMPE     H14X     HAL2     0.900000E-01   1.00800           0
      1100 MEMB     9        PMPE     H14Y     HAL2     0.900000E-01   1.00800           0
      1101 MEMB     9        PMPE     C315     CTL2    -0.180000       12.0110           0
      1102 MEMB     9        PMPE     H15X     HAL2     0.900000E-01   1.00800           0
      1103 MEMB     9        PMPE     H15Y     HAL2     0.900000E-01   1.00800           0
      1104 MEMB     9        PMPE     C316     CTL3    -0.270000       12.0110           0
      1105 MEMB     9        PMPE     H16X     HAL3     0.900000E-01   1.00800           0
      1106 MEMB     9        PMPE     H16Y     HAL3     0.900000E-01   1.00800           0
      1107 MEMB     9        PMPE     H16Z     HAL3     0.900000E-01   1.00800           0
      1108 MEMB     10       PMPG     C13      CTL2     0.500000E-01   12.0110           0
      1109 MEMB     10       PMPG     H13A     HAL2     0.900000E-01   1.00800           0
      1110 MEMB     10       PMPG     H13B     HAL2     0.900000E-01   1.00800           0
      1111 MEMB     10       PMPG     OC3      OHL     -0.660000       15.9994           0
      1112 MEMB     10       PMPG     HO3      HOL      0.430000       1.00800           0
      1113 MEMB     10       PMPG     C12      CTL1     0.140000       12.0110           0
      1114 MEMB     10       PMPG     H12A     HAL1     0.900000E-01   1.00800           0
      1115 MEMB     10       PMPG     OC2      OHL     -0.660000       15.9994           0
      1116 MEMB     10       PMPG     HO2      HOL      0.430000       1.00800           0
      1117 MEMB     10       PMPG     C11      CTL2    -0.800000E-01   12.0110           0
      1118 MEMB     10       PMPG     H11A     HAL2     0.900000E-01   1.00800           0
      1119 MEMB     10       PMPG     H11B     HAL2     0.900000E-01   1.00800           0
      1120 MEMB     10       PMPG     P        PL        1.50000       30.9740           0
      1121 MEMB     10       PMPG     O13      O2L     -0.780000       15.9994           0
      1122 MEMB     10       PMPG     O14      O2L     -0.780000       15.9994           0
      1123 MEMB     10       PMPG     O11      OSLP    -0.570000       15.9994           0
      1124 MEMB     10       PMPG     O12      OSLP    -0.570000       15.9994           0
      1125 MEMB     10       PMPG     C1       CTL2    -0.800000E-01   12.0110           0
      1126 MEMB     10       PMPG     HA       HAL2     0.900000E-01   1.00800           0
      1127 MEMB     10       PMPG     HB       HAL2     0.900000E-01   1.00800           0
      1128 MEMB     10       PMPG     C2       CTL1     0.170000       12.0110           0
      1129 MEMB     10       PMPG     HS       HAL1     0.900000E-01   1.00800           0
      1130 MEMB     10       PMPG     O21      OSL     -0.490000       15.9994           0
      1131 MEMB     10       PMPG     C21      CL       0.900000       12.0110           0
      1132 MEMB     10       PMPG     O22      OBL     -0.630000       15.9994           0
      1133 MEMB     10       PMPG     C22      CTL2    -0.220000       12.0110           0
      1134 MEMB     10       PMPG     H2R      HAL2     0.900000E-01   1.00800           0
      1135 MEMB     10       PMPG     H2S      HAL2     0.900000E-01   1.00800           0
      1136 MEMB     10       PMPG     C3       CTL2     0.800000E-01   12.0110           0
      1137 MEMB     10       PMPG     HX       HAL2     0.900000E-01   1.00800           0
      1138 MEMB     10       PMPG     HY       HAL2     0.900000E-01   1.00800           0
      1139 MEMB     10       PMPG     O31      OSL     -0.490000       15.9994           0
      1140 MEMB     10       PMPG     C31      CL       0.900000       12.0110           0
      1141 MEMB     10       PMPG     O32      OBL     -0.630000       15.9994           0
      1142 MEMB     10       PMPG     C32      CTL2    -0.220000       12.0110           0
      1143 MEMB     10       PMPG     H2X      HAL2     0.900000E-01   1.00800           0
      1144 MEMB     10       PMPG     H2Y      HAL2     0.900000E-01   1.00800           0
      1145 MEMB     10       PMPG     C23      CTL2    -0.180000       12.0110           0
      1146 MEMB     10       PMPG     H3R      HAL2     0.900000E-01   1.00800           0
      1147 MEMB     10       PMPG     H3S      HAL2     0.900000E-01   1.00800           0
      1148 MEMB     10       PMPG     C24      CTL2    -0.180000       12.0110           0
      1149 MEMB     10       PMPG     H4R      HAL2     0.900000E-01   1.00800           0
      1150 MEMB     10       PMPG     H4S      HAL2     0.900000E-01   1.00800           0
      1151 MEMB     10       PMPG     C25      CTL2    -0.180000       12.0110           0
      1152 MEMB     10       PMPG     H5R      HAL2     0.900000E-01   1.00800           0
      1153 MEMB     10       PMPG     H5S      HAL2     0.900000E-01   1.00800           0
      1154 MEMB     10       PMPG     C26      CTL2    -0.180000       12.0110           0
      1155 MEMB     10       PMPG     H6R      HAL2     0.900000E-01   1.00800           0
      1156 MEMB     10       PMPG     H6S      HAL2     0.900000E-01   1.00800           0
      1157 MEMB     10       PMPG     C27      CTL2    -0.180000       12.0110           0
      1158 MEMB     10       PMPG     H7R      HAL2     0.900000E-01   1.00800           0
      1159 MEMB     10       PMPG     H7S      HAL2     0.900000E-01   1.00800           0
      1160 MEMB     10       PMPG     C28      CTL2    -0.180000       12.0110           0
      1161 MEMB     10       PMPG     H8R      HAL2     0.900000E-01   1.00800           0
      1162 MEMB     10       PMPG     H8S      HAL2     0.900000E-01   1.00800           0
      1163 MEMB     10       PMPG     C29      CG3RC1  -0.900000E-01   12.0110           0
      1164 MEMB     10       PMPG     H9R      HGA1     0.900000E-01   1.00800           0
      1165 MEMB     10       PMPG     C217     CG3C31  -0.180000       12.0110           0
      1166 MEMB     10       PMPG     H17R     HGA2     0.900000E-01   1.00800           0
      1167 MEMB     10       PMPG     H17S     HGA2     0.900000E-01   1.00800           0
      1168 MEMB     10       PMPG     C210     CG3RC1  -0.900000E-01   12.0110           0
      1169 MEMB     10       PMPG     H10R     HGA1     0.900000E-01   1.00800           0
      1170 MEMB     10       PMPG     C211     CTL2    -0.180000       12.0110           0
      1171 MEMB     10       PMPG     H11R     HAL2     0.900000E-01   1.00800           0
      1172 MEMB     10       PMPG     H11S     HAL2     0.900000E-01   1.00800           0
      1173 MEMB     10       PMPG     C212     CTL2    -0.180000       12.0110           0
      1174 MEMB     10       PMPG     H12R     HAL2     0.900000E-01   1.00800           0
      1175 MEMB     10       PMPG     H12S     HAL2     0.900000E-01   1.00800           0
      1176 MEMB     10       PMPG     C213     CTL2    -0.180000       12.0110           0
      1177 MEMB     10       PMPG     H13R     HAL2     0.900000E-01   1.00800           0
      1178 MEMB     10       PMPG     H13S     HAL2     0.900000E-01   1.00800           0
      1179 MEMB     10       PMPG     C214     CTL2    -0.180000       12.0110           0
      1180 MEMB     10       PMPG     H14R     HAL2     0.900000E-01   1.00800           0
      1181 MEMB     10       PMPG     H14S     HAL2     0.900000E-01   1.00800           0
      1182 MEMB     10       PMPG     C215     CTL2    -0.180000       12.0110           0
      1183 MEMB     10       PMPG     H15R     HAL2     0.900000E-01   1.00800           0
      1184 MEMB     10       PMPG     H15S     HAL2     0.900000E-01   1.00800           0
      1185 MEMB     10       PMPG     C216     CTL3    -0.270000       12.0110           0
      1186 MEMB     10       PMPG     H16R     HAL3     0.900000E-01   1.00800           0
      1187 MEMB     10       PMPG     H16S     HAL3     0.900000E-01   1.00800           0
      1188 MEMB     10       PMPG     H16T     HAL3     0.900000E-01   1.00800           0
      1189 MEMB     10       PMPG     C33      CTL2    -0.180000       12.0110           0
      1190 MEMB     10       PMPG     H3X      HAL2     0.900000E-01   1.00800           0
      1191 MEMB     10       PMPG     H3Y      HAL2     0.900000E-01   1.00800           0
      1192 MEMB     10       PMPG     C34      CTL2    -0.180000       12.0110           0
      1193 MEMB     10       PMPG     H4X      HAL2     0.900000E-01   1.00800           0
      1194 MEMB     10       PMPG     H4Y      HAL2     0.900000E-01   1.00800           0
      1195 MEMB     10       PMPG     C35      CTL2    -0.180000       12.0110           0
      1196 MEMB     10       PMPG     H5X      HAL2     0.900000E-01   1.00800           0
      1197 MEMB     10       PMPG     H5Y      HAL2     0.900000E-01   1.00800           0
      1198 MEMB     10       PMPG     C36      CTL2    -0.180000       12.0110           0
      1199 MEMB     10       PMPG     H6X      HAL2     0.900000E-01   1.00800           0
      1200 MEMB     10       PMPG     H6Y      HAL2     0.900000E-01   1.00800           0
      1201 MEMB     10       PMPG     C37      CTL2    -0.180000       12.0110           0
      1202 MEMB     10       PMPG     H7X      HAL2     0.900000E-01   1.00800           0
      1203 MEMB     10       PMPG     H7Y      HAL2     0.900000E-01   1.00800           0
      1204 MEMB     10       PMPG     C38      CTL2    -0.180000       12.0110           0
      1205 MEMB     10       PMPG     H8X      HAL2     0.900000E-01   1.00800           0
      1206 MEMB     10       PMPG     H8Y      HAL2     0.900000E-01   1.00800           0
      1207 MEMB     10       PMPG     C39      CTL2    -0.180000       12.0110           0
      1208 MEMB     10       PMPG     H9X      HAL2     0.900000E-01   1.00800           0
      1209 MEMB     10       PMPG     H9Y      HAL2     0.900000E-01   1.00800           0
      1210 MEMB     10       PMPG     C310     CTL2    -0.180000       12.0110           0
      1211 MEMB     10       PMPG     H10X     HAL2     0.900000E-01   1.00800           0
      1212 MEMB     10       PMPG     H10Y     HAL2     0.900000E-01   1.00800           0
      1213 MEMB     10       PMPG     C311     CTL2    -0.180000       12.0110           0
      1214 MEMB     10       PMPG     H11X     HAL2     0.900000E-01   1.00800           0
      1215 MEMB     10       PMPG     H11Y     HAL2     0.900000E-01   1.00800           0
      1216 MEMB     10       PMPG     C312     CTL2    -0.180000       12.0110           0
      1217 MEMB     10       PMPG     H12X     HAL2     0.900000E-01   1.00800           0
      1218 MEMB     10       PMPG     H12Y     HAL2     0.900000E-01   1.00800           0
      1219 MEMB     10       PMPG     C313     CTL2    -0.180000       12.0110           0
      1220 MEMB     10       PMPG     H13X     HAL2     0.900000E-01   1.00800           0
      1221 MEMB     10       PMPG     H13Y     HAL2     0.900000E-01   1.00800           0
      1222 MEMB     10       PMPG     C314     CTL2    -0.180000       12.0110           0
      1223 MEMB     10       PMPG     H14X     HAL2     0.900000E-01   1.00800           0
      1224 MEMB     10       PMPG     H14Y     HAL2     0.900000E-01   1.00800           0
      1225 MEMB     10       PMPG     C315     CTL2    -0.180000       12.0110           0
      1226 MEMB     10       PMPG     H15X     HAL2     0.900000E-01   1.00800           0
      1227 MEMB     10       PMPG     H15Y     HAL2     0.900000E-01   1.00800           0
      1228 MEMB     10       PMPG     C316     CTL3    -0.270000       12.0110           0
      1229 MEMB     10       PMPG     H16X     HAL3     0.900000E-01   1.00800           0
      1230 MEMB     10       PMPG     H16Y     HAL3     0.900000E-01   1.00800           0
      1231 MEMB     10       PMPG     H16Z     HAL3     0.900000E-01   1.00800           0
      1232 MEMB     11       POPE     N        NH3L    -0.300000       14.0070           0
      1233 MEMB     11       POPE     HN1      HCL      0.330000       1.00800           0
      1234 MEMB     11       POPE     HN2      HCL      0.330000       1.00800           0
      1235 MEMB     11       POPE     HN3      HCL      0.330000       1.00800           0
      1236 MEMB     11       POPE     C12      CTL2     0.130000       12.0110           0
      1237 MEMB     11       POPE     H12A     HAL2     0.900000E-01   1.00800           0
      1238 MEMB     11       POPE     H12B     HAL2     0.900000E-01   1.00800           0
      1239 MEMB     11       POPE     C11      CTL2    -0.800000E-01   12.0110           0
      1240 MEMB     11       POPE     H11A     HAL2     0.900000E-01   1.00800           0
      1241 MEMB     11       POPE     H11B     HAL2     0.900000E-01   1.00800           0
      1242 MEMB     11       POPE     P        PL        1.50000       30.9740           0
      1243 MEMB     11       POPE     O13      O2L     -0.780000       15.9994           0
      1244 MEMB     11       POPE     O14      O2L     -0.780000       15.9994           0
      1245 MEMB     11       POPE     O11      OSLP    -0.570000       15.9994           0
      1246 MEMB     11       POPE     O12      OSLP    -0.570000       15.9994           0
      1247 MEMB     11       POPE     C1       CTL2    -0.800000E-01   12.0110           0
      1248 MEMB     11       POPE     HA       HAL2     0.900000E-01   1.00800           0
      1249 MEMB     11       POPE     HB       HAL2     0.900000E-01   1.00800           0
      1250 MEMB     11       POPE     C2       CTL1     0.170000       12.0110           0
      1251 MEMB     11       POPE     HS       HAL1     0.900000E-01   1.00800           0
      1252 MEMB     11       POPE     O21      OSL     -0.490000       15.9994           0
      1253 MEMB     11       POPE     C21      CL       0.900000       12.0110           0
      1254 MEMB     11       POPE     O22      OBL     -0.630000       15.9994           0
      1255 MEMB     11       POPE     C22      CTL2    -0.220000       12.0110           0
      1256 MEMB     11       POPE     H2R      HAL2     0.900000E-01   1.00800           0
      1257 MEMB     11       POPE     H2S      HAL2     0.900000E-01   1.00800           0
      1258 MEMB     11       POPE     C3       CTL2     0.800000E-01   12.0110           0
      1259 MEMB     11       POPE     HX       HAL2     0.900000E-01   1.00800           0
      1260 MEMB     11       POPE     HY       HAL2     0.900000E-01   1.00800           0
      1261 MEMB     11       POPE     O31      OSL     -0.490000       15.9994           0
      1262 MEMB     11       POPE     C31      CL       0.900000       12.0110           0
      1263 MEMB     11       POPE     O32      OBL     -0.630000       15.9994           0
      1264 MEMB     11       POPE     C32      CTL2    -0.220000       12.0110           0
      1265 MEMB     11       POPE     H2X      HAL2     0.900000E-01   1.00800           0
      1266 MEMB     11       POPE     H2Y      HAL2     0.900000E-01   1.00800           0
      1267 MEMB     11       POPE     C23      CTL2    -0.180000       12.0110           0
      1268 MEMB     11       POPE     H3R      HAL2     0.900000E-01   1.00800           0
      1269 MEMB     11       POPE     H3S      HAL2     0.900000E-01   1.00800           0
      1270 MEMB     11       POPE     C24      CTL2    -0.180000       12.0110           0
      1271 MEMB     11       POPE     H4R      HAL2     0.900000E-01   1.00800           0
      1272 MEMB     11       POPE     H4S      HAL2     0.900000E-01   1.00800           0
      1273 MEMB     11       POPE     C25      CTL2    -0.180000       12.0110           0
      1274 MEMB     11       POPE     H5R      HAL2     0.900000E-01   1.00800           0
      1275 MEMB     11       POPE     H5S      HAL2     0.900000E-01   1.00800           0
      1276 MEMB     11       POPE     C26      CTL2    -0.180000       12.0110           0
      1277 MEMB     11       POPE     H6R      HAL2     0.900000E-01   1.00800           0
      1278 MEMB     11       POPE     H6S      HAL2     0.900000E-01   1.00800           0
      1279 MEMB     11       POPE     C27      CTL2    -0.180000       12.0110           0
      1280 MEMB     11       POPE     H7R      HAL2     0.900000E-01   1.00800           0
      1281 MEMB     11       POPE     H7S      HAL2     0.900000E-01   1.00800           0
      1282 MEMB     11       POPE     C28      CTL2    -0.180000       12.0110           0
      1283 MEMB     11       POPE     H8R      HAL2     0.900000E-01   1.00800           0
      1284 MEMB     11       POPE     H8S      HAL2     0.900000E-01   1.00800           0
      1285 MEMB     11       POPE     C29      CEL1    -0.150000       12.0110           0
      1286 MEMB     11       POPE     H91      HEL1     0.150000       1.00800           0
      1287 MEMB     11       POPE     C210     CEL1    -0.150000       12.0110           0
      1288 MEMB     11       POPE     H101     HEL1     0.150000       1.00800           0
      1289 MEMB     11       POPE     C211     CTL2    -0.180000       12.0110           0
      1290 MEMB     11       POPE     H11R     HAL2     0.900000E-01   1.00800           0
      1291 MEMB     11       POPE     H11S     HAL2     0.900000E-01   1.00800           0
      1292 MEMB     11       POPE     C212     CTL2    -0.180000       12.0110           0
      1293 MEMB     11       POPE     H12R     HAL2     0.900000E-01   1.00800           0
      1294 MEMB     11       POPE     H12S     HAL2     0.900000E-01   1.00800           0
      1295 MEMB     11       POPE     C213     CTL2    -0.180000       12.0110           0
      1296 MEMB     11       POPE     H13R     HAL2     0.900000E-01   1.00800           0
      1297 MEMB     11       POPE     H13S     HAL2     0.900000E-01   1.00800           0
      1298 MEMB     11       POPE     C214     CTL2    -0.180000       12.0110           0
      1299 MEMB     11       POPE     H14R     HAL2     0.900000E-01   1.00800           0
      1300 MEMB     11       POPE     H14S     HAL2     0.900000E-01   1.00800           0
      1301 MEMB     11       POPE     C215     CTL2    -0.180000       12.0110           0
      1302 MEMB     11       POPE     H15R     HAL2     0.900000E-01   1.00800           0
      1303 MEMB     11       POPE     H15S     HAL2     0.900000E-01   1.00800           0
      1304 MEMB     11       POPE     C216     CTL2    -0.180000       12.0110           0
      1305 MEMB     11       POPE     H16R     HAL2     0.900000E-01   1.00800           0
      1306 MEMB     11       POPE     H16S     HAL2     0.900000E-01   1.00800           0
      1307 MEMB     11       POPE     C217     CTL2    -0.180000       12.0110           0
      1308 MEMB     11       POPE     H17R     HAL2     0.900000E-01   1.00800           0
      1309 MEMB     11       POPE     H17S     HAL2     0.900000E-01   1.00800           0
      1310 MEMB     11       POPE     C218     CTL3    -0.270000       12.0110           0
      1311 MEMB     11       POPE     H18R     HAL3     0.900000E-01   1.00800           0
      1312 MEMB     11       POPE     H18S     HAL3     0.900000E-01   1.00800           0
      1313 MEMB     11       POPE     H18T     HAL3     0.900000E-01   1.00800           0
      1314 MEMB     11       POPE     C33      CTL2    -0.180000       12.0110           0
      1315 MEMB     11       POPE     H3X      HAL2     0.900000E-01   1.00800           0
      1316 MEMB     11       POPE     H3Y      HAL2     0.900000E-01   1.00800           0
      1317 MEMB     11       POPE     C34      CTL2    -0.180000       12.0110           0
      1318 MEMB     11       POPE     H4X      HAL2     0.900000E-01   1.00800           0
      1319 MEMB     11       POPE     H4Y      HAL2     0.900000E-01   1.00800           0
      1320 MEMB     11       POPE     C35      CTL2    -0.180000       12.0110           0
      1321 MEMB     11       POPE     H5X      HAL2     0.900000E-01   1.00800           0
      1322 MEMB     11       POPE     H5Y      HAL2     0.900000E-01   1.00800           0
      1323 MEMB     11       POPE     C36      CTL2    -0.180000       12.0110           0
      1324 MEMB     11       POPE     H6X      HAL2     0.900000E-01   1.00800           0
      1325 MEMB     11       POPE     H6Y      HAL2     0.900000E-01   1.00800           0
      1326 MEMB     11       POPE     C37      CTL2    -0.180000       12.0110           0
      1327 MEMB     11       POPE     H7X      HAL2     0.900000E-01   1.00800           0
      1328 MEMB     11       POPE     H7Y      HAL2     0.900000E-01   1.00800           0
      1329 MEMB     11       POPE     C38      CTL2    -0.180000       12.0110           0
      1330 MEMB     11       POPE     H8X      HAL2     0.900000E-01   1.00800           0
      1331 MEMB     11       POPE     H8Y      HAL2     0.900000E-01   1.00800           0
      1332 MEMB     11       POPE     C39      CTL2    -0.180000       12.0110           0
      1333 MEMB     11       POPE     H9X      HAL2     0.900000E-01   1.00800           0
      1334 MEMB     11       POPE     H9Y      HAL2     0.900000E-01   1.00800           0
      1335 MEMB     11       POPE     C310     CTL2    -0.180000       12.0110           0
      1336 MEMB     11       POPE     H10X     HAL2     0.900000E-01   1.00800           0
      1337 MEMB     11       POPE     H10Y     HAL2     0.900000E-01   1.00800           0
      1338 MEMB     11       POPE     C311     CTL2    -0.180000       12.0110           0
      1339 MEMB     11       POPE     H11X     HAL2     0.900000E-01   1.00800           0
      1340 MEMB     11       POPE     H11Y     HAL2     0.900000E-01   1.00800           0
      1341 MEMB     11       POPE     C312     CTL2    -0.180000       12.0110           0
      1342 MEMB     11       POPE     H12X     HAL2     0.900000E-01   1.00800           0
      1343 MEMB     11       POPE     H12Y     HAL2     0.900000E-01   1.00800           0
      1344 MEMB     11       POPE     C313     CTL2    -0.180000       12.0110           0
      1345 MEMB     11       POPE     H13X     HAL2     0.900000E-01   1.00800           0
      1346 MEMB     11       POPE     H13Y     HAL2     0.900000E-01   1.00800           0
      1347 MEMB     11       POPE     C314     CTL2    -0.180000       12.0110           0
      1348 MEMB     11       POPE     H14X     HAL2     0.900000E-01   1.00800           0
      1349 MEMB     11       POPE     H14Y     HAL2     0.900000E-01   1.00800           0
      1350 MEMB     11       POPE     C315     CTL2    -0.180000       12.0110           0
      1351 MEMB     11       POPE     H15X     HAL2     0.900000E-01   1.00800           0
      1352 MEMB     11       POPE     H15Y     HAL2     0.900000E-01   1.00800           0
      1353 MEMB     11       POPE     C316     CTL3    -0.270000       12.0110           0
      1354 MEMB     11       POPE     H16X     HAL3     0.900000E-01   1.00800           0
      1355 MEMB     11       POPE     H16Y     HAL3     0.900000E-01   1.00800           0
      1356 MEMB     11       POPE     H16Z     HAL3     0.900000E-01   1.00800           0
      1357 MEMB     12       PYPG     C13      CTL2     0.500000E-01   12.0110           0
      1358 MEMB     12       PYPG     H13A     HAL2     0.900000E-01   1.00800           0
      1359 MEMB     12       PYPG     H13B     HAL2     0.900000E-01   1.00800           0
      1360 MEMB     12       PYPG     OC3      OHL     -0.660000       15.9994           0
      1361 MEMB     12       PYPG     HO3      HOL      0.430000       1.00800           0
      1362 MEMB     12       PYPG     C12      CTL1     0.140000       12.0110           0
      1363 MEMB     12       PYPG     H12A     HAL1     0.900000E-01   1.00800           0
      1364 MEMB     12       PYPG     OC2      OHL     -0.660000       15.9994           0
      1365 MEMB     12       PYPG     HO2      HOL      0.430000       1.00800           0
      1366 MEMB     12       PYPG     C11      CTL2    -0.800000E-01   12.0110           0
      1367 MEMB     12       PYPG     H11A     HAL2     0.900000E-01   1.00800           0
      1368 MEMB     12       PYPG     H11B     HAL2     0.900000E-01   1.00800           0
      1369 MEMB     12       PYPG     P        PL        1.50000       30.9740           0
      1370 MEMB     12       PYPG     O13      O2L     -0.780000       15.9994           0
      1371 MEMB     12       PYPG     O14      O2L     -0.780000       15.9994           0
      1372 MEMB     12       PYPG     O11      OSLP    -0.570000       15.9994           0
      1373 MEMB     12       PYPG     O12      OSLP    -0.570000       15.9994           0
      1374 MEMB     12       PYPG     C1       CTL2    -0.800000E-01   12.0110           0
      1375 MEMB     12       PYPG     HA       HAL2     0.900000E-01   1.00800           0
      1376 MEMB     12       PYPG     HB       HAL2     0.900000E-01   1.00800           0
      1377 MEMB     12       PYPG     C2       CTL1     0.170000       12.0110           0
      1378 MEMB     12       PYPG     HS       HAL1     0.900000E-01   1.00800           0
      1379 MEMB     12       PYPG     O21      OSL     -0.490000       15.9994           0
      1380 MEMB     12       PYPG     C21      CL       0.900000       12.0110           0
      1381 MEMB     12       PYPG     O22      OBL     -0.630000       15.9994           0
      1382 MEMB     12       PYPG     C22      CTL2    -0.220000       12.0110           0
      1383 MEMB     12       PYPG     H2R      HAL2     0.900000E-01   1.00800           0
      1384 MEMB     12       PYPG     H2S      HAL2     0.900000E-01   1.00800           0
      1385 MEMB     12       PYPG     C3       CTL2     0.800000E-01   12.0110           0
      1386 MEMB     12       PYPG     HX       HAL2     0.900000E-01   1.00800           0
      1387 MEMB     12       PYPG     HY       HAL2     0.900000E-01   1.00800           0
      1388 MEMB     12       PYPG     O31      OSL     -0.490000       15.9994           0
      1389 MEMB     12       PYPG     C31      CL       0.900000       12.0110           0
      1390 MEMB     12       PYPG     O32      OBL     -0.630000       15.9994           0
      1391 MEMB     12       PYPG     C32      CTL2    -0.220000       12.0110           0
      1392 MEMB     12       PYPG     H2X      HAL2     0.900000E-01   1.00800           0
      1393 MEMB     12       PYPG     H2Y      HAL2     0.900000E-01   1.00800           0
      1394 MEMB     12       PYPG     C23      CTL2    -0.180000       12.0110           0
      1395 MEMB     12       PYPG     H3R      HAL2     0.900000E-01   1.00800           0
      1396 MEMB     12       PYPG     H3S      HAL2     0.900000E-01   1.00800           0
      1397 MEMB     12       PYPG     C24      CTL2    -0.180000       12.0110           0
      1398 MEMB     12       PYPG     H4R      HAL2     0.900000E-01   1.00800           0
      1399 MEMB     12       PYPG     H4S      HAL2     0.900000E-01   1.00800           0
      1400 MEMB     12       PYPG     C25      CTL2    -0.180000       12.0110           0
      1401 MEMB     12       PYPG     H5R      HAL2     0.900000E-01   1.00800           0
      1402 MEMB     12       PYPG     H5S      HAL2     0.900000E-01   1.00800           0
      1403 MEMB     12       PYPG     C26      CTL2    -0.180000       12.0110           0
      1404 MEMB     12       PYPG     H6R      HAL2     0.900000E-01   1.00800           0
      1405 MEMB     12       PYPG     H6S      HAL2     0.900000E-01   1.00800           0
      1406 MEMB     12       PYPG     C27      CTL2    -0.180000       12.0110           0
      1407 MEMB     12       PYPG     H7R      HAL2     0.900000E-01   1.00800           0
      1408 MEMB     12       PYPG     H7S      HAL2     0.900000E-01   1.00800           0
      1409 MEMB     12       PYPG     C28      CTL2    -0.180000       12.0110           0
      1410 MEMB     12       PYPG     H8R      HAL2     0.900000E-01   1.00800           0
      1411 MEMB     12       PYPG     H8S      HAL2     0.900000E-01   1.00800           0
      1412 MEMB     12       PYPG     C29      CEL1    -0.150000       12.0110           0
      1413 MEMB     12       PYPG     H9R      HEL1     0.150000       1.00800           0
      1414 MEMB     12       PYPG     C210     CEL1    -0.150000       12.0110           0
      1415 MEMB     12       PYPG     H10R     HEL1     0.150000       1.00800           0
      1416 MEMB     12       PYPG     C211     CTL2    -0.180000       12.0110           0
      1417 MEMB     12       PYPG     H11R     HAL2     0.900000E-01   1.00800           0
      1418 MEMB     12       PYPG     H11S     HAL2     0.900000E-01   1.00800           0
      1419 MEMB     12       PYPG     C212     CTL2    -0.180000       12.0110           0
      1420 MEMB     12       PYPG     H12R     HAL2     0.900000E-01   1.00800           0
      1421 MEMB     12       PYPG     H12S     HAL2     0.900000E-01   1.00800           0
      1422 MEMB     12       PYPG     C213     CTL2    -0.180000       12.0110           0
      1423 MEMB     12       PYPG     H13R     HAL2     0.900000E-01   1.00800           0
      1424 MEMB     12       PYPG     H13S     HAL2     0.900000E-01   1.00800           0
      1425 MEMB     12       PYPG     C214     CTL2    -0.180000       12.0110           0
      1426 MEMB     12       PYPG     H14R     HAL2     0.900000E-01   1.00800           0
      1427 MEMB     12       PYPG     H14S     HAL2     0.900000E-01   1.00800           0
      1428 MEMB     12       PYPG     C215     CTL2    -0.180000       12.0110           0
      1429 MEMB     12       PYPG     H15R     HAL2     0.900000E-01   1.00800           0
      1430 MEMB     12       PYPG     H15S     HAL2     0.900000E-01   1.00800           0
      1431 MEMB     12       PYPG     C216     CTL3    -0.270000       12.0110           0
      1432 MEMB     12       PYPG     H16R     HAL3     0.900000E-01   1.00800           0
      1433 MEMB     12       PYPG     H16S     HAL3     0.900000E-01   1.00800           0
      1434 MEMB     12       PYPG     H16T     HAL3     0.900000E-01   1.00800           0
      1435 MEMB     12       PYPG     C33      CTL2    -0.180000       12.0110           0
      1436 MEMB     12       PYPG     H3X      HAL2     0.900000E-01   1.00800           0
      1437 MEMB     12       PYPG     H3Y      HAL2     0.900000E-01   1.00800           0
      1438 MEMB     12       PYPG     C34      CTL2    -0.180000       12.0110           0
      1439 MEMB     12       PYPG     H4X      HAL2     0.900000E-01   1.00800           0
      1440 MEMB     12       PYPG     H4Y      HAL2     0.900000E-01   1.00800           0
      1441 MEMB     12       PYPG     C35      CTL2    -0.180000       12.0110           0
      1442 MEMB     12       PYPG     H5X      HAL2     0.900000E-01   1.00800           0
      1443 MEMB     12       PYPG     H5Y      HAL2     0.900000E-01   1.00800           0
      1444 MEMB     12       PYPG     C36      CTL2    -0.180000       12.0110           0
      1445 MEMB     12       PYPG     H6X      HAL2     0.900000E-01   1.00800           0
      1446 MEMB     12       PYPG     H6Y      HAL2     0.900000E-01   1.00800           0
      1447 MEMB     12       PYPG     C37      CTL2    -0.180000       12.0110           0
      1448 MEMB     12       PYPG     H7X      HAL2     0.900000E-01   1.00800           0
      1449 MEMB     12       PYPG     H7Y      HAL2     0.900000E-01   1.00800           0
      1450 MEMB     12       PYPG     C38      CTL2    -0.180000       12.0110           0
      1451 MEMB     12       PYPG     H8X      HAL2     0.900000E-01   1.00800           0
      1452 MEMB     12       PYPG     H8Y      HAL2     0.900000E-01   1.00800           0
      1453 MEMB     12       PYPG     C39      CTL2    -0.180000       12.0110           0
      1454 MEMB     12       PYPG     H9X      HAL2     0.900000E-01   1.00800           0
      1455 MEMB     12       PYPG     H9Y      HAL2     0.900000E-01   1.00800           0
      1456 MEMB     12       PYPG     C310     CTL2    -0.180000       12.0110           0
      1457 MEMB     12       PYPG     H10X     HAL2     0.900000E-01   1.00800           0
      1458 MEMB     12       PYPG     H10Y     HAL2     0.900000E-01   1.00800           0
      1459 MEMB     12       PYPG     C311     CTL2    -0.180000       12.0110           0
      1460 MEMB     12       PYPG     H11X     HAL2     0.900000E-01   1.00800           0
      1461 MEMB     12       PYPG     H11Y     HAL2     0.900000E-01   1.00800           0
      1462 MEMB     12       PYPG     C312     CTL2    -0.180000       12.0110           0
      1463 MEMB     12       PYPG     H12X     HAL2     0.900000E-01   1.00800           0
      1464 MEMB     12       PYPG     H12Y     HAL2     0.900000E-01   1.00800           0
      1465 MEMB     12       PYPG     C313     CTL2    -0.180000       12.0110           0
      1466 MEMB     12       PYPG     H13X     HAL2     0.900000E-01   1.00800           0
      1467 MEMB     12       PYPG     H13Y     HAL2     0.900000E-01   1.00800           0
      1468 MEMB     12       PYPG     C314     CTL2    -0.180000       12.0110           0
      1469 MEMB     12       PYPG     H14X     HAL2     0.900000E-01   1.00800           0
      1470 MEMB     12       PYPG     H14Y     HAL2     0.900000E-01   1.00800           0
      1471 MEMB     12       PYPG     C315     CTL2    -0.180000       12.0110           0
      1472 MEMB     12       PYPG     H15X     HAL2     0.900000E-01   1.00800           0
      1473 MEMB     12       PYPG     H15Y     HAL2     0.900000E-01   1.00800           0
      1474 MEMB     12       PYPG     C316     CTL3    -0.270000       12.0110           0
      1475 MEMB     12       PYPG     H16X     HAL3     0.900000E-01   1.00800           0
      1476 MEMB     12       PYPG     H16Y     HAL3     0.900000E-01   1.00800           0
      1477 MEMB     12       PYPG     H16Z     HAL3     0.900000E-01   1.00800           0
      1478 MEMB     13       PMPG     C13      CTL2     0.500000E-01   12.0110           0
      1479 MEMB     13       PMPG     H13A     HAL2     0.900000E-01   1.00800           0
      1480 MEMB     13       PMPG     H13B     HAL2     0.900000E-01   1.00800           0
      1481 MEMB     13       PMPG     OC3      OHL     -0.660000       15.9994           0
      1482 MEMB     13       PMPG     HO3      HOL      0.430000       1.00800           0
      1483 MEMB     13       PMPG     C12      CTL1     0.140000       12.0110           0
      1484 MEMB     13       PMPG     H12A     HAL1     0.900000E-01   1.00800           0
      1485 MEMB     13       PMPG     OC2      OHL     -0.660000       15.9994           0
      1486 MEMB     13       PMPG     HO2      HOL      0.430000       1.00800           0
      1487 MEMB     13       PMPG     C11      CTL2    -0.800000E-01   12.0110           0
      1488 MEMB     13       PMPG     H11A     HAL2     0.900000E-01   1.00800           0
      1489 MEMB     13       PMPG     H11B     HAL2     0.900000E-01   1.00800           0
      1490 MEMB     13       PMPG     P        PL        1.50000       30.9740           0
      1491 MEMB     13       PMPG     O13      O2L     -0.780000       15.9994           0
      1492 MEMB     13       PMPG     O14      O2L     -0.780000       15.9994           0
      1493 MEMB     13       PMPG     O11      OSLP    -0.570000       15.9994           0
      1494 MEMB     13       PMPG     O12      OSLP    -0.570000       15.9994           0
      1495 MEMB     13       PMPG     C1       CTL2    -0.800000E-01   12.0110           0
      1496 MEMB     13       PMPG     HA       HAL2     0.900000E-01   1.00800           0
      1497 MEMB     13       PMPG     HB       HAL2     0.900000E-01   1.00800           0
      1498 MEMB     13       PMPG     C2       CTL1     0.170000       12.0110           0
      1499 MEMB     13       PMPG     HS       HAL1     0.900000E-01   1.00800           0
      1500 MEMB     13       PMPG     O21      OSL     -0.490000       15.9994           0
      1501 MEMB     13       PMPG     C21      CL       0.900000       12.0110           0
      1502 MEMB     13       PMPG     O22      OBL     -0.630000       15.9994           0
      1503 MEMB     13       PMPG     C22      CTL2    -0.220000       12.0110           0
      1504 MEMB     13       PMPG     H2R      HAL2     0.900000E-01   1.00800           0
      1505 MEMB     13       PMPG     H2S      HAL2     0.900000E-01   1.00800           0
      1506 MEMB     13       PMPG     C3       CTL2     0.800000E-01   12.0110           0
      1507 MEMB     13       PMPG     HX       HAL2     0.900000E-01   1.00800           0
      1508 MEMB     13       PMPG     HY       HAL2     0.900000E-01   1.00800           0
      1509 MEMB     13       PMPG     O31      OSL     -0.490000       15.9994           0
      1510 MEMB     13       PMPG     C31      CL       0.900000       12.0110           0
      1511 MEMB     13       PMPG     O32      OBL     -0.630000       15.9994           0
      1512 MEMB     13       PMPG     C32      CTL2    -0.220000       12.0110           0
      1513 MEMB     13       PMPG     H2X      HAL2     0.900000E-01   1.00800           0
      1514 MEMB     13       PMPG     H2Y      HAL2     0.900000E-01   1.00800           0
      1515 MEMB     13       PMPG     C23      CTL2    -0.180000       12.0110           0
      1516 MEMB     13       PMPG     H3R      HAL2     0.900000E-01   1.00800           0
      1517 MEMB     13       PMPG     H3S      HAL2     0.900000E-01   1.00800           0
      1518 MEMB     13       PMPG     C24      CTL2    -0.180000       12.0110           0
      1519 MEMB     13       PMPG     H4R      HAL2     0.900000E-01   1.00800           0
      1520 MEMB     13       PMPG     H4S      HAL2     0.900000E-01   1.00800           0
      1521 MEMB     13       PMPG     C25      CTL2    -0.180000       12.0110           0
      1522 MEMB     13       PMPG     H5R      HAL2     0.900000E-01   1.00800           0
      1523 MEMB     13       PMPG     H5S      HAL2     0.900000E-01   1.00800           0
      1524 MEMB     13       PMPG     C26      CTL2    -0.180000       12.0110           0
      1525 MEMB     13       PMPG     H6R      HAL2     0.900000E-01   1.00800           0
      1526 MEMB     13       PMPG     H6S      HAL2     0.900000E-01   1.00800           0
      1527 MEMB     13       PMPG     C27      CTL2    -0.180000       12.0110           0
      1528 MEMB     13       PMPG     H7R      HAL2     0.900000E-01   1.00800           0
      1529 MEMB     13       PMPG     H7S      HAL2     0.900000E-01   1.00800           0
      1530 MEMB     13       PMPG     C28      CTL2    -0.180000       12.0110           0
      1531 MEMB     13       PMPG     H8R      HAL2     0.900000E-01   1.00800           0
      1532 MEMB     13       PMPG     H8S      HAL2     0.900000E-01   1.00800           0
      1533 MEMB     13       PMPG     C29      CG3RC1  -0.900000E-01   12.0110           0
      1534 MEMB     13       PMPG     H9R      HGA1     0.900000E-01   1.00800           0
      1535 MEMB     13       PMPG     C217     CG3C31  -0.180000       12.0110           0
      1536 MEMB     13       PMPG     H17R     HGA2     0.900000E-01   1.00800           0
      1537 MEMB     13       PMPG     H17S     HGA2     0.900000E-01   1.00800           0
      1538 MEMB     13       PMPG     C210     CG3RC1  -0.900000E-01   12.0110           0
      1539 MEMB     13       PMPG     H10R     HGA1     0.900000E-01   1.00800           0
      1540 MEMB     13       PMPG     C211     CTL2    -0.180000       12.0110           0
      1541 MEMB     13       PMPG     H11R     HAL2     0.900000E-01   1.00800           0
      1542 MEMB     13       PMPG     H11S     HAL2     0.900000E-01   1.00800           0
      1543 MEMB     13       PMPG     C212     CTL2    -0.180000       12.0110           0
      1544 MEMB     13       PMPG     H12R     HAL2     0.900000E-01   1.00800           0
      1545 MEMB     13       PMPG     H12S     HAL2     0.900000E-01   1.00800           0
      1546 MEMB     13       PMPG     C213     CTL2    -0.180000       12.0110           0
      1547 MEMB     13       PMPG     H13R     HAL2     0.900000E-01   1.00800           0
      1548 MEMB     13       PMPG     H13S     HAL2     0.900000E-01   1.00800           0
      1549 MEMB     13       PMPG     C214     CTL2    -0.180000       12.0110           0
      1550 MEMB     13       PMPG     H14R     HAL2     0.900000E-01   1.00800           0
      1551 MEMB     13       PMPG     H14S     HAL2     0.900000E-01   1.00800           0
      1552 MEMB     13       PMPG     C215     CTL2    -0.180000       12.0110           0
      1553 MEMB     13       PMPG     H15R     HAL2     0.900000E-01   1.00800           0
      1554 MEMB     13       PMPG     H15S     HAL2     0.900000E-01   1.00800           0
      1555 MEMB     13       PMPG     C216     CTL3    -0.270000       12.0110           0
      1556 MEMB     13       PMPG     H16R     HAL3     0.900000E-01   1.00800           0
      1557 MEMB     13       PMPG     H16S     HAL3     0.900000E-01   1.00800           0
      1558 MEMB     13       PMPG     H16T     HAL3     0.900000E-01   1.00800           0
      1559 MEMB     13       PMPG     C33      CTL2    -0.180000       12.0110           0
      1560 MEMB     13       PMPG     H3X      HAL2     0.900000E-01   1.00800           0
      1561 MEMB     13       PMPG     H3Y      HAL2     0.900000E-01   1.00800           0
      1562 MEMB     13       PMPG     C34      CTL2    -0.180000       12.0110           0
      1563 MEMB     13       PMPG     H4X      HAL2     0.900000E-01   1.00800           0
      1564 MEMB     13       PMPG     H4Y      HAL2     0.900000E-01   1.00800           0
      1565 MEMB     13       PMPG     C35      CTL2    -0.180000       12.0110           0
      1566 MEMB     13       PMPG     H5X      HAL2     0.900000E-01   1.00800           0
      1567 MEMB     13       PMPG     H5Y      HAL2     0.900000E-01   1.00800           0
      1568 MEMB     13       PMPG     C36      CTL2    -0.180000       12.0110           0
      1569 MEMB     13       PMPG     H6X      HAL2     0.900000E-01   1.00800           0
      1570 MEMB     13       PMPG     H6Y      HAL2     0.900000E-01   1.00800           0
      1571 MEMB     13       PMPG     C37      CTL2    -0.180000       12.0110           0
      1572 MEMB     13       PMPG     H7X      HAL2     0.900000E-01   1.00800           0
      1573 MEMB     13       PMPG     H7Y      HAL2     0.900000E-01   1.00800           0
      1574 MEMB     13       PMPG     C38      CTL2    -0.180000       12.0110           0
      1575 MEMB     13       PMPG     H8X      HAL2     0.900000E-01   1.00800           0
      1576 MEMB     13       PMPG     H8Y      HAL2     0.900000E-01   1.00800           0
      1577 MEMB     13       PMPG     C39      CTL2    -0.180000       12.0110           0
      1578 MEMB     13       PMPG     H9X      HAL2     0.900000E-01   1.00800           0
      1579 MEMB     13       PMPG     H9Y      HAL2     0.900000E-01   1.00800           0
      1580 MEMB     13       PMPG     C310     CTL2    -0.180000       12.0110           0
      1581 MEMB     13       PMPG     H10X     HAL2     0.900000E-01   1.00800           0
      1582 MEMB     13       PMPG     H10Y     HAL2     0.900000E-01   1.00800           0
      1583 MEMB     13       PMPG     C311     CTL2    -0.180000       12.0110           0
      1584 MEMB     13       PMPG     H11X     HAL2     0.900000E-01   1.00800           0
      1585 MEMB     13       PMPG     H11Y     HAL2     0.900000E-01   1.00800           0
      1586 MEMB     13       PMPG     C312     CTL2    -0.180000       12.0110           0
      1587 MEMB     13       PMPG     H12X     HAL2     0.900000E-01   1.00800           0
      1588 MEMB     13       PMPG     H12Y     HAL2     0.900000E-01   1.00800           0
      1589 MEMB     13       PMPG     C313     CTL2    -0.180000       12.0110           0
      1590 MEMB     13       PMPG     H13X     HAL2     0.900000E-01   1.00800           0
      1591 MEMB     13       PMPG     H13Y     HAL2     0.900000E-01   1.00800           0
      1592 MEMB     13       PMPG     C314     CTL2    -0.180000       12.0110           0
      1593 MEMB     13       PMPG     H14X     HAL2     0.900000E-01   1.00800           0
      1594 MEMB     13       PMPG     H14Y     HAL2     0.900000E-01   1.00800           0
      1595 MEMB     13       PMPG     C315     CTL2    -0.180000       12.0110           0
      1596 MEMB     13       PMPG     H15X     HAL2     0.900000E-01   1.00800           0
      1597 MEMB     13       PMPG     H15Y     HAL2     0.900000E-01   1.00800           0
      1598 MEMB     13       PMPG     C316     CTL3    -0.270000       12.0110           0
      1599 MEMB     13       PMPG     H16X     HAL3     0.900000E-01   1.00800           0
      1600 MEMB     13       PMPG     H16Y     HAL3     0.900000E-01   1.00800           0
      1601 MEMB     13       PMPG     H16Z     HAL3     0.900000E-01   1.00800           0
      1602 MEMB     14       PMPE     N        NH3L    -0.300000       14.0070           0
      1603 MEMB     14       PMPE     HN1      HCL      0.330000       1.00800           0
      1604 MEMB     14       PMPE     HN2      HCL      0.330000       1.00800           0
      1605 MEMB     14       PMPE     HN3      HCL      0.330000       1.00800           0
      1606 MEMB     14       PMPE     C12      CTL2     0.130000       12.0110           0
      1607 MEMB     14       PMPE     H12A     HAL2     0.900000E-01   1.00800           0
      1608 MEMB     14       PMPE     H12B     HAL2     0.900000E-01   1.00800           0
      1609 MEMB     14       PMPE     C11      CTL2    -0.800000E-01   12.0110           0
      1610 MEMB     14       PMPE     H11A     HAL2     0.900000E-01   1.00800           0
      1611 MEMB     14       PMPE     H11B     HAL2     0.900000E-01   1.00800           0
      1612 MEMB     14       PMPE     P        PL        1.50000       30.9740           0
      1613 MEMB     14       PMPE     O13      O2L     -0.780000       15.9994           0
      1614 MEMB     14       PMPE     O14      O2L     -0.780000       15.9994           0
      1615 MEMB     14       PMPE     O11      OSLP    -0.570000       15.9994           0
      1616 MEMB     14       PMPE     O12      OSLP    -0.570000       15.9994           0
      1617 MEMB     14       PMPE     C1       CTL2    -0.800000E-01   12.0110           0
      1618 MEMB     14       PMPE     HA       HAL2     0.900000E-01   1.00800           0
      1619 MEMB     14       PMPE     HB       HAL2     0.900000E-01   1.00800           0
      1620 MEMB     14       PMPE     C2       CTL1     0.170000       12.0110           0
      1621 MEMB     14       PMPE     HS       HAL1     0.900000E-01   1.00800           0
      1622 MEMB     14       PMPE     O21      OSL     -0.490000       15.9994           0
      1623 MEMB     14       PMPE     C21      CL       0.900000       12.0110           0
      1624 MEMB     14       PMPE     O22      OBL     -0.630000       15.9994           0
      1625 MEMB     14       PMPE     C22      CTL2    -0.220000       12.0110           0
      1626 MEMB     14       PMPE     H2R      HAL2     0.900000E-01   1.00800           0
      1627 MEMB     14       PMPE     H2S      HAL2     0.900000E-01   1.00800           0
      1628 MEMB     14       PMPE     C3       CTL2     0.800000E-01   12.0110           0
      1629 MEMB     14       PMPE     HX       HAL2     0.900000E-01   1.00800           0
      1630 MEMB     14       PMPE     HY       HAL2     0.900000E-01   1.00800           0
      1631 MEMB     14       PMPE     O31      OSL     -0.490000       15.9994           0
      1632 MEMB     14       PMPE     C31      CL       0.900000       12.0110           0
      1633 MEMB     14       PMPE     O32      OBL     -0.630000       15.9994           0
      1634 MEMB     14       PMPE     C32      CTL2    -0.220000       12.0110           0
      1635 MEMB     14       PMPE     H2X      HAL2     0.900000E-01   1.00800           0
      1636 MEMB     14       PMPE     H2Y      HAL2     0.900000E-01   1.00800           0
      1637 MEMB     14       PMPE     C23      CTL2    -0.180000       12.0110           0
      1638 MEMB     14       PMPE     H3R      HAL2     0.900000E-01   1.00800           0
      1639 MEMB     14       PMPE     H3S      HAL2     0.900000E-01   1.00800           0
      1640 MEMB     14       PMPE     C24      CTL2    -0.180000       12.0110           0
      1641 MEMB     14       PMPE     H4R      HAL2     0.900000E-01   1.00800           0
      1642 MEMB     14       PMPE     H4S      HAL2     0.900000E-01   1.00800           0
      1643 MEMB     14       PMPE     C25      CTL2    -0.180000       12.0110           0
      1644 MEMB     14       PMPE     H5R      HAL2     0.900000E-01   1.00800           0
      1645 MEMB     14       PMPE     H5S      HAL2     0.900000E-01   1.00800           0
      1646 MEMB     14       PMPE     C26      CTL2    -0.180000       12.0110           0
      1647 MEMB     14       PMPE     H6R      HAL2     0.900000E-01   1.00800           0
      1648 MEMB     14       PMPE     H6S      HAL2     0.900000E-01   1.00800           0
      1649 MEMB     14       PMPE     C27      CTL2    -0.180000       12.0110           0
      1650 MEMB     14       PMPE     H7R      HAL2     0.900000E-01   1.00800           0
      1651 MEMB     14       PMPE     H7S      HAL2     0.900000E-01   1.00800           0
      1652 MEMB     14       PMPE     C28      CTL2    -0.180000       12.0110           0
      1653 MEMB     14       PMPE     H8R      HAL2     0.900000E-01   1.00800           0
      1654 MEMB     14       PMPE     H8S      HAL2     0.900000E-01   1.00800           0
      1655 MEMB     14       PMPE     C29      CG3RC1  -0.900000E-01   12.0110           0
      1656 MEMB     14       PMPE     H9R      HGA1     0.900000E-01   1.00800           0
      1657 MEMB     14       PMPE     C217     CG3C31  -0.180000       12.0110           0
      1658 MEMB     14       PMPE     H17R     HGA2     0.900000E-01   1.00800           0
      1659 MEMB     14       PMPE     H17S     HGA2     0.900000E-01   1.00800           0
      1660 MEMB     14       PMPE     C210     CG3RC1  -0.900000E-01   12.0110           0
      1661 MEMB     14       PMPE     H10R     HGA1     0.900000E-01   1.00800           0
      1662 MEMB     14       PMPE     C211     CTL2    -0.180000       12.0110           0
      1663 MEMB     14       PMPE     H11R     HAL2     0.900000E-01   1.00800           0
      1664 MEMB     14       PMPE     H11S     HAL2     0.900000E-01   1.00800           0
      1665 MEMB     14       PMPE     C212     CTL2    -0.180000       12.0110           0
      1666 MEMB     14       PMPE     H12R     HAL2     0.900000E-01   1.00800           0
      1667 MEMB     14       PMPE     H12S     HAL2     0.900000E-01   1.00800           0
      1668 MEMB     14       PMPE     C213     CTL2    -0.180000       12.0110           0
      1669 MEMB     14       PMPE     H13R     HAL2     0.900000E-01   1.00800           0
      1670 MEMB     14       PMPE     H13S     HAL2     0.900000E-01   1.00800           0
      1671 MEMB     14       PMPE     C214     CTL2    -0.180000       12.0110           0
      1672 MEMB     14       PMPE     H14R     HAL2     0.900000E-01   1.00800           0
      1673 MEMB     14       PMPE     H14S     HAL2     0.900000E-01   1.00800           0
      1674 MEMB     14       PMPE     C215     CTL2    -0.180000       12.0110           0
      1675 MEMB     14       PMPE     H15R     HAL2     0.900000E-01   1.00800           0
      1676 MEMB     14       PMPE     H15S     HAL2     0.900000E-01   1.00800           0
      1677 MEMB     14       PMPE     C216     CTL3    -0.270000       12.0110           0
      1678 MEMB     14       PMPE     H16R     HAL3     0.900000E-01   1.00800           0
      1679 MEMB     14       PMPE     H16S     HAL3     0.900000E-01   1.00800           0
      1680 MEMB     14       PMPE     H16T     HAL3     0.900000E-01   1.00800           0
      1681 MEMB     14       PMPE     C33      CTL2    -0.180000       12.0110           0
      1682 MEMB     14       PMPE     H3X      HAL2     0.900000E-01   1.00800           0
      1683 MEMB     14       PMPE     H3Y      HAL2     0.900000E-01   1.00800           0
      1684 MEMB     14       PMPE     C34      CTL2    -0.180000       12.0110           0
      1685 MEMB     14       PMPE     H4X      HAL2     0.900000E-01   1.00800           0
      1686 MEMB     14       PMPE     H4Y      HAL2     0.900000E-01   1.00800           0
      1687 MEMB     14       PMPE     C35      CTL2    -0.180000       12.0110           0
      1688 MEMB     14       PMPE     H5X      HAL2     0.900000E-01   1.00800           0
      1689 MEMB     14       PMPE     H5Y      HAL2     0.900000E-01   1.00800           0
      1690 MEMB     14       PMPE     C36      CTL2    -0.180000       12.0110           0
      1691 MEMB     14       PMPE     H6X      HAL2     0.900000E-01   1.00800           0
      1692 MEMB     14       PMPE     H6Y      HAL2     0.900000E-01   1.00800           0
      1693 MEMB     14       PMPE     C37      CTL2    -0.180000       12.0110           0
      1694 MEMB     14       PMPE     H7X      HAL2     0.900000E-01   1.00800           0
      1695 MEMB     14       PMPE     H7Y      HAL2     0.900000E-01   1.00800           0
      1696 MEMB     14       PMPE     C38      CTL2    -0.180000       12.0110           0
      1697 MEMB     14       PMPE     H8X      HAL2     0.900000E-01   1.00800           0
      1698 MEMB     14       PMPE     H8Y      HAL2     0.900000E-01   1.00800           0
      1699 MEMB     14       PMPE     C39      CTL2    -0.180000       12.0110           0
      1700 MEMB     14       PMPE     H9X      HAL2     0.900000E-01   1.00800           0
      1701 MEMB     14       PMPE     H9Y      HAL2     0.900000E-01   1.00800           0
      1702 MEMB     14       PMPE     C310     CTL2    -0.180000       12.0110           0
      1703 MEMB     14       PMPE     H10X     HAL2     0.900000E-01   1.00800           0
      1704 MEMB     14       PMPE     H10Y     HAL2     0.900000E-01   1.00800           0
      1705 MEMB     14       PMPE     C311     CTL2    -0.180000       12.0110           0
      1706 MEMB     14       PMPE     H11X     HAL2     0.900000E-01   1.00800           0
      1707 MEMB     14       PMPE     H11Y     HAL2     0.900000E-01   1.00800           0
      1708 MEMB     14       PMPE     C312     CTL2    -0.180000       12.0110           0
      1709 MEMB     14       PMPE     H12X     HAL2     0.900000E-01   1.00800           0
      1710 MEMB     14       PMPE     H12Y     HAL2     0.900000E-01   1.00800           0
      1711 MEMB     14       PMPE     C313     CTL2    -0.180000       12.0110           0
      1712 MEMB     14       PMPE     H13X     HAL2     0.900000E-01   1.00800           0
      1713 MEMB     14       PMPE     H13Y     HAL2     0.900000E-01   1.00800           0
      1714 MEMB     14       PMPE     C314     CTL2    -0.180000       12.0110           0
      1715 MEMB     14       PMPE     H14X     HAL2     0.900000E-01   1.00800           0
      1716 MEMB     14       PMPE     H14Y     HAL2     0.900000E-01   1.00800           0
      1717 MEMB     14       PMPE     C315     CTL2    -0.180000       12.0110           0
      1718 MEMB     14       PMPE     H15X     HAL2     0.900000E-01   1.00800           0
      1719 MEMB     14       PMPE     H15Y     HAL2     0.900000E-01   1.00800           0
      1720 MEMB     14       PMPE     C316     CTL3    -0.270000       12.0110           0
      1721 MEMB     14       PMPE     H16X     HAL3     0.900000E-01   1.00800           0
      1722 MEMB     14       PMPE     H16Y     HAL3     0.900000E-01   1.00800           0
      1723 MEMB     14       PMPE     H16Z     HAL3     0.900000E-01   1.00800           0
      1724 MEMB     15       POPE     N        NH3L    -0.300000       14.0070           0
      1725 MEMB     15       POPE     HN1      HCL      0.330000       1.00800           0
      1726 MEMB     15       POPE     HN2      HCL      0.330000       1.00800           0
      1727 MEMB     15       POPE     HN3      HCL      0.330000       1.00800           0
      1728 MEMB     15       POPE     C12      CTL2     0.130000       12.0110           0
      1729 MEMB     15       POPE     H12A     HAL2     0.900000E-01   1.00800           0
      1730 MEMB     15       POPE     H12B     HAL2     0.900000E-01   1.00800           0
      1731 MEMB     15       POPE     C11      CTL2    -0.800000E-01   12.0110           0
      1732 MEMB     15       POPE     H11A     HAL2     0.900000E-01   1.00800           0
      1733 MEMB     15       POPE     H11B     HAL2     0.900000E-01   1.00800           0
      1734 MEMB     15       POPE     P        PL        1.50000       30.9740           0
      1735 MEMB     15       POPE     O13      O2L     -0.780000       15.9994           0
      1736 MEMB     15       POPE     O14      O2L     -0.780000       15.9994           0
      1737 MEMB     15       POPE     O11      OSLP    -0.570000       15.9994           0
      1738 MEMB     15       POPE     O12      OSLP    -0.570000       15.9994           0
      1739 MEMB     15       POPE     C1       CTL2    -0.800000E-01   12.0110           0
      1740 MEMB     15       POPE     HA       HAL2     0.900000E-01   1.00800           0
      1741 MEMB     15       POPE     HB       HAL2     0.900000E-01   1.00800           0
      1742 MEMB     15       POPE     C2       CTL1     0.170000       12.0110           0
      1743 MEMB     15       POPE     HS       HAL1     0.900000E-01   1.00800           0
      1744 MEMB     15       POPE     O21      OSL     -0.490000       15.9994           0
      1745 MEMB     15       POPE     C21      CL       0.900000       12.0110           0
      1746 MEMB     15       POPE     O22      OBL     -0.630000       15.9994           0
      1747 MEMB     15       POPE     C22      CTL2    -0.220000       12.0110           0
      1748 MEMB     15       POPE     H2R      HAL2     0.900000E-01   1.00800           0
      1749 MEMB     15       POPE     H2S      HAL2     0.900000E-01   1.00800           0
      1750 MEMB     15       POPE     C3       CTL2     0.800000E-01   12.0110           0
      1751 MEMB     15       POPE     HX       HAL2     0.900000E-01   1.00800           0
      1752 MEMB     15       POPE     HY       HAL2     0.900000E-01   1.00800           0
      1753 MEMB     15       POPE     O31      OSL     -0.490000       15.9994           0
      1754 MEMB     15       POPE     C31      CL       0.900000       12.0110           0
      1755 MEMB     15       POPE     O32      OBL     -0.630000       15.9994           0
      1756 MEMB     15       POPE     C32      CTL2    -0.220000       12.0110           0
      1757 MEMB     15       POPE     H2X      HAL2     0.900000E-01   1.00800           0
      1758 MEMB     15       POPE     H2Y      HAL2     0.900000E-01   1.00800           0
      1759 MEMB     15       POPE     C23      CTL2    -0.180000       12.0110           0
      1760 MEMB     15       POPE     H3R      HAL2     0.900000E-01   1.00800           0
      1761 MEMB     15       POPE     H3S      HAL2     0.900000E-01   1.00800           0
      1762 MEMB     15       POPE     C24      CTL2    -0.180000       12.0110           0
      1763 MEMB     15       POPE     H4R      HAL2     0.900000E-01   1.00800           0
      1764 MEMB     15       POPE     H4S      HAL2     0.900000E-01   1.00800           0
      1765 MEMB     15       POPE     C25      CTL2    -0.180000       12.0110           0
      1766 MEMB     15       POPE     H5R      HAL2     0.900000E-01   1.00800           0
      1767 MEMB     15       POPE     H5S      HAL2     0.900000E-01   1.00800           0
      1768 MEMB     15       POPE     C26      CTL2    -0.180000       12.0110           0
      1769 MEMB     15       POPE     H6R      HAL2     0.900000E-01   1.00800           0
      1770 MEMB     15       POPE     H6S      HAL2     0.900000E-01   1.00800           0
      1771 MEMB     15       POPE     C27      CTL2    -0.180000       12.0110           0
      1772 MEMB     15       POPE     H7R      HAL2     0.900000E-01   1.00800           0
      1773 MEMB     15       POPE     H7S      HAL2     0.900000E-01   1.00800           0
      1774 MEMB     15       POPE     C28      CTL2    -0.180000       12.0110           0
      1775 MEMB     15       POPE     H8R      HAL2     0.900000E-01   1.00800           0
      1776 MEMB     15       POPE     H8S      HAL2     0.900000E-01   1.00800           0
      1777 MEMB     15       POPE     C29      CEL1    -0.150000       12.0110           0
      1778 MEMB     15       POPE     H91      HEL1     0.150000       1.00800           0
      1779 MEMB     15       POPE     C210     CEL1    -0.150000       12.0110           0
      1780 MEMB     15       POPE     H101     HEL1     0.150000       1.00800           0
      1781 MEMB     15       POPE     C211     CTL2    -0.180000       12.0110           0
      1782 MEMB     15       POPE     H11R     HAL2     0.900000E-01   1.00800           0
      1783 MEMB     15       POPE     H11S     HAL2     0.900000E-01   1.00800           0
      1784 MEMB     15       POPE     C212     CTL2    -0.180000       12.0110           0
      1785 MEMB     15       POPE     H12R     HAL2     0.900000E-01   1.00800           0
      1786 MEMB     15       POPE     H12S     HAL2     0.900000E-01   1.00800           0
      1787 MEMB     15       POPE     C213     CTL2    -0.180000       12.0110           0
      1788 MEMB     15       POPE     H13R     HAL2     0.900000E-01   1.00800           0
      1789 MEMB     15       POPE     H13S     HAL2     0.900000E-01   1.00800           0
      1790 MEMB     15       POPE     C214     CTL2    -0.180000       12.0110           0
      1791 MEMB     15       POPE     H14R     HAL2     0.900000E-01   1.00800           0
      1792 MEMB     15       POPE     H14S     HAL2     0.900000E-01   1.00800           0
      1793 MEMB     15       POPE     C215     CTL2    -0.180000       12.0110           0
      1794 MEMB     15       POPE     H15R     HAL2     0.900000E-01   1.00800           0
      1795 MEMB     15       POPE     H15S     HAL2     0.900000E-01   1.00800           0
      1796 MEMB     15       POPE     C216     CTL2    -0.180000       12.0110           0
      1797 MEMB     15       POPE     H16R     HAL2     0.900000E-01   1.00800           0
      1798 MEMB     15       POPE     H16S     HAL2     0.900000E-01   1.00800           0
      1799 MEMB     15       POPE     C217     CTL2    -0.180000       12.0110           0
      1800 MEMB     15       POPE     H17R     HAL2     0.900000E-01   1.00800           0
      1801 MEMB     15       POPE     H17S     HAL2     0.900000E-01   1.00800           0
      1802 MEMB     15       POPE     C218     CTL3    -0.270000       12.0110           0
      1803 MEMB     15       POPE     H18R     HAL3     0.900000E-01   1.00800           0
      1804 MEMB     15       POPE     H18S     HAL3     0.900000E-01   1.00800           0
      1805 MEMB     15       POPE     H18T     HAL3     0.900000E-01   1.00800           0
      1806 MEMB     15       POPE     C33      CTL2    -0.180000       12.0110           0
      1807 MEMB     15       POPE     H3X      HAL2     0.900000E-01   1.00800           0
      1808 MEMB     15       POPE     H3Y      HAL2     0.900000E-01   1.00800           0
      1809 MEMB     15       POPE     C34      CTL2    -0.180000       12.0110           0
      1810 MEMB     15       POPE     H4X      HAL2     0.900000E-01   1.00800           0
      1811 MEMB     15       POPE     H4Y      HAL2     0.900000E-01   1.00800           0
      1812 MEMB     15       POPE     C35      CTL2    -0.180000       12.0110           0
      1813 MEMB     15       POPE     H5X      HAL2     0.900000E-01   1.00800           0
      1814 MEMB     15       POPE     H5Y      HAL2     0.900000E-01   1.00800           0
      1815 MEMB     15       POPE     C36      CTL2    -0.180000       12.0110           0
      1816 MEMB     15       POPE     H6X      HAL2     0.900000E-01   1.00800           0
      1817 MEMB     15       POPE     H6Y      HAL2     0.900000E-01   1.00800           0
      1818 MEMB     15       POPE     C37      CTL2    -0.180000       12.0110           0
      1819 MEMB     15       POPE     H7X      HAL2     0.900000E-01   1.00800           0
      1820 MEMB     15       POPE     H7Y      HAL2     0.900000E-01   1.00800           0
      1821 MEMB     15       POPE     C38      CTL2    -0.180000       12.0110           0
      1822 MEMB     15       POPE     H8X      HAL2     0.900000E-01   1.00800           0
      1823 MEMB     15       POPE     H8Y      HAL2     0.900000E-01   1.00800           0
      1824 MEMB     15       POPE     C39      CTL2    -0.180000       12.0110           0
      1825 MEMB     15       POPE     H9X      HAL2     0.900000E-01   1.00800           0
      1826 MEMB     15       POPE     H9Y      HAL2     0.900000E-01   1.00800           0
      1827 MEMB     15       POPE     C310     CTL2    -0.180000       12.0110           0
      1828 MEMB     15       POPE     H10X     HAL2     0.900000E-01   1.00800           0
      1829 MEMB     15       POPE     H10Y     HAL2     0.900000E-01   1.00800           0
      1830 MEMB     15       POPE     C311     CTL2    -0.180000       12.0110           0
      1831 MEMB     15       POPE     H11X     HAL2     0.900000E-01   1.00800           0
      1832 MEMB     15       POPE     H11Y     HAL2     0.900000E-01   1.00800           0
      1833 MEMB     15       POPE     C312     CTL2    -0.180000       12.0110           0
      1834 MEMB     15       POPE     H12X     HAL2     0.900000E-01   1.00800           0
      1835 MEMB     15       POPE     H12Y     HAL2     0.900000E-01   1.00800           0
      1836 MEMB     15       POPE     C313     CTL2    -0.180000       12.0110           0
      1837 MEMB     15       POPE     H13X     HAL2     0.900000E-01   1.00800           0
      1838 MEMB     15       POPE     H13Y     HAL2     0.900000E-01   1.00800           0
      1839 MEMB     15       POPE     C314     CTL2    -0.180000       12.0110           0
      1840 MEMB     15       POPE     H14X     HAL2     0.900000E-01   1.00800           0
      1841 MEMB     15       POPE     H14Y     HAL2     0.900000E-01   1.00800           0
      1842 MEMB     15       POPE     C315     CTL2    -0.180000       12.0110           0
      1843 MEMB     15       POPE     H15X     HAL2     0.900000E-01   1.00800           0
      1844 MEMB     15       POPE     H15Y     HAL2     0.900000E-01   1.00800           0
      1845 MEMB     15       POPE     C316     CTL3    -0.270000       12.0110           0
      1846 MEMB     15       POPE     H16X     HAL3     0.900000E-01   1.00800           0
      1847 MEMB     15       POPE     H16Y     HAL3     0.900000E-01   1.00800           0
      1848 MEMB     15       POPE     H16Z     HAL3     0.900000E-01   1.00800           0
      1849 MEMB     16       PMPE     N        NH3L    -0.300000       14.0070           0
      1850 MEMB     16       PMPE     HN1      HCL      0.330000       1.00800           0
      1851 MEMB     16       PMPE     HN2      HCL      0.330000       1.00800           0
      1852 MEMB     16       PMPE     HN3      HCL      0.330000       1.00800           0
      1853 MEMB     16       PMPE     C12      CTL2     0.130000       12.0110           0
      1854 MEMB     16       PMPE     H12A     HAL2     0.900000E-01   1.00800           0
      1855 MEMB     16       PMPE     H12B     HAL2     0.900000E-01   1.00800           0
      1856 MEMB     16       PMPE     C11      CTL2    -0.800000E-01   12.0110           0
      1857 MEMB     16       PMPE     H11A     HAL2     0.900000E-01   1.00800           0
      1858 MEMB     16       PMPE     H11B     HAL2     0.900000E-01   1.00800           0
      1859 MEMB     16       PMPE     P        PL        1.50000       30.9740           0
      1860 MEMB     16       PMPE     O13      O2L     -0.780000       15.9994           0
      1861 MEMB     16       PMPE     O14      O2L     -0.780000       15.9994           0
      1862 MEMB     16       PMPE     O11      OSLP    -0.570000       15.9994           0
      1863 MEMB     16       PMPE     O12      OSLP    -0.570000       15.9994           0
      1864 MEMB     16       PMPE     C1       CTL2    -0.800000E-01   12.0110           0
      1865 MEMB     16       PMPE     HA       HAL2     0.900000E-01   1.00800           0
      1866 MEMB     16       PMPE     HB       HAL2     0.900000E-01   1.00800           0
      1867 MEMB     16       PMPE     C2       CTL1     0.170000       12.0110           0
      1868 MEMB     16       PMPE     HS       HAL1     0.900000E-01   1.00800           0
      1869 MEMB     16       PMPE     O21      OSL     -0.490000       15.9994           0
      1870 MEMB     16       PMPE     C21      CL       0.900000       12.0110           0
      1871 MEMB     16       PMPE     O22      OBL     -0.630000       15.9994           0
      1872 MEMB     16       PMPE     C22      CTL2    -0.220000       12.0110           0
      1873 MEMB     16       PMPE     H2R      HAL2     0.900000E-01   1.00800           0
      1874 MEMB     16       PMPE     H2S      HAL2     0.900000E-01   1.00800           0
      1875 MEMB     16       PMPE     C3       CTL2     0.800000E-01   12.0110           0
      1876 MEMB     16       PMPE     HX       HAL2     0.900000E-01   1.00800           0
      1877 MEMB     16       PMPE     HY       HAL2     0.900000E-01   1.00800           0
      1878 MEMB     16       PMPE     O31      OSL     -0.490000       15.9994           0
      1879 MEMB     16       PMPE     C31      CL       0.900000       12.0110           0
      1880 MEMB     16       PMPE     O32      OBL     -0.630000       15.9994           0
      1881 MEMB     16       PMPE     C32      CTL2    -0.220000       12.0110           0
      1882 MEMB     16       PMPE     H2X      HAL2     0.900000E-01   1.00800           0
      1883 MEMB     16       PMPE     H2Y      HAL2     0.900000E-01   1.00800           0
      1884 MEMB     16       PMPE     C23      CTL2    -0.180000       12.0110           0
      1885 MEMB     16       PMPE     H3R      HAL2     0.900000E-01   1.00800           0
      1886 MEMB     16       PMPE     H3S      HAL2     0.900000E-01   1.00800           0
      1887 MEMB     16       PMPE     C24      CTL2    -0.180000       12.0110           0
      1888 MEMB     16       PMPE     H4R      HAL2     0.900000E-01   1.00800           0
      1889 MEMB     16       PMPE     H4S      HAL2     0.900000E-01   1.00800           0
      1890 MEMB     16       PMPE     C25      CTL2    -0.180000       12.0110           0
      1891 MEMB     16       PMPE     H5R      HAL2     0.900000E-01   1.00800           0
      1892 MEMB     16       PMPE     H5S      HAL2     0.900000E-01   1.00800           0
      1893 MEMB     16       PMPE     C26      CTL2    -0.180000       12.0110           0
      1894 MEMB     16       PMPE     H6R      HAL2     0.900000E-01   1.00800           0
      1895 MEMB     16       PMPE     H6S      HAL2     0.900000E-01   1.00800           0
      1896 MEMB     16       PMPE     C27      CTL2    -0.180000       12.0110           0
      1897 MEMB     16       PMPE     H7R      HAL2     0.900000E-01   1.00800           0
      1898 MEMB     16       PMPE     H7S      HAL2     0.900000E-01   1.00800           0
      1899 MEMB     16       PMPE     C28      CTL2    -0.180000       12.0110           0
      1900 MEMB     16       PMPE     H8R      HAL2     0.900000E-01   1.00800           0
      1901 MEMB     16       PMPE     H8S      HAL2     0.900000E-01   1.00800           0
      1902 MEMB     16       PMPE     C29      CG3RC1  -0.900000E-01   12.0110           0
      1903 MEMB     16       PMPE     H9R      HGA1     0.900000E-01   1.00800           0
      1904 MEMB     16       PMPE     C217     CG3C31  -0.180000       12.0110           0
      1905 MEMB     16       PMPE     H17R     HGA2     0.900000E-01   1.00800           0
      1906 MEMB     16       PMPE     H17S     HGA2     0.900000E-01   1.00800           0
      1907 MEMB     16       PMPE     C210     CG3RC1  -0.900000E-01   12.0110           0
      1908 MEMB     16       PMPE     H10R     HGA1     0.900000E-01   1.00800           0
      1909 MEMB     16       PMPE     C211     CTL2    -0.180000       12.0110           0
      1910 MEMB     16       PMPE     H11R     HAL2     0.900000E-01   1.00800           0
      1911 MEMB     16       PMPE     H11S     HAL2     0.900000E-01   1.00800           0
      1912 MEMB     16       PMPE     C212     CTL2    -0.180000       12.0110           0
      1913 MEMB     16       PMPE     H12R     HAL2     0.900000E-01   1.00800           0
      1914 MEMB     16       PMPE     H12S     HAL2     0.900000E-01   1.00800           0
      1915 MEMB     16       PMPE     C213     CTL2    -0.180000       12.0110           0
      1916 MEMB     16       PMPE     H13R     HAL2     0.900000E-01   1.00800           0
      1917 MEMB     16       PMPE     H13S     HAL2     0.900000E-01   1.00800           0
      1918 MEMB     16       PMPE     C214     CTL2    -0.180000       12.0110           0
      1919 MEMB     16       PMPE     H14R     HAL2     0.900000E-01   1.00800           0
      1920 MEMB     16       PMPE     H14S     HAL2     0.900000E-01   1.00800           0
      1921 MEMB     16       PMPE     C215     CTL2    -0.180000       12.0110           0
      1922 MEMB     16       PMPE     H15R     HAL2     0.900000E-01   1.00800           0
      1923 MEMB     16       PMPE     H15S     HAL2     0.900000E-01   1.00800           0
      1924 MEMB     16       PMPE     C216     CTL3    -0.270000       12.0110           0
      1925 MEMB     16       PMPE     H16R     HAL3     0.900000E-01   1.00800           0
      1926 MEMB     16       PMPE     H16S     HAL3     0.900000E-01   1.00800           0
      1927 MEMB     16       PMPE     H16T     HAL3     0.900000E-01   1.00800           0
      1928 MEMB     16       PMPE     C33      CTL2    -0.180000       12.0110           0
      1929 MEMB     16       PMPE     H3X      HAL2     0.900000E-01   1.00800           0
      1930 MEMB     16       PMPE     H3Y      HAL2     0.900000E-01   1.00800           0
      1931 MEMB     16       PMPE     C34      CTL2    -0.180000       12.0110           0
      1932 MEMB     16       PMPE     H4X      HAL2     0.900000E-01   1.00800           0
      1933 MEMB     16       PMPE     H4Y      HAL2     0.900000E-01   1.00800           0
      1934 MEMB     16       PMPE     C35      CTL2    -0.180000       12.0110           0
      1935 MEMB     16       PMPE     H5X      HAL2     0.900000E-01   1.00800           0
      1936 MEMB     16       PMPE     H5Y      HAL2     0.900000E-01   1.00800           0
      1937 MEMB     16       PMPE     C36      CTL2    -0.180000       12.0110           0
      1938 MEMB     16       PMPE     H6X      HAL2     0.900000E-01   1.00800           0
      1939 MEMB     16       PMPE     H6Y      HAL2     0.900000E-01   1.00800           0
      1940 MEMB     16       PMPE     C37      CTL2    -0.180000       12.0110           0
      1941 MEMB     16       PMPE     H7X      HAL2     0.900000E-01   1.00800           0
      1942 MEMB     16       PMPE     H7Y      HAL2     0.900000E-01   1.00800           0
      1943 MEMB     16       PMPE     C38      CTL2    -0.180000       12.0110           0
      1944 MEMB     16       PMPE     H8X      HAL2     0.900000E-01   1.00800           0
      1945 MEMB     16       PMPE     H8Y      HAL2     0.900000E-01   1.00800           0
      1946 MEMB     16       PMPE     C39      CTL2    -0.180000       12.0110           0
      1947 MEMB     16       PMPE     H9X      HAL2     0.900000E-01   1.00800           0
      1948 MEMB     16       PMPE     H9Y      HAL2     0.900000E-01   1.00800           0
      1949 MEMB     16       PMPE     C310     CTL2    -0.180000       12.0110           0
      1950 MEMB     16       PMPE     H10X     HAL2     0.900000E-01   1.00800           0
      1951 MEMB     16       PMPE     H10Y     HAL2     0.900000E-01   1.00800           0
      1952 MEMB     16       PMPE     C311     CTL2    -0.180000       12.0110           0
      1953 MEMB     16       PMPE     H11X     HAL2     0.900000E-01   1.00800           0
      1954 MEMB     16       PMPE     H11Y     HAL2     0.900000E-01   1.00800           0
      1955 MEMB     16       PMPE     C312     CTL2    -0.180000       12.0110           0
      1956 MEMB     16       PMPE     H12X     HAL2     0.900000E-01   1.00800           0
      1957 MEMB     16       PMPE     H12Y     HAL2     0.900000E-01   1.00800           0
      1958 MEMB     16       PMPE     C313     CTL2    -0.180000       12.0110           0
      1959 MEMB     16       PMPE     H13X     HAL2     0.900000E-01   1.00800           0
      1960 MEMB     16       PMPE     H13Y     HAL2     0.900000E-01   1.00800           0
      1961 MEMB     16       PMPE     C314     CTL2    -0.180000       12.0110           0
      1962 MEMB     16       PMPE     H14X     HAL2     0.900000E-01   1.00800           0
      1963 MEMB     16       PMPE     H14Y     HAL2     0.900000E-01   1.00800           0
      1964 MEMB     16       PMPE     C315     CTL2    -0.180000       12.0110           0
      1965 MEMB     16       PMPE     H15X     HAL2     0.900000E-01   1.00800           0
      1966 MEMB     16       PMPE     H15Y     HAL2     0.900000E-01   1.00800           0
      1967 MEMB     16       PMPE     C316     CTL3    -0.270000       12.0110           0
      1968 MEMB     16       PMPE     H16X     HAL3     0.900000E-01   1.00800           0
      1969 MEMB     16       PMPE     H16Y     HAL3     0.900000E-01   1.00800           0
      1970 MEMB     16       PMPE     H16Z     HAL3     0.900000E-01   1.00800           0
      1971 MEMB     17       PMPE     N        NH3L    -0.300000       14.0070           0
      1972 MEMB     17       PMPE     HN1      HCL      0.330000       1.00800           0
      1973 MEMB     17       PMPE     HN2      HCL      0.330000       1.00800           0
      1974 MEMB     17       PMPE     HN3      HCL      0.330000       1.00800           0
      1975 MEMB     17       PMPE     C12      CTL2     0.130000       12.0110           0
      1976 MEMB     17       PMPE     H12A     HAL2     0.900000E-01   1.00800           0
      1977 MEMB     17       PMPE     H12B     HAL2     0.900000E-01   1.00800           0
      1978 MEMB     17       PMPE     C11      CTL2    -0.800000E-01   12.0110           0
      1979 MEMB     17       PMPE     H11A     HAL2     0.900000E-01   1.00800           0
      1980 MEMB     17       PMPE     H11B     HAL2     0.900000E-01   1.00800           0
      1981 MEMB     17       PMPE     P        PL        1.50000       30.9740           0
      1982 MEMB     17       PMPE     O13      O2L     -0.780000       15.9994           0
      1983 MEMB     17       PMPE     O14      O2L     -0.780000       15.9994           0
      1984 MEMB     17       PMPE     O11      OSLP    -0.570000       15.9994           0
      1985 MEMB     17       PMPE     O12      OSLP    -0.570000       15.9994           0
      1986 MEMB     17       PMPE     C1       CTL2    -0.800000E-01   12.0110           0
      1987 MEMB     17       PMPE     HA       HAL2     0.900000E-01   1.00800           0
      1988 MEMB     17       PMPE     HB       HAL2     0.900000E-01   1.00800           0
      1989 MEMB     17       PMPE     C2       CTL1     0.170000       12.0110           0
      1990 MEMB     17       PMPE     HS       HAL1     0.900000E-01   1.00800           0
      1991 MEMB     17       PMPE     O21      OSL     -0.490000       15.9994           0
      1992 MEMB     17       PMPE     C21      CL       0.900000       12.0110           0
      1993 MEMB     17       PMPE     O22      OBL     -0.630000       15.9994           0
      1994 MEMB     17       PMPE     C22      CTL2    -0.220000       12.0110           0
      1995 MEMB     17       PMPE     H2R      HAL2     0.900000E-01   1.00800           0
      1996 MEMB     17       PMPE     H2S      HAL2     0.900000E-01   1.00800           0
      1997 MEMB     17       PMPE     C3       CTL2     0.800000E-01   12.0110           0
      1998 MEMB     17       PMPE     HX       HAL2     0.900000E-01   1.00800           0
      1999 MEMB     17       PMPE     HY       HAL2     0.900000E-01   1.00800           0
      2000 MEMB     17       PMPE     O31      OSL     -0.490000       15.9994           0
      2001 MEMB     17       PMPE     C31      CL       0.900000       12.0110           0
      2002 MEMB     17       PMPE     O32      OBL     -0.630000       15.9994           0
      2003 MEMB     17       PMPE     C32      CTL2    -0.220000       12.0110           0
      2004 MEMB     17       PMPE     H2X      HAL2     0.900000E-01   1.00800           0
      2005 MEMB     17       PMPE     H2Y      HAL2     0.900000E-01   1.00800           0
      2006 MEMB     17       PMPE     C23      CTL2    -0.180000       12.0110           0
      2007 MEMB     17       PMPE     H3R      HAL2     0.900000E-01   1.00800           0
      2008 MEMB     17       PMPE     H3S      HAL2     0.900000E-01   1.00800           0
      2009 MEMB     17       PMPE     C24      CTL2    -0.180000       12.0110           0
      2010 MEMB     17       PMPE     H4R      HAL2     0.900000E-01   1.00800           0
      2011 MEMB     17       PMPE     H4S      HAL2     0.900000E-01   1.00800           0
      2012 MEMB     17       PMPE     C25      CTL2    -0.180000       12.0110           0
      2013 MEMB     17       PMPE     H5R      HAL2     0.900000E-01   1.00800           0
      2014 MEMB     17       PMPE     H5S      HAL2     0.900000E-01   1.00800           0
      2015 MEMB     17       PMPE     C26      CTL2    -0.180000       12.0110           0
      2016 MEMB     17       PMPE     H6R      HAL2     0.900000E-01   1.00800           0
      2017 MEMB     17       PMPE     H6S      HAL2     0.900000E-01   1.00800           0
      2018 MEMB     17       PMPE     C27      CTL2    -0.180000       12.0110           0
      2019 MEMB     17       PMPE     H7R      HAL2     0.900000E-01   1.00800           0
      2020 MEMB     17       PMPE     H7S      HAL2     0.900000E-01   1.00800           0
      2021 MEMB     17       PMPE     C28      CTL2    -0.180000       12.0110           0
      2022 MEMB     17       PMPE     H8R      HAL2     0.900000E-01   1.00800           0
      2023 MEMB     17       PMPE     H8S      HAL2     0.900000E-01   1.00800           0
      2024 MEMB     17       PMPE     C29      CG3RC1  -0.900000E-01   12.0110           0
      2025 MEMB     17       PMPE     H9R      HGA1     0.900000E-01   1.00800           0
      2026 MEMB     17       PMPE     C217     CG3C31  -0.180000       12.0110           0
      2027 MEMB     17       PMPE     H17R     HGA2     0.900000E-01   1.00800           0
      2028 MEMB     17       PMPE     H17S     HGA2     0.900000E-01   1.00800           0
      2029 MEMB     17       PMPE     C210     CG3RC1  -0.900000E-01   12.0110           0
      2030 MEMB     17       PMPE     H10R     HGA1     0.900000E-01   1.00800           0
      2031 MEMB     17       PMPE     C211     CTL2    -0.180000       12.0110           0
      2032 MEMB     17       PMPE     H11R     HAL2     0.900000E-01   1.00800           0
      2033 MEMB     17       PMPE     H11S     HAL2     0.900000E-01   1.00800           0
      2034 MEMB     17       PMPE     C212     CTL2    -0.180000       12.0110           0
      2035 MEMB     17       PMPE     H12R     HAL2     0.900000E-01   1.00800           0
      2036 MEMB     17       PMPE     H12S     HAL2     0.900000E-01   1.00800           0
      2037 MEMB     17       PMPE     C213     CTL2    -0.180000       12.0110           0
      2038 MEMB     17       PMPE     H13R     HAL2     0.900000E-01   1.00800           0
      2039 MEMB     17       PMPE     H13S     HAL2     0.900000E-01   1.00800           0
      2040 MEMB     17       PMPE     C214     CTL2    -0.180000       12.0110           0
      2041 MEMB     17       PMPE     H14R     HAL2     0.900000E-01   1.00800           0
      2042 MEMB     17       PMPE     H14S     HAL2     0.900000E-01   1.00800           0
      2043 MEMB     17       PMPE     C215     CTL2    -0.180000       12.0110           0
      2044 MEMB     17       PMPE     H15R     HAL2     0.900000E-01   1.00800           0
      2045 MEMB     17       PMPE     H15S     HAL2     0.900000E-01   1.00800           0
      2046 MEMB     17       PMPE     C216     CTL3    -0.270000       12.0110           0
      2047 MEMB     17       PMPE     H16R     HAL3     0.900000E-01   1.00800           0
      2048 MEMB     17       PMPE     H16S     HAL3     0.900000E-01   1.00800           0
      2049 MEMB     17       PMPE     H16T     HAL3     0.900000E-01   1.00800           0
      2050 MEMB     17       PMPE     C33      CTL2    -0.180000       12.0110           0
      2051 MEMB     17       PMPE     H3X      HAL2     0.900000E-01   1.00800           0
      2052 MEMB     17       PMPE     H3Y      HAL2     0.900000E-01   1.00800           0
      2053 MEMB     17       PMPE     C34      CTL2    -0.180000       12.0110           0
      2054 MEMB     17       PMPE     H4X      HAL2     0.900000E-01   1.00800           0
      2055 MEMB     17       PMPE     H4Y      HAL2     0.900000E-01   1.00800           0
      2056 MEMB     17       PMPE     C35      CTL2    -0.180000       12.0110           0
      2057 MEMB     17       PMPE     H5X      HAL2     0.900000E-01   1.00800           0
      2058 MEMB     17       PMPE     H5Y      HAL2     0.900000E-01   1.00800           0
      2059 MEMB     17       PMPE     C36      CTL2    -0.180000       12.0110           0
      2060 MEMB     17       PMPE     H6X      HAL2     0.900000E-01   1.00800           0
      2061 MEMB     17       PMPE     H6Y      HAL2     0.900000E-01   1.00800           0
      2062 MEMB     17       PMPE     C37      CTL2    -0.180000       12.0110           0
      2063 MEMB     17       PMPE     H7X      HAL2     0.900000E-01   1.00800           0
      2064 MEMB     17       PMPE     H7Y      HAL2     0.900000E-01   1.00800           0
      2065 MEMB     17       PMPE     C38      CTL2    -0.180000       12.0110           0
      2066 MEMB     17       PMPE     H8X      HAL2     0.900000E-01   1.00800           0
      2067 MEMB     17       PMPE     H8Y      HAL2     0.900000E-01   1.00800           0
      2068 MEMB     17       PMPE     C39      CTL2    -0.180000       12.0110           0
      2069 MEMB     17       PMPE     H9X      HAL2     0.900000E-01   1.00800           0
      2070 MEMB     17       PMPE     H9Y      HAL2     0.900000E-01   1.00800           0
      2071 MEMB     17       PMPE     C310     CTL2    -0.180000       12.0110           0
      2072 MEMB     17       PMPE     H10X     HAL2     0.900000E-01   1.00800           0
      2073 MEMB     17       PMPE     H10Y     HAL2     0.900000E-01   1.00800           0
      2074 MEMB     17       PMPE     C311     CTL2    -0.180000       12.0110           0
      2075 MEMB     17       PMPE     H11X     HAL2     0.900000E-01   1.00800           0
      2076 MEMB     17       PMPE     H11Y     HAL2     0.900000E-01   1.00800           0
      2077 MEMB     17       PMPE     C312     CTL2    -0.180000       12.0110           0
      2078 MEMB     17       PMPE     H12X     HAL2     0.900000E-01   1.00800           0
      2079 MEMB     17       PMPE     H12Y     HAL2     0.900000E-01   1.00800           0
      2080 MEMB     17       PMPE     C313     CTL2    -0.180000       12.0110           0
      2081 MEMB     17       PMPE     H13X     HAL2     0.900000E-01   1.00800           0
      2082 MEMB     17       PMPE     H13Y     HAL2     0.900000E-01   1.00800           0
      2083 MEMB     17       PMPE     C314     CTL2    -0.180000       12.0110           0
      2084 MEMB     17       PMPE     H14X     HAL2     0.900000E-01   1.00800           0
      2085 MEMB     17       PMPE     H14Y     HAL2     0.900000E-01   1.00800           0
      2086 MEMB     17       PMPE     C315     CTL2    -0.180000       12.0110           0
      2087 MEMB     17       PMPE     H15X     HAL2     0.900000E-01   1.00800           0
      2088 MEMB     17       PMPE     H15Y     HAL2     0.900000E-01   1.00800           0
      2089 MEMB     17       PMPE     C316     CTL3    -0.270000       12.0110           0
      2090 MEMB     17       PMPE     H16X     HAL3     0.900000E-01   1.00800           0
      2091 MEMB     17       PMPE     H16Y     HAL3     0.900000E-01   1.00800           0
      2092 MEMB     17       PMPE     H16Z     HAL3     0.900000E-01   1.00800           0
      2093 MEMB     18       PMPE     N        NH3L    -0.300000       14.0070           0
      2094 MEMB     18       PMPE     HN1      HCL      0.330000       1.00800           0
      2095 MEMB     18       PMPE     HN2      HCL      0.330000       1.00800           0
      2096 MEMB     18       PMPE     HN3      HCL      0.330000       1.00800           0
      2097 MEMB     18       PMPE     C12      CTL2     0.130000       12.0110           0
      2098 MEMB     18       PMPE     H12A     HAL2     0.900000E-01   1.00800           0
      2099 MEMB     18       PMPE     H12B     HAL2     0.900000E-01   1.00800           0
      2100 MEMB     18       PMPE     C11      CTL2    -0.800000E-01   12.0110           0
      2101 MEMB     18       PMPE     H11A     HAL2     0.900000E-01   1.00800           0
      2102 MEMB     18       PMPE     H11B     HAL2     0.900000E-01   1.00800           0
      2103 MEMB     18       PMPE     P        PL        1.50000       30.9740           0
      2104 MEMB     18       PMPE     O13      O2L     -0.780000       15.9994           0
      2105 MEMB     18       PMPE     O14      O2L     -0.780000       15.9994           0
      2106 MEMB     18       PMPE     O11      OSLP    -0.570000       15.9994           0
      2107 MEMB     18       PMPE     O12      OSLP    -0.570000       15.9994           0
      2108 MEMB     18       PMPE     C1       CTL2    -0.800000E-01   12.0110           0
      2109 MEMB     18       PMPE     HA       HAL2     0.900000E-01   1.00800           0
      2110 MEMB     18       PMPE     HB       HAL2     0.900000E-01   1.00800           0
      2111 MEMB     18       PMPE     C2       CTL1     0.170000       12.0110           0
      2112 MEMB     18       PMPE     HS       HAL1     0.900000E-01   1.00800           0
      2113 MEMB     18       PMPE     O21      OSL     -0.490000       15.9994           0
      2114 MEMB     18       PMPE     C21      CL       0.900000       12.0110           0
      2115 MEMB     18       PMPE     O22      OBL     -0.630000       15.9994           0
      2116 MEMB     18       PMPE     C22      CTL2    -0.220000       12.0110           0
      2117 MEMB     18       PMPE     H2R      HAL2     0.900000E-01   1.00800           0
      2118 MEMB     18       PMPE     H2S      HAL2     0.900000E-01   1.00800           0
      2119 MEMB     18       PMPE     C3       CTL2     0.800000E-01   12.0110           0
      2120 MEMB     18       PMPE     HX       HAL2     0.900000E-01   1.00800           0
      2121 MEMB     18       PMPE     HY       HAL2     0.900000E-01   1.00800           0
      2122 MEMB     18       PMPE     O31      OSL     -0.490000       15.9994           0
      2123 MEMB     18       PMPE     C31      CL       0.900000       12.0110           0
      2124 MEMB     18       PMPE     O32      OBL     -0.630000       15.9994           0
      2125 MEMB     18       PMPE     C32      CTL2    -0.220000       12.0110           0
      2126 MEMB     18       PMPE     H2X      HAL2     0.900000E-01   1.00800           0
      2127 MEMB     18       PMPE     H2Y      HAL2     0.900000E-01   1.00800           0
      2128 MEMB     18       PMPE     C23      CTL2    -0.180000       12.0110           0
      2129 MEMB     18       PMPE     H3R      HAL2     0.900000E-01   1.00800           0
      2130 MEMB     18       PMPE     H3S      HAL2     0.900000E-01   1.00800           0
      2131 MEMB     18       PMPE     C24      CTL2    -0.180000       12.0110           0
      2132 MEMB     18       PMPE     H4R      HAL2     0.900000E-01   1.00800           0
      2133 MEMB     18       PMPE     H4S      HAL2     0.900000E-01   1.00800           0
      2134 MEMB     18       PMPE     C25      CTL2    -0.180000       12.0110           0
      2135 MEMB     18       PMPE     H5R      HAL2     0.900000E-01   1.00800           0
      2136 MEMB     18       PMPE     H5S      HAL2     0.900000E-01   1.00800           0
      2137 MEMB     18       PMPE     C26      CTL2    -0.180000       12.0110           0
      2138 MEMB     18       PMPE     H6R      HAL2     0.900000E-01   1.00800           0
      2139 MEMB     18       PMPE     H6S      HAL2     0.900000E-01   1.00800           0
      2140 MEMB     18       PMPE     C27      CTL2    -0.180000       12.0110           0
      2141 MEMB     18       PMPE     H7R      HAL2     0.900000E-01   1.00800           0
      2142 MEMB     18       PMPE     H7S      HAL2     0.900000E-01   1.00800           0
      2143 MEMB     18       PMPE     C28      CTL2    -0.180000       12.0110           0
      2144 MEMB     18       PMPE     H8R      HAL2     0.900000E-01   1.00800           0
      2145 MEMB     18       PMPE     H8S      HAL2     0.900000E-01   1.00800           0
      2146 MEMB     18       PMPE     C29      CG3RC1  -0.900000E-01   12.0110           0
      2147 MEMB     18       PMPE     H9R      HGA1     0.900000E-01   1.00800           0
      2148 MEMB     18       PMPE     C217     CG3C31  -0.180000       12.0110           0
      2149 MEMB     18       PMPE     H17R     HGA2     0.900000E-01   1.00800           0
      2150 MEMB     18       PMPE     H17S     HGA2     0.900000E-01   1.00800           0
      2151 MEMB     18       PMPE     C210     CG3RC1  -0.900000E-01   12.0110           0
      2152 MEMB     18       PMPE     H10R     HGA1     0.900000E-01   1.00800           0
      2153 MEMB     18       PMPE     C211     CTL2    -0.180000       12.0110           0
      2154 MEMB     18       PMPE     H11R     HAL2     0.900000E-01   1.00800           0
      2155 MEMB     18       PMPE     H11S     HAL2     0.900000E-01   1.00800           0
      2156 MEMB     18       PMPE     C212     CTL2    -0.180000       12.0110           0
      2157 MEMB     18       PMPE     H12R     HAL2     0.900000E-01   1.00800           0
      2158 MEMB     18       PMPE     H12S     HAL2     0.900000E-01   1.00800           0
      2159 MEMB     18       PMPE     C213     CTL2    -0.180000       12.0110           0
      2160 MEMB     18       PMPE     H13R     HAL2     0.900000E-01   1.00800           0
      2161 MEMB     18       PMPE     H13S     HAL2     0.900000E-01   1.00800           0
      2162 MEMB     18       PMPE     C214     CTL2    -0.180000       12.0110           0
      2163 MEMB     18       PMPE     H14R     HAL2     0.900000E-01   1.00800           0
      2164 MEMB     18       PMPE     H14S     HAL2     0.900000E-01   1.00800           0
      2165 MEMB     18       PMPE     C215     CTL2    -0.180000       12.0110           0
      2166 MEMB     18       PMPE     H15R     HAL2     0.900000E-01   1.00800           0
      2167 MEMB     18       PMPE     H15S     HAL2     0.900000E-01   1.00800           0
      2168 MEMB     18       PMPE     C216     CTL3    -0.270000       12.0110           0
      2169 MEMB     18       PMPE     H16R     HAL3     0.900000E-01   1.00800           0
      2170 MEMB     18       PMPE     H16S     HAL3     0.900000E-01   1.00800           0
      2171 MEMB     18       PMPE     H16T     HAL3     0.900000E-01   1.00800           0
      2172 MEMB     18       PMPE     C33      CTL2    -0.180000       12.0110           0
      2173 MEMB     18       PMPE     H3X      HAL2     0.900000E-01   1.00800           0
      2174 MEMB     18       PMPE     H3Y      HAL2     0.900000E-01   1.00800           0
      2175 MEMB     18       PMPE     C34      CTL2    -0.180000       12.0110           0
      2176 MEMB     18       PMPE     H4X      HAL2     0.900000E-01   1.00800           0
      2177 MEMB     18       PMPE     H4Y      HAL2     0.900000E-01   1.00800           0
      2178 MEMB     18       PMPE     C35      CTL2    -0.180000       12.0110           0
      2179 MEMB     18       PMPE     H5X      HAL2     0.900000E-01   1.00800           0
      2180 MEMB     18       PMPE     H5Y      HAL2     0.900000E-01   1.00800           0
      2181 MEMB     18       PMPE     C36      CTL2    -0.180000       12.0110           0
      2182 MEMB     18       PMPE     H6X      HAL2     0.900000E-01   1.00800           0
      2183 MEMB     18       PMPE     H6Y      HAL2     0.900000E-01   1.00800           0
      2184 MEMB     18       PMPE     C37      CTL2    -0.180000       12.0110           0
      2185 MEMB     18       PMPE     H7X      HAL2     0.900000E-01   1.00800           0
      2186 MEMB     18       PMPE     H7Y      HAL2     0.900000E-01   1.00800           0
      2187 MEMB     18       PMPE     C38      CTL2    -0.180000       12.0110           0
      2188 MEMB     18       PMPE     H8X      HAL2     0.900000E-01   1.00800           0
      2189 MEMB     18       PMPE     H8Y      HAL2     0.900000E-01   1.00800           0
      2190 MEMB     18       PMPE     C39      CTL2    -0.180000       12.0110           0
      2191 MEMB     18       PMPE     H9X      HAL2     0.900000E-01   1.00800           0
      2192 MEMB     18       PMPE     H9Y      HAL2     0.900000E-01   1.00800           0
      2193 MEMB     18       PMPE     C310     CTL2    -0.180000       12.0110           0
      2194 MEMB     18       PMPE     H10X     HAL2     0.900000E-01   1.00800           0
      2195 MEMB     18       PMPE     H10Y     HAL2     0.900000E-01   1.00800           0
      2196 MEMB     18       PMPE     C311     CTL2    -0.180000       12.0110           0
      2197 MEMB     18       PMPE     H11X     HAL2     0.900000E-01   1.00800           0
      2198 MEMB     18       PMPE     H11Y     HAL2     0.900000E-01   1.00800           0
      2199 MEMB     18       PMPE     C312     CTL2    -0.180000       12.0110           0
      2200 MEMB     18       PMPE     H12X     HAL2     0.900000E-01   1.00800           0
      2201 MEMB     18       PMPE     H12Y     HAL2     0.900000E-01   1.00800           0
      2202 MEMB     18       PMPE     C313     CTL2    -0.180000       12.0110           0
      2203 MEMB     18       PMPE     H13X     HAL2     0.900000E-01   1.00800           0
      2204 MEMB     18       PMPE     H13Y     HAL2     0.900000E-01   1.00800           0
      2205 MEMB     18       PMPE     C314     CTL2    -0.180000       12.0110           0
      2206 MEMB     18       PMPE     H14X     HAL2     0.900000E-01   1.00800           0
      2207 MEMB     18       PMPE     H14Y     HAL2     0.900000E-01   1.00800           0
      2208 MEMB     18       PMPE     C315     CTL2    -0.180000       12.0110           0
      2209 MEMB     18       PMPE     H15X     HAL2     0.900000E-01   1.00800           0
      2210 MEMB     18       PMPE     H15Y     HAL2     0.900000E-01   1.00800           0
      2211 MEMB     18       PMPE     C316     CTL3    -0.270000       12.0110           0
      2212 MEMB     18       PMPE     H16X     HAL3     0.900000E-01   1.00800           0
      2213 MEMB     18       PMPE     H16Y     HAL3     0.900000E-01   1.00800           0
      2214 MEMB     18       PMPE     H16Z     HAL3     0.900000E-01   1.00800           0
      2215 MEMB     19       PYPG     C13      CTL2     0.500000E-01   12.0110           0
      2216 MEMB     19       PYPG     H13A     HAL2     0.900000E-01   1.00800           0
      2217 MEMB     19       PYPG     H13B     HAL2     0.900000E-01   1.00800           0
      2218 MEMB     19       PYPG     OC3      OHL     -0.660000       15.9994           0
      2219 MEMB     19       PYPG     HO3      HOL      0.430000       1.00800           0
      2220 MEMB     19       PYPG     C12      CTL1     0.140000       12.0110           0
      2221 MEMB     19       PYPG     H12A     HAL1     0.900000E-01   1.00800           0
      2222 MEMB     19       PYPG     OC2      OHL     -0.660000       15.9994           0
      2223 MEMB     19       PYPG     HO2      HOL      0.430000       1.00800           0
      2224 MEMB     19       PYPG     C11      CTL2    -0.800000E-01   12.0110           0
      2225 MEMB     19       PYPG     H11A     HAL2     0.900000E-01   1.00800           0
      2226 MEMB     19       PYPG     H11B     HAL2     0.900000E-01   1.00800           0
      2227 MEMB     19       PYPG     P        PL        1.50000       30.9740           0
      2228 MEMB     19       PYPG     O13      O2L     -0.780000       15.9994           0
      2229 MEMB     19       PYPG     O14      O2L     -0.780000       15.9994           0
      2230 MEMB     19       PYPG     O11      OSLP    -0.570000       15.9994           0
      2231 MEMB     19       PYPG     O12      OSLP    -0.570000       15.9994           0
      2232 MEMB     19       PYPG     C1       CTL2    -0.800000E-01   12.0110           0
      2233 MEMB     19       PYPG     HA       HAL2     0.900000E-01   1.00800           0
      2234 MEMB     19       PYPG     HB       HAL2     0.900000E-01   1.00800           0
      2235 MEMB     19       PYPG     C2       CTL1     0.170000       12.0110           0
      2236 MEMB     19       PYPG     HS       HAL1     0.900000E-01   1.00800           0
      2237 MEMB     19       PYPG     O21      OSL     -0.490000       15.9994           0
      2238 MEMB     19       PYPG     C21      CL       0.900000       12.0110           0
      2239 MEMB     19       PYPG     O22      OBL     -0.630000       15.9994           0
      2240 MEMB     19       PYPG     C22      CTL2    -0.220000       12.0110           0
      2241 MEMB     19       PYPG     H2R      HAL2     0.900000E-01   1.00800           0
      2242 MEMB     19       PYPG     H2S      HAL2     0.900000E-01   1.00800           0
      2243 MEMB     19       PYPG     C3       CTL2     0.800000E-01   12.0110           0
      2244 MEMB     19       PYPG     HX       HAL2     0.900000E-01   1.00800           0
      2245 MEMB     19       PYPG     HY       HAL2     0.900000E-01   1.00800           0
      2246 MEMB     19       PYPG     O31      OSL     -0.490000       15.9994           0
      2247 MEMB     19       PYPG     C31      CL       0.900000       12.0110           0
      2248 MEMB     19       PYPG     O32      OBL     -0.630000       15.9994           0
      2249 MEMB     19       PYPG     C32      CTL2    -0.220000       12.0110           0
      2250 MEMB     19       PYPG     H2X      HAL2     0.900000E-01   1.00800           0
      2251 MEMB     19       PYPG     H2Y      HAL2     0.900000E-01   1.00800           0
      2252 MEMB     19       PYPG     C23      CTL2    -0.180000       12.0110           0
      2253 MEMB     19       PYPG     H3R      HAL2     0.900000E-01   1.00800           0
      2254 MEMB     19       PYPG     H3S      HAL2     0.900000E-01   1.00800           0
      2255 MEMB     19       PYPG     C24      CTL2    -0.180000       12.0110           0
      2256 MEMB     19       PYPG     H4R      HAL2     0.900000E-01   1.00800           0
      2257 MEMB     19       PYPG     H4S      HAL2     0.900000E-01   1.00800           0
      2258 MEMB     19       PYPG     C25      CTL2    -0.180000       12.0110           0
      2259 MEMB     19       PYPG     H5R      HAL2     0.900000E-01   1.00800           0
      2260 MEMB     19       PYPG     H5S      HAL2     0.900000E-01   1.00800           0
      2261 MEMB     19       PYPG     C26      CTL2    -0.180000       12.0110           0
      2262 MEMB     19       PYPG     H6R      HAL2     0.900000E-01   1.00800           0
      2263 MEMB     19       PYPG     H6S      HAL2     0.900000E-01   1.00800           0
      2264 MEMB     19       PYPG     C27      CTL2    -0.180000       12.0110           0
      2265 MEMB     19       PYPG     H7R      HAL2     0.900000E-01   1.00800           0
      2266 MEMB     19       PYPG     H7S      HAL2     0.900000E-01   1.00800           0
      2267 MEMB     19       PYPG     C28      CTL2    -0.180000       12.0110           0
      2268 MEMB     19       PYPG     H8R      HAL2     0.900000E-01   1.00800           0
      2269 MEMB     19       PYPG     H8S      HAL2     0.900000E-01   1.00800           0
      2270 MEMB     19       PYPG     C29      CEL1    -0.150000       12.0110           0
      2271 MEMB     19       PYPG     H9R      HEL1     0.150000       1.00800           0
      2272 MEMB     19       PYPG     C210     CEL1    -0.150000       12.0110           0
      2273 MEMB     19       PYPG     H10R     HEL1     0.150000       1.00800           0
      2274 MEMB     19       PYPG     C211     CTL2    -0.180000       12.0110           0
      2275 MEMB     19       PYPG     H11R     HAL2     0.900000E-01   1.00800           0
      2276 MEMB     19       PYPG     H11S     HAL2     0.900000E-01   1.00800           0
      2277 MEMB     19       PYPG     C212     CTL2    -0.180000       12.0110           0
      2278 MEMB     19       PYPG     H12R     HAL2     0.900000E-01   1.00800           0
      2279 MEMB     19       PYPG     H12S     HAL2     0.900000E-01   1.00800           0
      2280 MEMB     19       PYPG     C213     CTL2    -0.180000       12.0110           0
      2281 MEMB     19       PYPG     H13R     HAL2     0.900000E-01   1.00800           0
      2282 MEMB     19       PYPG     H13S     HAL2     0.900000E-01   1.00800           0
      2283 MEMB     19       PYPG     C214     CTL2    -0.180000       12.0110           0
      2284 MEMB     19       PYPG     H14R     HAL2     0.900000E-01   1.00800           0
      2285 MEMB     19       PYPG     H14S     HAL2     0.900000E-01   1.00800           0
      2286 MEMB     19       PYPG     C215     CTL2    -0.180000       12.0110           0
      2287 MEMB     19       PYPG     H15R     HAL2     0.900000E-01   1.00800           0
      2288 MEMB     19       PYPG     H15S     HAL2     0.900000E-01   1.00800           0
      2289 MEMB     19       PYPG     C216     CTL3    -0.270000       12.0110           0
      2290 MEMB     19       PYPG     H16R     HAL3     0.900000E-01   1.00800           0
      2291 MEMB     19       PYPG     H16S     HAL3     0.900000E-01   1.00800           0
      2292 MEMB     19       PYPG     H16T     HAL3     0.900000E-01   1.00800           0
      2293 MEMB     19       PYPG     C33      CTL2    -0.180000       12.0110           0
      2294 MEMB     19       PYPG     H3X      HAL2     0.900000E-01   1.00800           0
      2295 MEMB     19       PYPG     H3Y      HAL2     0.900000E-01   1.00800           0
      2296 MEMB     19       PYPG     C34      CTL2    -0.180000       12.0110           0
      2297 MEMB     19       PYPG     H4X      HAL2     0.900000E-01   1.00800           0
      2298 MEMB     19       PYPG     H4Y      HAL2     0.900000E-01   1.00800           0
      2299 MEMB     19       PYPG     C35      CTL2    -0.180000       12.0110           0
      2300 MEMB     19       PYPG     H5X      HAL2     0.900000E-01   1.00800           0
      2301 MEMB     19       PYPG     H5Y      HAL2     0.900000E-01   1.00800           0
      2302 MEMB     19       PYPG     C36      CTL2    -0.180000       12.0110           0
      2303 MEMB     19       PYPG     H6X      HAL2     0.900000E-01   1.00800           0
      2304 MEMB     19       PYPG     H6Y      HAL2     0.900000E-01   1.00800           0
      2305 MEMB     19       PYPG     C37      CTL2    -0.180000       12.0110           0
      2306 MEMB     19       PYPG     H7X      HAL2     0.900000E-01   1.00800           0
      2307 MEMB     19       PYPG     H7Y      HAL2     0.900000E-01   1.00800           0
      2308 MEMB     19       PYPG     C38      CTL2    -0.180000       12.0110           0
      2309 MEMB     19       PYPG     H8X      HAL2     0.900000E-01   1.00800           0
      2310 MEMB     19       PYPG     H8Y      HAL2     0.900000E-01   1.00800           0
      2311 MEMB     19       PYPG     C39      CTL2    -0.180000       12.0110           0
      2312 MEMB     19       PYPG     H9X      HAL2     0.900000E-01   1.00800           0
      2313 MEMB     19       PYPG     H9Y      HAL2     0.900000E-01   1.00800           0
      2314 MEMB     19       PYPG     C310     CTL2    -0.180000       12.0110           0
      2315 MEMB     19       PYPG     H10X     HAL2     0.900000E-01   1.00800           0
      2316 MEMB     19       PYPG     H10Y     HAL2     0.900000E-01   1.00800           0
      2317 MEMB     19       PYPG     C311     CTL2    -0.180000       12.0110           0
      2318 MEMB     19       PYPG     H11X     HAL2     0.900000E-01   1.00800           0
      2319 MEMB     19       PYPG     H11Y     HAL2     0.900000E-01   1.00800           0
      2320 MEMB     19       PYPG     C312     CTL2    -0.180000       12.0110           0
      2321 MEMB     19       PYPG     H12X     HAL2     0.900000E-01   1.00800           0
      2322 MEMB     19       PYPG     H12Y     HAL2     0.900000E-01   1.00800           0
      2323 MEMB     19       PYPG     C313     CTL2    -0.180000       12.0110           0
      2324 MEMB     19       PYPG     H13X     HAL2     0.900000E-01   1.00800           0
      2325 MEMB     19       PYPG     H13Y     HAL2     0.900000E-01   1.00800           0
      2326 MEMB     19       PYPG     C314     CTL2    -0.180000       12.0110           0
      2327 MEMB     19       PYPG     H14X     HAL2     0.900000E-01   1.00800           0
      2328 MEMB     19       PYPG     H14Y     HAL2     0.900000E-01   1.00800           0
      2329 MEMB     19       PYPG     C315     CTL2    -0.180000       12.0110           0
      2330 MEMB     19       PYPG     H15X     HAL2     0.900000E-01   1.00800           0
      2331 MEMB     19       PYPG     H15Y     HAL2     0.900000E-01   1.00800           0
      2332 MEMB     19       PYPG     C316     CTL3    -0.270000       12.0110           0
      2333 MEMB     19       PYPG     H16X     HAL3     0.900000E-01   1.00800           0
      2334 MEMB     19       PYPG     H16Y     HAL3     0.900000E-01   1.00800           0
      2335 MEMB     19       PYPG     H16Z     HAL3     0.900000E-01   1.00800           0
      2336 MEMB     20       QMPE     N        NH3L    -0.300000       14.0070           0
      2337 MEMB     20       QMPE     HN1      HCL      0.330000       1.00800           0
      2338 MEMB     20       QMPE     HN2      HCL      0.330000       1.00800           0
      2339 MEMB     20       QMPE     HN3      HCL      0.330000       1.00800           0
      2340 MEMB     20       QMPE     C12      CTL2     0.130000       12.0110           0
      2341 MEMB     20       QMPE     H12A     HAL2     0.900000E-01   1.00800           0
      2342 MEMB     20       QMPE     H12B     HAL2     0.900000E-01   1.00800           0
      2343 MEMB     20       QMPE     C11      CTL2    -0.800000E-01   12.0110           0
      2344 MEMB     20       QMPE     H11A     HAL2     0.900000E-01   1.00800           0
      2345 MEMB     20       QMPE     H11B     HAL2     0.900000E-01   1.00800           0
      2346 MEMB     20       QMPE     P        PL        1.50000       30.9740           0
      2347 MEMB     20       QMPE     O13      O2L     -0.780000       15.9994           0
      2348 MEMB     20       QMPE     O14      O2L     -0.780000       15.9994           0
      2349 MEMB     20       QMPE     O11      OSLP    -0.570000       15.9994           0
      2350 MEMB     20       QMPE     O12      OSLP    -0.570000       15.9994           0
      2351 MEMB     20       QMPE     C1       CTL2    -0.800000E-01   12.0110           0
      2352 MEMB     20       QMPE     HA       HAL2     0.900000E-01   1.00800           0
      2353 MEMB     20       QMPE     HB       HAL2     0.900000E-01   1.00800           0
      2354 MEMB     20       QMPE     C2       CTL1     0.170000       12.0110           0
      2355 MEMB     20       QMPE     HS       HAL1     0.900000E-01   1.00800           0
      2356 MEMB     20       QMPE     O21      OSL     -0.490000       15.9994           0
      2357 MEMB     20       QMPE     C21      CL       0.900000       12.0110           0
      2358 MEMB     20       QMPE     O22      OBL     -0.630000       15.9994           0
      2359 MEMB     20       QMPE     C22      CTL2    -0.220000       12.0110           0
      2360 MEMB     20       QMPE     H2R      HAL2     0.900000E-01   1.00800           0
      2361 MEMB     20       QMPE     H2S      HAL2     0.900000E-01   1.00800           0
      2362 MEMB     20       QMPE     C3       CTL2     0.800000E-01   12.0110           0
      2363 MEMB     20       QMPE     HX       HAL2     0.900000E-01   1.00800           0
      2364 MEMB     20       QMPE     HY       HAL2     0.900000E-01   1.00800           0
      2365 MEMB     20       QMPE     O31      OSL     -0.490000       15.9994           0
      2366 MEMB     20       QMPE     C31      CL       0.900000       12.0110           0
      2367 MEMB     20       QMPE     O32      OBL     -0.630000       15.9994           0
      2368 MEMB     20       QMPE     C32      CTL2    -0.220000       12.0110           0
      2369 MEMB     20       QMPE     H2X      HAL2     0.900000E-01   1.00800           0
      2370 MEMB     20       QMPE     H2Y      HAL2     0.900000E-01   1.00800           0
      2371 MEMB     20       QMPE     C23      CTL2    -0.180000       12.0110           0
      2372 MEMB     20       QMPE     H3R      HAL2     0.900000E-01   1.00800           0
      2373 MEMB     20       QMPE     H3S      HAL2     0.900000E-01   1.00800           0
      2374 MEMB     20       QMPE     C24      CTL2    -0.180000       12.0110           0
      2375 MEMB     20       QMPE     H4R      HAL2     0.900000E-01   1.00800           0
      2376 MEMB     20       QMPE     H4S      HAL2     0.900000E-01   1.00800           0
      2377 MEMB     20       QMPE     C25      CTL2    -0.180000       12.0110           0
      2378 MEMB     20       QMPE     H5R      HAL2     0.900000E-01   1.00800           0
      2379 MEMB     20       QMPE     H5S      HAL2     0.900000E-01   1.00800           0
      2380 MEMB     20       QMPE     C26      CTL2    -0.180000       12.0110           0
      2381 MEMB     20       QMPE     H6R      HAL2     0.900000E-01   1.00800           0
      2382 MEMB     20       QMPE     H6S      HAL2     0.900000E-01   1.00800           0
      2383 MEMB     20       QMPE     C27      CTL2    -0.180000       12.0110           0
      2384 MEMB     20       QMPE     H7R      HAL2     0.900000E-01   1.00800           0
      2385 MEMB     20       QMPE     H7S      HAL2     0.900000E-01   1.00800           0
      2386 MEMB     20       QMPE     C28      CTL2    -0.180000       12.0110           0
      2387 MEMB     20       QMPE     H8R      HAL2     0.900000E-01   1.00800           0
      2388 MEMB     20       QMPE     H8S      HAL2     0.900000E-01   1.00800           0
      2389 MEMB     20       QMPE     C29      CG3RC1  -0.900000E-01   12.0110           0
      2390 MEMB     20       QMPE     H9R      HGA1     0.900000E-01   1.00800           0
      2391 MEMB     20       QMPE     C217     CG3C31  -0.180000       12.0110           0
      2392 MEMB     20       QMPE     H17R     HGA2     0.900000E-01   1.00800           0
      2393 MEMB     20       QMPE     H17S     HGA2     0.900000E-01   1.00800           0
      2394 MEMB     20       QMPE     C210     CG3RC1  -0.900000E-01   12.0110           0
      2395 MEMB     20       QMPE     H10R     HGA1     0.900000E-01   1.00800           0
      2396 MEMB     20       QMPE     C211     CTL2    -0.180000       12.0110           0
      2397 MEMB     20       QMPE     H11R     HAL2     0.900000E-01   1.00800           0
      2398 MEMB     20       QMPE     H11S     HAL2     0.900000E-01   1.00800           0
      2399 MEMB     20       QMPE     C212     CTL2    -0.180000       12.0110           0
      2400 MEMB     20       QMPE     H12R     HAL2     0.900000E-01   1.00800           0
      2401 MEMB     20       QMPE     H12S     HAL2     0.900000E-01   1.00800           0
      2402 MEMB     20       QMPE     C213     CTL2    -0.180000       12.0110           0
      2403 MEMB     20       QMPE     H13R     HAL2     0.900000E-01   1.00800           0
      2404 MEMB     20       QMPE     H13S     HAL2     0.900000E-01   1.00800           0
      2405 MEMB     20       QMPE     C214     CTL2    -0.180000       12.0110           0
      2406 MEMB     20       QMPE     H14R     HAL2     0.900000E-01   1.00800           0
      2407 MEMB     20       QMPE     H14S     HAL2     0.900000E-01   1.00800           0
      2408 MEMB     20       QMPE     C215     CTL2    -0.180000       12.0110           0
      2409 MEMB     20       QMPE     H15R     HAL2     0.900000E-01   1.00800           0
      2410 MEMB     20       QMPE     H15S     HAL2     0.900000E-01   1.00800           0
      2411 MEMB     20       QMPE     C216     CTL3    -0.270000       12.0110           0
      2412 MEMB     20       QMPE     H16R     HAL3     0.900000E-01   1.00800           0
      2413 MEMB     20       QMPE     H16S     HAL3     0.900000E-01   1.00800           0
      2414 MEMB     20       QMPE     H16T     HAL3     0.900000E-01   1.00800           0
      2415 MEMB     20       QMPE     C33      CTL2    -0.180000       12.0110           0
      2416 MEMB     20       QMPE     H3X      HAL2     0.900000E-01   1.00800           0
      2417 MEMB     20       QMPE     H3Y      HAL2     0.900000E-01   1.00800           0
      2418 MEMB     20       QMPE     C34      CTL2    -0.180000       12.0110           0
      2419 MEMB     20       QMPE     H4X      HAL2     0.900000E-01   1.00800           0
      2420 MEMB     20       QMPE     H4Y      HAL2     0.900000E-01   1.00800           0
      2421 MEMB     20       QMPE     C35      CTL2    -0.180000       12.0110           0
      2422 MEMB     20       QMPE     H5X      HAL2     0.900000E-01   1.00800           0
      2423 MEMB     20       QMPE     H5Y      HAL2     0.900000E-01   1.00800           0
      2424 MEMB     20       QMPE     C36      CTL2    -0.180000       12.0110           0
      2425 MEMB     20       QMPE     H6X      HAL2     0.900000E-01   1.00800           0
      2426 MEMB     20       QMPE     H6Y      HAL2     0.900000E-01   1.00800           0
      2427 MEMB     20       QMPE     C37      CTL2    -0.180000       12.0110           0
      2428 MEMB     20       QMPE     H7X      HAL2     0.900000E-01   1.00800           0
      2429 MEMB     20       QMPE     H7Y      HAL2     0.900000E-01   1.00800           0
      2430 MEMB     20       QMPE     C38      CTL2    -0.180000       12.0110           0
      2431 MEMB     20       QMPE     H8X      HAL2     0.900000E-01   1.00800           0
      2432 MEMB     20       QMPE     H8Y      HAL2     0.900000E-01   1.00800           0
      2433 MEMB     20       QMPE     C39      CTL2    -0.180000       12.0110           0
      2434 MEMB     20       QMPE     H9X      HAL2     0.900000E-01   1.00800           0
      2435 MEMB     20       QMPE     H9Y      HAL2     0.900000E-01   1.00800           0
      2436 MEMB     20       QMPE     C310     CTL2    -0.180000       12.0110           0
      2437 MEMB     20       QMPE     H10X     HAL2     0.900000E-01   1.00800           0
      2438 MEMB     20       QMPE     H10Y     HAL2     0.900000E-01   1.00800           0
      2439 MEMB     20       QMPE     C311     CTL2    -0.180000       12.0110           0
      2440 MEMB     20       QMPE     H11X     HAL2     0.900000E-01   1.00800           0
      2441 MEMB     20       QMPE     H11Y     HAL2     0.900000E-01   1.00800           0
      2442 MEMB     20       QMPE     C312     CTL2    -0.180000       12.0110           0
      2443 MEMB     20       QMPE     H12X     HAL2     0.900000E-01   1.00800           0
      2444 MEMB     20       QMPE     H12Y     HAL2     0.900000E-01   1.00800           0
      2445 MEMB     20       QMPE     C313     CTL2    -0.180000       12.0110           0
      2446 MEMB     20       QMPE     H13X     HAL2     0.900000E-01   1.00800           0
      2447 MEMB     20       QMPE     H13Y     HAL2     0.900000E-01   1.00800           0
      2448 MEMB     20       QMPE     C314     CTL2    -0.180000       12.0110           0
      2449 MEMB     20       QMPE     H14X     HAL2     0.900000E-01   1.00800           0
      2450 MEMB     20       QMPE     H14Y     HAL2     0.900000E-01   1.00800           0
      2451 MEMB     20       QMPE     C315     CTL3    -0.270000       12.0110           0
      2452 MEMB     20       QMPE     H15X     HAL3     0.900000E-01   1.00800           0
      2453 MEMB     20       QMPE     H15Y     HAL3     0.900000E-01   1.00800           0
      2454 MEMB     20       QMPE     H15Z     HAL3     0.900000E-01   1.00800           0
      2455 MEMB     21       PMPE     N        NH3L    -0.300000       14.0070           0
      2456 MEMB     21       PMPE     HN1      HCL      0.330000       1.00800           0
      2457 MEMB     21       PMPE     HN2      HCL      0.330000       1.00800           0
      2458 MEMB     21       PMPE     HN3      HCL      0.330000       1.00800           0
      2459 MEMB     21       PMPE     C12      CTL2     0.130000       12.0110           0
      2460 MEMB     21       PMPE     H12A     HAL2     0.900000E-01   1.00800           0
      2461 MEMB     21       PMPE     H12B     HAL2     0.900000E-01   1.00800           0
      2462 MEMB     21       PMPE     C11      CTL2    -0.800000E-01   12.0110           0
      2463 MEMB     21       PMPE     H11A     HAL2     0.900000E-01   1.00800           0
      2464 MEMB     21       PMPE     H11B     HAL2     0.900000E-01   1.00800           0
      2465 MEMB     21       PMPE     P        PL        1.50000       30.9740           0
      2466 MEMB     21       PMPE     O13      O2L     -0.780000       15.9994           0
      2467 MEMB     21       PMPE     O14      O2L     -0.780000       15.9994           0
      2468 MEMB     21       PMPE     O11      OSLP    -0.570000       15.9994           0
      2469 MEMB     21       PMPE     O12      OSLP    -0.570000       15.9994           0
      2470 MEMB     21       PMPE     C1       CTL2    -0.800000E-01   12.0110           0
      2471 MEMB     21       PMPE     HA       HAL2     0.900000E-01   1.00800           0
      2472 MEMB     21       PMPE     HB       HAL2     0.900000E-01   1.00800           0
      2473 MEMB     21       PMPE     C2       CTL1     0.170000       12.0110           0
      2474 MEMB     21       PMPE     HS       HAL1     0.900000E-01   1.00800           0
      2475 MEMB     21       PMPE     O21      OSL     -0.490000       15.9994           0
      2476 MEMB     21       PMPE     C21      CL       0.900000       12.0110           0
      2477 MEMB     21       PMPE     O22      OBL     -0.630000       15.9994           0
      2478 MEMB     21       PMPE     C22      CTL2    -0.220000       12.0110           0
      2479 MEMB     21       PMPE     H2R      HAL2     0.900000E-01   1.00800           0
      2480 MEMB     21       PMPE     H2S      HAL2     0.900000E-01   1.00800           0
      2481 MEMB     21       PMPE     C3       CTL2     0.800000E-01   12.0110           0
      2482 MEMB     21       PMPE     HX       HAL2     0.900000E-01   1.00800           0
      2483 MEMB     21       PMPE     HY       HAL2     0.900000E-01   1.00800           0
      2484 MEMB     21       PMPE     O31      OSL     -0.490000       15.9994           0
      2485 MEMB     21       PMPE     C31      CL       0.900000       12.0110           0
      2486 MEMB     21       PMPE     O32      OBL     -0.630000       15.9994           0
      2487 MEMB     21       PMPE     C32      CTL2    -0.220000       12.0110           0
      2488 MEMB     21       PMPE     H2X      HAL2     0.900000E-01   1.00800           0
      2489 MEMB     21       PMPE     H2Y      HAL2     0.900000E-01   1.00800           0
      2490 MEMB     21       PMPE     C23      CTL2    -0.180000       12.0110           0
      2491 MEMB     21       PMPE     H3R      HAL2     0.900000E-01   1.00800           0
      2492 MEMB     21       PMPE     H3S      HAL2     0.900000E-01   1.00800           0
      2493 MEMB     21       PMPE     C24      CTL2    -0.180000       12.0110           0
      2494 MEMB     21       PMPE     H4R      HAL2     0.900000E-01   1.00800           0
      2495 MEMB     21       PMPE     H4S      HAL2     0.900000E-01   1.00800           0
      2496 MEMB     21       PMPE     C25      CTL2    -0.180000       12.0110           0
      2497 MEMB     21       PMPE     H5R      HAL2     0.900000E-01   1.00800           0
      2498 MEMB     21       PMPE     H5S      HAL2     0.900000E-01   1.00800           0
      2499 MEMB     21       PMPE     C26      CTL2    -0.180000       12.0110           0
      2500 MEMB     21       PMPE     H6R      HAL2     0.900000E-01   1.00800           0
      2501 MEMB     21       PMPE     H6S      HAL2     0.900000E-01   1.00800           0
      2502 MEMB     21       PMPE     C27      CTL2    -0.180000       12.0110           0
      2503 MEMB     21       PMPE     H7R      HAL2     0.900000E-01   1.00800           0
      2504 MEMB     21       PMPE     H7S      HAL2     0.900000E-01   1.00800           0
      2505 MEMB     21       PMPE     C28      CTL2    -0.180000       12.0110           0
      2506 MEMB     21       PMPE     H8R      HAL2     0.900000E-01   1.00800           0
      2507 MEMB     21       PMPE     H8S      HAL2     0.900000E-01   1.00800           0
      2508 MEMB     21       PMPE     C29      CG3RC1  -0.900000E-01   12.0110           0
      2509 MEMB     21       PMPE     H9R      HGA1     0.900000E-01   1.00800           0
      2510 MEMB     21       PMPE     C217     CG3C31  -0.180000       12.0110           0
      2511 MEMB     21       PMPE     H17R     HGA2     0.900000E-01   1.00800           0
      2512 MEMB     21       PMPE     H17S     HGA2     0.900000E-01   1.00800           0
      2513 MEMB     21       PMPE     C210     CG3RC1  -0.900000E-01   12.0110           0
      2514 MEMB     21       PMPE     H10R     HGA1     0.900000E-01   1.00800           0
      2515 MEMB     21       PMPE     C211     CTL2    -0.180000       12.0110           0
      2516 MEMB     21       PMPE     H11R     HAL2     0.900000E-01   1.00800           0
      2517 MEMB     21       PMPE     H11S     HAL2     0.900000E-01   1.00800           0
      2518 MEMB     21       PMPE     C212     CTL2    -0.180000       12.0110           0
      2519 MEMB     21       PMPE     H12R     HAL2     0.900000E-01   1.00800           0
      2520 MEMB     21       PMPE     H12S     HAL2     0.900000E-01   1.00800           0
      2521 MEMB     21       PMPE     C213     CTL2    -0.180000       12.0110           0
      2522 MEMB     21       PMPE     H13R     HAL2     0.900000E-01   1.00800           0
      2523 MEMB     21       PMPE     H13S     HAL2     0.900000E-01   1.00800           0
      2524 MEMB     21       PMPE     C214     CTL2    -0.180000       12.0110           0
      2525 MEMB     21       PMPE     H14R     HAL2     0.900000E-01   1.00800           0
      2526 MEMB     21       PMPE     H14S     HAL2     0.900000E-01   1.00800           0
      2527 MEMB     21       PMPE     C215     CTL2    -0.180000       12.0110           0
      2528 MEMB     21       PMPE     H15R     HAL2     0.900000E-01   1.00800           0
      2529 MEMB     21       PMPE     H15S     HAL2     0.900000E-01   1.00800           0
      2530 MEMB     21       PMPE     C216     CTL3    -0.270000       12.0110           0
      2531 MEMB     21       PMPE     H16R     HAL3     0.900000E-01   1.00800           0
      2532 MEMB     21       PMPE     H16S     HAL3     0.900000E-01   1.00800           0
      2533 MEMB     21       PMPE     H16T     HAL3     0.900000E-01   1.00800           0
      2534 MEMB     21       PMPE     C33      CTL2    -0.180000       12.0110           0
      2535 MEMB     21       PMPE     H3X      HAL2     0.900000E-01   1.00800           0
      2536 MEMB     21       PMPE     H3Y      HAL2     0.900000E-01   1.00800           0
      2537 MEMB     21       PMPE     C34      CTL2    -0.180000       12.0110           0
      2538 MEMB     21       PMPE     H4X      HAL2     0.900000E-01   1.00800           0
      2539 MEMB     21       PMPE     H4Y      HAL2     0.900000E-01   1.00800           0
      2540 MEMB     21       PMPE     C35      CTL2    -0.180000       12.0110           0
      2541 MEMB     21       PMPE     H5X      HAL2     0.900000E-01   1.00800           0
      2542 MEMB     21       PMPE     H5Y      HAL2     0.900000E-01   1.00800           0
      2543 MEMB     21       PMPE     C36      CTL2    -0.180000       12.0110           0
      2544 MEMB     21       PMPE     H6X      HAL2     0.900000E-01   1.00800           0
      2545 MEMB     21       PMPE     H6Y      HAL2     0.900000E-01   1.00800           0
      2546 MEMB     21       PMPE     C37      CTL2    -0.180000       12.0110           0
      2547 MEMB     21       PMPE     H7X      HAL2     0.900000E-01   1.00800           0
      2548 MEMB     21       PMPE     H7Y      HAL2     0.900000E-01   1.00800           0
      2549 MEMB     21       PMPE     C38      CTL2    -0.180000       12.0110           0
      2550 MEMB     21       PMPE     H8X      HAL2     0.900000E-01   1.00800           0
      2551 MEMB     21       PMPE     H8Y      HAL2     0.900000E-01   1.00800           0
      2552 MEMB     21       PMPE     C39      CTL2    -0.180000       12.0110           0
      2553 MEMB     21       PMPE     H9X      HAL2     0.900000E-01   1.00800           0
      2554 MEMB     21       PMPE     H9Y      HAL2     0.900000E-01   1.00800           0
      2555 MEMB     21       PMPE     C310     CTL2    -0.180000       12.0110           0
      2556 MEMB     21       PMPE     H10X     HAL2     0.900000E-01   1.00800           0
      2557 MEMB     21       PMPE     H10Y     HAL2     0.900000E-01   1.00800           0
      2558 MEMB     21       PMPE     C311     CTL2    -0.180000       12.0110           0
      2559 MEMB     21       PMPE     H11X     HAL2     0.900000E-01   1.00800           0
      2560 MEMB     21       PMPE     H11Y     HAL2     0.900000E-01   1.00800           0
      2561 MEMB     21       PMPE     C312     CTL2    -0.180000       12.0110           0
      2562 MEMB     21       PMPE     H12X     HAL2     0.900000E-01   1.00800           0
      2563 MEMB     21       PMPE     H12Y     HAL2     0.900000E-01   1.00800           0
      2564 MEMB     21       PMPE     C313     CTL2    -0.180000       12.0110           0
      2565 MEMB     21       PMPE     H13X     HAL2     0.900000E-01   1.00800           0
      2566 MEMB     21       PMPE     H13Y     HAL2     0.900000E-01   1.00800           0
      2567 MEMB     21       PMPE     C314     CTL2    -0.180000       12.0110           0
      2568 MEMB     21       PMPE     H14X     HAL2     0.900000E-01   1.00800           0
      2569 MEMB     21       PMPE     H14Y     HAL2     0.900000E-01   1.00800           0
      2570 MEMB     21       PMPE     C315     CTL2    -0.180000       12.0110           0
      2571 MEMB     21       PMPE     H15X     HAL2     0.900000E-01   1.00800           0
      2572 MEMB     21       PMPE     H15Y     HAL2     0.900000E-01   1.00800           0
      2573 MEMB     21       PMPE     C316     CTL3    -0.270000       12.0110           0
      2574 MEMB     21       PMPE     H16X     HAL3     0.900000E-01   1.00800           0
      2575 MEMB     21       PMPE     H16Y     HAL3     0.900000E-01   1.00800           0
      2576 MEMB     21       PMPE     H16Z     HAL3     0.900000E-01   1.00800           0
      2577 MEMB     22       PMPE     N        NH3L    -0.300000       14.0070           0
      2578 MEMB     22       PMPE     HN1      HCL      0.330000       1.00800           0
      2579 MEMB     22       PMPE     HN2      HCL      0.330000       1.00800           0
      2580 MEMB     22       PMPE     HN3      HCL      0.330000       1.00800           0
      2581 MEMB     22       PMPE     C12      CTL2     0.130000       12.0110           0
      2582 MEMB     22       PMPE     H12A     HAL2     0.900000E-01   1.00800           0
      2583 MEMB     22       PMPE     H12B     HAL2     0.900000E-01   1.00800           0
      2584 MEMB     22       PMPE     C11      CTL2    -0.800000E-01   12.0110           0
      2585 MEMB     22       PMPE     H11A     HAL2     0.900000E-01   1.00800           0
      2586 MEMB     22       PMPE     H11B     HAL2     0.900000E-01   1.00800           0
      2587 MEMB     22       PMPE     P        PL        1.50000       30.9740           0
      2588 MEMB     22       PMPE     O13      O2L     -0.780000       15.9994           0
      2589 MEMB     22       PMPE     O14      O2L     -0.780000       15.9994           0
      2590 MEMB     22       PMPE     O11      OSLP    -0.570000       15.9994           0
      2591 MEMB     22       PMPE     O12      OSLP    -0.570000       15.9994           0
      2592 MEMB     22       PMPE     C1       CTL2    -0.800000E-01   12.0110           0
      2593 MEMB     22       PMPE     HA       HAL2     0.900000E-01   1.00800           0
      2594 MEMB     22       PMPE     HB       HAL2     0.900000E-01   1.00800           0
      2595 MEMB     22       PMPE     C2       CTL1     0.170000       12.0110           0
      2596 MEMB     22       PMPE     HS       HAL1     0.900000E-01   1.00800           0
      2597 MEMB     22       PMPE     O21      OSL     -0.490000       15.9994           0
      2598 MEMB     22       PMPE     C21      CL       0.900000       12.0110           0
      2599 MEMB     22       PMPE     O22      OBL     -0.630000       15.9994           0
      2600 MEMB     22       PMPE     C22      CTL2    -0.220000       12.0110           0
      2601 MEMB     22       PMPE     H2R      HAL2     0.900000E-01   1.00800           0
      2602 MEMB     22       PMPE     H2S      HAL2     0.900000E-01   1.00800           0
      2603 MEMB     22       PMPE     C3       CTL2     0.800000E-01   12.0110           0
      2604 MEMB     22       PMPE     HX       HAL2     0.900000E-01   1.00800           0
      2605 MEMB     22       PMPE     HY       HAL2     0.900000E-01   1.00800           0
      2606 MEMB     22       PMPE     O31      OSL     -0.490000       15.9994           0
      2607 MEMB     22       PMPE     C31      CL       0.900000       12.0110           0
      2608 MEMB     22       PMPE     O32      OBL     -0.630000       15.9994           0
      2609 MEMB     22       PMPE     C32      CTL2    -0.220000       12.0110           0
      2610 MEMB     22       PMPE     H2X      HAL2     0.900000E-01   1.00800           0
      2611 MEMB     22       PMPE     H2Y      HAL2     0.900000E-01   1.00800           0
      2612 MEMB     22       PMPE     C23      CTL2    -0.180000       12.0110           0
      2613 MEMB     22       PMPE     H3R      HAL2     0.900000E-01   1.00800           0
      2614 MEMB     22       PMPE     H3S      HAL2     0.900000E-01   1.00800           0
      2615 MEMB     22       PMPE     C24      CTL2    -0.180000       12.0110           0
      2616 MEMB     22       PMPE     H4R      HAL2     0.900000E-01   1.00800           0
      2617 MEMB     22       PMPE     H4S      HAL2     0.900000E-01   1.00800           0
      2618 MEMB     22       PMPE     C25      CTL2    -0.180000       12.0110           0
      2619 MEMB     22       PMPE     H5R      HAL2     0.900000E-01   1.00800           0
      2620 MEMB     22       PMPE     H5S      HAL2     0.900000E-01   1.00800           0
      2621 MEMB     22       PMPE     C26      CTL2    -0.180000       12.0110           0
      2622 MEMB     22       PMPE     H6R      HAL2     0.900000E-01   1.00800           0
      2623 MEMB     22       PMPE     H6S      HAL2     0.900000E-01   1.00800           0
      2624 MEMB     22       PMPE     C27      CTL2    -0.180000       12.0110           0
      2625 MEMB     22       PMPE     H7R      HAL2     0.900000E-01   1.00800           0
      2626 MEMB     22       PMPE     H7S      HAL2     0.900000E-01   1.00800           0
      2627 MEMB     22       PMPE     C28      CTL2    -0.180000       12.0110           0
      2628 MEMB     22       PMPE     H8R      HAL2     0.900000E-01   1.00800           0
      2629 MEMB     22       PMPE     H8S      HAL2     0.900000E-01   1.00800           0
      2630 MEMB     22       PMPE     C29      CG3RC1  -0.900000E-01   12.0110           0
      2631 MEMB     22       PMPE     H9R      HGA1     0.900000E-01   1.00800           0
      2632 MEMB     22       PMPE     C217     CG3C31  -0.180000       12.0110           0
      2633 MEMB     22       PMPE     H17R     HGA2     0.900000E-01   1.00800           0
      2634 MEMB     22       PMPE     H17S     HGA2     0.900000E-01   1.00800           0
      2635 MEMB     22       PMPE     C210     CG3RC1  -0.900000E-01   12.0110           0
      2636 MEMB     22       PMPE     H10R     HGA1     0.900000E-01   1.00800           0
      2637 MEMB     22       PMPE     C211     CTL2    -0.180000       12.0110           0
      2638 MEMB     22       PMPE     H11R     HAL2     0.900000E-01   1.00800           0
      2639 MEMB     22       PMPE     H11S     HAL2     0.900000E-01   1.00800           0
      2640 MEMB     22       PMPE     C212     CTL2    -0.180000       12.0110           0
      2641 MEMB     22       PMPE     H12R     HAL2     0.900000E-01   1.00800           0
      2642 MEMB     22       PMPE     H12S     HAL2     0.900000E-01   1.00800           0
      2643 MEMB     22       PMPE     C213     CTL2    -0.180000       12.0110           0
      2644 MEMB     22       PMPE     H13R     HAL2     0.900000E-01   1.00800           0
      2645 MEMB     22       PMPE     H13S     HAL2     0.900000E-01   1.00800           0
      2646 MEMB     22       PMPE     C214     CTL2    -0.180000       12.0110           0
      2647 MEMB     22       PMPE     H14R     HAL2     0.900000E-01   1.00800           0
      2648 MEMB     22       PMPE     H14S     HAL2     0.900000E-01   1.00800           0
      2649 MEMB     22       PMPE     C215     CTL2    -0.180000       12.0110           0
      2650 MEMB     22       PMPE     H15R     HAL2     0.900000E-01   1.00800           0
      2651 MEMB     22       PMPE     H15S     HAL2     0.900000E-01   1.00800           0
      2652 MEMB     22       PMPE     C216     CTL3    -0.270000       12.0110           0
      2653 MEMB     22       PMPE     H16R     HAL3     0.900000E-01   1.00800           0
      2654 MEMB     22       PMPE     H16S     HAL3     0.900000E-01   1.00800           0
      2655 MEMB     22       PMPE     H16T     HAL3     0.900000E-01   1.00800           0
      2656 MEMB     22       PMPE     C33      CTL2    -0.180000       12.0110           0
      2657 MEMB     22       PMPE     H3X      HAL2     0.900000E-01   1.00800           0
      2658 MEMB     22       PMPE     H3Y      HAL2     0.900000E-01   1.00800           0
      2659 MEMB     22       PMPE     C34      CTL2    -0.180000       12.0110           0
      2660 MEMB     22       PMPE     H4X      HAL2     0.900000E-01   1.00800           0
      2661 MEMB     22       PMPE     H4Y      HAL2     0.900000E-01   1.00800           0
      2662 MEMB     22       PMPE     C35      CTL2    -0.180000       12.0110           0
      2663 MEMB     22       PMPE     H5X      HAL2     0.900000E-01   1.00800           0
      2664 MEMB     22       PMPE     H5Y      HAL2     0.900000E-01   1.00800           0
      2665 MEMB     22       PMPE     C36      CTL2    -0.180000       12.0110           0
      2666 MEMB     22       PMPE     H6X      HAL2     0.900000E-01   1.00800           0
      2667 MEMB     22       PMPE     H6Y      HAL2     0.900000E-01   1.00800           0
      2668 MEMB     22       PMPE     C37      CTL2    -0.180000       12.0110           0
      2669 MEMB     22       PMPE     H7X      HAL2     0.900000E-01   1.00800           0
      2670 MEMB     22       PMPE     H7Y      HAL2     0.900000E-01   1.00800           0
      2671 MEMB     22       PMPE     C38      CTL2    -0.180000       12.0110           0
      2672 MEMB     22       PMPE     H8X      HAL2     0.900000E-01   1.00800           0
      2673 MEMB     22       PMPE     H8Y      HAL2     0.900000E-01   1.00800           0
      2674 MEMB     22       PMPE     C39      CTL2    -0.180000       12.0110           0
      2675 MEMB     22       PMPE     H9X      HAL2     0.900000E-01   1.00800           0
      2676 MEMB     22       PMPE     H9Y      HAL2     0.900000E-01   1.00800           0
      2677 MEMB     22       PMPE     C310     CTL2    -0.180000       12.0110           0
      2678 MEMB     22       PMPE     H10X     HAL2     0.900000E-01   1.00800           0
      2679 MEMB     22       PMPE     H10Y     HAL2     0.900000E-01   1.00800           0
      2680 MEMB     22       PMPE     C311     CTL2    -0.180000       12.0110           0
      2681 MEMB     22       PMPE     H11X     HAL2     0.900000E-01   1.00800           0
      2682 MEMB     22       PMPE     H11Y     HAL2     0.900000E-01   1.00800           0
      2683 MEMB     22       PMPE     C312     CTL2    -0.180000       12.0110           0
      2684 MEMB     22       PMPE     H12X     HAL2     0.900000E-01   1.00800           0
      2685 MEMB     22       PMPE     H12Y     HAL2     0.900000E-01   1.00800           0
      2686 MEMB     22       PMPE     C313     CTL2    -0.180000       12.0110           0
      2687 MEMB     22       PMPE     H13X     HAL2     0.900000E-01   1.00800           0
      2688 MEMB     22       PMPE     H13Y     HAL2     0.900000E-01   1.00800           0
      2689 MEMB     22       PMPE     C314     CTL2    -0.180000       12.0110           0
      2690 MEMB     22       PMPE     H14X     HAL2     0.900000E-01   1.00800           0
      2691 MEMB     22       PMPE     H14Y     HAL2     0.900000E-01   1.00800           0
      2692 MEMB     22       PMPE     C315     CTL2    -0.180000       12.0110           0
      2693 MEMB     22       PMPE     H15X     HAL2     0.900000E-01   1.00800           0
      2694 MEMB     22       PMPE     H15Y     HAL2     0.900000E-01   1.00800           0
      2695 MEMB     22       PMPE     C316     CTL3    -0.270000       12.0110           0
      2696 MEMB     22       PMPE     H16X     HAL3     0.900000E-01   1.00800           0
      2697 MEMB     22       PMPE     H16Y     HAL3     0.900000E-01   1.00800           0
      2698 MEMB     22       PMPE     H16Z     HAL3     0.900000E-01   1.00800           0
      2699 MEMB     23       PYPG     C13      CTL2     0.500000E-01   12.0110           0
      2700 MEMB     23       PYPG     H13A     HAL2     0.900000E-01   1.00800           0
      2701 MEMB     23       PYPG     H13B     HAL2     0.900000E-01   1.00800           0
      2702 MEMB     23       PYPG     OC3      OHL     -0.660000       15.9994           0
      2703 MEMB     23       PYPG     HO3      HOL      0.430000       1.00800           0
      2704 MEMB     23       PYPG     C12      CTL1     0.140000       12.0110           0
      2705 MEMB     23       PYPG     H12A     HAL1     0.900000E-01   1.00800           0
      2706 MEMB     23       PYPG     OC2      OHL     -0.660000       15.9994           0
      2707 MEMB     23       PYPG     HO2      HOL      0.430000       1.00800           0
      2708 MEMB     23       PYPG     C11      CTL2    -0.800000E-01   12.0110           0
      2709 MEMB     23       PYPG     H11A     HAL2     0.900000E-01   1.00800           0
      2710 MEMB     23       PYPG     H11B     HAL2     0.900000E-01   1.00800           0
      2711 MEMB     23       PYPG     P        PL        1.50000       30.9740           0
      2712 MEMB     23       PYPG     O13      O2L     -0.780000       15.9994           0
      2713 MEMB     23       PYPG     O14      O2L     -0.780000       15.9994           0
      2714 MEMB     23       PYPG     O11      OSLP    -0.570000       15.9994           0
      2715 MEMB     23       PYPG     O12      OSLP    -0.570000       15.9994           0
      2716 MEMB     23       PYPG     C1       CTL2    -0.800000E-01   12.0110           0
      2717 MEMB     23       PYPG     HA       HAL2     0.900000E-01   1.00800           0
      2718 MEMB     23       PYPG     HB       HAL2     0.900000E-01   1.00800           0
      2719 MEMB     23       PYPG     C2       CTL1     0.170000       12.0110           0
      2720 MEMB     23       PYPG     HS       HAL1     0.900000E-01   1.00800           0
      2721 MEMB     23       PYPG     O21      OSL     -0.490000       15.9994           0
      2722 MEMB     23       PYPG     C21      CL       0.900000       12.0110           0
      2723 MEMB     23       PYPG     O22      OBL     -0.630000       15.9994           0
      2724 MEMB     23       PYPG     C22      CTL2    -0.220000       12.0110           0
      2725 MEMB     23       PYPG     H2R      HAL2     0.900000E-01   1.00800           0
      2726 MEMB     23       PYPG     H2S      HAL2     0.900000E-01   1.00800           0
      2727 MEMB     23       PYPG     C3       CTL2     0.800000E-01   12.0110           0
      2728 MEMB     23       PYPG     HX       HAL2     0.900000E-01   1.00800           0
      2729 MEMB     23       PYPG     HY       HAL2     0.900000E-01   1.00800           0
      2730 MEMB     23       PYPG     O31      OSL     -0.490000       15.9994           0
      2731 MEMB     23       PYPG     C31      CL       0.900000       12.0110           0
      2732 MEMB     23       PYPG     O32      OBL     -0.630000       15.9994           0
      2733 MEMB     23       PYPG     C32      CTL2    -0.220000       12.0110           0
      2734 MEMB     23       PYPG     H2X      HAL2     0.900000E-01   1.00800           0
      2735 MEMB     23       PYPG     H2Y      HAL2     0.900000E-01   1.00800           0
      2736 MEMB     23       PYPG     C23      CTL2    -0.180000       12.0110           0
      2737 MEMB     23       PYPG     H3R      HAL2     0.900000E-01   1.00800           0
      2738 MEMB     23       PYPG     H3S      HAL2     0.900000E-01   1.00800           0
      2739 MEMB     23       PYPG     C24      CTL2    -0.180000       12.0110           0
      2740 MEMB     23       PYPG     H4R      HAL2     0.900000E-01   1.00800           0
      2741 MEMB     23       PYPG     H4S      HAL2     0.900000E-01   1.00800           0
      2742 MEMB     23       PYPG     C25      CTL2    -0.180000       12.0110           0
      2743 MEMB     23       PYPG     H5R      HAL2     0.900000E-01   1.00800           0
      2744 MEMB     23       PYPG     H5S      HAL2     0.900000E-01   1.00800           0
      2745 MEMB     23       PYPG     C26      CTL2    -0.180000       12.0110           0
      2746 MEMB     23       PYPG     H6R      HAL2     0.900000E-01   1.00800           0
      2747 MEMB     23       PYPG     H6S      HAL2     0.900000E-01   1.00800           0
      2748 MEMB     23       PYPG     C27      CTL2    -0.180000       12.0110           0
      2749 MEMB     23       PYPG     H7R      HAL2     0.900000E-01   1.00800           0
      2750 MEMB     23       PYPG     H7S      HAL2     0.900000E-01   1.00800           0
      2751 MEMB     23       PYPG     C28      CTL2    -0.180000       12.0110           0
      2752 MEMB     23       PYPG     H8R      HAL2     0.900000E-01   1.00800           0
      2753 MEMB     23       PYPG     H8S      HAL2     0.900000E-01   1.00800           0
      2754 MEMB     23       PYPG     C29      CEL1    -0.150000       12.0110           0
      2755 MEMB     23       PYPG     H9R      HEL1     0.150000       1.00800           0
      2756 MEMB     23       PYPG     C210     CEL1    -0.150000       12.0110           0
      2757 MEMB     23       PYPG     H10R     HEL1     0.150000       1.00800           0
      2758 MEMB     23       PYPG     C211     CTL2    -0.180000       12.0110           0
      2759 MEMB     23       PYPG     H11R     HAL2     0.900000E-01   1.00800           0
      2760 MEMB     23       PYPG     H11S     HAL2     0.900000E-01   1.00800           0
      2761 MEMB     23       PYPG     C212     CTL2    -0.180000       12.0110           0
      2762 MEMB     23       PYPG     H12R     HAL2     0.900000E-01   1.00800           0
      2763 MEMB     23       PYPG     H12S     HAL2     0.900000E-01   1.00800           0
      2764 MEMB     23       PYPG     C213     CTL2    -0.180000       12.0110           0
      2765 MEMB     23       PYPG     H13R     HAL2     0.900000E-01   1.00800           0
      2766 MEMB     23       PYPG     H13S     HAL2     0.900000E-01   1.00800           0
      2767 MEMB     23       PYPG     C214     CTL2    -0.180000       12.0110           0
      2768 MEMB     23       PYPG     H14R     HAL2     0.900000E-01   1.00800           0
      2769 MEMB     23       PYPG     H14S     HAL2     0.900000E-01   1.00800           0
      2770 MEMB     23       PYPG     C215     CTL2    -0.180000       12.0110           0
      2771 MEMB     23       PYPG     H15R     HAL2     0.900000E-01   1.00800           0
      2772 MEMB     23       PYPG     H15S     HAL2     0.900000E-01   1.00800           0
      2773 MEMB     23       PYPG     C216     CTL3    -0.270000       12.0110           0
      2774 MEMB     23       PYPG     H16R     HAL3     0.900000E-01   1.00800           0
      2775 MEMB     23       PYPG     H16S     HAL3     0.900000E-01   1.00800           0
      2776 MEMB     23       PYPG     H16T     HAL3     0.900000E-01   1.00800           0
      2777 MEMB     23       PYPG     C33      CTL2    -0.180000       12.0110           0
      2778 MEMB     23       PYPG     H3X      HAL2     0.900000E-01   1.00800           0
      2779 MEMB     23       PYPG     H3Y      HAL2     0.900000E-01   1.00800           0
      2780 MEMB     23       PYPG     C34      CTL2    -0.180000       12.0110           0
      2781 MEMB     23       PYPG     H4X      HAL2     0.900000E-01   1.00800           0
      2782 MEMB     23       PYPG     H4Y      HAL2     0.900000E-01   1.00800           0
      2783 MEMB     23       PYPG     C35      CTL2    -0.180000       12.0110           0
      2784 MEMB     23       PYPG     H5X      HAL2     0.900000E-01   1.00800           0
      2785 MEMB     23       PYPG     H5Y      HAL2     0.900000E-01   1.00800           0
      2786 MEMB     23       PYPG     C36      CTL2    -0.180000       12.0110           0
      2787 MEMB     23       PYPG     H6X      HAL2     0.900000E-01   1.00800           0
      2788 MEMB     23       PYPG     H6Y      HAL2     0.900000E-01   1.00800           0
      2789 MEMB     23       PYPG     C37      CTL2    -0.180000       12.0110           0
      2790 MEMB     23       PYPG     H7X      HAL2     0.900000E-01   1.00800           0
      2791 MEMB     23       PYPG     H7Y      HAL2     0.900000E-01   1.00800           0
      2792 MEMB     23       PYPG     C38      CTL2    -0.180000       12.0110           0
      2793 MEMB     23       PYPG     H8X      HAL2     0.900000E-01   1.00800           0
      2794 MEMB     23       PYPG     H8Y      HAL2     0.900000E-01   1.00800           0
      2795 MEMB     23       PYPG     C39      CTL2    -0.180000       12.0110           0
      2796 MEMB     23       PYPG     H9X      HAL2     0.900000E-01   1.00800           0
      2797 MEMB     23       PYPG     H9Y      HAL2     0.900000E-01   1.00800           0
      2798 MEMB     23       PYPG     C310     CTL2    -0.180000       12.0110           0
      2799 MEMB     23       PYPG     H10X     HAL2     0.900000E-01   1.00800           0
      2800 MEMB     23       PYPG     H10Y     HAL2     0.900000E-01   1.00800           0
      2801 MEMB     23       PYPG     C311     CTL2    -0.180000       12.0110           0
      2802 MEMB     23       PYPG     H11X     HAL2     0.900000E-01   1.00800           0
      2803 MEMB     23       PYPG     H11Y     HAL2     0.900000E-01   1.00800           0
      2804 MEMB     23       PYPG     C312     CTL2    -0.180000       12.0110           0
      2805 MEMB     23       PYPG     H12X     HAL2     0.900000E-01   1.00800           0
      2806 MEMB     23       PYPG     H12Y     HAL2     0.900000E-01   1.00800           0
      2807 MEMB     23       PYPG     C313     CTL2    -0.180000       12.0110           0
      2808 MEMB     23       PYPG     H13X     HAL2     0.900000E-01   1.00800           0
      2809 MEMB     23       PYPG     H13Y     HAL2     0.900000E-01   1.00800           0
      2810 MEMB     23       PYPG     C314     CTL2    -0.180000       12.0110           0
      2811 MEMB     23       PYPG     H14X     HAL2     0.900000E-01   1.00800           0
      2812 MEMB     23       PYPG     H14Y     HAL2     0.900000E-01   1.00800           0
      2813 MEMB     23       PYPG     C315     CTL2    -0.180000       12.0110           0
      2814 MEMB     23       PYPG     H15X     HAL2     0.900000E-01   1.00800           0
      2815 MEMB     23       PYPG     H15Y     HAL2     0.900000E-01   1.00800           0
      2816 MEMB     23       PYPG     C316     CTL3    -0.270000       12.0110           0
      2817 MEMB     23       PYPG     H16X     HAL3     0.900000E-01   1.00800           0
      2818 MEMB     23       PYPG     H16Y     HAL3     0.900000E-01   1.00800           0
      2819 MEMB     23       PYPG     H16Z     HAL3     0.900000E-01   1.00800           0
      2820 MEMB     24       PVCL2    C3       CTL2    -0.800000E-01   12.0110           0
      2821 MEMB     24       PVCL2    HG31     HAL2     0.900000E-01   1.00800           0
      2822 MEMB     24       PVCL2    HG32     HAL2     0.900000E-01   1.00800           0
      2823 MEMB     24       PVCL2    P3       PL        1.50000       30.9740           0
      2824 MEMB     24       PVCL2    OP33     O2L     -0.780000       15.9994           0
      2825 MEMB     24       PVCL2    OP34     O2L     -0.780000       15.9994           0
      2826 MEMB     24       PVCL2    OP31     OSLP    -0.570000       15.9994           0
      2827 MEMB     24       PVCL2    OP32     OSLP    -0.570000       15.9994           0
      2828 MEMB     24       PVCL2    C31      CTL2    -0.800000E-01   12.0110           0
      2829 MEMB     24       PVCL2    H31J     HAL2     0.900000E-01   1.00800           0
      2830 MEMB     24       PVCL2    H31K     HAL2     0.900000E-01   1.00800           0
      2831 MEMB     24       PVCL2    C2       CTL1     0.140000       12.0110           0
      2832 MEMB     24       PVCL2    HG22     HAL1     0.900000E-01   1.00800           0
      2833 MEMB     24       PVCL2    OG12     OHL     -0.650000       15.9994           0
      2834 MEMB     24       PVCL2    HO12     HOL      0.420000       1.00800           0
      2835 MEMB     24       PVCL2    C1       CTL2    -0.800000E-01   12.0110           0
      2836 MEMB     24       PVCL2    HG11     HAL2     0.900000E-01   1.00800           0
      2837 MEMB     24       PVCL2    HG12     HAL2     0.900000E-01   1.00800           0
      2838 MEMB     24       PVCL2    P1       PL        1.50000       30.9740           0
      2839 MEMB     24       PVCL2    OP13     O2L     -0.780000       15.9994           0
      2840 MEMB     24       PVCL2    OP14     O2L     -0.780000       15.9994           0
      2841 MEMB     24       PVCL2    OP11     OSLP    -0.570000       15.9994           0
      2842 MEMB     24       PVCL2    OP12     OSLP    -0.570000       15.9994           0
      2843 MEMB     24       PVCL2    C11      CTL2    -0.800000E-01   12.0110           0
      2844 MEMB     24       PVCL2    H11J     HAL2     0.900000E-01   1.00800           0
      2845 MEMB     24       PVCL2    H11K     HAL2     0.900000E-01   1.00800           0
      2846 MEMB     24       PVCL2    C12      CTL1     0.170000       12.0110           0
      2847 MEMB     24       PVCL2    H12J     HAL1     0.900000E-01   1.00800           0
      2848 MEMB     24       PVCL2    O12      OSL     -0.490000       15.9994           0
      2849 MEMB     24       PVCL2    CA1      CL       0.900000       12.0110           0
      2850 MEMB     24       PVCL2    OA1      OBL     -0.630000       15.9994           0
      2851 MEMB     24       PVCL2    CA2      CTL2    -0.220000       12.0110           0
      2852 MEMB     24       PVCL2    H2A      HAL2     0.900000E-01   1.00800           0
      2853 MEMB     24       PVCL2    H2B      HAL2     0.900000E-01   1.00800           0
      2854 MEMB     24       PVCL2    C13      CTL2     0.800000E-01   12.0110           0
      2855 MEMB     24       PVCL2    H13J     HAL2     0.900000E-01   1.00800           0
      2856 MEMB     24       PVCL2    H13K     HAL2     0.900000E-01   1.00800           0
      2857 MEMB     24       PVCL2    O13      OSL     -0.490000       15.9994           0
      2858 MEMB     24       PVCL2    CB1      CL       0.900000       12.0110           0
      2859 MEMB     24       PVCL2    OB1      OBL     -0.630000       15.9994           0
      2860 MEMB     24       PVCL2    CB2      CTL2    -0.220000       12.0110           0
      2861 MEMB     24       PVCL2    H2D      HAL2     0.900000E-01   1.00800           0
      2862 MEMB     24       PVCL2    H2E      HAL2     0.900000E-01   1.00800           0
      2863 MEMB     24       PVCL2    C32      CTL1     0.170000       12.0110           0
      2864 MEMB     24       PVCL2    H32J     HAL1     0.900000E-01   1.00800           0
      2865 MEMB     24       PVCL2    O32      OSL     -0.490000       15.9994           0
      2866 MEMB     24       PVCL2    CC1      CL       0.900000       12.0110           0
      2867 MEMB     24       PVCL2    OC1      OBL     -0.630000       15.9994           0
      2868 MEMB     24       PVCL2    CC2      CTL2    -0.220000       12.0110           0
      2869 MEMB     24       PVCL2    H2R      HAL2     0.900000E-01   1.00800           0
      2870 MEMB     24       PVCL2    H2S      HAL2     0.900000E-01   1.00800           0
      2871 MEMB     24       PVCL2    C33      CTL2     0.800000E-01   12.0110           0
      2872 MEMB     24       PVCL2    H33J     HAL2     0.900000E-01   1.00800           0
      2873 MEMB     24       PVCL2    H33K     HAL2     0.900000E-01   1.00800           0
      2874 MEMB     24       PVCL2    O33      OSL     -0.490000       15.9994           0
      2875 MEMB     24       PVCL2    CD1      CL       0.900000       12.0110           0
      2876 MEMB     24       PVCL2    OD1      OBL     -0.630000       15.9994           0
      2877 MEMB     24       PVCL2    CD2      CTL2    -0.220000       12.0110           0
      2878 MEMB     24       PVCL2    H2X      HAL2     0.900000E-01   1.00800           0
      2879 MEMB     24       PVCL2    H2Y      HAL2     0.900000E-01   1.00800           0
      2880 MEMB     24       PVCL2    CA3      CTL2    -0.180000       12.0110           0
      2881 MEMB     24       PVCL2    H3A      HAL2     0.900000E-01   1.00800           0
      2882 MEMB     24       PVCL2    H3B      HAL2     0.900000E-01   1.00800           0
      2883 MEMB     24       PVCL2    CA4      CTL2    -0.180000       12.0110           0
      2884 MEMB     24       PVCL2    H4A      HAL2     0.900000E-01   1.00800           0
      2885 MEMB     24       PVCL2    H4B      HAL2     0.900000E-01   1.00800           0
      2886 MEMB     24       PVCL2    CA5      CTL2    -0.180000       12.0110           0
      2887 MEMB     24       PVCL2    H5A      HAL2     0.900000E-01   1.00800           0
      2888 MEMB     24       PVCL2    H5B      HAL2     0.900000E-01   1.00800           0
      2889 MEMB     24       PVCL2    CA6      CTL2    -0.180000       12.0110           0
      2890 MEMB     24       PVCL2    H6A      HAL2     0.900000E-01   1.00800           0
      2891 MEMB     24       PVCL2    H6B      HAL2     0.900000E-01   1.00800           0
      2892 MEMB     24       PVCL2    CA7      CTL2    -0.180000       12.0110           0
      2893 MEMB     24       PVCL2    H7A      HAL2     0.900000E-01   1.00800           0
      2894 MEMB     24       PVCL2    H7B      HAL2     0.900000E-01   1.00800           0
      2895 MEMB     24       PVCL2    CA8      CTL2    -0.180000       12.0110           0
      2896 MEMB     24       PVCL2    H8A      HAL2     0.900000E-01   1.00800           0
      2897 MEMB     24       PVCL2    H8B      HAL2     0.900000E-01   1.00800           0
      2898 MEMB     24       PVCL2    CA9      CTL2    -0.180000       12.0110           0
      2899 MEMB     24       PVCL2    H9A      HAL2     0.900000E-01   1.00800           0
      2900 MEMB     24       PVCL2    H9B      HAL2     0.900000E-01   1.00800           0
      2901 MEMB     24       PVCL2    CA10     CTL2    -0.180000       12.0110           0
      2902 MEMB     24       PVCL2    H10A     HAL2     0.900000E-01   1.00800           0
      2903 MEMB     24       PVCL2    H10B     HAL2     0.900000E-01   1.00800           0
      2904 MEMB     24       PVCL2    CA11     CEL1    -0.150000       12.0110           0
      2905 MEMB     24       PVCL2    H11A     HEL1     0.150000       1.00800           0
      2906 MEMB     24       PVCL2    CA12     CEL1    -0.150000       12.0110           0
      2907 MEMB     24       PVCL2    H12A     HEL1     0.150000       1.00800           0
      2908 MEMB     24       PVCL2    CA13     CTL2    -0.180000       12.0110           0
      2909 MEMB     24       PVCL2    H13A     HAL2     0.900000E-01   1.00800           0
      2910 MEMB     24       PVCL2    H13B     HAL2     0.900000E-01   1.00800           0
      2911 MEMB     24       PVCL2    CA14     CTL2    -0.180000       12.0110           0
      2912 MEMB     24       PVCL2    H14A     HAL2     0.900000E-01   1.00800           0
      2913 MEMB     24       PVCL2    H14B     HAL2     0.900000E-01   1.00800           0
      2914 MEMB     24       PVCL2    CA15     CTL2    -0.180000       12.0110           0
      2915 MEMB     24       PVCL2    H15A     HAL2     0.900000E-01   1.00800           0
      2916 MEMB     24       PVCL2    H15B     HAL2     0.900000E-01   1.00800           0
      2917 MEMB     24       PVCL2    CA16     CTL2    -0.180000       12.0110           0
      2918 MEMB     24       PVCL2    H16A     HAL2     0.900000E-01   1.00800           0
      2919 MEMB     24       PVCL2    H16B     HAL2     0.900000E-01   1.00800           0
      2920 MEMB     24       PVCL2    CA17     CTL2    -0.180000       12.0110           0
      2921 MEMB     24       PVCL2    H17A     HAL2     0.900000E-01   1.00800           0
      2922 MEMB     24       PVCL2    H17B     HAL2     0.900000E-01   1.00800           0
      2923 MEMB     24       PVCL2    CA18     CTL3    -0.270000       12.0110           0
      2924 MEMB     24       PVCL2    H18A     HAL3     0.900000E-01   1.00800           0
      2925 MEMB     24       PVCL2    H18B     HAL3     0.900000E-01   1.00800           0
      2926 MEMB     24       PVCL2    H18C     HAL3     0.900000E-01   1.00800           0
      2927 MEMB     24       PVCL2    CB3      CTL2    -0.180000       12.0110           0
      2928 MEMB     24       PVCL2    H3D      HAL2     0.900000E-01   1.00800           0
      2929 MEMB     24       PVCL2    H3E      HAL2     0.900000E-01   1.00800           0
      2930 MEMB     24       PVCL2    CB4      CTL2    -0.180000       12.0110           0
      2931 MEMB     24       PVCL2    H4D      HAL2     0.900000E-01   1.00800           0
      2932 MEMB     24       PVCL2    H4E      HAL2     0.900000E-01   1.00800           0
      2933 MEMB     24       PVCL2    CB5      CTL2    -0.180000       12.0110           0
      2934 MEMB     24       PVCL2    H5D      HAL2     0.900000E-01   1.00800           0
      2935 MEMB     24       PVCL2    H5E      HAL2     0.900000E-01   1.00800           0
      2936 MEMB     24       PVCL2    CB6      CTL2    -0.180000       12.0110           0
      2937 MEMB     24       PVCL2    H6D      HAL2     0.900000E-01   1.00800           0
      2938 MEMB     24       PVCL2    H6E      HAL2     0.900000E-01   1.00800           0
      2939 MEMB     24       PVCL2    CB7      CTL2    -0.180000       12.0110           0
      2940 MEMB     24       PVCL2    H7D      HAL2     0.900000E-01   1.00800           0
      2941 MEMB     24       PVCL2    H7E      HAL2     0.900000E-01   1.00800           0
      2942 MEMB     24       PVCL2    CB8      CTL2    -0.180000       12.0110           0
      2943 MEMB     24       PVCL2    H8D      HAL2     0.900000E-01   1.00800           0
      2944 MEMB     24       PVCL2    H8E      HAL2     0.900000E-01   1.00800           0
      2945 MEMB     24       PVCL2    CB9      CTL2    -0.180000       12.0110           0
      2946 MEMB     24       PVCL2    H9D      HAL2     0.900000E-01   1.00800           0
      2947 MEMB     24       PVCL2    H9E      HAL2     0.900000E-01   1.00800           0
      2948 MEMB     24       PVCL2    CB10     CTL2    -0.180000       12.0110           0
      2949 MEMB     24       PVCL2    H10D     HAL2     0.900000E-01   1.00800           0
      2950 MEMB     24       PVCL2    H10E     HAL2     0.900000E-01   1.00800           0
      2951 MEMB     24       PVCL2    CB11     CTL2    -0.180000       12.0110           0
      2952 MEMB     24       PVCL2    H11D     HAL2     0.900000E-01   1.00800           0
      2953 MEMB     24       PVCL2    H11E     HAL2     0.900000E-01   1.00800           0
      2954 MEMB     24       PVCL2    CB12     CTL2    -0.180000       12.0110           0
      2955 MEMB     24       PVCL2    H12D     HAL2     0.900000E-01   1.00800           0
      2956 MEMB     24       PVCL2    H12E     HAL2     0.900000E-01   1.00800           0
      2957 MEMB     24       PVCL2    CB13     CTL2    -0.180000       12.0110           0
      2958 MEMB     24       PVCL2    H13D     HAL2     0.900000E-01   1.00800           0
      2959 MEMB     24       PVCL2    H13E     HAL2     0.900000E-01   1.00800           0
      2960 MEMB     24       PVCL2    CB14     CTL2    -0.180000       12.0110           0
      2961 MEMB     24       PVCL2    H14D     HAL2     0.900000E-01   1.00800           0
      2962 MEMB     24       PVCL2    H14E     HAL2     0.900000E-01   1.00800           0
      2963 MEMB     24       PVCL2    CB15     CTL2    -0.180000       12.0110           0
      2964 MEMB     24       PVCL2    H15D     HAL2     0.900000E-01   1.00800           0
      2965 MEMB     24       PVCL2    H15E     HAL2     0.900000E-01   1.00800           0
      2966 MEMB     24       PVCL2    CB16     CTL3    -0.270000       12.0110           0
      2967 MEMB     24       PVCL2    H16D     HAL3     0.900000E-01   1.00800           0
      2968 MEMB     24       PVCL2    H16E     HAL3     0.900000E-01   1.00800           0
      2969 MEMB     24       PVCL2    H16F     HAL3     0.900000E-01   1.00800           0
      2970 MEMB     24       PVCL2    CC3      CTL2    -0.180000       12.0110           0
      2971 MEMB     24       PVCL2    H3R      HAL2     0.900000E-01   1.00800           0
      2972 MEMB     24       PVCL2    H3S      HAL2     0.900000E-01   1.00800           0
      2973 MEMB     24       PVCL2    CC4      CTL2    -0.180000       12.0110           0
      2974 MEMB     24       PVCL2    H4R      HAL2     0.900000E-01   1.00800           0
      2975 MEMB     24       PVCL2    H4S      HAL2     0.900000E-01   1.00800           0
      2976 MEMB     24       PVCL2    CC5      CTL2    -0.180000       12.0110           0
      2977 MEMB     24       PVCL2    H5R      HAL2     0.900000E-01   1.00800           0
      2978 MEMB     24       PVCL2    H5S      HAL2     0.900000E-01   1.00800           0
      2979 MEMB     24       PVCL2    CC6      CTL2    -0.180000       12.0110           0
      2980 MEMB     24       PVCL2    H6R      HAL2     0.900000E-01   1.00800           0
      2981 MEMB     24       PVCL2    H6S      HAL2     0.900000E-01   1.00800           0
      2982 MEMB     24       PVCL2    CC7      CTL2    -0.180000       12.0110           0
      2983 MEMB     24       PVCL2    H7R      HAL2     0.900000E-01   1.00800           0
      2984 MEMB     24       PVCL2    H7S      HAL2     0.900000E-01   1.00800           0
      2985 MEMB     24       PVCL2    CC8      CTL2    -0.180000       12.0110           0
      2986 MEMB     24       PVCL2    H8R      HAL2     0.900000E-01   1.00800           0
      2987 MEMB     24       PVCL2    H8S      HAL2     0.900000E-01   1.00800           0
      2988 MEMB     24       PVCL2    CC9      CTL2    -0.180000       12.0110           0
      2989 MEMB     24       PVCL2    H9R      HAL2     0.900000E-01   1.00800           0
      2990 MEMB     24       PVCL2    H9S      HAL2     0.900000E-01   1.00800           0
      2991 MEMB     24       PVCL2    CC10     CTL2    -0.180000       12.0110           0
      2992 MEMB     24       PVCL2    H10R     HAL2     0.900000E-01   1.00800           0
      2993 MEMB     24       PVCL2    H10S     HAL2     0.900000E-01   1.00800           0
      2994 MEMB     24       PVCL2    CC11     CEL1    -0.150000       12.0110           0
      2995 MEMB     24       PVCL2    H11R     HEL1     0.150000       1.00800           0
      2996 MEMB     24       PVCL2    CC12     CEL1    -0.150000       12.0110           0
      2997 MEMB     24       PVCL2    H12R     HEL1     0.150000       1.00800           0
      2998 MEMB     24       PVCL2    CC13     CTL2    -0.180000       12.0110           0
      2999 MEMB     24       PVCL2    H13R     HAL2     0.900000E-01   1.00800           0
      3000 MEMB     24       PVCL2    H13S     HAL2     0.900000E-01   1.00800           0
      3001 MEMB     24       PVCL2    CC14     CTL2    -0.180000       12.0110           0
      3002 MEMB     24       PVCL2    H14R     HAL2     0.900000E-01   1.00800           0
      3003 MEMB     24       PVCL2    H14S     HAL2     0.900000E-01   1.00800           0
      3004 MEMB     24       PVCL2    CC15     CTL2    -0.180000       12.0110           0
      3005 MEMB     24       PVCL2    H15R     HAL2     0.900000E-01   1.00800           0
      3006 MEMB     24       PVCL2    H15S     HAL2     0.900000E-01   1.00800           0
      3007 MEMB     24       PVCL2    CC16     CTL2    -0.180000       12.0110           0
      3008 MEMB     24       PVCL2    H16R     HAL2     0.900000E-01   1.00800           0
      3009 MEMB     24       PVCL2    H16S     HAL2     0.900000E-01   1.00800           0
      3010 MEMB     24       PVCL2    CC17     CTL2    -0.180000       12.0110           0
      3011 MEMB     24       PVCL2    H17R     HAL2     0.900000E-01   1.00800           0
      3012 MEMB     24       PVCL2    H17S     HAL2     0.900000E-01   1.00800           0
      3013 MEMB     24       PVCL2    CC18     CTL3    -0.270000       12.0110           0
      3014 MEMB     24       PVCL2    H18R     HAL3     0.900000E-01   1.00800           0
      3015 MEMB     24       PVCL2    H18S     HAL3     0.900000E-01   1.00800           0
      3016 MEMB     24       PVCL2    H18T     HAL3     0.900000E-01   1.00800           0
      3017 MEMB     24       PVCL2    CD3      CTL2    -0.180000       12.0110           0
      3018 MEMB     24       PVCL2    H3X      HAL2     0.900000E-01   1.00800           0
      3019 MEMB     24       PVCL2    H3Y      HAL2     0.900000E-01   1.00800           0
      3020 MEMB     24       PVCL2    CD4      CTL2    -0.180000       12.0110           0
      3021 MEMB     24       PVCL2    H4X      HAL2     0.900000E-01   1.00800           0
      3022 MEMB     24       PVCL2    H4Y      HAL2     0.900000E-01   1.00800           0
      3023 MEMB     24       PVCL2    CD5      CTL2    -0.180000       12.0110           0
      3024 MEMB     24       PVCL2    H5X      HAL2     0.900000E-01   1.00800           0
      3025 MEMB     24       PVCL2    H5Y      HAL2     0.900000E-01   1.00800           0
      3026 MEMB     24       PVCL2    CD6      CTL2    -0.180000       12.0110           0
      3027 MEMB     24       PVCL2    H6X      HAL2     0.900000E-01   1.00800           0
      3028 MEMB     24       PVCL2    H6Y      HAL2     0.900000E-01   1.00800           0
      3029 MEMB     24       PVCL2    CD7      CTL2    -0.180000       12.0110           0
      3030 MEMB     24       PVCL2    H7X      HAL2     0.900000E-01   1.00800           0
      3031 MEMB     24       PVCL2    H7Y      HAL2     0.900000E-01   1.00800           0
      3032 MEMB     24       PVCL2    CD8      CTL2    -0.180000       12.0110           0
      3033 MEMB     24       PVCL2    H8X      HAL2     0.900000E-01   1.00800           0
      3034 MEMB     24       PVCL2    H8Y      HAL2     0.900000E-01   1.00800           0
      3035 MEMB     24       PVCL2    CD9      CTL2    -0.180000       12.0110           0
      3036 MEMB     24       PVCL2    H9X      HAL2     0.900000E-01   1.00800           0
      3037 MEMB     24       PVCL2    H9Y      HAL2     0.900000E-01   1.00800           0
      3038 MEMB     24       PVCL2    CD10     CTL2    -0.180000       12.0110           0
      3039 MEMB     24       PVCL2    H10X     HAL2     0.900000E-01   1.00800           0
      3040 MEMB     24       PVCL2    H10Y     HAL2     0.900000E-01   1.00800           0
      3041 MEMB     24       PVCL2    CD11     CTL2    -0.180000       12.0110           0
      3042 MEMB     24       PVCL2    H11X     HAL2     0.900000E-01   1.00800           0
      3043 MEMB     24       PVCL2    H11Y     HAL2     0.900000E-01   1.00800           0
      3044 MEMB     24       PVCL2    CD12     CTL2    -0.180000       12.0110           0
      3045 MEMB     24       PVCL2    H12X     HAL2     0.900000E-01   1.00800           0
      3046 MEMB     24       PVCL2    H12Y     HAL2     0.900000E-01   1.00800           0
      3047 MEMB     24       PVCL2    CD13     CTL2    -0.180000       12.0110           0
      3048 MEMB     24       PVCL2    H13X     HAL2     0.900000E-01   1.00800           0
      3049 MEMB     24       PVCL2    H13Y     HAL2     0.900000E-01   1.00800           0
      3050 MEMB     24       PVCL2    CD14     CTL2    -0.180000       12.0110           0
      3051 MEMB     24       PVCL2    H14X     HAL2     0.900000E-01   1.00800           0
      3052 MEMB     24       PVCL2    H14Y     HAL2     0.900000E-01   1.00800           0
      3053 MEMB     24       PVCL2    CD15     CTL2    -0.180000       12.0110           0
      3054 MEMB     24       PVCL2    H15X     HAL2     0.900000E-01   1.00800           0
      3055 MEMB     24       PVCL2    H15Y     HAL2     0.900000E-01   1.00800           0
      3056 MEMB     24       PVCL2    CD16     CTL3    -0.270000       12.0110           0
      3057 MEMB     24       PVCL2    H16X     HAL3     0.900000E-01   1.00800           0
      3058 MEMB     24       PVCL2    H16Y     HAL3     0.900000E-01   1.00800           0
      3059 MEMB     24       PVCL2    H16Z     HAL3     0.900000E-01   1.00800           0
      3060 MEMB     25       POPE     N        NH3L    -0.300000       14.0070           0
      3061 MEMB     25       POPE     HN1      HCL      0.330000       1.00800           0
      3062 MEMB     25       POPE     HN2      HCL      0.330000       1.00800           0
      3063 MEMB     25       POPE     HN3      HCL      0.330000       1.00800           0
      3064 MEMB     25       POPE     C12      CTL2     0.130000       12.0110           0
      3065 MEMB     25       POPE     H12A     HAL2     0.900000E-01   1.00800           0
      3066 MEMB     25       POPE     H12B     HAL2     0.900000E-01   1.00800           0
      3067 MEMB     25       POPE     C11      CTL2    -0.800000E-01   12.0110           0
      3068 MEMB     25       POPE     H11A     HAL2     0.900000E-01   1.00800           0
      3069 MEMB     25       POPE     H11B     HAL2     0.900000E-01   1.00800           0
      3070 MEMB     25       POPE     P        PL        1.50000       30.9740           0
      3071 MEMB     25       POPE     O13      O2L     -0.780000       15.9994           0
      3072 MEMB     25       POPE     O14      O2L     -0.780000       15.9994           0
      3073 MEMB     25       POPE     O11      OSLP    -0.570000       15.9994           0
      3074 MEMB     25       POPE     O12      OSLP    -0.570000       15.9994           0
      3075 MEMB     25       POPE     C1       CTL2    -0.800000E-01   12.0110           0
      3076 MEMB     25       POPE     HA       HAL2     0.900000E-01   1.00800           0
      3077 MEMB     25       POPE     HB       HAL2     0.900000E-01   1.00800           0
      3078 MEMB     25       POPE     C2       CTL1     0.170000       12.0110           0
      3079 MEMB     25       POPE     HS       HAL1     0.900000E-01   1.00800           0
      3080 MEMB     25       POPE     O21      OSL     -0.490000       15.9994           0
      3081 MEMB     25       POPE     C21      CL       0.900000       12.0110           0
      3082 MEMB     25       POPE     O22      OBL     -0.630000       15.9994           0
      3083 MEMB     25       POPE     C22      CTL2    -0.220000       12.0110           0
      3084 MEMB     25       POPE     H2R      HAL2     0.900000E-01   1.00800           0
      3085 MEMB     25       POPE     H2S      HAL2     0.900000E-01   1.00800           0
      3086 MEMB     25       POPE     C3       CTL2     0.800000E-01   12.0110           0
      3087 MEMB     25       POPE     HX       HAL2     0.900000E-01   1.00800           0
      3088 MEMB     25       POPE     HY       HAL2     0.900000E-01   1.00800           0
      3089 MEMB     25       POPE     O31      OSL     -0.490000       15.9994           0
      3090 MEMB     25       POPE     C31      CL       0.900000       12.0110           0
      3091 MEMB     25       POPE     O32      OBL     -0.630000       15.9994           0
      3092 MEMB     25       POPE     C32      CTL2    -0.220000       12.0110           0
      3093 MEMB     25       POPE     H2X      HAL2     0.900000E-01   1.00800           0
      3094 MEMB     25       POPE     H2Y      HAL2     0.900000E-01   1.00800           0
      3095 MEMB     25       POPE     C23      CTL2    -0.180000       12.0110           0
      3096 MEMB     25       POPE     H3R      HAL2     0.900000E-01   1.00800           0
      3097 MEMB     25       POPE     H3S      HAL2     0.900000E-01   1.00800           0
      3098 MEMB     25       POPE     C24      CTL2    -0.180000       12.0110           0
      3099 MEMB     25       POPE     H4R      HAL2     0.900000E-01   1.00800           0
      3100 MEMB     25       POPE     H4S      HAL2     0.900000E-01   1.00800           0
      3101 MEMB     25       POPE     C25      CTL2    -0.180000       12.0110           0
      3102 MEMB     25       POPE     H5R      HAL2     0.900000E-01   1.00800           0
      3103 MEMB     25       POPE     H5S      HAL2     0.900000E-01   1.00800           0
      3104 MEMB     25       POPE     C26      CTL2    -0.180000       12.0110           0
      3105 MEMB     25       POPE     H6R      HAL2     0.900000E-01   1.00800           0
      3106 MEMB     25       POPE     H6S      HAL2     0.900000E-01   1.00800           0
      3107 MEMB     25       POPE     C27      CTL2    -0.180000       12.0110           0
      3108 MEMB     25       POPE     H7R      HAL2     0.900000E-01   1.00800           0
      3109 MEMB     25       POPE     H7S      HAL2     0.900000E-01   1.00800           0
      3110 MEMB     25       POPE     C28      CTL2    -0.180000       12.0110           0
      3111 MEMB     25       POPE     H8R      HAL2     0.900000E-01   1.00800           0
      3112 MEMB     25       POPE     H8S      HAL2     0.900000E-01   1.00800           0
      3113 MEMB     25       POPE     C29      CEL1    -0.150000       12.0110           0
      3114 MEMB     25       POPE     H91      HEL1     0.150000       1.00800           0
      3115 MEMB     25       POPE     C210     CEL1    -0.150000       12.0110           0
      3116 MEMB     25       POPE     H101     HEL1     0.150000       1.00800           0
      3117 MEMB     25       POPE     C211     CTL2    -0.180000       12.0110           0
      3118 MEMB     25       POPE     H11R     HAL2     0.900000E-01   1.00800           0
      3119 MEMB     25       POPE     H11S     HAL2     0.900000E-01   1.00800           0
      3120 MEMB     25       POPE     C212     CTL2    -0.180000       12.0110           0
      3121 MEMB     25       POPE     H12R     HAL2     0.900000E-01   1.00800           0
      3122 MEMB     25       POPE     H12S     HAL2     0.900000E-01   1.00800           0
      3123 MEMB     25       POPE     C213     CTL2    -0.180000       12.0110           0
      3124 MEMB     25       POPE     H13R     HAL2     0.900000E-01   1.00800           0
      3125 MEMB     25       POPE     H13S     HAL2     0.900000E-01   1.00800           0
      3126 MEMB     25       POPE     C214     CTL2    -0.180000       12.0110           0
      3127 MEMB     25       POPE     H14R     HAL2     0.900000E-01   1.00800           0
      3128 MEMB     25       POPE     H14S     HAL2     0.900000E-01   1.00800           0
      3129 MEMB     25       POPE     C215     CTL2    -0.180000       12.0110           0
      3130 MEMB     25       POPE     H15R     HAL2     0.900000E-01   1.00800           0
      3131 MEMB     25       POPE     H15S     HAL2     0.900000E-01   1.00800           0
      3132 MEMB     25       POPE     C216     CTL2    -0.180000       12.0110           0
      3133 MEMB     25       POPE     H16R     HAL2     0.900000E-01   1.00800           0
      3134 MEMB     25       POPE     H16S     HAL2     0.900000E-01   1.00800           0
      3135 MEMB     25       POPE     C217     CTL2    -0.180000       12.0110           0
      3136 MEMB     25       POPE     H17R     HAL2     0.900000E-01   1.00800           0
      3137 MEMB     25       POPE     H17S     HAL2     0.900000E-01   1.00800           0
      3138 MEMB     25       POPE     C218     CTL3    -0.270000       12.0110           0
      3139 MEMB     25       POPE     H18R     HAL3     0.900000E-01   1.00800           0
      3140 MEMB     25       POPE     H18S     HAL3     0.900000E-01   1.00800           0
      3141 MEMB     25       POPE     H18T     HAL3     0.900000E-01   1.00800           0
      3142 MEMB     25       POPE     C33      CTL2    -0.180000       12.0110           0
      3143 MEMB     25       POPE     H3X      HAL2     0.900000E-01   1.00800           0
      3144 MEMB     25       POPE     H3Y      HAL2     0.900000E-01   1.00800           0
      3145 MEMB     25       POPE     C34      CTL2    -0.180000       12.0110           0
      3146 MEMB     25       POPE     H4X      HAL2     0.900000E-01   1.00800           0
      3147 MEMB     25       POPE     H4Y      HAL2     0.900000E-01   1.00800           0
      3148 MEMB     25       POPE     C35      CTL2    -0.180000       12.0110           0
      3149 MEMB     25       POPE     H5X      HAL2     0.900000E-01   1.00800           0
      3150 MEMB     25       POPE     H5Y      HAL2     0.900000E-01   1.00800           0
      3151 MEMB     25       POPE     C36      CTL2    -0.180000       12.0110           0
      3152 MEMB     25       POPE     H6X      HAL2     0.900000E-01   1.00800           0
      3153 MEMB     25       POPE     H6Y      HAL2     0.900000E-01   1.00800           0
      3154 MEMB     25       POPE     C37      CTL2    -0.180000       12.0110           0
      3155 MEMB     25       POPE     H7X      HAL2     0.900000E-01   1.00800           0
      3156 MEMB     25       POPE     H7Y      HAL2     0.900000E-01   1.00800           0
      3157 MEMB     25       POPE     C38      CTL2    -0.180000       12.0110           0
      3158 MEMB     25       POPE     H8X      HAL2     0.900000E-01   1.00800           0
      3159 MEMB     25       POPE     H8Y      HAL2     0.900000E-01   1.00800           0
      3160 MEMB     25       POPE     C39      CTL2    -0.180000       12.0110           0
      3161 MEMB     25       POPE     H9X      HAL2     0.900000E-01   1.00800           0
      3162 MEMB     25       POPE     H9Y      HAL2     0.900000E-01   1.00800           0
      3163 MEMB     25       POPE     C310     CTL2    -0.180000       12.0110           0
      3164 MEMB     25       POPE     H10X     HAL2     0.900000E-01   1.00800           0
      3165 MEMB     25       POPE     H10Y     HAL2     0.900000E-01   1.00800           0
      3166 MEMB     25       POPE     C311     CTL2    -0.180000       12.0110           0
      3167 MEMB     25       POPE     H11X     HAL2     0.900000E-01   1.00800           0
      3168 MEMB     25       POPE     H11Y     HAL2     0.900000E-01   1.00800           0
      3169 MEMB     25       POPE     C312     CTL2    -0.180000       12.0110           0
      3170 MEMB     25       POPE     H12X     HAL2     0.900000E-01   1.00800           0
      3171 MEMB     25       POPE     H12Y     HAL2     0.900000E-01   1.00800           0
      3172 MEMB     25       POPE     C313     CTL2    -0.180000       12.0110           0
      3173 MEMB     25       POPE     H13X     HAL2     0.900000E-01   1.00800           0
      3174 MEMB     25       POPE     H13Y     HAL2     0.900000E-01   1.00800           0
      3175 MEMB     25       POPE     C314     CTL2    -0.180000       12.0110           0
      3176 MEMB     25       POPE     H14X     HAL2     0.900000E-01   1.00800           0
      3177 MEMB     25       POPE     H14Y     HAL2     0.900000E-01   1.00800           0
      3178 MEMB     25       POPE     C315     CTL2    -0.180000       12.0110           0
      3179 MEMB     25       POPE     H15X     HAL2     0.900000E-01   1.00800           0
      3180 MEMB     25       POPE     H15Y     HAL2     0.900000E-01   1.00800           0
      3181 MEMB     25       POPE     C316     CTL3    -0.270000       12.0110           0
      3182 MEMB     25       POPE     H16X     HAL3     0.900000E-01   1.00800           0
      3183 MEMB     25       POPE     H16Y     HAL3     0.900000E-01   1.00800           0
      3184 MEMB     25       POPE     H16Z     HAL3     0.900000E-01   1.00800           0
      3185 MEMB     26       OYPE     N        NH3L    -0.300000       14.0070           0
      3186 MEMB     26       OYPE     HN1      HCL      0.330000       1.00800           0
      3187 MEMB     26       OYPE     HN2      HCL      0.330000       1.00800           0
      3188 MEMB     26       OYPE     HN3      HCL      0.330000       1.00800           0
      3189 MEMB     26       OYPE     C12      CTL2     0.130000       12.0110           0
      3190 MEMB     26       OYPE     H12A     HAL2     0.900000E-01   1.00800           0
      3191 MEMB     26       OYPE     H12B     HAL2     0.900000E-01   1.00800           0
      3192 MEMB     26       OYPE     C11      CTL2    -0.800000E-01   12.0110           0
      3193 MEMB     26       OYPE     H11A     HAL2     0.900000E-01   1.00800           0
      3194 MEMB     26       OYPE     H11B     HAL2     0.900000E-01   1.00800           0
      3195 MEMB     26       OYPE     P        PL        1.50000       30.9740           0
      3196 MEMB     26       OYPE     O13      O2L     -0.780000       15.9994           0
      3197 MEMB     26       OYPE     O14      O2L     -0.780000       15.9994           0
      3198 MEMB     26       OYPE     O11      OSLP    -0.570000       15.9994           0
      3199 MEMB     26       OYPE     O12      OSLP    -0.570000       15.9994           0
      3200 MEMB     26       OYPE     C1       CTL2    -0.800000E-01   12.0110           0
      3201 MEMB     26       OYPE     HA       HAL2     0.900000E-01   1.00800           0
      3202 MEMB     26       OYPE     HB       HAL2     0.900000E-01   1.00800           0
      3203 MEMB     26       OYPE     C2       CTL1     0.170000       12.0110           0
      3204 MEMB     26       OYPE     HS       HAL1     0.900000E-01   1.00800           0
      3205 MEMB     26       OYPE     O21      OSL     -0.490000       15.9994           0
      3206 MEMB     26       OYPE     C21      CL       0.900000       12.0110           0
      3207 MEMB     26       OYPE     O22      OBL     -0.630000       15.9994           0
      3208 MEMB     26       OYPE     C22      CTL2    -0.220000       12.0110           0
      3209 MEMB     26       OYPE     H2R      HAL2     0.900000E-01   1.00800           0
      3210 MEMB     26       OYPE     H2S      HAL2     0.900000E-01   1.00800           0
      3211 MEMB     26       OYPE     C3       CTL2     0.800000E-01   12.0110           0
      3212 MEMB     26       OYPE     HX       HAL2     0.900000E-01   1.00800           0
      3213 MEMB     26       OYPE     HY       HAL2     0.900000E-01   1.00800           0
      3214 MEMB     26       OYPE     O31      OSL     -0.490000       15.9994           0
      3215 MEMB     26       OYPE     C31      CL       0.900000       12.0110           0
      3216 MEMB     26       OYPE     O32      OBL     -0.630000       15.9994           0
      3217 MEMB     26       OYPE     C32      CTL2    -0.220000       12.0110           0
      3218 MEMB     26       OYPE     H2X      HAL2     0.900000E-01   1.00800           0
      3219 MEMB     26       OYPE     H2Y      HAL2     0.900000E-01   1.00800           0
      3220 MEMB     26       OYPE     C23      CTL2    -0.180000       12.0110           0
      3221 MEMB     26       OYPE     H3R      HAL2     0.900000E-01   1.00800           0
      3222 MEMB     26       OYPE     H3S      HAL2     0.900000E-01   1.00800           0
      3223 MEMB     26       OYPE     C24      CTL2    -0.180000       12.0110           0
      3224 MEMB     26       OYPE     H4R      HAL2     0.900000E-01   1.00800           0
      3225 MEMB     26       OYPE     H4S      HAL2     0.900000E-01   1.00800           0
      3226 MEMB     26       OYPE     C25      CTL2    -0.180000       12.0110           0
      3227 MEMB     26       OYPE     H5R      HAL2     0.900000E-01   1.00800           0
      3228 MEMB     26       OYPE     H5S      HAL2     0.900000E-01   1.00800           0
      3229 MEMB     26       OYPE     C26      CTL2    -0.180000       12.0110           0
      3230 MEMB     26       OYPE     H6R      HAL2     0.900000E-01   1.00800           0
      3231 MEMB     26       OYPE     H6S      HAL2     0.900000E-01   1.00800           0
      3232 MEMB     26       OYPE     C27      CTL2    -0.180000       12.0110           0
      3233 MEMB     26       OYPE     H7R      HAL2     0.900000E-01   1.00800           0
      3234 MEMB     26       OYPE     H7S      HAL2     0.900000E-01   1.00800           0
      3235 MEMB     26       OYPE     C28      CTL2    -0.180000       12.0110           0
      3236 MEMB     26       OYPE     H8R      HAL2     0.900000E-01   1.00800           0
      3237 MEMB     26       OYPE     H8S      HAL2     0.900000E-01   1.00800           0
      3238 MEMB     26       OYPE     C29      CEL1    -0.150000       12.0110           0
      3239 MEMB     26       OYPE     H9R      HEL1     0.150000       1.00800           0
      3240 MEMB     26       OYPE     C210     CEL1    -0.150000       12.0110           0
      3241 MEMB     26       OYPE     H10R     HEL1     0.150000       1.00800           0
      3242 MEMB     26       OYPE     C211     CTL2    -0.180000       12.0110           0
      3243 MEMB     26       OYPE     H11R     HAL2     0.900000E-01   1.00800           0
      3244 MEMB     26       OYPE     H11S     HAL2     0.900000E-01   1.00800           0
      3245 MEMB     26       OYPE     C212     CTL2    -0.180000       12.0110           0
      3246 MEMB     26       OYPE     H12R     HAL2     0.900000E-01   1.00800           0
      3247 MEMB     26       OYPE     H12S     HAL2     0.900000E-01   1.00800           0
      3248 MEMB     26       OYPE     C213     CTL2    -0.180000       12.0110           0
      3249 MEMB     26       OYPE     H13R     HAL2     0.900000E-01   1.00800           0
      3250 MEMB     26       OYPE     H13S     HAL2     0.900000E-01   1.00800           0
      3251 MEMB     26       OYPE     C214     CTL2    -0.180000       12.0110           0
      3252 MEMB     26       OYPE     H14R     HAL2     0.900000E-01   1.00800           0
      3253 MEMB     26       OYPE     H14S     HAL2     0.900000E-01   1.00800           0
      3254 MEMB     26       OYPE     C215     CTL2    -0.180000       12.0110           0
      3255 MEMB     26       OYPE     H15R     HAL2     0.900000E-01   1.00800           0
      3256 MEMB     26       OYPE     H15S     HAL2     0.900000E-01   1.00800           0
      3257 MEMB     26       OYPE     C216     CTL3    -0.270000       12.0110           0
      3258 MEMB     26       OYPE     H16R     HAL3     0.900000E-01   1.00800           0
      3259 MEMB     26       OYPE     H16S     HAL3     0.900000E-01   1.00800           0
      3260 MEMB     26       OYPE     H16T     HAL3     0.900000E-01   1.00800           0
      3261 MEMB     26       OYPE     C33      CTL2    -0.180000       12.0110           0
      3262 MEMB     26       OYPE     H3X      HAL2     0.900000E-01   1.00800           0
      3263 MEMB     26       OYPE     H3Y      HAL2     0.900000E-01   1.00800           0
      3264 MEMB     26       OYPE     C34      CTL2    -0.180000       12.0110           0
      3265 MEMB     26       OYPE     H4X      HAL2     0.900000E-01   1.00800           0
      3266 MEMB     26       OYPE     H4Y      HAL2     0.900000E-01   1.00800           0
      3267 MEMB     26       OYPE     C35      CTL2    -0.180000       12.0110           0
      3268 MEMB     26       OYPE     H5X      HAL2     0.900000E-01   1.00800           0
      3269 MEMB     26       OYPE     H5Y      HAL2     0.900000E-01   1.00800           0
      3270 MEMB     26       OYPE     C36      CTL2    -0.180000       12.0110           0
      3271 MEMB     26       OYPE     H6X      HAL2     0.900000E-01   1.00800           0
      3272 MEMB     26       OYPE     H6Y      HAL2     0.900000E-01   1.00800           0
      3273 MEMB     26       OYPE     C37      CTL2    -0.180000       12.0110           0
      3274 MEMB     26       OYPE     H7X      HAL2     0.900000E-01   1.00800           0
      3275 MEMB     26       OYPE     H7Y      HAL2     0.900000E-01   1.00800           0
      3276 MEMB     26       OYPE     C38      CTL2    -0.180000       12.0110           0
      3277 MEMB     26       OYPE     H8X      HAL2     0.900000E-01   1.00800           0
      3278 MEMB     26       OYPE     H8Y      HAL2     0.900000E-01   1.00800           0
      3279 MEMB     26       OYPE     C39      CEL1    -0.150000       12.0110           0
      3280 MEMB     26       OYPE     H9X      HEL1     0.150000       1.00800           0
      3281 MEMB     26       OYPE     C310     CEL1    -0.150000       12.0110           0
      3282 MEMB     26       OYPE     H10X     HEL1     0.150000       1.00800           0
      3283 MEMB     26       OYPE     C311     CTL2    -0.180000       12.0110           0
      3284 MEMB     26       OYPE     H11X     HAL2     0.900000E-01   1.00800           0
      3285 MEMB     26       OYPE     H11Y     HAL2     0.900000E-01   1.00800           0
      3286 MEMB     26       OYPE     C312     CTL2    -0.180000       12.0110           0
      3287 MEMB     26       OYPE     H12X     HAL2     0.900000E-01   1.00800           0
      3288 MEMB     26       OYPE     H12Y     HAL2     0.900000E-01   1.00800           0
      3289 MEMB     26       OYPE     C313     CTL2    -0.180000       12.0110           0
      3290 MEMB     26       OYPE     H13X     HAL2     0.900000E-01   1.00800           0
      3291 MEMB     26       OYPE     H13Y     HAL2     0.900000E-01   1.00800           0
      3292 MEMB     26       OYPE     C314     CTL2    -0.180000       12.0110           0
      3293 MEMB     26       OYPE     H14X     HAL2     0.900000E-01   1.00800           0
      3294 MEMB     26       OYPE     H14Y     HAL2     0.900000E-01   1.00800           0
      3295 MEMB     26       OYPE     C315     CTL2    -0.180000       12.0110           0
      3296 MEMB     26       OYPE     H15X     HAL2     0.900000E-01   1.00800           0
      3297 MEMB     26       OYPE     H15Y     HAL2     0.900000E-01   1.00800           0
      3298 MEMB     26       OYPE     C316     CTL2    -0.180000       12.0110           0
      3299 MEMB     26       OYPE     H16X     HAL2     0.900000E-01   1.00800           0
      3300 MEMB     26       OYPE     H16Y     HAL2     0.900000E-01   1.00800           0
      3301 MEMB     26       OYPE     C317     CTL2    -0.180000       12.0110           0
      3302 MEMB     26       OYPE     H17X     HAL2     0.900000E-01   1.00800           0
      3303 MEMB     26       OYPE     H17Y     HAL2     0.900000E-01   1.00800           0
      3304 MEMB     26       OYPE     C318     CTL3    -0.270000       12.0110           0
      3305 MEMB     26       OYPE     H18X     HAL3     0.900000E-01   1.00800           0
      3306 MEMB     26       OYPE     H18Y     HAL3     0.900000E-01   1.00800           0
      3307 MEMB     26       OYPE     H18Z     HAL3     0.900000E-01   1.00800           0
      3308 MEMB     27       PMPE     N        NH3L    -0.300000       14.0070           0
      3309 MEMB     27       PMPE     HN1      HCL      0.330000       1.00800           0
      3310 MEMB     27       PMPE     HN2      HCL      0.330000       1.00800           0
      3311 MEMB     27       PMPE     HN3      HCL      0.330000       1.00800           0
      3312 MEMB     27       PMPE     C12      CTL2     0.130000       12.0110           0
      3313 MEMB     27       PMPE     H12A     HAL2     0.900000E-01   1.00800           0
      3314 MEMB     27       PMPE     H12B     HAL2     0.900000E-01   1.00800           0
      3315 MEMB     27       PMPE     C11      CTL2    -0.800000E-01   12.0110           0
      3316 MEMB     27       PMPE     H11A     HAL2     0.900000E-01   1.00800           0
      3317 MEMB     27       PMPE     H11B     HAL2     0.900000E-01   1.00800           0
      3318 MEMB     27       PMPE     P        PL        1.50000       30.9740           0
      3319 MEMB     27       PMPE     O13      O2L     -0.780000       15.9994           0
      3320 MEMB     27       PMPE     O14      O2L     -0.780000       15.9994           0
      3321 MEMB     27       PMPE     O11      OSLP    -0.570000       15.9994           0
      3322 MEMB     27       PMPE     O12      OSLP    -0.570000       15.9994           0
      3323 MEMB     27       PMPE     C1       CTL2    -0.800000E-01   12.0110           0
      3324 MEMB     27       PMPE     HA       HAL2     0.900000E-01   1.00800           0
      3325 MEMB     27       PMPE     HB       HAL2     0.900000E-01   1.00800           0
      3326 MEMB     27       PMPE     C2       CTL1     0.170000       12.0110           0
      3327 MEMB     27       PMPE     HS       HAL1     0.900000E-01   1.00800           0
      3328 MEMB     27       PMPE     O21      OSL     -0.490000       15.9994           0
      3329 MEMB     27       PMPE     C21      CL       0.900000       12.0110           0
      3330 MEMB     27       PMPE     O22      OBL     -0.630000       15.9994           0
      3331 MEMB     27       PMPE     C22      CTL2    -0.220000       12.0110           0
      3332 MEMB     27       PMPE     H2R      HAL2     0.900000E-01   1.00800           0
      3333 MEMB     27       PMPE     H2S      HAL2     0.900000E-01   1.00800           0
      3334 MEMB     27       PMPE     C3       CTL2     0.800000E-01   12.0110           0
      3335 MEMB     27       PMPE     HX       HAL2     0.900000E-01   1.00800           0
      3336 MEMB     27       PMPE     HY       HAL2     0.900000E-01   1.00800           0
      3337 MEMB     27       PMPE     O31      OSL     -0.490000       15.9994           0
      3338 MEMB     27       PMPE     C31      CL       0.900000       12.0110           0
      3339 MEMB     27       PMPE     O32      OBL     -0.630000       15.9994           0
      3340 MEMB     27       PMPE     C32      CTL2    -0.220000       12.0110           0
      3341 MEMB     27       PMPE     H2X      HAL2     0.900000E-01   1.00800           0
      3342 MEMB     27       PMPE     H2Y      HAL2     0.900000E-01   1.00800           0
      3343 MEMB     27       PMPE     C23      CTL2    -0.180000       12.0110           0
      3344 MEMB     27       PMPE     H3R      HAL2     0.900000E-01   1.00800           0
      3345 MEMB     27       PMPE     H3S      HAL2     0.900000E-01   1.00800           0
      3346 MEMB     27       PMPE     C24      CTL2    -0.180000       12.0110           0
      3347 MEMB     27       PMPE     H4R      HAL2     0.900000E-01   1.00800           0
      3348 MEMB     27       PMPE     H4S      HAL2     0.900000E-01   1.00800           0
      3349 MEMB     27       PMPE     C25      CTL2    -0.180000       12.0110           0
      3350 MEMB     27       PMPE     H5R      HAL2     0.900000E-01   1.00800           0
      3351 MEMB     27       PMPE     H5S      HAL2     0.900000E-01   1.00800           0
      3352 MEMB     27       PMPE     C26      CTL2    -0.180000       12.0110           0
      3353 MEMB     27       PMPE     H6R      HAL2     0.900000E-01   1.00800           0
      3354 MEMB     27       PMPE     H6S      HAL2     0.900000E-01   1.00800           0
      3355 MEMB     27       PMPE     C27      CTL2    -0.180000       12.0110           0
      3356 MEMB     27       PMPE     H7R      HAL2     0.900000E-01   1.00800           0
      3357 MEMB     27       PMPE     H7S      HAL2     0.900000E-01   1.00800           0
      3358 MEMB     27       PMPE     C28      CTL2    -0.180000       12.0110           0
      3359 MEMB     27       PMPE     H8R      HAL2     0.900000E-01   1.00800           0
      3360 MEMB     27       PMPE     H8S      HAL2     0.900000E-01   1.00800           0
      3361 MEMB     27       PMPE     C29      CG3RC1  -0.900000E-01   12.0110           0
      3362 MEMB     27       PMPE     H9R      HGA1     0.900000E-01   1.00800           0
      3363 MEMB     27       PMPE     C217     CG3C31  -0.180000       12.0110           0
      3364 MEMB     27       PMPE     H17R     HGA2     0.900000E-01   1.00800           0
      3365 MEMB     27       PMPE     H17S     HGA2     0.900000E-01   1.00800           0
      3366 MEMB     27       PMPE     C210     CG3RC1  -0.900000E-01   12.0110           0
      3367 MEMB     27       PMPE     H10R     HGA1     0.900000E-01   1.00800           0
      3368 MEMB     27       PMPE     C211     CTL2    -0.180000       12.0110           0
      3369 MEMB     27       PMPE     H11R     HAL2     0.900000E-01   1.00800           0
      3370 MEMB     27       PMPE     H11S     HAL2     0.900000E-01   1.00800           0
      3371 MEMB     27       PMPE     C212     CTL2    -0.180000       12.0110           0
      3372 MEMB     27       PMPE     H12R     HAL2     0.900000E-01   1.00800           0
      3373 MEMB     27       PMPE     H12S     HAL2     0.900000E-01   1.00800           0
      3374 MEMB     27       PMPE     C213     CTL2    -0.180000       12.0110           0
      3375 MEMB     27       PMPE     H13R     HAL2     0.900000E-01   1.00800           0
      3376 MEMB     27       PMPE     H13S     HAL2     0.900000E-01   1.00800           0
      3377 MEMB     27       PMPE     C214     CTL2    -0.180000       12.0110           0
      3378 MEMB     27       PMPE     H14R     HAL2     0.900000E-01   1.00800           0
      3379 MEMB     27       PMPE     H14S     HAL2     0.900000E-01   1.00800           0
      3380 MEMB     27       PMPE     C215     CTL2    -0.180000       12.0110           0
      3381 MEMB     27       PMPE     H15R     HAL2     0.900000E-01   1.00800           0
      3382 MEMB     27       PMPE     H15S     HAL2     0.900000E-01   1.00800           0
      3383 MEMB     27       PMPE     C216     CTL3    -0.270000       12.0110           0
      3384 MEMB     27       PMPE     H16R     HAL3     0.900000E-01   1.00800           0
      3385 MEMB     27       PMPE     H16S     HAL3     0.900000E-01   1.00800           0
      3386 MEMB     27       PMPE     H16T     HAL3     0.900000E-01   1.00800           0
      3387 MEMB     27       PMPE     C33      CTL2    -0.180000       12.0110           0
      3388 MEMB     27       PMPE     H3X      HAL2     0.900000E-01   1.00800           0
      3389 MEMB     27       PMPE     H3Y      HAL2     0.900000E-01   1.00800           0
      3390 MEMB     27       PMPE     C34      CTL2    -0.180000       12.0110           0
      3391 MEMB     27       PMPE     H4X      HAL2     0.900000E-01   1.00800           0
      3392 MEMB     27       PMPE     H4Y      HAL2     0.900000E-01   1.00800           0
      3393 MEMB     27       PMPE     C35      CTL2    -0.180000       12.0110           0
      3394 MEMB     27       PMPE     H5X      HAL2     0.900000E-01   1.00800           0
      3395 MEMB     27       PMPE     H5Y      HAL2     0.900000E-01   1.00800           0
      3396 MEMB     27       PMPE     C36      CTL2    -0.180000       12.0110           0
      3397 MEMB     27       PMPE     H6X      HAL2     0.900000E-01   1.00800           0
      3398 MEMB     27       PMPE     H6Y      HAL2     0.900000E-01   1.00800           0
      3399 MEMB     27       PMPE     C37      CTL2    -0.180000       12.0110           0
      3400 MEMB     27       PMPE     H7X      HAL2     0.900000E-01   1.00800           0
      3401 MEMB     27       PMPE     H7Y      HAL2     0.900000E-01   1.00800           0
      3402 MEMB     27       PMPE     C38      CTL2    -0.180000       12.0110           0
      3403 MEMB     27       PMPE     H8X      HAL2     0.900000E-01   1.00800           0
      3404 MEMB     27       PMPE     H8Y      HAL2     0.900000E-01   1.00800           0
      3405 MEMB     27       PMPE     C39      CTL2    -0.180000       12.0110           0
      3406 MEMB     27       PMPE     H9X      HAL2     0.900000E-01   1.00800           0
      3407 MEMB     27       PMPE     H9Y      HAL2     0.900000E-01   1.00800           0
      3408 MEMB     27       PMPE     C310     CTL2    -0.180000       12.0110           0
      3409 MEMB     27       PMPE     H10X     HAL2     0.900000E-01   1.00800           0
      3410 MEMB     27       PMPE     H10Y     HAL2     0.900000E-01   1.00800           0
      3411 MEMB     27       PMPE     C311     CTL2    -0.180000       12.0110           0
      3412 MEMB     27       PMPE     H11X     HAL2     0.900000E-01   1.00800           0
      3413 MEMB     27       PMPE     H11Y     HAL2     0.900000E-01   1.00800           0
      3414 MEMB     27       PMPE     C312     CTL2    -0.180000       12.0110           0
      3415 MEMB     27       PMPE     H12X     HAL2     0.900000E-01   1.00800           0
      3416 MEMB     27       PMPE     H12Y     HAL2     0.900000E-01   1.00800           0
      3417 MEMB     27       PMPE     C313     CTL2    -0.180000       12.0110           0
      3418 MEMB     27       PMPE     H13X     HAL2     0.900000E-01   1.00800           0
      3419 MEMB     27       PMPE     H13Y     HAL2     0.900000E-01   1.00800           0
      3420 MEMB     27       PMPE     C314     CTL2    -0.180000       12.0110           0
      3421 MEMB     27       PMPE     H14X     HAL2     0.900000E-01   1.00800           0
      3422 MEMB     27       PMPE     H14Y     HAL2     0.900000E-01   1.00800           0
      3423 MEMB     27       PMPE     C315     CTL2    -0.180000       12.0110           0
      3424 MEMB     27       PMPE     H15X     HAL2     0.900000E-01   1.00800           0
      3425 MEMB     27       PMPE     H15Y     HAL2     0.900000E-01   1.00800           0
      3426 MEMB     27       PMPE     C316     CTL3    -0.270000       12.0110           0
      3427 MEMB     27       PMPE     H16X     HAL3     0.900000E-01   1.00800           0
      3428 MEMB     27       PMPE     H16Y     HAL3     0.900000E-01   1.00800           0
      3429 MEMB     27       PMPE     H16Z     HAL3     0.900000E-01   1.00800           0
      3430 MEMB     28       PMPE     N        NH3L    -0.300000       14.0070           0
      3431 MEMB     28       PMPE     HN1      HCL      0.330000       1.00800           0
      3432 MEMB     28       PMPE     HN2      HCL      0.330000       1.00800           0
      3433 MEMB     28       PMPE     HN3      HCL      0.330000       1.00800           0
      3434 MEMB     28       PMPE     C12      CTL2     0.130000       12.0110           0
      3435 MEMB     28       PMPE     H12A     HAL2     0.900000E-01   1.00800           0
      3436 MEMB     28       PMPE     H12B     HAL2     0.900000E-01   1.00800           0
      3437 MEMB     28       PMPE     C11      CTL2    -0.800000E-01   12.0110           0
      3438 MEMB     28       PMPE     H11A     HAL2     0.900000E-01   1.00800           0
      3439 MEMB     28       PMPE     H11B     HAL2     0.900000E-01   1.00800           0
      3440 MEMB     28       PMPE     P        PL        1.50000       30.9740           0
      3441 MEMB     28       PMPE     O13      O2L     -0.780000       15.9994           0
      3442 MEMB     28       PMPE     O14      O2L     -0.780000       15.9994           0
      3443 MEMB     28       PMPE     O11      OSLP    -0.570000       15.9994           0
      3444 MEMB     28       PMPE     O12      OSLP    -0.570000       15.9994           0
      3445 MEMB     28       PMPE     C1       CTL2    -0.800000E-01   12.0110           0
      3446 MEMB     28       PMPE     HA       HAL2     0.900000E-01   1.00800           0
      3447 MEMB     28       PMPE     HB       HAL2     0.900000E-01   1.00800           0
      3448 MEMB     28       PMPE     C2       CTL1     0.170000       12.0110           0
      3449 MEMB     28       PMPE     HS       HAL1     0.900000E-01   1.00800           0
      3450 MEMB     28       PMPE     O21      OSL     -0.490000       15.9994           0
      3451 MEMB     28       PMPE     C21      CL       0.900000       12.0110           0
      3452 MEMB     28       PMPE     O22      OBL     -0.630000       15.9994           0
      3453 MEMB     28       PMPE     C22      CTL2    -0.220000       12.0110           0
      3454 MEMB     28       PMPE     H2R      HAL2     0.900000E-01   1.00800           0
      3455 MEMB     28       PMPE     H2S      HAL2     0.900000E-01   1.00800           0
      3456 MEMB     28       PMPE     C3       CTL2     0.800000E-01   12.0110           0
      3457 MEMB     28       PMPE     HX       HAL2     0.900000E-01   1.00800           0
      3458 MEMB     28       PMPE     HY       HAL2     0.900000E-01   1.00800           0
      3459 MEMB     28       PMPE     O31      OSL     -0.490000       15.9994           0
      3460 MEMB     28       PMPE     C31      CL       0.900000       12.0110           0
      3461 MEMB     28       PMPE     O32      OBL     -0.630000       15.9994           0
      3462 MEMB     28       PMPE     C32      CTL2    -0.220000       12.0110           0
      3463 MEMB     28       PMPE     H2X      HAL2     0.900000E-01   1.00800           0
      3464 MEMB     28       PMPE     H2Y      HAL2     0.900000E-01   1.00800           0
      3465 MEMB     28       PMPE     C23      CTL2    -0.180000       12.0110           0
      3466 MEMB     28       PMPE     H3R      HAL2     0.900000E-01   1.00800           0
      3467 MEMB     28       PMPE     H3S      HAL2     0.900000E-01   1.00800           0
      3468 MEMB     28       PMPE     C24      CTL2    -0.180000       12.0110           0
      3469 MEMB     28       PMPE     H4R      HAL2     0.900000E-01   1.00800           0
      3470 MEMB     28       PMPE     H4S      HAL2     0.900000E-01   1.00800           0
      3471 MEMB     28       PMPE     C25      CTL2    -0.180000       12.0110           0
      3472 MEMB     28       PMPE     H5R      HAL2     0.900000E-01   1.00800           0
      3473 MEMB     28       PMPE     H5S      HAL2     0.900000E-01   1.00800           0
      3474 MEMB     28       PMPE     C26      CTL2    -0.180000       12.0110           0
      3475 MEMB     28       PMPE     H6R      HAL2     0.900000E-01   1.00800           0
      3476 MEMB     28       PMPE     H6S      HAL2     0.900000E-01   1.00800           0
      3477 MEMB     28       PMPE     C27      CTL2    -0.180000       12.0110           0
      3478 MEMB     28       PMPE     H7R      HAL2     0.900000E-01   1.00800           0
      3479 MEMB     28       PMPE     H7S      HAL2     0.900000E-01   1.00800           0
      3480 MEMB     28       PMPE     C28      CTL2    -0.180000       12.0110           0
      3481 MEMB     28       PMPE     H8R      HAL2     0.900000E-01   1.00800           0
      3482 MEMB     28       PMPE     H8S      HAL2     0.900000E-01   1.00800           0
      3483 MEMB     28       PMPE     C29      CG3RC1  -0.900000E-01   12.0110           0
      3484 MEMB     28       PMPE     H9R      HGA1     0.900000E-01   1.00800           0
      3485 MEMB     28       PMPE     C217     CG3C31  -0.180000       12.0110           0
      3486 MEMB     28       PMPE     H17R     HGA2     0.900000E-01   1.00800           0
      3487 MEMB     28       PMPE     H17S     HGA2     0.900000E-01   1.00800           0
      3488 MEMB     28       PMPE     C210     CG3RC1  -0.900000E-01   12.0110           0
      3489 MEMB     28       PMPE     H10R     HGA1     0.900000E-01   1.00800           0
      3490 MEMB     28       PMPE     C211     CTL2    -0.180000       12.0110           0
      3491 MEMB     28       PMPE     H11R     HAL2     0.900000E-01   1.00800           0
      3492 MEMB     28       PMPE     H11S     HAL2     0.900000E-01   1.00800           0
      3493 MEMB     28       PMPE     C212     CTL2    -0.180000       12.0110           0
      3494 MEMB     28       PMPE     H12R     HAL2     0.900000E-01   1.00800           0
      3495 MEMB     28       PMPE     H12S     HAL2     0.900000E-01   1.00800           0
      3496 MEMB     28       PMPE     C213     CTL2    -0.180000       12.0110           0
      3497 MEMB     28       PMPE     H13R     HAL2     0.900000E-01   1.00800           0
      3498 MEMB     28       PMPE     H13S     HAL2     0.900000E-01   1.00800           0
      3499 MEMB     28       PMPE     C214     CTL2    -0.180000       12.0110           0
      3500 MEMB     28       PMPE     H14R     HAL2     0.900000E-01   1.00800           0
      3501 MEMB     28       PMPE     H14S     HAL2     0.900000E-01   1.00800           0
      3502 MEMB     28       PMPE     C215     CTL2    -0.180000       12.0110           0
      3503 MEMB     28       PMPE     H15R     HAL2     0.900000E-01   1.00800           0
      3504 MEMB     28       PMPE     H15S     HAL2     0.900000E-01   1.00800           0
      3505 MEMB     28       PMPE     C216     CTL3    -0.270000       12.0110           0
      3506 MEMB     28       PMPE     H16R     HAL3     0.900000E-01   1.00800           0
      3507 MEMB     28       PMPE     H16S     HAL3     0.900000E-01   1.00800           0
      3508 MEMB     28       PMPE     H16T     HAL3     0.900000E-01   1.00800           0
      3509 MEMB     28       PMPE     C33      CTL2    -0.180000       12.0110           0
      3510 MEMB     28       PMPE     H3X      HAL2     0.900000E-01   1.00800           0
      3511 MEMB     28       PMPE     H3Y      HAL2     0.900000E-01   1.00800           0
      3512 MEMB     28       PMPE     C34      CTL2    -0.180000       12.0110           0
      3513 MEMB     28       PMPE     H4X      HAL2     0.900000E-01   1.00800           0
      3514 MEMB     28       PMPE     H4Y      HAL2     0.900000E-01   1.00800           0
      3515 MEMB     28       PMPE     C35      CTL2    -0.180000       12.0110           0
      3516 MEMB     28       PMPE     H5X      HAL2     0.900000E-01   1.00800           0
      3517 MEMB     28       PMPE     H5Y      HAL2     0.900000E-01   1.00800           0
      3518 MEMB     28       PMPE     C36      CTL2    -0.180000       12.0110           0
      3519 MEMB     28       PMPE     H6X      HAL2     0.900000E-01   1.00800           0
      3520 MEMB     28       PMPE     H6Y      HAL2     0.900000E-01   1.00800           0
      3521 MEMB     28       PMPE     C37      CTL2    -0.180000       12.0110           0
      3522 MEMB     28       PMPE     H7X      HAL2     0.900000E-01   1.00800           0
      3523 MEMB     28       PMPE     H7Y      HAL2     0.900000E-01   1.00800           0
      3524 MEMB     28       PMPE     C38      CTL2    -0.180000       12.0110           0
      3525 MEMB     28       PMPE     H8X      HAL2     0.900000E-01   1.00800           0
      3526 MEMB     28       PMPE     H8Y      HAL2     0.900000E-01   1.00800           0
      3527 MEMB     28       PMPE     C39      CTL2    -0.180000       12.0110           0
      3528 MEMB     28       PMPE     H9X      HAL2     0.900000E-01   1.00800           0
      3529 MEMB     28       PMPE     H9Y      HAL2     0.900000E-01   1.00800           0
      3530 MEMB     28       PMPE     C310     CTL2    -0.180000       12.0110           0
      3531 MEMB     28       PMPE     H10X     HAL2     0.900000E-01   1.00800           0
      3532 MEMB     28       PMPE     H10Y     HAL2     0.900000E-01   1.00800           0
      3533 MEMB     28       PMPE     C311     CTL2    -0.180000       12.0110           0
      3534 MEMB     28       PMPE     H11X     HAL2     0.900000E-01   1.00800           0
      3535 MEMB     28       PMPE     H11Y     HAL2     0.900000E-01   1.00800           0
      3536 MEMB     28       PMPE     C312     CTL2    -0.180000       12.0110           0
      3537 MEMB     28       PMPE     H12X     HAL2     0.900000E-01   1.00800           0
      3538 MEMB     28       PMPE     H12Y     HAL2     0.900000E-01   1.00800           0
      3539 MEMB     28       PMPE     C313     CTL2    -0.180000       12.0110           0
      3540 MEMB     28       PMPE     H13X     HAL2     0.900000E-01   1.00800           0
      3541 MEMB     28       PMPE     H13Y     HAL2     0.900000E-01   1.00800           0
      3542 MEMB     28       PMPE     C314     CTL2    -0.180000       12.0110           0
      3543 MEMB     28       PMPE     H14X     HAL2     0.900000E-01   1.00800           0
      3544 MEMB     28       PMPE     H14Y     HAL2     0.900000E-01   1.00800           0
      3545 MEMB     28       PMPE     C315     CTL2    -0.180000       12.0110           0
      3546 MEMB     28       PMPE     H15X     HAL2     0.900000E-01   1.00800           0
      3547 MEMB     28       PMPE     H15Y     HAL2     0.900000E-01   1.00800           0
      3548 MEMB     28       PMPE     C316     CTL3    -0.270000       12.0110           0
      3549 MEMB     28       PMPE     H16X     HAL3     0.900000E-01   1.00800           0
      3550 MEMB     28       PMPE     H16Y     HAL3     0.900000E-01   1.00800           0
      3551 MEMB     28       PMPE     H16Z     HAL3     0.900000E-01   1.00800           0
      3552 MEMB     29       PMPE     N        NH3L    -0.300000       14.0070           0
      3553 MEMB     29       PMPE     HN1      HCL      0.330000       1.00800           0
      3554 MEMB     29       PMPE     HN2      HCL      0.330000       1.00800           0
      3555 MEMB     29       PMPE     HN3      HCL      0.330000       1.00800           0
      3556 MEMB     29       PMPE     C12      CTL2     0.130000       12.0110           0
      3557 MEMB     29       PMPE     H12A     HAL2     0.900000E-01   1.00800           0
      3558 MEMB     29       PMPE     H12B     HAL2     0.900000E-01   1.00800           0
      3559 MEMB     29       PMPE     C11      CTL2    -0.800000E-01   12.0110           0
      3560 MEMB     29       PMPE     H11A     HAL2     0.900000E-01   1.00800           0
      3561 MEMB     29       PMPE     H11B     HAL2     0.900000E-01   1.00800           0
      3562 MEMB     29       PMPE     P        PL        1.50000       30.9740           0
      3563 MEMB     29       PMPE     O13      O2L     -0.780000       15.9994           0
      3564 MEMB     29       PMPE     O14      O2L     -0.780000       15.9994           0
      3565 MEMB     29       PMPE     O11      OSLP    -0.570000       15.9994           0
      3566 MEMB     29       PMPE     O12      OSLP    -0.570000       15.9994           0
      3567 MEMB     29       PMPE     C1       CTL2    -0.800000E-01   12.0110           0
      3568 MEMB     29       PMPE     HA       HAL2     0.900000E-01   1.00800           0
      3569 MEMB     29       PMPE     HB       HAL2     0.900000E-01   1.00800           0
      3570 MEMB     29       PMPE     C2       CTL1     0.170000       12.0110           0
      3571 MEMB     29       PMPE     HS       HAL1     0.900000E-01   1.00800           0
      3572 MEMB     29       PMPE     O21      OSL     -0.490000       15.9994           0
      3573 MEMB     29       PMPE     C21      CL       0.900000       12.0110           0
      3574 MEMB     29       PMPE     O22      OBL     -0.630000       15.9994           0
      3575 MEMB     29       PMPE     C22      CTL2    -0.220000       12.0110           0
      3576 MEMB     29       PMPE     H2R      HAL2     0.900000E-01   1.00800           0
      3577 MEMB     29       PMPE     H2S      HAL2     0.900000E-01   1.00800           0
      3578 MEMB     29       PMPE     C3       CTL2     0.800000E-01   12.0110           0
      3579 MEMB     29       PMPE     HX       HAL2     0.900000E-01   1.00800           0
      3580 MEMB     29       PMPE     HY       HAL2     0.900000E-01   1.00800           0
      3581 MEMB     29       PMPE     O31      OSL     -0.490000       15.9994           0
      3582 MEMB     29       PMPE     C31      CL       0.900000       12.0110           0
      3583 MEMB     29       PMPE     O32      OBL     -0.630000       15.9994           0
      3584 MEMB     29       PMPE     C32      CTL2    -0.220000       12.0110           0
      3585 MEMB     29       PMPE     H2X      HAL2     0.900000E-01   1.00800           0
      3586 MEMB     29       PMPE     H2Y      HAL2     0.900000E-01   1.00800           0
      3587 MEMB     29       PMPE     C23      CTL2    -0.180000       12.0110           0
      3588 MEMB     29       PMPE     H3R      HAL2     0.900000E-01   1.00800           0
      3589 MEMB     29       PMPE     H3S      HAL2     0.900000E-01   1.00800           0
      3590 MEMB     29       PMPE     C24      CTL2    -0.180000       12.0110           0
      3591 MEMB     29       PMPE     H4R      HAL2     0.900000E-01   1.00800           0
      3592 MEMB     29       PMPE     H4S      HAL2     0.900000E-01   1.00800           0
      3593 MEMB     29       PMPE     C25      CTL2    -0.180000       12.0110           0
      3594 MEMB     29       PMPE     H5R      HAL2     0.900000E-01   1.00800           0
      3595 MEMB     29       PMPE     H5S      HAL2     0.900000E-01   1.00800           0
      3596 MEMB     29       PMPE     C26      CTL2    -0.180000       12.0110           0
      3597 MEMB     29       PMPE     H6R      HAL2     0.900000E-01   1.00800           0
      3598 MEMB     29       PMPE     H6S      HAL2     0.900000E-01   1.00800           0
      3599 MEMB     29       PMPE     C27      CTL2    -0.180000       12.0110           0
      3600 MEMB     29       PMPE     H7R      HAL2     0.900000E-01   1.00800           0
      3601 MEMB     29       PMPE     H7S      HAL2     0.900000E-01   1.00800           0
      3602 MEMB     29       PMPE     C28      CTL2    -0.180000       12.0110           0
      3603 MEMB     29       PMPE     H8R      HAL2     0.900000E-01   1.00800           0
      3604 MEMB     29       PMPE     H8S      HAL2     0.900000E-01   1.00800           0
      3605 MEMB     29       PMPE     C29      CG3RC1  -0.900000E-01   12.0110           0
      3606 MEMB     29       PMPE     H9R      HGA1     0.900000E-01   1.00800           0
      3607 MEMB     29       PMPE     C217     CG3C31  -0.180000       12.0110           0
      3608 MEMB     29       PMPE     H17R     HGA2     0.900000E-01   1.00800           0
      3609 MEMB     29       PMPE     H17S     HGA2     0.900000E-01   1.00800           0
      3610 MEMB     29       PMPE     C210     CG3RC1  -0.900000E-01   12.0110           0
      3611 MEMB     29       PMPE     H10R     HGA1     0.900000E-01   1.00800           0
      3612 MEMB     29       PMPE     C211     CTL2    -0.180000       12.0110           0
      3613 MEMB     29       PMPE     H11R     HAL2     0.900000E-01   1.00800           0
      3614 MEMB     29       PMPE     H11S     HAL2     0.900000E-01   1.00800           0
      3615 MEMB     29       PMPE     C212     CTL2    -0.180000       12.0110           0
      3616 MEMB     29       PMPE     H12R     HAL2     0.900000E-01   1.00800           0
      3617 MEMB     29       PMPE     H12S     HAL2     0.900000E-01   1.00800           0
      3618 MEMB     29       PMPE     C213     CTL2    -0.180000       12.0110           0
      3619 MEMB     29       PMPE     H13R     HAL2     0.900000E-01   1.00800           0
      3620 MEMB     29       PMPE     H13S     HAL2     0.900000E-01   1.00800           0
      3621 MEMB     29       PMPE     C214     CTL2    -0.180000       12.0110           0
      3622 MEMB     29       PMPE     H14R     HAL2     0.900000E-01   1.00800           0
      3623 MEMB     29       PMPE     H14S     HAL2     0.900000E-01   1.00800           0
      3624 MEMB     29       PMPE     C215     CTL2    -0.180000       12.0110           0
      3625 MEMB     29       PMPE     H15R     HAL2     0.900000E-01   1.00800           0
      3626 MEMB     29       PMPE     H15S     HAL2     0.900000E-01   1.00800           0
      3627 MEMB     29       PMPE     C216     CTL3    -0.270000       12.0110           0
      3628 MEMB     29       PMPE     H16R     HAL3     0.900000E-01   1.00800           0
      3629 MEMB     29       PMPE     H16S     HAL3     0.900000E-01   1.00800           0
      3630 MEMB     29       PMPE     H16T     HAL3     0.900000E-01   1.00800           0
      3631 MEMB     29       PMPE     C33      CTL2    -0.180000       12.0110           0
      3632 MEMB     29       PMPE     H3X      HAL2     0.900000E-01   1.00800           0
      3633 MEMB     29       PMPE     H3Y      HAL2     0.900000E-01   1.00800           0
      3634 MEMB     29       PMPE     C34      CTL2    -0.180000       12.0110           0
      3635 MEMB     29       PMPE     H4X      HAL2     0.900000E-01   1.00800           0
      3636 MEMB     29       PMPE     H4Y      HAL2     0.900000E-01   1.00800           0
      3637 MEMB     29       PMPE     C35      CTL2    -0.180000       12.0110           0
      3638 MEMB     29       PMPE     H5X      HAL2     0.900000E-01   1.00800           0
      3639 MEMB     29       PMPE     H5Y      HAL2     0.900000E-01   1.00800           0
      3640 MEMB     29       PMPE     C36      CTL2    -0.180000       12.0110           0
      3641 MEMB     29       PMPE     H6X      HAL2     0.900000E-01   1.00800           0
      3642 MEMB     29       PMPE     H6Y      HAL2     0.900000E-01   1.00800           0
      3643 MEMB     29       PMPE     C37      CTL2    -0.180000       12.0110           0
      3644 MEMB     29       PMPE     H7X      HAL2     0.900000E-01   1.00800           0
      3645 MEMB     29       PMPE     H7Y      HAL2     0.900000E-01   1.00800           0
      3646 MEMB     29       PMPE     C38      CTL2    -0.180000       12.0110           0
      3647 MEMB     29       PMPE     H8X      HAL2     0.900000E-01   1.00800           0
      3648 MEMB     29       PMPE     H8Y      HAL2     0.900000E-01   1.00800           0
      3649 MEMB     29       PMPE     C39      CTL2    -0.180000       12.0110           0
      3650 MEMB     29       PMPE     H9X      HAL2     0.900000E-01   1.00800           0
      3651 MEMB     29       PMPE     H9Y      HAL2     0.900000E-01   1.00800           0
      3652 MEMB     29       PMPE     C310     CTL2    -0.180000       12.0110           0
      3653 MEMB     29       PMPE     H10X     HAL2     0.900000E-01   1.00800           0
      3654 MEMB     29       PMPE     H10Y     HAL2     0.900000E-01   1.00800           0
      3655 MEMB     29       PMPE     C311     CTL2    -0.180000       12.0110           0
      3656 MEMB     29       PMPE     H11X     HAL2     0.900000E-01   1.00800           0
      3657 MEMB     29       PMPE     H11Y     HAL2     0.900000E-01   1.00800           0
      3658 MEMB     29       PMPE     C312     CTL2    -0.180000       12.0110           0
      3659 MEMB     29       PMPE     H12X     HAL2     0.900000E-01   1.00800           0
      3660 MEMB     29       PMPE     H12Y     HAL2     0.900000E-01   1.00800           0
      3661 MEMB     29       PMPE     C313     CTL2    -0.180000       12.0110           0
      3662 MEMB     29       PMPE     H13X     HAL2     0.900000E-01   1.00800           0
      3663 MEMB     29       PMPE     H13Y     HAL2     0.900000E-01   1.00800           0
      3664 MEMB     29       PMPE     C314     CTL2    -0.180000       12.0110           0
      3665 MEMB     29       PMPE     H14X     HAL2     0.900000E-01   1.00800           0
      3666 MEMB     29       PMPE     H14Y     HAL2     0.900000E-01   1.00800           0
      3667 MEMB     29       PMPE     C315     CTL2    -0.180000       12.0110           0
      3668 MEMB     29       PMPE     H15X     HAL2     0.900000E-01   1.00800           0
      3669 MEMB     29       PMPE     H15Y     HAL2     0.900000E-01   1.00800           0
      3670 MEMB     29       PMPE     C316     CTL3    -0.270000       12.0110           0
      3671 MEMB     29       PMPE     H16X     HAL3     0.900000E-01   1.00800           0
      3672 MEMB     29       PMPE     H16Y     HAL3     0.900000E-01   1.00800           0
      3673 MEMB     29       PMPE     H16Z     HAL3     0.900000E-01   1.00800           0
      3674 MEMB     30       POPE     N        NH3L    -0.300000       14.0070           0
      3675 MEMB     30       POPE     HN1      HCL      0.330000       1.00800           0
      3676 MEMB     30       POPE     HN2      HCL      0.330000       1.00800           0
      3677 MEMB     30       POPE     HN3      HCL      0.330000       1.00800           0
      3678 MEMB     30       POPE     C12      CTL2     0.130000       12.0110           0
      3679 MEMB     30       POPE     H12A     HAL2     0.900000E-01   1.00800           0
      3680 MEMB     30       POPE     H12B     HAL2     0.900000E-01   1.00800           0
      3681 MEMB     30       POPE     C11      CTL2    -0.800000E-01   12.0110           0
      3682 MEMB     30       POPE     H11A     HAL2     0.900000E-01   1.00800           0
      3683 MEMB     30       POPE     H11B     HAL2     0.900000E-01   1.00800           0
      3684 MEMB     30       POPE     P        PL        1.50000       30.9740           0
      3685 MEMB     30       POPE     O13      O2L     -0.780000       15.9994           0
      3686 MEMB     30       POPE     O14      O2L     -0.780000       15.9994           0
      3687 MEMB     30       POPE     O11      OSLP    -0.570000       15.9994           0
      3688 MEMB     30       POPE     O12      OSLP    -0.570000       15.9994           0
      3689 MEMB     30       POPE     C1       CTL2    -0.800000E-01   12.0110           0
      3690 MEMB     30       POPE     HA       HAL2     0.900000E-01   1.00800           0
      3691 MEMB     30       POPE     HB       HAL2     0.900000E-01   1.00800           0
      3692 MEMB     30       POPE     C2       CTL1     0.170000       12.0110           0
      3693 MEMB     30       POPE     HS       HAL1     0.900000E-01   1.00800           0
      3694 MEMB     30       POPE     O21      OSL     -0.490000       15.9994           0
      3695 MEMB     30       POPE     C21      CL       0.900000       12.0110           0
      3696 MEMB     30       POPE     O22      OBL     -0.630000       15.9994           0
      3697 MEMB     30       POPE     C22      CTL2    -0.220000       12.0110           0
      3698 MEMB     30       POPE     H2R      HAL2     0.900000E-01   1.00800           0
      3699 MEMB     30       POPE     H2S      HAL2     0.900000E-01   1.00800           0
      3700 MEMB     30       POPE     C3       CTL2     0.800000E-01   12.0110           0
      3701 MEMB     30       POPE     HX       HAL2     0.900000E-01   1.00800           0
      3702 MEMB     30       POPE     HY       HAL2     0.900000E-01   1.00800           0
      3703 MEMB     30       POPE     O31      OSL     -0.490000       15.9994           0
      3704 MEMB     30       POPE     C31      CL       0.900000       12.0110           0
      3705 MEMB     30       POPE     O32      OBL     -0.630000       15.9994           0
      3706 MEMB     30       POPE     C32      CTL2    -0.220000       12.0110           0
      3707 MEMB     30       POPE     H2X      HAL2     0.900000E-01   1.00800           0
      3708 MEMB     30       POPE     H2Y      HAL2     0.900000E-01   1.00800           0
      3709 MEMB     30       POPE     C23      CTL2    -0.180000       12.0110           0
      3710 MEMB     30       POPE     H3R      HAL2     0.900000E-01   1.00800           0
      3711 MEMB     30       POPE     H3S      HAL2     0.900000E-01   1.00800           0
      3712 MEMB     30       POPE     C24      CTL2    -0.180000       12.0110           0
      3713 MEMB     30       POPE     H4R      HAL2     0.900000E-01   1.00800           0
      3714 MEMB     30       POPE     H4S      HAL2     0.900000E-01   1.00800           0
      3715 MEMB     30       POPE     C25      CTL2    -0.180000       12.0110           0
      3716 MEMB     30       POPE     H5R      HAL2     0.900000E-01   1.00800           0
      3717 MEMB     30       POPE     H5S      HAL2     0.900000E-01   1.00800           0
      3718 MEMB     30       POPE     C26      CTL2    -0.180000       12.0110           0
      3719 MEMB     30       POPE     H6R      HAL2     0.900000E-01   1.00800           0
      3720 MEMB     30       POPE     H6S      HAL2     0.900000E-01   1.00800           0
      3721 MEMB     30       POPE     C27      CTL2    -0.180000       12.0110           0
      3722 MEMB     30       POPE     H7R      HAL2     0.900000E-01   1.00800           0
      3723 MEMB     30       POPE     H7S      HAL2     0.900000E-01   1.00800           0
      3724 MEMB     30       POPE     C28      CTL2    -0.180000       12.0110           0
      3725 MEMB     30       POPE     H8R      HAL2     0.900000E-01   1.00800           0
      3726 MEMB     30       POPE     H8S      HAL2     0.900000E-01   1.00800           0
      3727 MEMB     30       POPE     C29      CEL1    -0.150000       12.0110           0
      3728 MEMB     30       POPE     H91      HEL1     0.150000       1.00800           0
      3729 MEMB     30       POPE     C210     CEL1    -0.150000       12.0110           0
      3730 MEMB     30       POPE     H101     HEL1     0.150000       1.00800           0
      3731 MEMB     30       POPE     C211     CTL2    -0.180000       12.0110           0
      3732 MEMB     30       POPE     H11R     HAL2     0.900000E-01   1.00800           0
      3733 MEMB     30       POPE     H11S     HAL2     0.900000E-01   1.00800           0
      3734 MEMB     30       POPE     C212     CTL2    -0.180000       12.0110           0
      3735 MEMB     30       POPE     H12R     HAL2     0.900000E-01   1.00800           0
      3736 MEMB     30       POPE     H12S     HAL2     0.900000E-01   1.00800           0
      3737 MEMB     30       POPE     C213     CTL2    -0.180000       12.0110           0
      3738 MEMB     30       POPE     H13R     HAL2     0.900000E-01   1.00800           0
      3739 MEMB     30       POPE     H13S     HAL2     0.900000E-01   1.00800           0
      3740 MEMB     30       POPE     C214     CTL2    -0.180000       12.0110           0
      3741 MEMB     30       POPE     H14R     HAL2     0.900000E-01   1.00800           0
      3742 MEMB     30       POPE     H14S     HAL2     0.900000E-01   1.00800           0
      3743 MEMB     30       POPE     C215     CTL2    -0.180000       12.0110           0
      3744 MEMB     30       POPE     H15R     HAL2     0.900000E-01   1.00800           0
      3745 MEMB     30       POPE     H15S     HAL2     0.900000E-01   1.00800           0
      3746 MEMB     30       POPE     C216     CTL2    -0.180000       12.0110           0
      3747 MEMB     30       POPE     H16R     HAL2     0.900000E-01   1.00800           0
      3748 MEMB     30       POPE     H16S     HAL2     0.900000E-01   1.00800           0
      3749 MEMB     30       POPE     C217     CTL2    -0.180000       12.0110           0
      3750 MEMB     30       POPE     H17R     HAL2     0.900000E-01   1.00800           0
      3751 MEMB     30       POPE     H17S     HAL2     0.900000E-01   1.00800           0
      3752 MEMB     30       POPE     C218     CTL3    -0.270000       12.0110           0
      3753 MEMB     30       POPE     H18R     HAL3     0.900000E-01   1.00800           0
      3754 MEMB     30       POPE     H18S     HAL3     0.900000E-01   1.00800           0
      3755 MEMB     30       POPE     H18T     HAL3     0.900000E-01   1.00800           0
      3756 MEMB     30       POPE     C33      CTL2    -0.180000       12.0110           0
      3757 MEMB     30       POPE     H3X      HAL2     0.900000E-01   1.00800           0
      3758 MEMB     30       POPE     H3Y      HAL2     0.900000E-01   1.00800           0
      3759 MEMB     30       POPE     C34      CTL2    -0.180000       12.0110           0
      3760 MEMB     30       POPE     H4X      HAL2     0.900000E-01   1.00800           0
      3761 MEMB     30       POPE     H4Y      HAL2     0.900000E-01   1.00800           0
      3762 MEMB     30       POPE     C35      CTL2    -0.180000       12.0110           0
      3763 MEMB     30       POPE     H5X      HAL2     0.900000E-01   1.00800           0
      3764 MEMB     30       POPE     H5Y      HAL2     0.900000E-01   1.00800           0
      3765 MEMB     30       POPE     C36      CTL2    -0.180000       12.0110           0
      3766 MEMB     30       POPE     H6X      HAL2     0.900000E-01   1.00800           0
      3767 MEMB     30       POPE     H6Y      HAL2     0.900000E-01   1.00800           0
      3768 MEMB     30       POPE     C37      CTL2    -0.180000       12.0110           0
      3769 MEMB     30       POPE     H7X      HAL2     0.900000E-01   1.00800           0
      3770 MEMB     30       POPE     H7Y      HAL2     0.900000E-01   1.00800           0
      3771 MEMB     30       POPE     C38      CTL2    -0.180000       12.0110           0
      3772 MEMB     30       POPE     H8X      HAL2     0.900000E-01   1.00800           0
      3773 MEMB     30       POPE     H8Y      HAL2     0.900000E-01   1.00800           0
      3774 MEMB     30       POPE     C39      CTL2    -0.180000       12.0110           0
      3775 MEMB     30       POPE     H9X      HAL2     0.900000E-01   1.00800           0
      3776 MEMB     30       POPE     H9Y      HAL2     0.900000E-01   1.00800           0
      3777 MEMB     30       POPE     C310     CTL2    -0.180000       12.0110           0
      3778 MEMB     30       POPE     H10X     HAL2     0.900000E-01   1.00800           0
      3779 MEMB     30       POPE     H10Y     HAL2     0.900000E-01   1.00800           0
      3780 MEMB     30       POPE     C311     CTL2    -0.180000       12.0110           0
      3781 MEMB     30       POPE     H11X     HAL2     0.900000E-01   1.00800           0
      3782 MEMB     30       POPE     H11Y     HAL2     0.900000E-01   1.00800           0
      3783 MEMB     30       POPE     C312     CTL2    -0.180000       12.0110           0
      3784 MEMB     30       POPE     H12X     HAL2     0.900000E-01   1.00800           0
      3785 MEMB     30       POPE     H12Y     HAL2     0.900000E-01   1.00800           0
      3786 MEMB     30       POPE     C313     CTL2    -0.180000       12.0110           0
      3787 MEMB     30       POPE     H13X     HAL2     0.900000E-01   1.00800           0
      3788 MEMB     30       POPE     H13Y     HAL2     0.900000E-01   1.00800           0
      3789 MEMB     30       POPE     C314     CTL2    -0.180000       12.0110           0
      3790 MEMB     30       POPE     H14X     HAL2     0.900000E-01   1.00800           0
      3791 MEMB     30       POPE     H14Y     HAL2     0.900000E-01   1.00800           0
      3792 MEMB     30       POPE     C315     CTL2    -0.180000       12.0110           0
      3793 MEMB     30       POPE     H15X     HAL2     0.900000E-01   1.00800           0
      3794 MEMB     30       POPE     H15Y     HAL2     0.900000E-01   1.00800           0
      3795 MEMB     30       POPE     C316     CTL3    -0.270000       12.0110           0
      3796 MEMB     30       POPE     H16X     HAL3     0.900000E-01   1.00800           0
      3797 MEMB     30       POPE     H16Y     HAL3     0.900000E-01   1.00800           0
      3798 MEMB     30       POPE     H16Z     HAL3     0.900000E-01   1.00800           0
      3799 MEMB     31       POPE     N        NH3L    -0.300000       14.0070           0
      3800 MEMB     31       POPE     HN1      HCL      0.330000       1.00800           0
      3801 MEMB     31       POPE     HN2      HCL      0.330000       1.00800           0
      3802 MEMB     31       POPE     HN3      HCL      0.330000       1.00800           0
      3803 MEMB     31       POPE     C12      CTL2     0.130000       12.0110           0
      3804 MEMB     31       POPE     H12A     HAL2     0.900000E-01   1.00800           0
      3805 MEMB     31       POPE     H12B     HAL2     0.900000E-01   1.00800           0
      3806 MEMB     31       POPE     C11      CTL2    -0.800000E-01   12.0110           0
      3807 MEMB     31       POPE     H11A     HAL2     0.900000E-01   1.00800           0
      3808 MEMB     31       POPE     H11B     HAL2     0.900000E-01   1.00800           0
      3809 MEMB     31       POPE     P        PL        1.50000       30.9740           0
      3810 MEMB     31       POPE     O13      O2L     -0.780000       15.9994           0
      3811 MEMB     31       POPE     O14      O2L     -0.780000       15.9994           0
      3812 MEMB     31       POPE     O11      OSLP    -0.570000       15.9994           0
      3813 MEMB     31       POPE     O12      OSLP    -0.570000       15.9994           0
      3814 MEMB     31       POPE     C1       CTL2    -0.800000E-01   12.0110           0
      3815 MEMB     31       POPE     HA       HAL2     0.900000E-01   1.00800           0
      3816 MEMB     31       POPE     HB       HAL2     0.900000E-01   1.00800           0
      3817 MEMB     31       POPE     C2       CTL1     0.170000       12.0110           0
      3818 MEMB     31       POPE     HS       HAL1     0.900000E-01   1.00800           0
      3819 MEMB     31       POPE     O21      OSL     -0.490000       15.9994           0
      3820 MEMB     31       POPE     C21      CL       0.900000       12.0110           0
      3821 MEMB     31       POPE     O22      OBL     -0.630000       15.9994           0
      3822 MEMB     31       POPE     C22      CTL2    -0.220000       12.0110           0
      3823 MEMB     31       POPE     H2R      HAL2     0.900000E-01   1.00800           0
      3824 MEMB     31       POPE     H2S      HAL2     0.900000E-01   1.00800           0
      3825 MEMB     31       POPE     C3       CTL2     0.800000E-01   12.0110           0
      3826 MEMB     31       POPE     HX       HAL2     0.900000E-01   1.00800           0
      3827 MEMB     31       POPE     HY       HAL2     0.900000E-01   1.00800           0
      3828 MEMB     31       POPE     O31      OSL     -0.490000       15.9994           0
      3829 MEMB     31       POPE     C31      CL       0.900000       12.0110           0
      3830 MEMB     31       POPE     O32      OBL     -0.630000       15.9994           0
      3831 MEMB     31       POPE     C32      CTL2    -0.220000       12.0110           0
      3832 MEMB     31       POPE     H2X      HAL2     0.900000E-01   1.00800           0
      3833 MEMB     31       POPE     H2Y      HAL2     0.900000E-01   1.00800           0
      3834 MEMB     31       POPE     C23      CTL2    -0.180000       12.0110           0
      3835 MEMB     31       POPE     H3R      HAL2     0.900000E-01   1.00800           0
      3836 MEMB     31       POPE     H3S      HAL2     0.900000E-01   1.00800           0
      3837 MEMB     31       POPE     C24      CTL2    -0.180000       12.0110           0
      3838 MEMB     31       POPE     H4R      HAL2     0.900000E-01   1.00800           0
      3839 MEMB     31       POPE     H4S      HAL2     0.900000E-01   1.00800           0
      3840 MEMB     31       POPE     C25      CTL2    -0.180000       12.0110           0
      3841 MEMB     31       POPE     H5R      HAL2     0.900000E-01   1.00800           0
      3842 MEMB     31       POPE     H5S      HAL2     0.900000E-01   1.00800           0
      3843 MEMB     31       POPE     C26      CTL2    -0.180000       12.0110           0
      3844 MEMB     31       POPE     H6R      HAL2     0.900000E-01   1.00800           0
      3845 MEMB     31       POPE     H6S      HAL2     0.900000E-01   1.00800           0
      3846 MEMB     31       POPE     C27      CTL2    -0.180000       12.0110           0
      3847 MEMB     31       POPE     H7R      HAL2     0.900000E-01   1.00800           0
      3848 MEMB     31       POPE     H7S      HAL2     0.900000E-01   1.00800           0
      3849 MEMB     31       POPE     C28      CTL2    -0.180000       12.0110           0
      3850 MEMB     31       POPE     H8R      HAL2     0.900000E-01   1.00800           0
      3851 MEMB     31       POPE     H8S      HAL2     0.900000E-01   1.00800           0
      3852 MEMB     31       POPE     C29      CEL1    -0.150000       12.0110           0
      3853 MEMB     31       POPE     H91      HEL1     0.150000       1.00800           0
      3854 MEMB     31       POPE     C210     CEL1    -0.150000       12.0110           0
      3855 MEMB     31       POPE     H101     HEL1     0.150000       1.00800           0
      3856 MEMB     31       POPE     C211     CTL2    -0.180000       12.0110           0
      3857 MEMB     31       POPE     H11R     HAL2     0.900000E-01   1.00800           0
      3858 MEMB     31       POPE     H11S     HAL2     0.900000E-01   1.00800           0
      3859 MEMB     31       POPE     C212     CTL2    -0.180000       12.0110           0
      3860 MEMB     31       POPE     H12R     HAL2     0.900000E-01   1.00800           0
      3861 MEMB     31       POPE     H12S     HAL2     0.900000E-01   1.00800           0
      3862 MEMB     31       POPE     C213     CTL2    -0.180000       12.0110           0
      3863 MEMB     31       POPE     H13R     HAL2     0.900000E-01   1.00800           0
      3864 MEMB     31       POPE     H13S     HAL2     0.900000E-01   1.00800           0
      3865 MEMB     31       POPE     C214     CTL2    -0.180000       12.0110           0
      3866 MEMB     31       POPE     H14R     HAL2     0.900000E-01   1.00800           0
      3867 MEMB     31       POPE     H14S     HAL2     0.900000E-01   1.00800           0
      3868 MEMB     31       POPE     C215     CTL2    -0.180000       12.0110           0
      3869 MEMB     31       POPE     H15R     HAL2     0.900000E-01   1.00800           0
      3870 MEMB     31       POPE     H15S     HAL2     0.900000E-01   1.00800           0
      3871 MEMB     31       POPE     C216     CTL2    -0.180000       12.0110           0
      3872 MEMB     31       POPE     H16R     HAL2     0.900000E-01   1.00800           0
      3873 MEMB     31       POPE     H16S     HAL2     0.900000E-01   1.00800           0
      3874 MEMB     31       POPE     C217     CTL2    -0.180000       12.0110           0
      3875 MEMB     31       POPE     H17R     HAL2     0.900000E-01   1.00800           0
      3876 MEMB     31       POPE     H17S     HAL2     0.900000E-01   1.00800           0
      3877 MEMB     31       POPE     C218     CTL3    -0.270000       12.0110           0
      3878 MEMB     31       POPE     H18R     HAL3     0.900000E-01   1.00800           0
      3879 MEMB     31       POPE     H18S     HAL3     0.900000E-01   1.00800           0
      3880 MEMB     31       POPE     H18T     HAL3     0.900000E-01   1.00800           0
      3881 MEMB     31       POPE     C33      CTL2    -0.180000       12.0110           0
      3882 MEMB     31       POPE     H3X      HAL2     0.900000E-01   1.00800           0
      3883 MEMB     31       POPE     H3Y      HAL2     0.900000E-01   1.00800           0
      3884 MEMB     31       POPE     C34      CTL2    -0.180000       12.0110           0
      3885 MEMB     31       POPE     H4X      HAL2     0.900000E-01   1.00800           0
      3886 MEMB     31       POPE     H4Y      HAL2     0.900000E-01   1.00800           0
      3887 MEMB     31       POPE     C35      CTL2    -0.180000       12.0110           0
      3888 MEMB     31       POPE     H5X      HAL2     0.900000E-01   1.00800           0
      3889 MEMB     31       POPE     H5Y      HAL2     0.900000E-01   1.00800           0
      3890 MEMB     31       POPE     C36      CTL2    -0.180000       12.0110           0
      3891 MEMB     31       POPE     H6X      HAL2     0.900000E-01   1.00800           0
      3892 MEMB     31       POPE     H6Y      HAL2     0.900000E-01   1.00800           0
      3893 MEMB     31       POPE     C37      CTL2    -0.180000       12.0110           0
      3894 MEMB     31       POPE     H7X      HAL2     0.900000E-01   1.00800           0
      3895 MEMB     31       POPE     H7Y      HAL2     0.900000E-01   1.00800           0
      3896 MEMB     31       POPE     C38      CTL2    -0.180000       12.0110           0
      3897 MEMB     31       POPE     H8X      HAL2     0.900000E-01   1.00800           0
      3898 MEMB     31       POPE     H8Y      HAL2     0.900000E-01   1.00800           0
      3899 MEMB     31       POPE     C39      CTL2    -0.180000       12.0110           0
      3900 MEMB     31       POPE     H9X      HAL2     0.900000E-01   1.00800           0
      3901 MEMB     31       POPE     H9Y      HAL2     0.900000E-01   1.00800           0
      3902 MEMB     31       POPE     C310     CTL2    -0.180000       12.0110           0
      3903 MEMB     31       POPE     H10X     HAL2     0.900000E-01   1.00800           0
      3904 MEMB     31       POPE     H10Y     HAL2     0.900000E-01   1.00800           0
      3905 MEMB     31       POPE     C311     CTL2    -0.180000       12.0110           0
      3906 MEMB     31       POPE     H11X     HAL2     0.900000E-01   1.00800           0
      3907 MEMB     31       POPE     H11Y     HAL2     0.900000E-01   1.00800           0
      3908 MEMB     31       POPE     C312     CTL2    -0.180000       12.0110           0
      3909 MEMB     31       POPE     H12X     HAL2     0.900000E-01   1.00800           0
      3910 MEMB     31       POPE     H12Y     HAL2     0.900000E-01   1.00800           0
      3911 MEMB     31       POPE     C313     CTL2    -0.180000       12.0110           0
      3912 MEMB     31       POPE     H13X     HAL2     0.900000E-01   1.00800           0
      3913 MEMB     31       POPE     H13Y     HAL2     0.900000E-01   1.00800           0
      3914 MEMB     31       POPE     C314     CTL2    -0.180000       12.0110           0
      3915 MEMB     31       POPE     H14X     HAL2     0.900000E-01   1.00800           0
      3916 MEMB     31       POPE     H14Y     HAL2     0.900000E-01   1.00800           0
      3917 MEMB     31       POPE     C315     CTL2    -0.180000       12.0110           0
      3918 MEMB     31       POPE     H15X     HAL2     0.900000E-01   1.00800           0
      3919 MEMB     31       POPE     H15Y     HAL2     0.900000E-01   1.00800           0
      3920 MEMB     31       POPE     C316     CTL3    -0.270000       12.0110           0
      3921 MEMB     31       POPE     H16X     HAL3     0.900000E-01   1.00800           0
      3922 MEMB     31       POPE     H16Y     HAL3     0.900000E-01   1.00800           0
      3923 MEMB     31       POPE     H16Z     HAL3     0.900000E-01   1.00800           0
      3924 MEMB     32       PMPE     N        NH3L    -0.300000       14.0070           0
      3925 MEMB     32       PMPE     HN1      HCL      0.330000       1.00800           0
      3926 MEMB     32       PMPE     HN2      HCL      0.330000       1.00800           0
      3927 MEMB     32       PMPE     HN3      HCL      0.330000       1.00800           0
      3928 MEMB     32       PMPE     C12      CTL2     0.130000       12.0110           0
      3929 MEMB     32       PMPE     H12A     HAL2     0.900000E-01   1.00800           0
      3930 MEMB     32       PMPE     H12B     HAL2     0.900000E-01   1.00800           0
      3931 MEMB     32       PMPE     C11      CTL2    -0.800000E-01   12.0110           0
      3932 MEMB     32       PMPE     H11A     HAL2     0.900000E-01   1.00800           0
      3933 MEMB     32       PMPE     H11B     HAL2     0.900000E-01   1.00800           0
      3934 MEMB     32       PMPE     P        PL        1.50000       30.9740           0
      3935 MEMB     32       PMPE     O13      O2L     -0.780000       15.9994           0
      3936 MEMB     32       PMPE     O14      O2L     -0.780000       15.9994           0
      3937 MEMB     32       PMPE     O11      OSLP    -0.570000       15.9994           0
      3938 MEMB     32       PMPE     O12      OSLP    -0.570000       15.9994           0
      3939 MEMB     32       PMPE     C1       CTL2    -0.800000E-01   12.0110           0
      3940 MEMB     32       PMPE     HA       HAL2     0.900000E-01   1.00800           0
      3941 MEMB     32       PMPE     HB       HAL2     0.900000E-01   1.00800           0
      3942 MEMB     32       PMPE     C2       CTL1     0.170000       12.0110           0
      3943 MEMB     32       PMPE     HS       HAL1     0.900000E-01   1.00800           0
      3944 MEMB     32       PMPE     O21      OSL     -0.490000       15.9994           0
      3945 MEMB     32       PMPE     C21      CL       0.900000       12.0110           0
      3946 MEMB     32       PMPE     O22      OBL     -0.630000       15.9994           0
      3947 MEMB     32       PMPE     C22      CTL2    -0.220000       12.0110           0
      3948 MEMB     32       PMPE     H2R      HAL2     0.900000E-01   1.00800           0
      3949 MEMB     32       PMPE     H2S      HAL2     0.900000E-01   1.00800           0
      3950 MEMB     32       PMPE     C3       CTL2     0.800000E-01   12.0110           0
      3951 MEMB     32       PMPE     HX       HAL2     0.900000E-01   1.00800           0
      3952 MEMB     32       PMPE     HY       HAL2     0.900000E-01   1.00800           0
      3953 MEMB     32       PMPE     O31      OSL     -0.490000       15.9994           0
      3954 MEMB     32       PMPE     C31      CL       0.900000       12.0110           0
      3955 MEMB     32       PMPE     O32      OBL     -0.630000       15.9994           0
      3956 MEMB     32       PMPE     C32      CTL2    -0.220000       12.0110           0
      3957 MEMB     32       PMPE     H2X      HAL2     0.900000E-01   1.00800           0
      3958 MEMB     32       PMPE     H2Y      HAL2     0.900000E-01   1.00800           0
      3959 MEMB     32       PMPE     C23      CTL2    -0.180000       12.0110           0
      3960 MEMB     32       PMPE     H3R      HAL2     0.900000E-01   1.00800           0
      3961 MEMB     32       PMPE     H3S      HAL2     0.900000E-01   1.00800           0
      3962 MEMB     32       PMPE     C24      CTL2    -0.180000       12.0110           0
      3963 MEMB     32       PMPE     H4R      HAL2     0.900000E-01   1.00800           0
      3964 MEMB     32       PMPE     H4S      HAL2     0.900000E-01   1.00800           0
      3965 MEMB     32       PMPE     C25      CTL2    -0.180000       12.0110           0
      3966 MEMB     32       PMPE     H5R      HAL2     0.900000E-01   1.00800           0
      3967 MEMB     32       PMPE     H5S      HAL2     0.900000E-01   1.00800           0
      3968 MEMB     32       PMPE     C26      CTL2    -0.180000       12.0110           0
      3969 MEMB     32       PMPE     H6R      HAL2     0.900000E-01   1.00800           0
      3970 MEMB     32       PMPE     H6S      HAL2     0.900000E-01   1.00800           0
      3971 MEMB     32       PMPE     C27      CTL2    -0.180000       12.0110           0
      3972 MEMB     32       PMPE     H7R      HAL2     0.900000E-01   1.00800           0
      3973 MEMB     32       PMPE     H7S      HAL2     0.900000E-01   1.00800           0
      3974 MEMB     32       PMPE     C28      CTL2    -0.180000       12.0110           0
      3975 MEMB     32       PMPE     H8R      HAL2     0.900000E-01   1.00800           0
      3976 MEMB     32       PMPE     H8S      HAL2     0.900000E-01   1.00800           0
      3977 MEMB     32       PMPE     C29      CG3RC1  -0.900000E-01   12.0110           0
      3978 MEMB     32       PMPE     H9R      HGA1     0.900000E-01   1.00800           0
      3979 MEMB     32       PMPE     C217     CG3C31  -0.180000       12.0110           0
      3980 MEMB     32       PMPE     H17R     HGA2     0.900000E-01   1.00800           0
      3981 MEMB     32       PMPE     H17S     HGA2     0.900000E-01   1.00800           0
      3982 MEMB     32       PMPE     C210     CG3RC1  -0.900000E-01   12.0110           0
      3983 MEMB     32       PMPE     H10R     HGA1     0.900000E-01   1.00800           0
      3984 MEMB     32       PMPE     C211     CTL2    -0.180000       12.0110           0
      3985 MEMB     32       PMPE     H11R     HAL2     0.900000E-01   1.00800           0
      3986 MEMB     32       PMPE     H11S     HAL2     0.900000E-01   1.00800           0
      3987 MEMB     32       PMPE     C212     CTL2    -0.180000       12.0110           0
      3988 MEMB     32       PMPE     H12R     HAL2     0.900000E-01   1.00800           0
      3989 MEMB     32       PMPE     H12S     HAL2     0.900000E-01   1.00800           0
      3990 MEMB     32       PMPE     C213     CTL2    -0.180000       12.0110           0
      3991 MEMB     32       PMPE     H13R     HAL2     0.900000E-01   1.00800           0
      3992 MEMB     32       PMPE     H13S     HAL2     0.900000E-01   1.00800           0
      3993 MEMB     32       PMPE     C214     CTL2    -0.180000       12.0110           0
      3994 MEMB     32       PMPE     H14R     HAL2     0.900000E-01   1.00800           0
      3995 MEMB     32       PMPE     H14S     HAL2     0.900000E-01   1.00800           0
      3996 MEMB     32       PMPE     C215     CTL2    -0.180000       12.0110           0
      3997 MEMB     32       PMPE     H15R     HAL2     0.900000E-01   1.00800           0
      3998 MEMB     32       PMPE     H15S     HAL2     0.900000E-01   1.00800           0
      3999 MEMB     32       PMPE     C216     CTL3    -0.270000       12.0110           0
      4000 MEMB     32       PMPE     H16R     HAL3     0.900000E-01   1.00800           0
      4001 MEMB     32       PMPE     H16S     HAL3     0.900000E-01   1.00800           0
      4002 MEMB     32       PMPE     H16T     HAL3     0.900000E-01   1.00800           0
      4003 MEMB     32       PMPE     C33      CTL2    -0.180000       12.0110           0
      4004 MEMB     32       PMPE     H3X      HAL2     0.900000E-01   1.00800           0
      4005 MEMB     32       PMPE     H3Y      HAL2     0.900000E-01   1.00800           0
      4006 MEMB     32       PMPE     C34      CTL2    -0.180000       12.0110           0
      4007 MEMB     32       PMPE     H4X      HAL2     0.900000E-01   1.00800           0
      4008 MEMB     32       PMPE     H4Y      HAL2     0.900000E-01   1.00800           0
      4009 MEMB     32       PMPE     C35      CTL2    -0.180000       12.0110           0
      4010 MEMB     32       PMPE     H5X      HAL2     0.900000E-01   1.00800           0
      4011 MEMB     32       PMPE     H5Y      HAL2     0.900000E-01   1.00800           0
      4012 MEMB     32       PMPE     C36      CTL2    -0.180000       12.0110           0
      4013 MEMB     32       PMPE     H6X      HAL2     0.900000E-01   1.00800           0
      4014 MEMB     32       PMPE     H6Y      HAL2     0.900000E-01   1.00800           0
      4015 MEMB     32       PMPE     C37      CTL2    -0.180000       12.0110           0
      4016 MEMB     32       PMPE     H7X      HAL2     0.900000E-01   1.00800           0
      4017 MEMB     32       PMPE     H7Y      HAL2     0.900000E-01   1.00800           0
      4018 MEMB     32       PMPE     C38      CTL2    -0.180000       12.0110           0
      4019 MEMB     32       PMPE     H8X      HAL2     0.900000E-01   1.00800           0
      4020 MEMB     32       PMPE     H8Y      HAL2     0.900000E-01   1.00800           0
      4021 MEMB     32       PMPE     C39      CTL2    -0.180000       12.0110           0
      4022 MEMB     32       PMPE     H9X      HAL2     0.900000E-01   1.00800           0
      4023 MEMB     32       PMPE     H9Y      HAL2     0.900000E-01   1.00800           0
      4024 MEMB     32       PMPE     C310     CTL2    -0.180000       12.0110           0
      4025 MEMB     32       PMPE     H10X     HAL2     0.900000E-01   1.00800           0
      4026 MEMB     32       PMPE     H10Y     HAL2     0.900000E-01   1.00800           0
      4027 MEMB     32       PMPE     C311     CTL2    -0.180000       12.0110           0
      4028 MEMB     32       PMPE     H11X     HAL2     0.900000E-01   1.00800           0
      4029 MEMB     32       PMPE     H11Y     HAL2     0.900000E-01   1.00800           0
      4030 MEMB     32       PMPE     C312     CTL2    -0.180000       12.0110           0
      4031 MEMB     32       PMPE     H12X     HAL2     0.900000E-01   1.00800           0
      4032 MEMB     32       PMPE     H12Y     HAL2     0.900000E-01   1.00800           0
      4033 MEMB     32       PMPE     C313     CTL2    -0.180000       12.0110           0
      4034 MEMB     32       PMPE     H13X     HAL2     0.900000E-01   1.00800           0
      4035 MEMB     32       PMPE     H13Y     HAL2     0.900000E-01   1.00800           0
      4036 MEMB     32       PMPE     C314     CTL2    -0.180000       12.0110           0
      4037 MEMB     32       PMPE     H14X     HAL2     0.900000E-01   1.00800           0
      4038 MEMB     32       PMPE     H14Y     HAL2     0.900000E-01   1.00800           0
      4039 MEMB     32       PMPE     C315     CTL2    -0.180000       12.0110           0
      4040 MEMB     32       PMPE     H15X     HAL2     0.900000E-01   1.00800           0
      4041 MEMB     32       PMPE     H15Y     HAL2     0.900000E-01   1.00800           0
      4042 MEMB     32       PMPE     C316     CTL3    -0.270000       12.0110           0
      4043 MEMB     32       PMPE     H16X     HAL3     0.900000E-01   1.00800           0
      4044 MEMB     32       PMPE     H16Y     HAL3     0.900000E-01   1.00800           0
      4045 MEMB     32       PMPE     H16Z     HAL3     0.900000E-01   1.00800           0
      4046 MEMB     33       PMPG     C13      CTL2     0.500000E-01   12.0110           0
      4047 MEMB     33       PMPG     H13A     HAL2     0.900000E-01   1.00800           0
      4048 MEMB     33       PMPG     H13B     HAL2     0.900000E-01   1.00800           0
      4049 MEMB     33       PMPG     OC3      OHL     -0.660000       15.9994           0
      4050 MEMB     33       PMPG     HO3      HOL      0.430000       1.00800           0
      4051 MEMB     33       PMPG     C12      CTL1     0.140000       12.0110           0
      4052 MEMB     33       PMPG     H12A     HAL1     0.900000E-01   1.00800           0
      4053 MEMB     33       PMPG     OC2      OHL     -0.660000       15.9994           0
      4054 MEMB     33       PMPG     HO2      HOL      0.430000       1.00800           0
      4055 MEMB     33       PMPG     C11      CTL2    -0.800000E-01   12.0110           0
      4056 MEMB     33       PMPG     H11A     HAL2     0.900000E-01   1.00800           0
      4057 MEMB     33       PMPG     H11B     HAL2     0.900000E-01   1.00800           0
      4058 MEMB     33       PMPG     P        PL        1.50000       30.9740           0
      4059 MEMB     33       PMPG     O13      O2L     -0.780000       15.9994           0
      4060 MEMB     33       PMPG     O14      O2L     -0.780000       15.9994           0
      4061 MEMB     33       PMPG     O11      OSLP    -0.570000       15.9994           0
      4062 MEMB     33       PMPG     O12      OSLP    -0.570000       15.9994           0
      4063 MEMB     33       PMPG     C1       CTL2    -0.800000E-01   12.0110           0
      4064 MEMB     33       PMPG     HA       HAL2     0.900000E-01   1.00800           0
      4065 MEMB     33       PMPG     HB       HAL2     0.900000E-01   1.00800           0
      4066 MEMB     33       PMPG     C2       CTL1     0.170000       12.0110           0
      4067 MEMB     33       PMPG     HS       HAL1     0.900000E-01   1.00800           0
      4068 MEMB     33       PMPG     O21      OSL     -0.490000       15.9994           0
      4069 MEMB     33       PMPG     C21      CL       0.900000       12.0110           0
      4070 MEMB     33       PMPG     O22      OBL     -0.630000       15.9994           0
      4071 MEMB     33       PMPG     C22      CTL2    -0.220000       12.0110           0
      4072 MEMB     33       PMPG     H2R      HAL2     0.900000E-01   1.00800           0
      4073 MEMB     33       PMPG     H2S      HAL2     0.900000E-01   1.00800           0
      4074 MEMB     33       PMPG     C3       CTL2     0.800000E-01   12.0110           0
      4075 MEMB     33       PMPG     HX       HAL2     0.900000E-01   1.00800           0
      4076 MEMB     33       PMPG     HY       HAL2     0.900000E-01   1.00800           0
      4077 MEMB     33       PMPG     O31      OSL     -0.490000       15.9994           0
      4078 MEMB     33       PMPG     C31      CL       0.900000       12.0110           0
      4079 MEMB     33       PMPG     O32      OBL     -0.630000       15.9994           0
      4080 MEMB     33       PMPG     C32      CTL2    -0.220000       12.0110           0
      4081 MEMB     33       PMPG     H2X      HAL2     0.900000E-01   1.00800           0
      4082 MEMB     33       PMPG     H2Y      HAL2     0.900000E-01   1.00800           0
      4083 MEMB     33       PMPG     C23      CTL2    -0.180000       12.0110           0
      4084 MEMB     33       PMPG     H3R      HAL2     0.900000E-01   1.00800           0
      4085 MEMB     33       PMPG     H3S      HAL2     0.900000E-01   1.00800           0
      4086 MEMB     33       PMPG     C24      CTL2    -0.180000       12.0110           0
      4087 MEMB     33       PMPG     H4R      HAL2     0.900000E-01   1.00800           0
      4088 MEMB     33       PMPG     H4S      HAL2     0.900000E-01   1.00800           0
      4089 MEMB     33       PMPG     C25      CTL2    -0.180000       12.0110           0
      4090 MEMB     33       PMPG     H5R      HAL2     0.900000E-01   1.00800           0
      4091 MEMB     33       PMPG     H5S      HAL2     0.900000E-01   1.00800           0
      4092 MEMB     33       PMPG     C26      CTL2    -0.180000       12.0110           0
      4093 MEMB     33       PMPG     H6R      HAL2     0.900000E-01   1.00800           0
      4094 MEMB     33       PMPG     H6S      HAL2     0.900000E-01   1.00800           0
      4095 MEMB     33       PMPG     C27      CTL2    -0.180000       12.0110           0
      4096 MEMB     33       PMPG     H7R      HAL2     0.900000E-01   1.00800           0
      4097 MEMB     33       PMPG     H7S      HAL2     0.900000E-01   1.00800           0
      4098 MEMB     33       PMPG     C28      CTL2    -0.180000       12.0110           0
      4099 MEMB     33       PMPG     H8R      HAL2     0.900000E-01   1.00800           0
      4100 MEMB     33       PMPG     H8S      HAL2     0.900000E-01   1.00800           0
      4101 MEMB     33       PMPG     C29      CG3RC1  -0.900000E-01   12.0110           0
      4102 MEMB     33       PMPG     H9R      HGA1     0.900000E-01   1.00800           0
      4103 MEMB     33       PMPG     C217     CG3C31  -0.180000       12.0110           0
      4104 MEMB     33       PMPG     H17R     HGA2     0.900000E-01   1.00800           0
      4105 MEMB     33       PMPG     H17S     HGA2     0.900000E-01   1.00800           0
      4106 MEMB     33       PMPG     C210     CG3RC1  -0.900000E-01   12.0110           0
      4107 MEMB     33       PMPG     H10R     HGA1     0.900000E-01   1.00800           0
      4108 MEMB     33       PMPG     C211     CTL2    -0.180000       12.0110           0
      4109 MEMB     33       PMPG     H11R     HAL2     0.900000E-01   1.00800           0
      4110 MEMB     33       PMPG     H11S     HAL2     0.900000E-01   1.00800           0
      4111 MEMB     33       PMPG     C212     CTL2    -0.180000       12.0110           0
      4112 MEMB     33       PMPG     H12R     HAL2     0.900000E-01   1.00800           0
      4113 MEMB     33       PMPG     H12S     HAL2     0.900000E-01   1.00800           0
      4114 MEMB     33       PMPG     C213     CTL2    -0.180000       12.0110           0
      4115 MEMB     33       PMPG     H13R     HAL2     0.900000E-01   1.00800           0
      4116 MEMB     33       PMPG     H13S     HAL2     0.900000E-01   1.00800           0
      4117 MEMB     33       PMPG     C214     CTL2    -0.180000       12.0110           0
      4118 MEMB     33       PMPG     H14R     HAL2     0.900000E-01   1.00800           0
      4119 MEMB     33       PMPG     H14S     HAL2     0.900000E-01   1.00800           0
      4120 MEMB     33       PMPG     C215     CTL2    -0.180000       12.0110           0
      4121 MEMB     33       PMPG     H15R     HAL2     0.900000E-01   1.00800           0
      4122 MEMB     33       PMPG     H15S     HAL2     0.900000E-01   1.00800           0
      4123 MEMB     33       PMPG     C216     CTL3    -0.270000       12.0110           0
      4124 MEMB     33       PMPG     H16R     HAL3     0.900000E-01   1.00800           0
      4125 MEMB     33       PMPG     H16S     HAL3     0.900000E-01   1.00800           0
      4126 MEMB     33       PMPG     H16T     HAL3     0.900000E-01   1.00800           0
      4127 MEMB     33       PMPG     C33      CTL2    -0.180000       12.0110           0
      4128 MEMB     33       PMPG     H3X      HAL2     0.900000E-01   1.00800           0
      4129 MEMB     33       PMPG     H3Y      HAL2     0.900000E-01   1.00800           0
      4130 MEMB     33       PMPG     C34      CTL2    -0.180000       12.0110           0
      4131 MEMB     33       PMPG     H4X      HAL2     0.900000E-01   1.00800           0
      4132 MEMB     33       PMPG     H4Y      HAL2     0.900000E-01   1.00800           0
      4133 MEMB     33       PMPG     C35      CTL2    -0.180000       12.0110           0
      4134 MEMB     33       PMPG     H5X      HAL2     0.900000E-01   1.00800           0
      4135 MEMB     33       PMPG     H5Y      HAL2     0.900000E-01   1.00800           0
      4136 MEMB     33       PMPG     C36      CTL2    -0.180000       12.0110           0
      4137 MEMB     33       PMPG     H6X      HAL2     0.900000E-01   1.00800           0
      4138 MEMB     33       PMPG     H6Y      HAL2     0.900000E-01   1.00800           0
      4139 MEMB     33       PMPG     C37      CTL2    -0.180000       12.0110           0
      4140 MEMB     33       PMPG     H7X      HAL2     0.900000E-01   1.00800           0
      4141 MEMB     33       PMPG     H7Y      HAL2     0.900000E-01   1.00800           0
      4142 MEMB     33       PMPG     C38      CTL2    -0.180000       12.0110           0
      4143 MEMB     33       PMPG     H8X      HAL2     0.900000E-01   1.00800           0
      4144 MEMB     33       PMPG     H8Y      HAL2     0.900000E-01   1.00800           0
      4145 MEMB     33       PMPG     C39      CTL2    -0.180000       12.0110           0
      4146 MEMB     33       PMPG     H9X      HAL2     0.900000E-01   1.00800           0
      4147 MEMB     33       PMPG     H9Y      HAL2     0.900000E-01   1.00800           0
      4148 MEMB     33       PMPG     C310     CTL2    -0.180000       12.0110           0
      4149 MEMB     33       PMPG     H10X     HAL2     0.900000E-01   1.00800           0
      4150 MEMB     33       PMPG     H10Y     HAL2     0.900000E-01   1.00800           0
      4151 MEMB     33       PMPG     C311     CTL2    -0.180000       12.0110           0
      4152 MEMB     33       PMPG     H11X     HAL2     0.900000E-01   1.00800           0
      4153 MEMB     33       PMPG     H11Y     HAL2     0.900000E-01   1.00800           0
      4154 MEMB     33       PMPG     C312     CTL2    -0.180000       12.0110           0
      4155 MEMB     33       PMPG     H12X     HAL2     0.900000E-01   1.00800           0
      4156 MEMB     33       PMPG     H12Y     HAL2     0.900000E-01   1.00800           0
      4157 MEMB     33       PMPG     C313     CTL2    -0.180000       12.0110           0
      4158 MEMB     33       PMPG     H13X     HAL2     0.900000E-01   1.00800           0
      4159 MEMB     33       PMPG     H13Y     HAL2     0.900000E-01   1.00800           0
      4160 MEMB     33       PMPG     C314     CTL2    -0.180000       12.0110           0
      4161 MEMB     33       PMPG     H14X     HAL2     0.900000E-01   1.00800           0
      4162 MEMB     33       PMPG     H14Y     HAL2     0.900000E-01   1.00800           0
      4163 MEMB     33       PMPG     C315     CTL2    -0.180000       12.0110           0
      4164 MEMB     33       PMPG     H15X     HAL2     0.900000E-01   1.00800           0
      4165 MEMB     33       PMPG     H15Y     HAL2     0.900000E-01   1.00800           0
      4166 MEMB     33       PMPG     C316     CTL3    -0.270000       12.0110           0
      4167 MEMB     33       PMPG     H16X     HAL3     0.900000E-01   1.00800           0
      4168 MEMB     33       PMPG     H16Y     HAL3     0.900000E-01   1.00800           0
      4169 MEMB     33       PMPG     H16Z     HAL3     0.900000E-01   1.00800           0
      4170 MEMB     34       QMPE     N        NH3L    -0.300000       14.0070           0
      4171 MEMB     34       QMPE     HN1      HCL      0.330000       1.00800           0
      4172 MEMB     34       QMPE     HN2      HCL      0.330000       1.00800           0
      4173 MEMB     34       QMPE     HN3      HCL      0.330000       1.00800           0
      4174 MEMB     34       QMPE     C12      CTL2     0.130000       12.0110           0
      4175 MEMB     34       QMPE     H12A     HAL2     0.900000E-01   1.00800           0
      4176 MEMB     34       QMPE     H12B     HAL2     0.900000E-01   1.00800           0
      4177 MEMB     34       QMPE     C11      CTL2    -0.800000E-01   12.0110           0
      4178 MEMB     34       QMPE     H11A     HAL2     0.900000E-01   1.00800           0
      4179 MEMB     34       QMPE     H11B     HAL2     0.900000E-01   1.00800           0
      4180 MEMB     34       QMPE     P        PL        1.50000       30.9740           0
      4181 MEMB     34       QMPE     O13      O2L     -0.780000       15.9994           0
      4182 MEMB     34       QMPE     O14      O2L     -0.780000       15.9994           0
      4183 MEMB     34       QMPE     O11      OSLP    -0.570000       15.9994           0
      4184 MEMB     34       QMPE     O12      OSLP    -0.570000       15.9994           0
      4185 MEMB     34       QMPE     C1       CTL2    -0.800000E-01   12.0110           0
      4186 MEMB     34       QMPE     HA       HAL2     0.900000E-01   1.00800           0
      4187 MEMB     34       QMPE     HB       HAL2     0.900000E-01   1.00800           0
      4188 MEMB     34       QMPE     C2       CTL1     0.170000       12.0110           0
      4189 MEMB     34       QMPE     HS       HAL1     0.900000E-01   1.00800           0
      4190 MEMB     34       QMPE     O21      OSL     -0.490000       15.9994           0
      4191 MEMB     34       QMPE     C21      CL       0.900000       12.0110           0
      4192 MEMB     34       QMPE     O22      OBL     -0.630000       15.9994           0
      4193 MEMB     34       QMPE     C22      CTL2    -0.220000       12.0110           0
      4194 MEMB     34       QMPE     H2R      HAL2     0.900000E-01   1.00800           0
      4195 MEMB     34       QMPE     H2S      HAL2     0.900000E-01   1.00800           0
      4196 MEMB     34       QMPE     C3       CTL2     0.800000E-01   12.0110           0
      4197 MEMB     34       QMPE     HX       HAL2     0.900000E-01   1.00800           0
      4198 MEMB     34       QMPE     HY       HAL2     0.900000E-01   1.00800           0
      4199 MEMB     34       QMPE     O31      OSL     -0.490000       15.9994           0
      4200 MEMB     34       QMPE     C31      CL       0.900000       12.0110           0
      4201 MEMB     34       QMPE     O32      OBL     -0.630000       15.9994           0
      4202 MEMB     34       QMPE     C32      CTL2    -0.220000       12.0110           0
      4203 MEMB     34       QMPE     H2X      HAL2     0.900000E-01   1.00800           0
      4204 MEMB     34       QMPE     H2Y      HAL2     0.900000E-01   1.00800           0
      4205 MEMB     34       QMPE     C23      CTL2    -0.180000       12.0110           0
      4206 MEMB     34       QMPE     H3R      HAL2     0.900000E-01   1.00800           0
      4207 MEMB     34       QMPE     H3S      HAL2     0.900000E-01   1.00800           0
      4208 MEMB     34       QMPE     C24      CTL2    -0.180000       12.0110           0
      4209 MEMB     34       QMPE     H4R      HAL2     0.900000E-01   1.00800           0
      4210 MEMB     34       QMPE     H4S      HAL2     0.900000E-01   1.00800           0
      4211 MEMB     34       QMPE     C25      CTL2    -0.180000       12.0110           0
      4212 MEMB     34       QMPE     H5R      HAL2     0.900000E-01   1.00800           0
      4213 MEMB     34       QMPE     H5S      HAL2     0.900000E-01   1.00800           0
      4214 MEMB     34       QMPE     C26      CTL2    -0.180000       12.0110           0
      4215 MEMB     34       QMPE     H6R      HAL2     0.900000E-01   1.00800           0
      4216 MEMB     34       QMPE     H6S      HAL2     0.900000E-01   1.00800           0
      4217 MEMB     34       QMPE     C27      CTL2    -0.180000       12.0110           0
      4218 MEMB     34       QMPE     H7R      HAL2     0.900000E-01   1.00800           0
      4219 MEMB     34       QMPE     H7S      HAL2     0.900000E-01   1.00800           0
      4220 MEMB     34       QMPE     C28      CTL2    -0.180000       12.0110           0
      4221 MEMB     34       QMPE     H8R      HAL2     0.900000E-01   1.00800           0
      4222 MEMB     34       QMPE     H8S      HAL2     0.900000E-01   1.00800           0
      4223 MEMB     34       QMPE     C29      CG3RC1  -0.900000E-01   12.0110           0
      4224 MEMB     34       QMPE     H9R      HGA1     0.900000E-01   1.00800           0
      4225 MEMB     34       QMPE     C217     CG3C31  -0.180000       12.0110           0
      4226 MEMB     34       QMPE     H17R     HGA2     0.900000E-01   1.00800           0
      4227 MEMB     34       QMPE     H17S     HGA2     0.900000E-01   1.00800           0
      4228 MEMB     34       QMPE     C210     CG3RC1  -0.900000E-01   12.0110           0
      4229 MEMB     34       QMPE     H10R     HGA1     0.900000E-01   1.00800           0
      4230 MEMB     34       QMPE     C211     CTL2    -0.180000       12.0110           0
      4231 MEMB     34       QMPE     H11R     HAL2     0.900000E-01   1.00800           0
      4232 MEMB     34       QMPE     H11S     HAL2     0.900000E-01   1.00800           0
      4233 MEMB     34       QMPE     C212     CTL2    -0.180000       12.0110           0
      4234 MEMB     34       QMPE     H12R     HAL2     0.900000E-01   1.00800           0
      4235 MEMB     34       QMPE     H12S     HAL2     0.900000E-01   1.00800           0
      4236 MEMB     34       QMPE     C213     CTL2    -0.180000       12.0110           0
      4237 MEMB     34       QMPE     H13R     HAL2     0.900000E-01   1.00800           0
      4238 MEMB     34       QMPE     H13S     HAL2     0.900000E-01   1.00800           0
      4239 MEMB     34       QMPE     C214     CTL2    -0.180000       12.0110           0
      4240 MEMB     34       QMPE     H14R     HAL2     0.900000E-01   1.00800           0
      4241 MEMB     34       QMPE     H14S     HAL2     0.900000E-01   1.00800           0
      4242 MEMB     34       QMPE     C215     CTL2    -0.180000       12.0110           0
      4243 MEMB     34       QMPE     H15R     HAL2     0.900000E-01   1.00800           0
      4244 MEMB     34       QMPE     H15S     HAL2     0.900000E-01   1.00800           0
      4245 MEMB     34       QMPE     C216     CTL3    -0.270000       12.0110           0
      4246 MEMB     34       QMPE     H16R     HAL3     0.900000E-01   1.00800           0
      4247 MEMB     34       QMPE     H16S     HAL3     0.900000E-01   1.00800           0
      4248 MEMB     34       QMPE     H16T     HAL3     0.900000E-01   1.00800           0
      4249 MEMB     34       QMPE     C33      CTL2    -0.180000       12.0110           0
      4250 MEMB     34       QMPE     H3X      HAL2     0.900000E-01   1.00800           0
      4251 MEMB     34       QMPE     H3Y      HAL2     0.900000E-01   1.00800           0
      4252 MEMB     34       QMPE     C34      CTL2    -0.180000       12.0110           0
      4253 MEMB     34       QMPE     H4X      HAL2     0.900000E-01   1.00800           0
      4254 MEMB     34       QMPE     H4Y      HAL2     0.900000E-01   1.00800           0
      4255 MEMB     34       QMPE     C35      CTL2    -0.180000       12.0110           0
      4256 MEMB     34       QMPE     H5X      HAL2     0.900000E-01   1.00800           0
      4257 MEMB     34       QMPE     H5Y      HAL2     0.900000E-01   1.00800           0
      4258 MEMB     34       QMPE     C36      CTL2    -0.180000       12.0110           0
      4259 MEMB     34       QMPE     H6X      HAL2     0.900000E-01   1.00800           0
      4260 MEMB     34       QMPE     H6Y      HAL2     0.900000E-01   1.00800           0
      4261 MEMB     34       QMPE     C37      CTL2    -0.180000       12.0110           0
      4262 MEMB     34       QMPE     H7X      HAL2     0.900000E-01   1.00800           0
      4263 MEMB     34       QMPE     H7Y      HAL2     0.900000E-01   1.00800           0
      4264 MEMB     34       QMPE     C38      CTL2    -0.180000       12.0110           0
      4265 MEMB     34       QMPE     H8X      HAL2     0.900000E-01   1.00800           0
      4266 MEMB     34       QMPE     H8Y      HAL2     0.900000E-01   1.00800           0
      4267 MEMB     34       QMPE     C39      CTL2    -0.180000       12.0110           0
      4268 MEMB     34       QMPE     H9X      HAL2     0.900000E-01   1.00800           0
      4269 MEMB     34       QMPE     H9Y      HAL2     0.900000E-01   1.00800           0
      4270 MEMB     34       QMPE     C310     CTL2    -0.180000       12.0110           0
      4271 MEMB     34       QMPE     H10X     HAL2     0.900000E-01   1.00800           0
      4272 MEMB     34       QMPE     H10Y     HAL2     0.900000E-01   1.00800           0
      4273 MEMB     34       QMPE     C311     CTL2    -0.180000       12.0110           0
      4274 MEMB     34       QMPE     H11X     HAL2     0.900000E-01   1.00800           0
      4275 MEMB     34       QMPE     H11Y     HAL2     0.900000E-01   1.00800           0
      4276 MEMB     34       QMPE     C312     CTL2    -0.180000       12.0110           0
      4277 MEMB     34       QMPE     H12X     HAL2     0.900000E-01   1.00800           0
      4278 MEMB     34       QMPE     H12Y     HAL2     0.900000E-01   1.00800           0
      4279 MEMB     34       QMPE     C313     CTL2    -0.180000       12.0110           0
      4280 MEMB     34       QMPE     H13X     HAL2     0.900000E-01   1.00800           0
      4281 MEMB     34       QMPE     H13Y     HAL2     0.900000E-01   1.00800           0
      4282 MEMB     34       QMPE     C314     CTL2    -0.180000       12.0110           0
      4283 MEMB     34       QMPE     H14X     HAL2     0.900000E-01   1.00800           0
      4284 MEMB     34       QMPE     H14Y     HAL2     0.900000E-01   1.00800           0
      4285 MEMB     34       QMPE     C315     CTL3    -0.270000       12.0110           0
      4286 MEMB     34       QMPE     H15X     HAL3     0.900000E-01   1.00800           0
      4287 MEMB     34       QMPE     H15Y     HAL3     0.900000E-01   1.00800           0
      4288 MEMB     34       QMPE     H15Z     HAL3     0.900000E-01   1.00800           0
      4289 MEMB     35       PYPG     C13      CTL2     0.500000E-01   12.0110           0
      4290 MEMB     35       PYPG     H13A     HAL2     0.900000E-01   1.00800           0
      4291 MEMB     35       PYPG     H13B     HAL2     0.900000E-01   1.00800           0
      4292 MEMB     35       PYPG     OC3      OHL     -0.660000       15.9994           0
      4293 MEMB     35       PYPG     HO3      HOL      0.430000       1.00800           0
      4294 MEMB     35       PYPG     C12      CTL1     0.140000       12.0110           0
      4295 MEMB     35       PYPG     H12A     HAL1     0.900000E-01   1.00800           0
      4296 MEMB     35       PYPG     OC2      OHL     -0.660000       15.9994           0
      4297 MEMB     35       PYPG     HO2      HOL      0.430000       1.00800           0
      4298 MEMB     35       PYPG     C11      CTL2    -0.800000E-01   12.0110           0
      4299 MEMB     35       PYPG     H11A     HAL2     0.900000E-01   1.00800           0
      4300 MEMB     35       PYPG     H11B     HAL2     0.900000E-01   1.00800           0
      4301 MEMB     35       PYPG     P        PL        1.50000       30.9740           0
      4302 MEMB     35       PYPG     O13      O2L     -0.780000       15.9994           0
      4303 MEMB     35       PYPG     O14      O2L     -0.780000       15.9994           0
      4304 MEMB     35       PYPG     O11      OSLP    -0.570000       15.9994           0
      4305 MEMB     35       PYPG     O12      OSLP    -0.570000       15.9994           0
      4306 MEMB     35       PYPG     C1       CTL2    -0.800000E-01   12.0110           0
      4307 MEMB     35       PYPG     HA       HAL2     0.900000E-01   1.00800           0
      4308 MEMB     35       PYPG     HB       HAL2     0.900000E-01   1.00800           0
      4309 MEMB     35       PYPG     C2       CTL1     0.170000       12.0110           0
      4310 MEMB     35       PYPG     HS       HAL1     0.900000E-01   1.00800           0
      4311 MEMB     35       PYPG     O21      OSL     -0.490000       15.9994           0
      4312 MEMB     35       PYPG     C21      CL       0.900000       12.0110           0
      4313 MEMB     35       PYPG     O22      OBL     -0.630000       15.9994           0
      4314 MEMB     35       PYPG     C22      CTL2    -0.220000       12.0110           0
      4315 MEMB     35       PYPG     H2R      HAL2     0.900000E-01   1.00800           0
      4316 MEMB     35       PYPG     H2S      HAL2     0.900000E-01   1.00800           0
      4317 MEMB     35       PYPG     C3       CTL2     0.800000E-01   12.0110           0
      4318 MEMB     35       PYPG     HX       HAL2     0.900000E-01   1.00800           0
      4319 MEMB     35       PYPG     HY       HAL2     0.900000E-01   1.00800           0
      4320 MEMB     35       PYPG     O31      OSL     -0.490000       15.9994           0
      4321 MEMB     35       PYPG     C31      CL       0.900000       12.0110           0
      4322 MEMB     35       PYPG     O32      OBL     -0.630000       15.9994           0
      4323 MEMB     35       PYPG     C32      CTL2    -0.220000       12.0110           0
      4324 MEMB     35       PYPG     H2X      HAL2     0.900000E-01   1.00800           0
      4325 MEMB     35       PYPG     H2Y      HAL2     0.900000E-01   1.00800           0
      4326 MEMB     35       PYPG     C23      CTL2    -0.180000       12.0110           0
      4327 MEMB     35       PYPG     H3R      HAL2     0.900000E-01   1.00800           0
      4328 MEMB     35       PYPG     H3S      HAL2     0.900000E-01   1.00800           0
      4329 MEMB     35       PYPG     C24      CTL2    -0.180000       12.0110           0
      4330 MEMB     35       PYPG     H4R      HAL2     0.900000E-01   1.00800           0
      4331 MEMB     35       PYPG     H4S      HAL2     0.900000E-01   1.00800           0
      4332 MEMB     35       PYPG     C25      CTL2    -0.180000       12.0110           0
      4333 MEMB     35       PYPG     H5R      HAL2     0.900000E-01   1.00800           0
      4334 MEMB     35       PYPG     H5S      HAL2     0.900000E-01   1.00800           0
      4335 MEMB     35       PYPG     C26      CTL2    -0.180000       12.0110           0
      4336 MEMB     35       PYPG     H6R      HAL2     0.900000E-01   1.00800           0
      4337 MEMB     35       PYPG     H6S      HAL2     0.900000E-01   1.00800           0
      4338 MEMB     35       PYPG     C27      CTL2    -0.180000       12.0110           0
      4339 MEMB     35       PYPG     H7R      HAL2     0.900000E-01   1.00800           0
      4340 MEMB     35       PYPG     H7S      HAL2     0.900000E-01   1.00800           0
      4341 MEMB     35       PYPG     C28      CTL2    -0.180000       12.0110           0
      4342 MEMB     35       PYPG     H8R      HAL2     0.900000E-01   1.00800           0
      4343 MEMB     35       PYPG     H8S      HAL2     0.900000E-01   1.00800           0
      4344 MEMB     35       PYPG     C29      CEL1    -0.150000       12.0110           0
      4345 MEMB     35       PYPG     H9R      HEL1     0.150000       1.00800           0
      4346 MEMB     35       PYPG     C210     CEL1    -0.150000       12.0110           0
      4347 MEMB     35       PYPG     H10R     HEL1     0.150000       1.00800           0
      4348 MEMB     35       PYPG     C211     CTL2    -0.180000       12.0110           0
      4349 MEMB     35       PYPG     H11R     HAL2     0.900000E-01   1.00800           0
      4350 MEMB     35       PYPG     H11S     HAL2     0.900000E-01   1.00800           0
      4351 MEMB     35       PYPG     C212     CTL2    -0.180000       12.0110           0
      4352 MEMB     35       PYPG     H12R     HAL2     0.900000E-01   1.00800           0
      4353 MEMB     35       PYPG     H12S     HAL2     0.900000E-01   1.00800           0
      4354 MEMB     35       PYPG     C213     CTL2    -0.180000       12.0110           0
      4355 MEMB     35       PYPG     H13R     HAL2     0.900000E-01   1.00800           0
      4356 MEMB     35       PYPG     H13S     HAL2     0.900000E-01   1.00800           0
      4357 MEMB     35       PYPG     C214     CTL2    -0.180000       12.0110           0
      4358 MEMB     35       PYPG     H14R     HAL2     0.900000E-01   1.00800           0
      4359 MEMB     35       PYPG     H14S     HAL2     0.900000E-01   1.00800           0
      4360 MEMB     35       PYPG     C215     CTL2    -0.180000       12.0110           0
      4361 MEMB     35       PYPG     H15R     HAL2     0.900000E-01   1.00800           0
      4362 MEMB     35       PYPG     H15S     HAL2     0.900000E-01   1.00800           0
      4363 MEMB     35       PYPG     C216     CTL3    -0.270000       12.0110           0
      4364 MEMB     35       PYPG     H16R     HAL3     0.900000E-01   1.00800           0
      4365 MEMB     35       PYPG     H16S     HAL3     0.900000E-01   1.00800           0
      4366 MEMB     35       PYPG     H16T     HAL3     0.900000E-01   1.00800           0
      4367 MEMB     35       PYPG     C33      CTL2    -0.180000       12.0110           0
      4368 MEMB     35       PYPG     H3X      HAL2     0.900000E-01   1.00800           0
      4369 MEMB     35       PYPG     H3Y      HAL2     0.900000E-01   1.00800           0
      4370 MEMB     35       PYPG     C34      CTL2    -0.180000       12.0110           0
      4371 MEMB     35       PYPG     H4X      HAL2     0.900000E-01   1.00800           0
      4372 MEMB     35       PYPG     H4Y      HAL2     0.900000E-01   1.00800           0
      4373 MEMB     35       PYPG     C35      CTL2    -0.180000       12.0110           0
      4374 MEMB     35       PYPG     H5X      HAL2     0.900000E-01   1.00800           0
      4375 MEMB     35       PYPG     H5Y      HAL2     0.900000E-01   1.00800           0
      4376 MEMB     35       PYPG     C36      CTL2    -0.180000       12.0110           0
      4377 MEMB     35       PYPG     H6X      HAL2     0.900000E-01   1.00800           0
      4378 MEMB     35       PYPG     H6Y      HAL2     0.900000E-01   1.00800           0
      4379 MEMB     35       PYPG     C37      CTL2    -0.180000       12.0110           0
      4380 MEMB     35       PYPG     H7X      HAL2     0.900000E-01   1.00800           0
      4381 MEMB     35       PYPG     H7Y      HAL2     0.900000E-01   1.00800           0
      4382 MEMB     35       PYPG     C38      CTL2    -0.180000       12.0110           0
      4383 MEMB     35       PYPG     H8X      HAL2     0.900000E-01   1.00800           0
      4384 MEMB     35       PYPG     H8Y      HAL2     0.900000E-01   1.00800           0
      4385 MEMB     35       PYPG     C39      CTL2    -0.180000       12.0110           0
      4386 MEMB     35       PYPG     H9X      HAL2     0.900000E-01   1.00800           0
      4387 MEMB     35       PYPG     H9Y      HAL2     0.900000E-01   1.00800           0
      4388 MEMB     35       PYPG     C310     CTL2    -0.180000       12.0110           0
      4389 MEMB     35       PYPG     H10X     HAL2     0.900000E-01   1.00800           0
      4390 MEMB     35       PYPG     H10Y     HAL2     0.900000E-01   1.00800           0
      4391 MEMB     35       PYPG     C311     CTL2    -0.180000       12.0110           0
      4392 MEMB     35       PYPG     H11X     HAL2     0.900000E-01   1.00800           0
      4393 MEMB     35       PYPG     H11Y     HAL2     0.900000E-01   1.00800           0
      4394 MEMB     35       PYPG     C312     CTL2    -0.180000       12.0110           0
      4395 MEMB     35       PYPG     H12X     HAL2     0.900000E-01   1.00800           0
      4396 MEMB     35       PYPG     H12Y     HAL2     0.900000E-01   1.00800           0
      4397 MEMB     35       PYPG     C313     CTL2    -0.180000       12.0110           0
      4398 MEMB     35       PYPG     H13X     HAL2     0.900000E-01   1.00800           0
      4399 MEMB     35       PYPG     H13Y     HAL2     0.900000E-01   1.00800           0
      4400 MEMB     35       PYPG     C314     CTL2    -0.180000       12.0110           0
      4401 MEMB     35       PYPG     H14X     HAL2     0.900000E-01   1.00800           0
      4402 MEMB     35       PYPG     H14Y     HAL2     0.900000E-01   1.00800           0
      4403 MEMB     35       PYPG     C315     CTL2    -0.180000       12.0110           0
      4404 MEMB     35       PYPG     H15X     HAL2     0.900000E-01   1.00800           0
      4405 MEMB     35       PYPG     H15Y     HAL2     0.900000E-01   1.00800           0
      4406 MEMB     35       PYPG     C316     CTL3    -0.270000       12.0110           0
      4407 MEMB     35       PYPG     H16X     HAL3     0.900000E-01   1.00800           0
      4408 MEMB     35       PYPG     H16Y     HAL3     0.900000E-01   1.00800           0
      4409 MEMB     35       PYPG     H16Z     HAL3     0.900000E-01   1.00800           0
      4410 MEMB     36       PMPE     N        NH3L    -0.300000       14.0070           0
      4411 MEMB     36       PMPE     HN1      HCL      0.330000       1.00800           0
      4412 MEMB     36       PMPE     HN2      HCL      0.330000       1.00800           0
      4413 MEMB     36       PMPE     HN3      HCL      0.330000       1.00800           0
      4414 MEMB     36       PMPE     C12      CTL2     0.130000       12.0110           0
      4415 MEMB     36       PMPE     H12A     HAL2     0.900000E-01   1.00800           0
      4416 MEMB     36       PMPE     H12B     HAL2     0.900000E-01   1.00800           0
      4417 MEMB     36       PMPE     C11      CTL2    -0.800000E-01   12.0110           0
      4418 MEMB     36       PMPE     H11A     HAL2     0.900000E-01   1.00800           0
      4419 MEMB     36       PMPE     H11B     HAL2     0.900000E-01   1.00800           0
      4420 MEMB     36       PMPE     P        PL        1.50000       30.9740           0
      4421 MEMB     36       PMPE     O13      O2L     -0.780000       15.9994           0
      4422 MEMB     36       PMPE     O14      O2L     -0.780000       15.9994           0
      4423 MEMB     36       PMPE     O11      OSLP    -0.570000       15.9994           0
      4424 MEMB     36       PMPE     O12      OSLP    -0.570000       15.9994           0
      4425 MEMB     36       PMPE     C1       CTL2    -0.800000E-01   12.0110           0
      4426 MEMB     36       PMPE     HA       HAL2     0.900000E-01   1.00800           0
      4427 MEMB     36       PMPE     HB       HAL2     0.900000E-01   1.00800           0
      4428 MEMB     36       PMPE     C2       CTL1     0.170000       12.0110           0
      4429 MEMB     36       PMPE     HS       HAL1     0.900000E-01   1.00800           0
      4430 MEMB     36       PMPE     O21      OSL     -0.490000       15.9994           0
      4431 MEMB     36       PMPE     C21      CL       0.900000       12.0110           0
      4432 MEMB     36       PMPE     O22      OBL     -0.630000       15.9994           0
      4433 MEMB     36       PMPE     C22      CTL2    -0.220000       12.0110           0
      4434 MEMB     36       PMPE     H2R      HAL2     0.900000E-01   1.00800           0
      4435 MEMB     36       PMPE     H2S      HAL2     0.900000E-01   1.00800           0
      4436 MEMB     36       PMPE     C3       CTL2     0.800000E-01   12.0110           0
      4437 MEMB     36       PMPE     HX       HAL2     0.900000E-01   1.00800           0
      4438 MEMB     36       PMPE     HY       HAL2     0.900000E-01   1.00800           0
      4439 MEMB     36       PMPE     O31      OSL     -0.490000       15.9994           0
      4440 MEMB     36       PMPE     C31      CL       0.900000       12.0110           0
      4441 MEMB     36       PMPE     O32      OBL     -0.630000       15.9994           0
      4442 MEMB     36       PMPE     C32      CTL2    -0.220000       12.0110           0
      4443 MEMB     36       PMPE     H2X      HAL2     0.900000E-01   1.00800           0
      4444 MEMB     36       PMPE     H2Y      HAL2     0.900000E-01   1.00800           0
      4445 MEMB     36       PMPE     C23      CTL2    -0.180000       12.0110           0
      4446 MEMB     36       PMPE     H3R      HAL2     0.900000E-01   1.00800           0
      4447 MEMB     36       PMPE     H3S      HAL2     0.900000E-01   1.00800           0
      4448 MEMB     36       PMPE     C24      CTL2    -0.180000       12.0110           0
      4449 MEMB     36       PMPE     H4R      HAL2     0.900000E-01   1.00800           0
      4450 MEMB     36       PMPE     H4S      HAL2     0.900000E-01   1.00800           0
      4451 MEMB     36       PMPE     C25      CTL2    -0.180000       12.0110           0
      4452 MEMB     36       PMPE     H5R      HAL2     0.900000E-01   1.00800           0
      4453 MEMB     36       PMPE     H5S      HAL2     0.900000E-01   1.00800           0
      4454 MEMB     36       PMPE     C26      CTL2    -0.180000       12.0110           0
      4455 MEMB     36       PMPE     H6R      HAL2     0.900000E-01   1.00800           0
      4456 MEMB     36       PMPE     H6S      HAL2     0.900000E-01   1.00800           0
      4457 MEMB     36       PMPE     C27      CTL2    -0.180000       12.0110           0
      4458 MEMB     36       PMPE     H7R      HAL2     0.900000E-01   1.00800           0
      4459 MEMB     36       PMPE     H7S      HAL2     0.900000E-01   1.00800           0
      4460 MEMB     36       PMPE     C28      CTL2    -0.180000       12.0110           0
      4461 MEMB     36       PMPE     H8R      HAL2     0.900000E-01   1.00800           0
      4462 MEMB     36       PMPE     H8S      HAL2     0.900000E-01   1.00800           0
      4463 MEMB     36       PMPE     C29      CG3RC1  -0.900000E-01   12.0110           0
      4464 MEMB     36       PMPE     H9R      HGA1     0.900000E-01   1.00800           0
      4465 MEMB     36       PMPE     C217     CG3C31  -0.180000       12.0110           0
      4466 MEMB     36       PMPE     H17R     HGA2     0.900000E-01   1.00800           0
      4467 MEMB     36       PMPE     H17S     HGA2     0.900000E-01   1.00800           0
      4468 MEMB     36       PMPE     C210     CG3RC1  -0.900000E-01   12.0110           0
      4469 MEMB     36       PMPE     H10R     HGA1     0.900000E-01   1.00800           0
      4470 MEMB     36       PMPE     C211     CTL2    -0.180000       12.0110           0
      4471 MEMB     36       PMPE     H11R     HAL2     0.900000E-01   1.00800           0
      4472 MEMB     36       PMPE     H11S     HAL2     0.900000E-01   1.00800           0
      4473 MEMB     36       PMPE     C212     CTL2    -0.180000       12.0110           0
      4474 MEMB     36       PMPE     H12R     HAL2     0.900000E-01   1.00800           0
      4475 MEMB     36       PMPE     H12S     HAL2     0.900000E-01   1.00800           0
      4476 MEMB     36       PMPE     C213     CTL2    -0.180000       12.0110           0
      4477 MEMB     36       PMPE     H13R     HAL2     0.900000E-01   1.00800           0
      4478 MEMB     36       PMPE     H13S     HAL2     0.900000E-01   1.00800           0
      4479 MEMB     36       PMPE     C214     CTL2    -0.180000       12.0110           0
      4480 MEMB     36       PMPE     H14R     HAL2     0.900000E-01   1.00800           0
      4481 MEMB     36       PMPE     H14S     HAL2     0.900000E-01   1.00800           0
      4482 MEMB     36       PMPE     C215     CTL2    -0.180000       12.0110           0
      4483 MEMB     36       PMPE     H15R     HAL2     0.900000E-01   1.00800           0
      4484 MEMB     36       PMPE     H15S     HAL2     0.900000E-01   1.00800           0
      4485 MEMB     36       PMPE     C216     CTL3    -0.270000       12.0110           0
      4486 MEMB     36       PMPE     H16R     HAL3     0.900000E-01   1.00800           0
      4487 MEMB     36       PMPE     H16S     HAL3     0.900000E-01   1.00800           0
      4488 MEMB     36       PMPE     H16T     HAL3     0.900000E-01   1.00800           0
      4489 MEMB     36       PMPE     C33      CTL2    -0.180000       12.0110           0
      4490 MEMB     36       PMPE     H3X      HAL2     0.900000E-01   1.00800           0
      4491 MEMB     36       PMPE     H3Y      HAL2     0.900000E-01   1.00800           0
      4492 MEMB     36       PMPE     C34      CTL2    -0.180000       12.0110           0
      4493 MEMB     36       PMPE     H4X      HAL2     0.900000E-01   1.00800           0
      4494 MEMB     36       PMPE     H4Y      HAL2     0.900000E-01   1.00800           0
      4495 MEMB     36       PMPE     C35      CTL2    -0.180000       12.0110           0
      4496 MEMB     36       PMPE     H5X      HAL2     0.900000E-01   1.00800           0
      4497 MEMB     36       PMPE     H5Y      HAL2     0.900000E-01   1.00800           0
      4498 MEMB     36       PMPE     C36      CTL2    -0.180000       12.0110           0
      4499 MEMB     36       PMPE     H6X      HAL2     0.900000E-01   1.00800           0
      4500 MEMB     36       PMPE     H6Y      HAL2     0.900000E-01   1.00800           0
      4501 MEMB     36       PMPE     C37      CTL2    -0.180000       12.0110           0
      4502 MEMB     36       PMPE     H7X      HAL2     0.900000E-01   1.00800           0
      4503 MEMB     36       PMPE     H7Y      HAL2     0.900000E-01   1.00800           0
      4504 MEMB     36       PMPE     C38      CTL2    -0.180000       12.0110           0
      4505 MEMB     36       PMPE     H8X      HAL2     0.900000E-01   1.00800           0
      4506 MEMB     36       PMPE     H8Y      HAL2     0.900000E-01   1.00800           0
      4507 MEMB     36       PMPE     C39      CTL2    -0.180000       12.0110           0
      4508 MEMB     36       PMPE     H9X      HAL2     0.900000E-01   1.00800           0
      4509 MEMB     36       PMPE     H9Y      HAL2     0.900000E-01   1.00800           0
      4510 MEMB     36       PMPE     C310     CTL2    -0.180000       12.0110           0
      4511 MEMB     36       PMPE     H10X     HAL2     0.900000E-01   1.00800           0
      4512 MEMB     36       PMPE     H10Y     HAL2     0.900000E-01   1.00800           0
      4513 MEMB     36       PMPE     C311     CTL2    -0.180000       12.0110           0
      4514 MEMB     36       PMPE     H11X     HAL2     0.900000E-01   1.00800           0
      4515 MEMB     36       PMPE     H11Y     HAL2     0.900000E-01   1.00800           0
      4516 MEMB     36       PMPE     C312     CTL2    -0.180000       12.0110           0
      4517 MEMB     36       PMPE     H12X     HAL2     0.900000E-01   1.00800           0
      4518 MEMB     36       PMPE     H12Y     HAL2     0.900000E-01   1.00800           0
      4519 MEMB     36       PMPE     C313     CTL2    -0.180000       12.0110           0
      4520 MEMB     36       PMPE     H13X     HAL2     0.900000E-01   1.00800           0
      4521 MEMB     36       PMPE     H13Y     HAL2     0.900000E-01   1.00800           0
      4522 MEMB     36       PMPE     C314     CTL2    -0.180000       12.0110           0
      4523 MEMB     36       PMPE     H14X     HAL2     0.900000E-01   1.00800           0
      4524 MEMB     36       PMPE     H14Y     HAL2     0.900000E-01   1.00800           0
      4525 MEMB     36       PMPE     C315     CTL2    -0.180000       12.0110           0
      4526 MEMB     36       PMPE     H15X     HAL2     0.900000E-01   1.00800           0
      4527 MEMB     36       PMPE     H15Y     HAL2     0.900000E-01   1.00800           0
      4528 MEMB     36       PMPE     C316     CTL3    -0.270000       12.0110           0
      4529 MEMB     36       PMPE     H16X     HAL3     0.900000E-01   1.00800           0
      4530 MEMB     36       PMPE     H16Y     HAL3     0.900000E-01   1.00800           0
      4531 MEMB     36       PMPE     H16Z     HAL3     0.900000E-01   1.00800           0
      4532 MEMB     37       POPE     N        NH3L    -0.300000       14.0070           0
      4533 MEMB     37       POPE     HN1      HCL      0.330000       1.00800           0
      4534 MEMB     37       POPE     HN2      HCL      0.330000       1.00800           0
      4535 MEMB     37       POPE     HN3      HCL      0.330000       1.00800           0
      4536 MEMB     37       POPE     C12      CTL2     0.130000       12.0110           0
      4537 MEMB     37       POPE     H12A     HAL2     0.900000E-01   1.00800           0
      4538 MEMB     37       POPE     H12B     HAL2     0.900000E-01   1.00800           0
      4539 MEMB     37       POPE     C11      CTL2    -0.800000E-01   12.0110           0
      4540 MEMB     37       POPE     H11A     HAL2     0.900000E-01   1.00800           0
      4541 MEMB     37       POPE     H11B     HAL2     0.900000E-01   1.00800           0
      4542 MEMB     37       POPE     P        PL        1.50000       30.9740           0
      4543 MEMB     37       POPE     O13      O2L     -0.780000       15.9994           0
      4544 MEMB     37       POPE     O14      O2L     -0.780000       15.9994           0
      4545 MEMB     37       POPE     O11      OSLP    -0.570000       15.9994           0
      4546 MEMB     37       POPE     O12      OSLP    -0.570000       15.9994           0
      4547 MEMB     37       POPE     C1       CTL2    -0.800000E-01   12.0110           0
      4548 MEMB     37       POPE     HA       HAL2     0.900000E-01   1.00800           0
      4549 MEMB     37       POPE     HB       HAL2     0.900000E-01   1.00800           0
      4550 MEMB     37       POPE     C2       CTL1     0.170000       12.0110           0
      4551 MEMB     37       POPE     HS       HAL1     0.900000E-01   1.00800           0
      4552 MEMB     37       POPE     O21      OSL     -0.490000       15.9994           0
      4553 MEMB     37       POPE     C21      CL       0.900000       12.0110           0
      4554 MEMB     37       POPE     O22      OBL     -0.630000       15.9994           0
      4555 MEMB     37       POPE     C22      CTL2    -0.220000       12.0110           0
      4556 MEMB     37       POPE     H2R      HAL2     0.900000E-01   1.00800           0
      4557 MEMB     37       POPE     H2S      HAL2     0.900000E-01   1.00800           0
      4558 MEMB     37       POPE     C3       CTL2     0.800000E-01   12.0110           0
      4559 MEMB     37       POPE     HX       HAL2     0.900000E-01   1.00800           0
      4560 MEMB     37       POPE     HY       HAL2     0.900000E-01   1.00800           0
      4561 MEMB     37       POPE     O31      OSL     -0.490000       15.9994           0
      4562 MEMB     37       POPE     C31      CL       0.900000       12.0110           0
      4563 MEMB     37       POPE     O32      OBL     -0.630000       15.9994           0
      4564 MEMB     37       POPE     C32      CTL2    -0.220000       12.0110           0
      4565 MEMB     37       POPE     H2X      HAL2     0.900000E-01   1.00800           0
      4566 MEMB     37       POPE     H2Y      HAL2     0.900000E-01   1.00800           0
      4567 MEMB     37       POPE     C23      CTL2    -0.180000       12.0110           0
      4568 MEMB     37       POPE     H3R      HAL2     0.900000E-01   1.00800           0
      4569 MEMB     37       POPE     H3S      HAL2     0.900000E-01   1.00800           0
      4570 MEMB     37       POPE     C24      CTL2    -0.180000       12.0110           0
      4571 MEMB     37       POPE     H4R      HAL2     0.900000E-01   1.00800           0
      4572 MEMB     37       POPE     H4S      HAL2     0.900000E-01   1.00800           0
      4573 MEMB     37       POPE     C25      CTL2    -0.180000       12.0110           0
      4574 MEMB     37       POPE     H5R      HAL2     0.900000E-01   1.00800           0
      4575 MEMB     37       POPE     H5S      HAL2     0.900000E-01   1.00800           0
      4576 MEMB     37       POPE     C26      CTL2    -0.180000       12.0110           0
      4577 MEMB     37       POPE     H6R      HAL2     0.900000E-01   1.00800           0
      4578 MEMB     37       POPE     H6S      HAL2     0.900000E-01   1.00800           0
      4579 MEMB     37       POPE     C27      CTL2    -0.180000       12.0110           0
      4580 MEMB     37       POPE     H7R      HAL2     0.900000E-01   1.00800           0
      4581 MEMB     37       POPE     H7S      HAL2     0.900000E-01   1.00800           0
      4582 MEMB     37       POPE     C28      CTL2    -0.180000       12.0110           0
      4583 MEMB     37       POPE     H8R      HAL2     0.900000E-01   1.00800           0
      4584 MEMB     37       POPE     H8S      HAL2     0.900000E-01   1.00800           0
      4585 MEMB     37       POPE     C29      CEL1    -0.150000       12.0110           0
      4586 MEMB     37       POPE     H91      HEL1     0.150000       1.00800           0
      4587 MEMB     37       POPE     C210     CEL1    -0.150000       12.0110           0
      4588 MEMB     37       POPE     H101     HEL1     0.150000       1.00800           0
      4589 MEMB     37       POPE     C211     CTL2    -0.180000       12.0110           0
      4590 MEMB     37       POPE     H11R     HAL2     0.900000E-01   1.00800           0
      4591 MEMB     37       POPE     H11S     HAL2     0.900000E-01   1.00800           0
      4592 MEMB     37       POPE     C212     CTL2    -0.180000       12.0110           0
      4593 MEMB     37       POPE     H12R     HAL2     0.900000E-01   1.00800           0
      4594 MEMB     37       POPE     H12S     HAL2     0.900000E-01   1.00800           0
      4595 MEMB     37       POPE     C213     CTL2    -0.180000       12.0110           0
      4596 MEMB     37       POPE     H13R     HAL2     0.900000E-01   1.00800           0
      4597 MEMB     37       POPE     H13S     HAL2     0.900000E-01   1.00800           0
      4598 MEMB     37       POPE     C214     CTL2    -0.180000       12.0110           0
      4599 MEMB     37       POPE     H14R     HAL2     0.900000E-01   1.00800           0
      4600 MEMB     37       POPE     H14S     HAL2     0.900000E-01   1.00800           0
      4601 MEMB     37       POPE     C215     CTL2    -0.180000       12.0110           0
      4602 MEMB     37       POPE     H15R     HAL2     0.900000E-01   1.00800           0
      4603 MEMB     37       POPE     H15S     HAL2     0.900000E-01   1.00800           0
      4604 MEMB     37       POPE     C216     CTL2    -0.180000       12.0110           0
      4605 MEMB     37       POPE     H16R     HAL2     0.900000E-01   1.00800           0
      4606 MEMB     37       POPE     H16S     HAL2     0.900000E-01   1.00800           0
      4607 MEMB     37       POPE     C217     CTL2    -0.180000       12.0110           0
      4608 MEMB     37       POPE     H17R     HAL2     0.900000E-01   1.00800           0
      4609 MEMB     37       POPE     H17S     HAL2     0.900000E-01   1.00800           0
      4610 MEMB     37       POPE     C218     CTL3    -0.270000       12.0110           0
      4611 MEMB     37       POPE     H18R     HAL3     0.900000E-01   1.00800           0
      4612 MEMB     37       POPE     H18S     HAL3     0.900000E-01   1.00800           0
      4613 MEMB     37       POPE     H18T     HAL3     0.900000E-01   1.00800           0
      4614 MEMB     37       POPE     C33      CTL2    -0.180000       12.0110           0
      4615 MEMB     37       POPE     H3X      HAL2     0.900000E-01   1.00800           0
      4616 MEMB     37       POPE     H3Y      HAL2     0.900000E-01   1.00800           0
      4617 MEMB     37       POPE     C34      CTL2    -0.180000       12.0110           0
      4618 MEMB     37       POPE     H4X      HAL2     0.900000E-01   1.00800           0
      4619 MEMB     37       POPE     H4Y      HAL2     0.900000E-01   1.00800           0
      4620 MEMB     37       POPE     C35      CTL2    -0.180000       12.0110           0
      4621 MEMB     37       POPE     H5X      HAL2     0.900000E-01   1.00800           0
      4622 MEMB     37       POPE     H5Y      HAL2     0.900000E-01   1.00800           0
      4623 MEMB     37       POPE     C36      CTL2    -0.180000       12.0110           0
      4624 MEMB     37       POPE     H6X      HAL2     0.900000E-01   1.00800           0
      4625 MEMB     37       POPE     H6Y      HAL2     0.900000E-01   1.00800           0
      4626 MEMB     37       POPE     C37      CTL2    -0.180000       12.0110           0
      4627 MEMB     37       POPE     H7X      HAL2     0.900000E-01   1.00800           0
      4628 MEMB     37       POPE     H7Y      HAL2     0.900000E-01   1.00800           0
      4629 MEMB     37       POPE     C38      CTL2    -0.180000       12.0110           0
      4630 MEMB     37       POPE     H8X      HAL2     0.900000E-01   1.00800           0
      4631 MEMB     37       POPE     H8Y      HAL2     0.900000E-01   1.00800           0
      4632 MEMB     37       POPE     C39      CTL2    -0.180000       12.0110           0
      4633 MEMB     37       POPE     H9X      HAL2     0.900000E-01   1.00800           0
      4634 MEMB     37       POPE     H9Y      HAL2     0.900000E-01   1.00800           0
      4635 MEMB     37       POPE     C310     CTL2    -0.180000       12.0110           0
      4636 MEMB     37       POPE     H10X     HAL2     0.900000E-01   1.00800           0
      4637 MEMB     37       POPE     H10Y     HAL2     0.900000E-01   1.00800           0
      4638 MEMB     37       POPE     C311     CTL2    -0.180000       12.0110           0
      4639 MEMB     37       POPE     H11X     HAL2     0.900000E-01   1.00800           0
      4640 MEMB     37       POPE     H11Y     HAL2     0.900000E-01   1.00800           0
      4641 MEMB     37       POPE     C312     CTL2    -0.180000       12.0110           0
      4642 MEMB     37       POPE     H12X     HAL2     0.900000E-01   1.00800           0
      4643 MEMB     37       POPE     H12Y     HAL2     0.900000E-01   1.00800           0
      4644 MEMB     37       POPE     C313     CTL2    -0.180000       12.0110           0
      4645 MEMB     37       POPE     H13X     HAL2     0.900000E-01   1.00800           0
      4646 MEMB     37       POPE     H13Y     HAL2     0.900000E-01   1.00800           0
      4647 MEMB     37       POPE     C314     CTL2    -0.180000       12.0110           0
      4648 MEMB     37       POPE     H14X     HAL2     0.900000E-01   1.00800           0
      4649 MEMB     37       POPE     H14Y     HAL2     0.900000E-01   1.00800           0
      4650 MEMB     37       POPE     C315     CTL2    -0.180000       12.0110           0
      4651 MEMB     37       POPE     H15X     HAL2     0.900000E-01   1.00800           0
      4652 MEMB     37       POPE     H15Y     HAL2     0.900000E-01   1.00800           0
      4653 MEMB     37       POPE     C316     CTL3    -0.270000       12.0110           0
      4654 MEMB     37       POPE     H16X     HAL3     0.900000E-01   1.00800           0
      4655 MEMB     37       POPE     H16Y     HAL3     0.900000E-01   1.00800           0
      4656 MEMB     37       POPE     H16Z     HAL3     0.900000E-01   1.00800           0
      4657 MEMB     38       QMPE     N        NH3L    -0.300000       14.0070           0
      4658 MEMB     38       QMPE     HN1      HCL      0.330000       1.00800           0
      4659 MEMB     38       QMPE     HN2      HCL      0.330000       1.00800           0
      4660 MEMB     38       QMPE     HN3      HCL      0.330000       1.00800           0
      4661 MEMB     38       QMPE     C12      CTL2     0.130000       12.0110           0
      4662 MEMB     38       QMPE     H12A     HAL2     0.900000E-01   1.00800           0
      4663 MEMB     38       QMPE     H12B     HAL2     0.900000E-01   1.00800           0
      4664 MEMB     38       QMPE     C11      CTL2    -0.800000E-01   12.0110           0
      4665 MEMB     38       QMPE     H11A     HAL2     0.900000E-01   1.00800           0
      4666 MEMB     38       QMPE     H11B     HAL2     0.900000E-01   1.00800           0
      4667 MEMB     38       QMPE     P        PL        1.50000       30.9740           0
      4668 MEMB     38       QMPE     O13      O2L     -0.780000       15.9994           0
      4669 MEMB     38       QMPE     O14      O2L     -0.780000       15.9994           0
      4670 MEMB     38       QMPE     O11      OSLP    -0.570000       15.9994           0
      4671 MEMB     38       QMPE     O12      OSLP    -0.570000       15.9994           0
      4672 MEMB     38       QMPE     C1       CTL2    -0.800000E-01   12.0110           0
      4673 MEMB     38       QMPE     HA       HAL2     0.900000E-01   1.00800           0
      4674 MEMB     38       QMPE     HB       HAL2     0.900000E-01   1.00800           0
      4675 MEMB     38       QMPE     C2       CTL1     0.170000       12.0110           0
      4676 MEMB     38       QMPE     HS       HAL1     0.900000E-01   1.00800           0
      4677 MEMB     38       QMPE     O21      OSL     -0.490000       15.9994           0
      4678 MEMB     38       QMPE     C21      CL       0.900000       12.0110           0
      4679 MEMB     38       QMPE     O22      OBL     -0.630000       15.9994           0
      4680 MEMB     38       QMPE     C22      CTL2    -0.220000       12.0110           0
      4681 MEMB     38       QMPE     H2R      HAL2     0.900000E-01   1.00800           0
      4682 MEMB     38       QMPE     H2S      HAL2     0.900000E-01   1.00800           0
      4683 MEMB     38       QMPE     C3       CTL2     0.800000E-01   12.0110           0
      4684 MEMB     38       QMPE     HX       HAL2     0.900000E-01   1.00800           0
      4685 MEMB     38       QMPE     HY       HAL2     0.900000E-01   1.00800           0
      4686 MEMB     38       QMPE     O31      OSL     -0.490000       15.9994           0
      4687 MEMB     38       QMPE     C31      CL       0.900000       12.0110           0
      4688 MEMB     38       QMPE     O32      OBL     -0.630000       15.9994           0
      4689 MEMB     38       QMPE     C32      CTL2    -0.220000       12.0110           0
      4690 MEMB     38       QMPE     H2X      HAL2     0.900000E-01   1.00800           0
      4691 MEMB     38       QMPE     H2Y      HAL2     0.900000E-01   1.00800           0
      4692 MEMB     38       QMPE     C23      CTL2    -0.180000       12.0110           0
      4693 MEMB     38       QMPE     H3R      HAL2     0.900000E-01   1.00800           0
      4694 MEMB     38       QMPE     H3S      HAL2     0.900000E-01   1.00800           0
      4695 MEMB     38       QMPE     C24      CTL2    -0.180000       12.0110           0
      4696 MEMB     38       QMPE     H4R      HAL2     0.900000E-01   1.00800           0
      4697 MEMB     38       QMPE     H4S      HAL2     0.900000E-01   1.00800           0
      4698 MEMB     38       QMPE     C25      CTL2    -0.180000       12.0110           0
      4699 MEMB     38       QMPE     H5R      HAL2     0.900000E-01   1.00800           0
      4700 MEMB     38       QMPE     H5S      HAL2     0.900000E-01   1.00800           0
      4701 MEMB     38       QMPE     C26      CTL2    -0.180000       12.0110           0
      4702 MEMB     38       QMPE     H6R      HAL2     0.900000E-01   1.00800           0
      4703 MEMB     38       QMPE     H6S      HAL2     0.900000E-01   1.00800           0
      4704 MEMB     38       QMPE     C27      CTL2    -0.180000       12.0110           0
      4705 MEMB     38       QMPE     H7R      HAL2     0.900000E-01   1.00800           0
      4706 MEMB     38       QMPE     H7S      HAL2     0.900000E-01   1.00800           0
      4707 MEMB     38       QMPE     C28      CTL2    -0.180000       12.0110           0
      4708 MEMB     38       QMPE     H8R      HAL2     0.900000E-01   1.00800           0
      4709 MEMB     38       QMPE     H8S      HAL2     0.900000E-01   1.00800           0
      4710 MEMB     38       QMPE     C29      CG3RC1  -0.900000E-01   12.0110           0
      4711 MEMB     38       QMPE     H9R      HGA1     0.900000E-01   1.00800           0
      4712 MEMB     38       QMPE     C217     CG3C31  -0.180000       12.0110           0
      4713 MEMB     38       QMPE     H17R     HGA2     0.900000E-01   1.00800           0
      4714 MEMB     38       QMPE     H17S     HGA2     0.900000E-01   1.00800           0
      4715 MEMB     38       QMPE     C210     CG3RC1  -0.900000E-01   12.0110           0
      4716 MEMB     38       QMPE     H10R     HGA1     0.900000E-01   1.00800           0
      4717 MEMB     38       QMPE     C211     CTL2    -0.180000       12.0110           0
      4718 MEMB     38       QMPE     H11R     HAL2     0.900000E-01   1.00800           0
      4719 MEMB     38       QMPE     H11S     HAL2     0.900000E-01   1.00800           0
      4720 MEMB     38       QMPE     C212     CTL2    -0.180000       12.0110           0
      4721 MEMB     38       QMPE     H12R     HAL2     0.900000E-01   1.00800           0
      4722 MEMB     38       QMPE     H12S     HAL2     0.900000E-01   1.00800           0
      4723 MEMB     38       QMPE     C213     CTL2    -0.180000       12.0110           0
      4724 MEMB     38       QMPE     H13R     HAL2     0.900000E-01   1.00800           0
      4725 MEMB     38       QMPE     H13S     HAL2     0.900000E-01   1.00800           0
      4726 MEMB     38       QMPE     C214     CTL2    -0.180000       12.0110           0
      4727 MEMB     38       QMPE     H14R     HAL2     0.900000E-01   1.00800           0
      4728 MEMB     38       QMPE     H14S     HAL2     0.900000E-01   1.00800           0
      4729 MEMB     38       QMPE     C215     CTL2    -0.180000       12.0110           0
      4730 MEMB     38       QMPE     H15R     HAL2     0.900000E-01   1.00800           0
      4731 MEMB     38       QMPE     H15S     HAL2     0.900000E-01   1.00800           0
      4732 MEMB     38       QMPE     C216     CTL3    -0.270000       12.0110           0
      4733 MEMB     38       QMPE     H16R     HAL3     0.900000E-01   1.00800           0
      4734 MEMB     38       QMPE     H16S     HAL3     0.900000E-01   1.00800           0
      4735 MEMB     38       QMPE     H16T     HAL3     0.900000E-01   1.00800           0
      4736 MEMB     38       QMPE     C33      CTL2    -0.180000       12.0110           0
      4737 MEMB     38       QMPE     H3X      HAL2     0.900000E-01   1.00800           0
      4738 MEMB     38       QMPE     H3Y      HAL2     0.900000E-01   1.00800           0
      4739 MEMB     38       QMPE     C34      CTL2    -0.180000       12.0110           0
      4740 MEMB     38       QMPE     H4X      HAL2     0.900000E-01   1.00800           0
      4741 MEMB     38       QMPE     H4Y      HAL2     0.900000E-01   1.00800           0
      4742 MEMB     38       QMPE     C35      CTL2    -0.180000       12.0110           0
      4743 MEMB     38       QMPE     H5X      HAL2     0.900000E-01   1.00800           0
      4744 MEMB     38       QMPE     H5Y      HAL2     0.900000E-01   1.00800           0
      4745 MEMB     38       QMPE     C36      CTL2    -0.180000       12.0110           0
      4746 MEMB     38       QMPE     H6X      HAL2     0.900000E-01   1.00800           0
      4747 MEMB     38       QMPE     H6Y      HAL2     0.900000E-01   1.00800           0
      4748 MEMB     38       QMPE     C37      CTL2    -0.180000       12.0110           0
      4749 MEMB     38       QMPE     H7X      HAL2     0.900000E-01   1.00800           0
      4750 MEMB     38       QMPE     H7Y      HAL2     0.900000E-01   1.00800           0
      4751 MEMB     38       QMPE     C38      CTL2    -0.180000       12.0110           0
      4752 MEMB     38       QMPE     H8X      HAL2     0.900000E-01   1.00800           0
      4753 MEMB     38       QMPE     H8Y      HAL2     0.900000E-01   1.00800           0
      4754 MEMB     38       QMPE     C39      CTL2    -0.180000       12.0110           0
      4755 MEMB     38       QMPE     H9X      HAL2     0.900000E-01   1.00800           0
      4756 MEMB     38       QMPE     H9Y      HAL2     0.900000E-01   1.00800           0
      4757 MEMB     38       QMPE     C310     CTL2    -0.180000       12.0110           0
      4758 MEMB     38       QMPE     H10X     HAL2     0.900000E-01   1.00800           0
      4759 MEMB     38       QMPE     H10Y     HAL2     0.900000E-01   1.00800           0
      4760 MEMB     38       QMPE     C311     CTL2    -0.180000       12.0110           0
      4761 MEMB     38       QMPE     H11X     HAL2     0.900000E-01   1.00800           0
      4762 MEMB     38       QMPE     H11Y     HAL2     0.900000E-01   1.00800           0
      4763 MEMB     38       QMPE     C312     CTL2    -0.180000       12.0110           0
      4764 MEMB     38       QMPE     H12X     HAL2     0.900000E-01   1.00800           0
      4765 MEMB     38       QMPE     H12Y     HAL2     0.900000E-01   1.00800           0
      4766 MEMB     38       QMPE     C313     CTL2    -0.180000       12.0110           0
      4767 MEMB     38       QMPE     H13X     HAL2     0.900000E-01   1.00800           0
      4768 MEMB     38       QMPE     H13Y     HAL2     0.900000E-01   1.00800           0
      4769 MEMB     38       QMPE     C314     CTL2    -0.180000       12.0110           0
      4770 MEMB     38       QMPE     H14X     HAL2     0.900000E-01   1.00800           0
      4771 MEMB     38       QMPE     H14Y     HAL2     0.900000E-01   1.00800           0
      4772 MEMB     38       QMPE     C315     CTL3    -0.270000       12.0110           0
      4773 MEMB     38       QMPE     H15X     HAL3     0.900000E-01   1.00800           0
      4774 MEMB     38       QMPE     H15Y     HAL3     0.900000E-01   1.00800           0
      4775 MEMB     38       QMPE     H15Z     HAL3     0.900000E-01   1.00800           0
      4776 MEMB     39       PMPE     N        NH3L    -0.300000       14.0070           0
      4777 MEMB     39       PMPE     HN1      HCL      0.330000       1.00800           0
      4778 MEMB     39       PMPE     HN2      HCL      0.330000       1.00800           0
      4779 MEMB     39       PMPE     HN3      HCL      0.330000       1.00800           0
      4780 MEMB     39       PMPE     C12      CTL2     0.130000       12.0110           0
      4781 MEMB     39       PMPE     H12A     HAL2     0.900000E-01   1.00800           0
      4782 MEMB     39       PMPE     H12B     HAL2     0.900000E-01   1.00800           0
      4783 MEMB     39       PMPE     C11      CTL2    -0.800000E-01   12.0110           0
      4784 MEMB     39       PMPE     H11A     HAL2     0.900000E-01   1.00800           0
      4785 MEMB     39       PMPE     H11B     HAL2     0.900000E-01   1.00800           0
      4786 MEMB     39       PMPE     P        PL        1.50000       30.9740           0
      4787 MEMB     39       PMPE     O13      O2L     -0.780000       15.9994           0
      4788 MEMB     39       PMPE     O14      O2L     -0.780000       15.9994           0
      4789 MEMB     39       PMPE     O11      OSLP    -0.570000       15.9994           0
      4790 MEMB     39       PMPE     O12      OSLP    -0.570000       15.9994           0
      4791 MEMB     39       PMPE     C1       CTL2    -0.800000E-01   12.0110           0
      4792 MEMB     39       PMPE     HA       HAL2     0.900000E-01   1.00800           0
      4793 MEMB     39       PMPE     HB       HAL2     0.900000E-01   1.00800           0
      4794 MEMB     39       PMPE     C2       CTL1     0.170000       12.0110           0
      4795 MEMB     39       PMPE     HS       HAL1     0.900000E-01   1.00800           0
      4796 MEMB     39       PMPE     O21      OSL     -0.490000       15.9994           0
      4797 MEMB     39       PMPE     C21      CL       0.900000       12.0110           0
      4798 MEMB     39       PMPE     O22      OBL     -0.630000       15.9994           0
      4799 MEMB     39       PMPE     C22      CTL2    -0.220000       12.0110           0
      4800 MEMB     39       PMPE     H2R      HAL2     0.900000E-01   1.00800           0
      4801 MEMB     39       PMPE     H2S      HAL2     0.900000E-01   1.00800           0
      4802 MEMB     39       PMPE     C3       CTL2     0.800000E-01   12.0110           0
      4803 MEMB     39       PMPE     HX       HAL2     0.900000E-01   1.00800           0
      4804 MEMB     39       PMPE     HY       HAL2     0.900000E-01   1.00800           0
      4805 MEMB     39       PMPE     O31      OSL     -0.490000       15.9994           0
      4806 MEMB     39       PMPE     C31      CL       0.900000       12.0110           0
      4807 MEMB     39       PMPE     O32      OBL     -0.630000       15.9994           0
      4808 MEMB     39       PMPE     C32      CTL2    -0.220000       12.0110           0
      4809 MEMB     39       PMPE     H2X      HAL2     0.900000E-01   1.00800           0
      4810 MEMB     39       PMPE     H2Y      HAL2     0.900000E-01   1.00800           0
      4811 MEMB     39       PMPE     C23      CTL2    -0.180000       12.0110           0
      4812 MEMB     39       PMPE     H3R      HAL2     0.900000E-01   1.00800           0
      4813 MEMB     39       PMPE     H3S      HAL2     0.900000E-01   1.00800           0
      4814 MEMB     39       PMPE     C24      CTL2    -0.180000       12.0110           0
      4815 MEMB     39       PMPE     H4R      HAL2     0.900000E-01   1.00800           0
      4816 MEMB     39       PMPE     H4S      HAL2     0.900000E-01   1.00800           0
      4817 MEMB     39       PMPE     C25      CTL2    -0.180000       12.0110           0
      4818 MEMB     39       PMPE     H5R      HAL2     0.900000E-01   1.00800           0
      4819 MEMB     39       PMPE     H5S      HAL2     0.900000E-01   1.00800           0
      4820 MEMB     39       PMPE     C26      CTL2    -0.180000       12.0110           0
      4821 MEMB     39       PMPE     H6R      HAL2     0.900000E-01   1.00800           0
      4822 MEMB     39       PMPE     H6S      HAL2     0.900000E-01   1.00800           0
      4823 MEMB     39       PMPE     C27      CTL2    -0.180000       12.0110           0
      4824 MEMB     39       PMPE     H7R      HAL2     0.900000E-01   1.00800           0
      4825 MEMB     39       PMPE     H7S      HAL2     0.900000E-01   1.00800           0
      4826 MEMB     39       PMPE     C28      CTL2    -0.180000       12.0110           0
      4827 MEMB     39       PMPE     H8R      HAL2     0.900000E-01   1.00800           0
      4828 MEMB     39       PMPE     H8S      HAL2     0.900000E-01   1.00800           0
      4829 MEMB     39       PMPE     C29      CG3RC1  -0.900000E-01   12.0110           0
      4830 MEMB     39       PMPE     H9R      HGA1     0.900000E-01   1.00800           0
      4831 MEMB     39       PMPE     C217     CG3C31  -0.180000       12.0110           0
      4832 MEMB     39       PMPE     H17R     HGA2     0.900000E-01   1.00800           0
      4833 MEMB     39       PMPE     H17S     HGA2     0.900000E-01   1.00800           0
      4834 MEMB     39       PMPE     C210     CG3RC1  -0.900000E-01   12.0110           0
      4835 MEMB     39       PMPE     H10R     HGA1     0.900000E-01   1.00800           0
      4836 MEMB     39       PMPE     C211     CTL2    -0.180000       12.0110           0
      4837 MEMB     39       PMPE     H11R     HAL2     0.900000E-01   1.00800           0
      4838 MEMB     39       PMPE     H11S     HAL2     0.900000E-01   1.00800           0
      4839 MEMB     39       PMPE     C212     CTL2    -0.180000       12.0110           0
      4840 MEMB     39       PMPE     H12R     HAL2     0.900000E-01   1.00800           0
      4841 MEMB     39       PMPE     H12S     HAL2     0.900000E-01   1.00800           0
      4842 MEMB     39       PMPE     C213     CTL2    -0.180000       12.0110           0
      4843 MEMB     39       PMPE     H13R     HAL2     0.900000E-01   1.00800           0
      4844 MEMB     39       PMPE     H13S     HAL2     0.900000E-01   1.00800           0
      4845 MEMB     39       PMPE     C214     CTL2    -0.180000       12.0110           0
      4846 MEMB     39       PMPE     H14R     HAL2     0.900000E-01   1.00800           0
      4847 MEMB     39       PMPE     H14S     HAL2     0.900000E-01   1.00800           0
      4848 MEMB     39       PMPE     C215     CTL2    -0.180000       12.0110           0
      4849 MEMB     39       PMPE     H15R     HAL2     0.900000E-01   1.00800           0
      4850 MEMB     39       PMPE     H15S     HAL2     0.900000E-01   1.00800           0
      4851 MEMB     39       PMPE     C216     CTL3    -0.270000       12.0110           0
      4852 MEMB     39       PMPE     H16R     HAL3     0.900000E-01   1.00800           0
      4853 MEMB     39       PMPE     H16S     HAL3     0.900000E-01   1.00800           0
      4854 MEMB     39       PMPE     H16T     HAL3     0.900000E-01   1.00800           0
      4855 MEMB     39       PMPE     C33      CTL2    -0.180000       12.0110           0
      4856 MEMB     39       PMPE     H3X      HAL2     0.900000E-01   1.00800           0
      4857 MEMB     39       PMPE     H3Y      HAL2     0.900000E-01   1.00800           0
      4858 MEMB     39       PMPE     C34      CTL2    -0.180000       12.0110           0
      4859 MEMB     39       PMPE     H4X      HAL2     0.900000E-01   1.00800           0
      4860 MEMB     39       PMPE     H4Y      HAL2     0.900000E-01   1.00800           0
      4861 MEMB     39       PMPE     C35      CTL2    -0.180000       12.0110           0
      4862 MEMB     39       PMPE     H5X      HAL2     0.900000E-01   1.00800           0
      4863 MEMB     39       PMPE     H5Y      HAL2     0.900000E-01   1.00800           0
      4864 MEMB     39       PMPE     C36      CTL2    -0.180000       12.0110           0
      4865 MEMB     39       PMPE     H6X      HAL2     0.900000E-01   1.00800           0
      4866 MEMB     39       PMPE     H6Y      HAL2     0.900000E-01   1.00800           0
      4867 MEMB     39       PMPE     C37      CTL2    -0.180000       12.0110           0
      4868 MEMB     39       PMPE     H7X      HAL2     0.900000E-01   1.00800           0
      4869 MEMB     39       PMPE     H7Y      HAL2     0.900000E-01   1.00800           0
      4870 MEMB     39       PMPE     C38      CTL2    -0.180000       12.0110           0
      4871 MEMB     39       PMPE     H8X      HAL2     0.900000E-01   1.00800           0
      4872 MEMB     39       PMPE     H8Y      HAL2     0.900000E-01   1.00800           0
      4873 MEMB     39       PMPE     C39      CTL2    -0.180000       12.0110           0
      4874 MEMB     39       PMPE     H9X      HAL2     0.900000E-01   1.00800           0
      4875 MEMB     39       PMPE     H9Y      HAL2     0.900000E-01   1.00800           0
      4876 MEMB     39       PMPE     C310     CTL2    -0.180000       12.0110           0
      4877 MEMB     39       PMPE     H10X     HAL2     0.900000E-01   1.00800           0
      4878 MEMB     39       PMPE     H10Y     HAL2     0.900000E-01   1.00800           0
      4879 MEMB     39       PMPE     C311     CTL2    -0.180000       12.0110           0
      4880 MEMB     39       PMPE     H11X     HAL2     0.900000E-01   1.00800           0
      4881 MEMB     39       PMPE     H11Y     HAL2     0.900000E-01   1.00800           0
      4882 MEMB     39       PMPE     C312     CTL2    -0.180000       12.0110           0
      4883 MEMB     39       PMPE     H12X     HAL2     0.900000E-01   1.00800           0
      4884 MEMB     39       PMPE     H12Y     HAL2     0.900000E-01   1.00800           0
      4885 MEMB     39       PMPE     C313     CTL2    -0.180000       12.0110           0
      4886 MEMB     39       PMPE     H13X     HAL2     0.900000E-01   1.00800           0
      4887 MEMB     39       PMPE     H13Y     HAL2     0.900000E-01   1.00800           0
      4888 MEMB     39       PMPE     C314     CTL2    -0.180000       12.0110           0
      4889 MEMB     39       PMPE     H14X     HAL2     0.900000E-01   1.00800           0
      4890 MEMB     39       PMPE     H14Y     HAL2     0.900000E-01   1.00800           0
      4891 MEMB     39       PMPE     C315     CTL2    -0.180000       12.0110           0
      4892 MEMB     39       PMPE     H15X     HAL2     0.900000E-01   1.00800           0
      4893 MEMB     39       PMPE     H15Y     HAL2     0.900000E-01   1.00800           0
      4894 MEMB     39       PMPE     C316     CTL3    -0.270000       12.0110           0
      4895 MEMB     39       PMPE     H16X     HAL3     0.900000E-01   1.00800           0
      4896 MEMB     39       PMPE     H16Y     HAL3     0.900000E-01   1.00800           0
      4897 MEMB     39       PMPE     H16Z     HAL3     0.900000E-01   1.00800           0
      4898 MEMB     40       PMPE     N        NH3L    -0.300000       14.0070           0
      4899 MEMB     40       PMPE     HN1      HCL      0.330000       1.00800           0
      4900 MEMB     40       PMPE     HN2      HCL      0.330000       1.00800           0
      4901 MEMB     40       PMPE     HN3      HCL      0.330000       1.00800           0
      4902 MEMB     40       PMPE     C12      CTL2     0.130000       12.0110           0
      4903 MEMB     40       PMPE     H12A     HAL2     0.900000E-01   1.00800           0
      4904 MEMB     40       PMPE     H12B     HAL2     0.900000E-01   1.00800           0
      4905 MEMB     40       PMPE     C11      CTL2    -0.800000E-01   12.0110           0
      4906 MEMB     40       PMPE     H11A     HAL2     0.900000E-01   1.00800           0
      4907 MEMB     40       PMPE     H11B     HAL2     0.900000E-01   1.00800           0
      4908 MEMB     40       PMPE     P        PL        1.50000       30.9740           0
      4909 MEMB     40       PMPE     O13      O2L     -0.780000       15.9994           0
      4910 MEMB     40       PMPE     O14      O2L     -0.780000       15.9994           0
      4911 MEMB     40       PMPE     O11      OSLP    -0.570000       15.9994           0
      4912 MEMB     40       PMPE     O12      OSLP    -0.570000       15.9994           0
      4913 MEMB     40       PMPE     C1       CTL2    -0.800000E-01   12.0110           0
      4914 MEMB     40       PMPE     HA       HAL2     0.900000E-01   1.00800           0
      4915 MEMB     40       PMPE     HB       HAL2     0.900000E-01   1.00800           0
      4916 MEMB     40       PMPE     C2       CTL1     0.170000       12.0110           0
      4917 MEMB     40       PMPE     HS       HAL1     0.900000E-01   1.00800           0
      4918 MEMB     40       PMPE     O21      OSL     -0.490000       15.9994           0
      4919 MEMB     40       PMPE     C21      CL       0.900000       12.0110           0
      4920 MEMB     40       PMPE     O22      OBL     -0.630000       15.9994           0
      4921 MEMB     40       PMPE     C22      CTL2    -0.220000       12.0110           0
      4922 MEMB     40       PMPE     H2R      HAL2     0.900000E-01   1.00800           0
      4923 MEMB     40       PMPE     H2S      HAL2     0.900000E-01   1.00800           0
      4924 MEMB     40       PMPE     C3       CTL2     0.800000E-01   12.0110           0
      4925 MEMB     40       PMPE     HX       HAL2     0.900000E-01   1.00800           0
      4926 MEMB     40       PMPE     HY       HAL2     0.900000E-01   1.00800           0
      4927 MEMB     40       PMPE     O31      OSL     -0.490000       15.9994           0
      4928 MEMB     40       PMPE     C31      CL       0.900000       12.0110           0
      4929 MEMB     40       PMPE     O32      OBL     -0.630000       15.9994           0
      4930 MEMB     40       PMPE     C32      CTL2    -0.220000       12.0110           0
      4931 MEMB     40       PMPE     H2X      HAL2     0.900000E-01   1.00800           0
      4932 MEMB     40       PMPE     H2Y      HAL2     0.900000E-01   1.00800           0
      4933 MEMB     40       PMPE     C23      CTL2    -0.180000       12.0110           0
      4934 MEMB     40       PMPE     H3R      HAL2     0.900000E-01   1.00800           0
      4935 MEMB     40       PMPE     H3S      HAL2     0.900000E-01   1.00800           0
      4936 MEMB     40       PMPE     C24      CTL2    -0.180000       12.0110           0
      4937 MEMB     40       PMPE     H4R      HAL2     0.900000E-01   1.00800           0
      4938 MEMB     40       PMPE     H4S      HAL2     0.900000E-01   1.00800           0
      4939 MEMB     40       PMPE     C25      CTL2    -0.180000       12.0110           0
      4940 MEMB     40       PMPE     H5R      HAL2     0.900000E-01   1.00800           0
      4941 MEMB     40       PMPE     H5S      HAL2     0.900000E-01   1.00800           0
      4942 MEMB     40       PMPE     C26      CTL2    -0.180000       12.0110           0
      4943 MEMB     40       PMPE     H6R      HAL2     0.900000E-01   1.00800           0
      4944 MEMB     40       PMPE     H6S      HAL2     0.900000E-01   1.00800           0
      4945 MEMB     40       PMPE     C27      CTL2    -0.180000       12.0110           0
      4946 MEMB     40       PMPE     H7R      HAL2     0.900000E-01   1.00800           0
      4947 MEMB     40       PMPE     H7S      HAL2     0.900000E-01   1.00800           0
      4948 MEMB     40       PMPE     C28      CTL2    -0.180000       12.0110           0
      4949 MEMB     40       PMPE     H8R      HAL2     0.900000E-01   1.00800           0
      4950 MEMB     40       PMPE     H8S      HAL2     0.900000E-01   1.00800           0
      4951 MEMB     40       PMPE     C29      CG3RC1  -0.900000E-01   12.0110           0
      4952 MEMB     40       PMPE     H9R      HGA1     0.900000E-01   1.00800           0
      4953 MEMB     40       PMPE     C217     CG3C31  -0.180000       12.0110           0
      4954 MEMB     40       PMPE     H17R     HGA2     0.900000E-01   1.00800           0
      4955 MEMB     40       PMPE     H17S     HGA2     0.900000E-01   1.00800           0
      4956 MEMB     40       PMPE     C210     CG3RC1  -0.900000E-01   12.0110           0
      4957 MEMB     40       PMPE     H10R     HGA1     0.900000E-01   1.00800           0
      4958 MEMB     40       PMPE     C211     CTL2    -0.180000       12.0110           0
      4959 MEMB     40       PMPE     H11R     HAL2     0.900000E-01   1.00800           0
      4960 MEMB     40       PMPE     H11S     HAL2     0.900000E-01   1.00800           0
      4961 MEMB     40       PMPE     C212     CTL2    -0.180000       12.0110           0
      4962 MEMB     40       PMPE     H12R     HAL2     0.900000E-01   1.00800           0
      4963 MEMB     40       PMPE     H12S     HAL2     0.900000E-01   1.00800           0
      4964 MEMB     40       PMPE     C213     CTL2    -0.180000       12.0110           0
      4965 MEMB     40       PMPE     H13R     HAL2     0.900000E-01   1.00800           0
      4966 MEMB     40       PMPE     H13S     HAL2     0.900000E-01   1.00800           0
      4967 MEMB     40       PMPE     C214     CTL2    -0.180000       12.0110           0
      4968 MEMB     40       PMPE     H14R     HAL2     0.900000E-01   1.00800           0
      4969 MEMB     40       PMPE     H14S     HAL2     0.900000E-01   1.00800           0
      4970 MEMB     40       PMPE     C215     CTL2    -0.180000       12.0110           0
      4971 MEMB     40       PMPE     H15R     HAL2     0.900000E-01   1.00800           0
      4972 MEMB     40       PMPE     H15S     HAL2     0.900000E-01   1.00800           0
      4973 MEMB     40       PMPE     C216     CTL3    -0.270000       12.0110           0
      4974 MEMB     40       PMPE     H16R     HAL3     0.900000E-01   1.00800           0
      4975 MEMB     40       PMPE     H16S     HAL3     0.900000E-01   1.00800           0
      4976 MEMB     40       PMPE     H16T     HAL3     0.900000E-01   1.00800           0
      4977 MEMB     40       PMPE     C33      CTL2    -0.180000       12.0110           0
      4978 MEMB     40       PMPE     H3X      HAL2     0.900000E-01   1.00800           0
      4979 MEMB     40       PMPE     H3Y      HAL2     0.900000E-01   1.00800           0
      4980 MEMB     40       PMPE     C34      CTL2    -0.180000       12.0110           0
      4981 MEMB     40       PMPE     H4X      HAL2     0.900000E-01   1.00800           0
      4982 MEMB     40       PMPE     H4Y      HAL2     0.900000E-01   1.00800           0
      4983 MEMB     40       PMPE     C35      CTL2    -0.180000       12.0110           0
      4984 MEMB     40       PMPE     H5X      HAL2     0.900000E-01   1.00800           0
      4985 MEMB     40       PMPE     H5Y      HAL2     0.900000E-01   1.00800           0
      4986 MEMB     40       PMPE     C36      CTL2    -0.180000       12.0110           0
      4987 MEMB     40       PMPE     H6X      HAL2     0.900000E-01   1.00800           0
      4988 MEMB     40       PMPE     H6Y      HAL2     0.900000E-01   1.00800           0
      4989 MEMB     40       PMPE     C37      CTL2    -0.180000       12.0110           0
      4990 MEMB     40       PMPE     H7X      HAL2     0.900000E-01   1.00800           0
      4991 MEMB     40       PMPE     H7Y      HAL2     0.900000E-01   1.00800           0
      4992 MEMB     40       PMPE     C38      CTL2    -0.180000       12.0110           0
      4993 MEMB     40       PMPE     H8X      HAL2     0.900000E-01   1.00800           0
      4994 MEMB     40       PMPE     H8Y      HAL2     0.900000E-01   1.00800           0
      4995 MEMB     40       PMPE     C39      CTL2    -0.180000       12.0110           0
      4996 MEMB     40       PMPE     H9X      HAL2     0.900000E-01   1.00800           0
      4997 MEMB     40       PMPE     H9Y      HAL2     0.900000E-01   1.00800           0
      4998 MEMB     40       PMPE     C310     CTL2    -0.180000       12.0110           0
      4999 MEMB     40       PMPE     H10X     HAL2     0.900000E-01   1.00800           0
      5000 MEMB     40       PMPE     H10Y     HAL2     0.900000E-01   1.00800           0
      5001 MEMB     40       PMPE     C311     CTL2    -0.180000       12.0110           0
      5002 MEMB     40       PMPE     H11X     HAL2     0.900000E-01   1.00800           0
      5003 MEMB     40       PMPE     H11Y     HAL2     0.900000E-01   1.00800           0
      5004 MEMB     40       PMPE     C312     CTL2    -0.180000       12.0110           0
      5005 MEMB     40       PMPE     H12X     HAL2     0.900000E-01   1.00800           0
      5006 MEMB     40       PMPE     H12Y     HAL2     0.900000E-01   1.00800           0
      5007 MEMB     40       PMPE     C313     CTL2    -0.180000       12.0110           0
      5008 MEMB     40       PMPE     H13X     HAL2     0.900000E-01   1.00800           0
      5009 MEMB     40       PMPE     H13Y     HAL2     0.900000E-01   1.00800           0
      5010 MEMB     40       PMPE     C314     CTL2    -0.180000       12.0110           0
      5011 MEMB     40       PMPE     H14X     HAL2     0.900000E-01   1.00800           0
      5012 MEMB     40       PMPE     H14Y     HAL2     0.900000E-01   1.00800           0
      5013 MEMB     40       PMPE     C315     CTL2    -0.180000       12.0110           0
      5014 MEMB     40       PMPE     H15X     HAL2     0.900000E-01   1.00800           0
      5015 MEMB     40       PMPE     H15Y     HAL2     0.900000E-01   1.00800           0
      5016 MEMB     40       PMPE     C316     CTL3    -0.270000       12.0110           0
      5017 MEMB     40       PMPE     H16X     HAL3     0.900000E-01   1.00800           0
      5018 MEMB     40       PMPE     H16Y     HAL3     0.900000E-01   1.00800           0
      5019 MEMB     40       PMPE     H16Z     HAL3     0.900000E-01   1.00800           0
      5020 MEMB     41       PYPG     C13      CTL2     0.500000E-01   12.0110           0
      5021 MEMB     41       PYPG     H13A     HAL2     0.900000E-01   1.00800           0
      5022 MEMB     41       PYPG     H13B     HAL2     0.900000E-01   1.00800           0
      5023 MEMB     41       PYPG     OC3      OHL     -0.660000       15.9994           0
      5024 MEMB     41       PYPG     HO3      HOL      0.430000       1.00800           0
      5025 MEMB     41       PYPG     C12      CTL1     0.140000       12.0110           0
      5026 MEMB     41       PYPG     H12A     HAL1     0.900000E-01   1.00800           0
      5027 MEMB     41       PYPG     OC2      OHL     -0.660000       15.9994           0
      5028 MEMB     41       PYPG     HO2      HOL      0.430000       1.00800           0
      5029 MEMB     41       PYPG     C11      CTL2    -0.800000E-01   12.0110           0
      5030 MEMB     41       PYPG     H11A     HAL2     0.900000E-01   1.00800           0
      5031 MEMB     41       PYPG     H11B     HAL2     0.900000E-01   1.00800           0
      5032 MEMB     41       PYPG     P        PL        1.50000       30.9740           0
      5033 MEMB     41       PYPG     O13      O2L     -0.780000       15.9994           0
      5034 MEMB     41       PYPG     O14      O2L     -0.780000       15.9994           0
      5035 MEMB     41       PYPG     O11      OSLP    -0.570000       15.9994           0
      5036 MEMB     41       PYPG     O12      OSLP    -0.570000       15.9994           0
      5037 MEMB     41       PYPG     C1       CTL2    -0.800000E-01   12.0110           0
      5038 MEMB     41       PYPG     HA       HAL2     0.900000E-01   1.00800           0
      5039 MEMB     41       PYPG     HB       HAL2     0.900000E-01   1.00800           0
      5040 MEMB     41       PYPG     C2       CTL1     0.170000       12.0110           0
      5041 MEMB     41       PYPG     HS       HAL1     0.900000E-01   1.00800           0
      5042 MEMB     41       PYPG     O21      OSL     -0.490000       15.9994           0
      5043 MEMB     41       PYPG     C21      CL       0.900000       12.0110           0
      5044 MEMB     41       PYPG     O22      OBL     -0.630000       15.9994           0
      5045 MEMB     41       PYPG     C22      CTL2    -0.220000       12.0110           0
      5046 MEMB     41       PYPG     H2R      HAL2     0.900000E-01   1.00800           0
      5047 MEMB     41       PYPG     H2S      HAL2     0.900000E-01   1.00800           0
      5048 MEMB     41       PYPG     C3       CTL2     0.800000E-01   12.0110           0
      5049 MEMB     41       PYPG     HX       HAL2     0.900000E-01   1.00800           0
      5050 MEMB     41       PYPG     HY       HAL2     0.900000E-01   1.00800           0
      5051 MEMB     41       PYPG     O31      OSL     -0.490000       15.9994           0
      5052 MEMB     41       PYPG     C31      CL       0.900000       12.0110           0
      5053 MEMB     41       PYPG     O32      OBL     -0.630000       15.9994           0
      5054 MEMB     41       PYPG     C32      CTL2    -0.220000       12.0110           0
      5055 MEMB     41       PYPG     H2X      HAL2     0.900000E-01   1.00800           0
      5056 MEMB     41       PYPG     H2Y      HAL2     0.900000E-01   1.00800           0
      5057 MEMB     41       PYPG     C23      CTL2    -0.180000       12.0110           0
      5058 MEMB     41       PYPG     H3R      HAL2     0.900000E-01   1.00800           0
      5059 MEMB     41       PYPG     H3S      HAL2     0.900000E-01   1.00800           0
      5060 MEMB     41       PYPG     C24      CTL2    -0.180000       12.0110           0
      5061 MEMB     41       PYPG     H4R      HAL2     0.900000E-01   1.00800           0
      5062 MEMB     41       PYPG     H4S      HAL2     0.900000E-01   1.00800           0
      5063 MEMB     41       PYPG     C25      CTL2    -0.180000       12.0110           0
      5064 MEMB     41       PYPG     H5R      HAL2     0.900000E-01   1.00800           0
      5065 MEMB     41       PYPG     H5S      HAL2     0.900000E-01   1.00800           0
      5066 MEMB     41       PYPG     C26      CTL2    -0.180000       12.0110           0
      5067 MEMB     41       PYPG     H6R      HAL2     0.900000E-01   1.00800           0
      5068 MEMB     41       PYPG     H6S      HAL2     0.900000E-01   1.00800           0
      5069 MEMB     41       PYPG     C27      CTL2    -0.180000       12.0110           0
      5070 MEMB     41       PYPG     H7R      HAL2     0.900000E-01   1.00800           0
      5071 MEMB     41       PYPG     H7S      HAL2     0.900000E-01   1.00800           0
      5072 MEMB     41       PYPG     C28      CTL2    -0.180000       12.0110           0
      5073 MEMB     41       PYPG     H8R      HAL2     0.900000E-01   1.00800           0
      5074 MEMB     41       PYPG     H8S      HAL2     0.900000E-01   1.00800           0
      5075 MEMB     41       PYPG     C29      CEL1    -0.150000       12.0110           0
      5076 MEMB     41       PYPG     H9R      HEL1     0.150000       1.00800           0
      5077 MEMB     41       PYPG     C210     CEL1    -0.150000       12.0110           0
      5078 MEMB     41       PYPG     H10R     HEL1     0.150000       1.00800           0
      5079 MEMB     41       PYPG     C211     CTL2    -0.180000       12.0110           0
      5080 MEMB     41       PYPG     H11R     HAL2     0.900000E-01   1.00800           0
      5081 MEMB     41       PYPG     H11S     HAL2     0.900000E-01   1.00800           0
      5082 MEMB     41       PYPG     C212     CTL2    -0.180000       12.0110           0
      5083 MEMB     41       PYPG     H12R     HAL2     0.900000E-01   1.00800           0
      5084 MEMB     41       PYPG     H12S     HAL2     0.900000E-01   1.00800           0
      5085 MEMB     41       PYPG     C213     CTL2    -0.180000       12.0110           0
      5086 MEMB     41       PYPG     H13R     HAL2     0.900000E-01   1.00800           0
      5087 MEMB     41       PYPG     H13S     HAL2     0.900000E-01   1.00800           0
      5088 MEMB     41       PYPG     C214     CTL2    -0.180000       12.0110           0
      5089 MEMB     41       PYPG     H14R     HAL2     0.900000E-01   1.00800           0
      5090 MEMB     41       PYPG     H14S     HAL2     0.900000E-01   1.00800           0
      5091 MEMB     41       PYPG     C215     CTL2    -0.180000       12.0110           0
      5092 MEMB     41       PYPG     H15R     HAL2     0.900000E-01   1.00800           0
      5093 MEMB     41       PYPG     H15S     HAL2     0.900000E-01   1.00800           0
      5094 MEMB     41       PYPG     C216     CTL3    -0.270000       12.0110           0
      5095 MEMB     41       PYPG     H16R     HAL3     0.900000E-01   1.00800           0
      5096 MEMB     41       PYPG     H16S     HAL3     0.900000E-01   1.00800           0
      5097 MEMB     41       PYPG     H16T     HAL3     0.900000E-01   1.00800           0
      5098 MEMB     41       PYPG     C33      CTL2    -0.180000       12.0110           0
      5099 MEMB     41       PYPG     H3X      HAL2     0.900000E-01   1.00800           0
      5100 MEMB     41       PYPG     H3Y      HAL2     0.900000E-01   1.00800           0
      5101 MEMB     41       PYPG     C34      CTL2    -0.180000       12.0110           0
      5102 MEMB     41       PYPG     H4X      HAL2     0.900000E-01   1.00800           0
      5103 MEMB     41       PYPG     H4Y      HAL2     0.900000E-01   1.00800           0
      5104 MEMB     41       PYPG     C35      CTL2    -0.180000       12.0110           0
      5105 MEMB     41       PYPG     H5X      HAL2     0.900000E-01   1.00800           0
      5106 MEMB     41       PYPG     H5Y      HAL2     0.900000E-01   1.00800           0
      5107 MEMB     41       PYPG     C36      CTL2    -0.180000       12.0110           0
      5108 MEMB     41       PYPG     H6X      HAL2     0.900000E-01   1.00800           0
      5109 MEMB     41       PYPG     H6Y      HAL2     0.900000E-01   1.00800           0
      5110 MEMB     41       PYPG     C37      CTL2    -0.180000       12.0110           0
      5111 MEMB     41       PYPG     H7X      HAL2     0.900000E-01   1.00800           0
      5112 MEMB     41       PYPG     H7Y      HAL2     0.900000E-01   1.00800           0
      5113 MEMB     41       PYPG     C38      CTL2    -0.180000       12.0110           0
      5114 MEMB     41       PYPG     H8X      HAL2     0.900000E-01   1.00800           0
      5115 MEMB     41       PYPG     H8Y      HAL2     0.900000E-01   1.00800           0
      5116 MEMB     41       PYPG     C39      CTL2    -0.180000       12.0110           0
      5117 MEMB     41       PYPG     H9X      HAL2     0.900000E-01   1.00800           0
      5118 MEMB     41       PYPG     H9Y      HAL2     0.900000E-01   1.00800           0
      5119 MEMB     41       PYPG     C310     CTL2    -0.180000       12.0110           0
      5120 MEMB     41       PYPG     H10X     HAL2     0.900000E-01   1.00800           0
      5121 MEMB     41       PYPG     H10Y     HAL2     0.900000E-01   1.00800           0
      5122 MEMB     41       PYPG     C311     CTL2    -0.180000       12.0110           0
      5123 MEMB     41       PYPG     H11X     HAL2     0.900000E-01   1.00800           0
      5124 MEMB     41       PYPG     H11Y     HAL2     0.900000E-01   1.00800           0
      5125 MEMB     41       PYPG     C312     CTL2    -0.180000       12.0110           0
      5126 MEMB     41       PYPG     H12X     HAL2     0.900000E-01   1.00800           0
      5127 MEMB     41       PYPG     H12Y     HAL2     0.900000E-01   1.00800           0
      5128 MEMB     41       PYPG     C313     CTL2    -0.180000       12.0110           0
      5129 MEMB     41       PYPG     H13X     HAL2     0.900000E-01   1.00800           0
      5130 MEMB     41       PYPG     H13Y     HAL2     0.900000E-01   1.00800           0
      5131 MEMB     41       PYPG     C314     CTL2    -0.180000       12.0110           0
      5132 MEMB     41       PYPG     H14X     HAL2     0.900000E-01   1.00800           0
      5133 MEMB     41       PYPG     H14Y     HAL2     0.900000E-01   1.00800           0
      5134 MEMB     41       PYPG     C315     CTL2    -0.180000       12.0110           0
      5135 MEMB     41       PYPG     H15X     HAL2     0.900000E-01   1.00800           0
      5136 MEMB     41       PYPG     H15Y     HAL2     0.900000E-01   1.00800           0
      5137 MEMB     41       PYPG     C316     CTL3    -0.270000       12.0110           0
      5138 MEMB     41       PYPG     H16X     HAL3     0.900000E-01   1.00800           0
      5139 MEMB     41       PYPG     H16Y     HAL3     0.900000E-01   1.00800           0
      5140 MEMB     41       PYPG     H16Z     HAL3     0.900000E-01   1.00800           0
      5141 MEMB     42       PMPG     C13      CTL2     0.500000E-01   12.0110           0
      5142 MEMB     42       PMPG     H13A     HAL2     0.900000E-01   1.00800           0
      5143 MEMB     42       PMPG     H13B     HAL2     0.900000E-01   1.00800           0
      5144 MEMB     42       PMPG     OC3      OHL     -0.660000       15.9994           0
      5145 MEMB     42       PMPG     HO3      HOL      0.430000       1.00800           0
      5146 MEMB     42       PMPG     C12      CTL1     0.140000       12.0110           0
      5147 MEMB     42       PMPG     H12A     HAL1     0.900000E-01   1.00800           0
      5148 MEMB     42       PMPG     OC2      OHL     -0.660000       15.9994           0
      5149 MEMB     42       PMPG     HO2      HOL      0.430000       1.00800           0
      5150 MEMB     42       PMPG     C11      CTL2    -0.800000E-01   12.0110           0
      5151 MEMB     42       PMPG     H11A     HAL2     0.900000E-01   1.00800           0
      5152 MEMB     42       PMPG     H11B     HAL2     0.900000E-01   1.00800           0
      5153 MEMB     42       PMPG     P        PL        1.50000       30.9740           0
      5154 MEMB     42       PMPG     O13      O2L     -0.780000       15.9994           0
      5155 MEMB     42       PMPG     O14      O2L     -0.780000       15.9994           0
      5156 MEMB     42       PMPG     O11      OSLP    -0.570000       15.9994           0
      5157 MEMB     42       PMPG     O12      OSLP    -0.570000       15.9994           0
      5158 MEMB     42       PMPG     C1       CTL2    -0.800000E-01   12.0110           0
      5159 MEMB     42       PMPG     HA       HAL2     0.900000E-01   1.00800           0
      5160 MEMB     42       PMPG     HB       HAL2     0.900000E-01   1.00800           0
      5161 MEMB     42       PMPG     C2       CTL1     0.170000       12.0110           0
      5162 MEMB     42       PMPG     HS       HAL1     0.900000E-01   1.00800           0
      5163 MEMB     42       PMPG     O21      OSL     -0.490000       15.9994           0
      5164 MEMB     42       PMPG     C21      CL       0.900000       12.0110           0
      5165 MEMB     42       PMPG     O22      OBL     -0.630000       15.9994           0
      5166 MEMB     42       PMPG     C22      CTL2    -0.220000       12.0110           0
      5167 MEMB     42       PMPG     H2R      HAL2     0.900000E-01   1.00800           0
      5168 MEMB     42       PMPG     H2S      HAL2     0.900000E-01   1.00800           0
      5169 MEMB     42       PMPG     C3       CTL2     0.800000E-01   12.0110           0
      5170 MEMB     42       PMPG     HX       HAL2     0.900000E-01   1.00800           0
      5171 MEMB     42       PMPG     HY       HAL2     0.900000E-01   1.00800           0
      5172 MEMB     42       PMPG     O31      OSL     -0.490000       15.9994           0
      5173 MEMB     42       PMPG     C31      CL       0.900000       12.0110           0
      5174 MEMB     42       PMPG     O32      OBL     -0.630000       15.9994           0
      5175 MEMB     42       PMPG     C32      CTL2    -0.220000       12.0110           0
      5176 MEMB     42       PMPG     H2X      HAL2     0.900000E-01   1.00800           0
      5177 MEMB     42       PMPG     H2Y      HAL2     0.900000E-01   1.00800           0
      5178 MEMB     42       PMPG     C23      CTL2    -0.180000       12.0110           0
      5179 MEMB     42       PMPG     H3R      HAL2     0.900000E-01   1.00800           0
      5180 MEMB     42       PMPG     H3S      HAL2     0.900000E-01   1.00800           0
      5181 MEMB     42       PMPG     C24      CTL2    -0.180000       12.0110           0
      5182 MEMB     42       PMPG     H4R      HAL2     0.900000E-01   1.00800           0
      5183 MEMB     42       PMPG     H4S      HAL2     0.900000E-01   1.00800           0
      5184 MEMB     42       PMPG     C25      CTL2    -0.180000       12.0110           0
      5185 MEMB     42       PMPG     H5R      HAL2     0.900000E-01   1.00800           0
      5186 MEMB     42       PMPG     H5S      HAL2     0.900000E-01   1.00800           0
      5187 MEMB     42       PMPG     C26      CTL2    -0.180000       12.0110           0
      5188 MEMB     42       PMPG     H6R      HAL2     0.900000E-01   1.00800           0
      5189 MEMB     42       PMPG     H6S      HAL2     0.900000E-01   1.00800           0
      5190 MEMB     42       PMPG     C27      CTL2    -0.180000       12.0110           0
      5191 MEMB     42       PMPG     H7R      HAL2     0.900000E-01   1.00800           0
      5192 MEMB     42       PMPG     H7S      HAL2     0.900000E-01   1.00800           0
      5193 MEMB     42       PMPG     C28      CTL2    -0.180000       12.0110           0
      5194 MEMB     42       PMPG     H8R      HAL2     0.900000E-01   1.00800           0
      5195 MEMB     42       PMPG     H8S      HAL2     0.900000E-01   1.00800           0
      5196 MEMB     42       PMPG     C29      CG3RC1  -0.900000E-01   12.0110           0
      5197 MEMB     42       PMPG     H9R      HGA1     0.900000E-01   1.00800           0
      5198 MEMB     42       PMPG     C217     CG3C31  -0.180000       12.0110           0
      5199 MEMB     42       PMPG     H17R     HGA2     0.900000E-01   1.00800           0
      5200 MEMB     42       PMPG     H17S     HGA2     0.900000E-01   1.00800           0
      5201 MEMB     42       PMPG     C210     CG3RC1  -0.900000E-01   12.0110           0
      5202 MEMB     42       PMPG     H10R     HGA1     0.900000E-01   1.00800           0
      5203 MEMB     42       PMPG     C211     CTL2    -0.180000       12.0110           0
      5204 MEMB     42       PMPG     H11R     HAL2     0.900000E-01   1.00800           0
      5205 MEMB     42       PMPG     H11S     HAL2     0.900000E-01   1.00800           0
      5206 MEMB     42       PMPG     C212     CTL2    -0.180000       12.0110           0
      5207 MEMB     42       PMPG     H12R     HAL2     0.900000E-01   1.00800           0
      5208 MEMB     42       PMPG     H12S     HAL2     0.900000E-01   1.00800           0
      5209 MEMB     42       PMPG     C213     CTL2    -0.180000       12.0110           0
      5210 MEMB     42       PMPG     H13R     HAL2     0.900000E-01   1.00800           0
      5211 MEMB     42       PMPG     H13S     HAL2     0.900000E-01   1.00800           0
      5212 MEMB     42       PMPG     C214     CTL2    -0.180000       12.0110           0
      5213 MEMB     42       PMPG     H14R     HAL2     0.900000E-01   1.00800           0
      5214 MEMB     42       PMPG     H14S     HAL2     0.900000E-01   1.00800           0
      5215 MEMB     42       PMPG     C215     CTL2    -0.180000       12.0110           0
      5216 MEMB     42       PMPG     H15R     HAL2     0.900000E-01   1.00800           0
      5217 MEMB     42       PMPG     H15S     HAL2     0.900000E-01   1.00800           0
      5218 MEMB     42       PMPG     C216     CTL3    -0.270000       12.0110           0
      5219 MEMB     42       PMPG     H16R     HAL3     0.900000E-01   1.00800           0
      5220 MEMB     42       PMPG     H16S     HAL3     0.900000E-01   1.00800           0
      5221 MEMB     42       PMPG     H16T     HAL3     0.900000E-01   1.00800           0
      5222 MEMB     42       PMPG     C33      CTL2    -0.180000       12.0110           0
      5223 MEMB     42       PMPG     H3X      HAL2     0.900000E-01   1.00800           0
      5224 MEMB     42       PMPG     H3Y      HAL2     0.900000E-01   1.00800           0
      5225 MEMB     42       PMPG     C34      CTL2    -0.180000       12.0110           0
      5226 MEMB     42       PMPG     H4X      HAL2     0.900000E-01   1.00800           0
      5227 MEMB     42       PMPG     H4Y      HAL2     0.900000E-01   1.00800           0
      5228 MEMB     42       PMPG     C35      CTL2    -0.180000       12.0110           0
      5229 MEMB     42       PMPG     H5X      HAL2     0.900000E-01   1.00800           0
      5230 MEMB     42       PMPG     H5Y      HAL2     0.900000E-01   1.00800           0
      5231 MEMB     42       PMPG     C36      CTL2    -0.180000       12.0110           0
      5232 MEMB     42       PMPG     H6X      HAL2     0.900000E-01   1.00800           0
      5233 MEMB     42       PMPG     H6Y      HAL2     0.900000E-01   1.00800           0
      5234 MEMB     42       PMPG     C37      CTL2    -0.180000       12.0110           0
      5235 MEMB     42       PMPG     H7X      HAL2     0.900000E-01   1.00800           0
      5236 MEMB     42       PMPG     H7Y      HAL2     0.900000E-01   1.00800           0
      5237 MEMB     42       PMPG     C38      CTL2    -0.180000       12.0110           0
      5238 MEMB     42       PMPG     H8X      HAL2     0.900000E-01   1.00800           0
      5239 MEMB     42       PMPG     H8Y      HAL2     0.900000E-01   1.00800           0
      5240 MEMB     42       PMPG     C39      CTL2    -0.180000       12.0110           0
      5241 MEMB     42       PMPG     H9X      HAL2     0.900000E-01   1.00800           0
      5242 MEMB     42       PMPG     H9Y      HAL2     0.900000E-01   1.00800           0
      5243 MEMB     42       PMPG     C310     CTL2    -0.180000       12.0110           0
      5244 MEMB     42       PMPG     H10X     HAL2     0.900000E-01   1.00800           0
      5245 MEMB     42       PMPG     H10Y     HAL2     0.900000E-01   1.00800           0
      5246 MEMB     42       PMPG     C311     CTL2    -0.180000       12.0110           0
      5247 MEMB     42       PMPG     H11X     HAL2     0.900000E-01   1.00800           0
      5248 MEMB     42       PMPG     H11Y     HAL2     0.900000E-01   1.00800           0
      5249 MEMB     42       PMPG     C312     CTL2    -0.180000       12.0110           0
      5250 MEMB     42       PMPG     H12X     HAL2     0.900000E-01   1.00800           0
      5251 MEMB     42       PMPG     H12Y     HAL2     0.900000E-01   1.00800           0
      5252 MEMB     42       PMPG     C313     CTL2    -0.180000       12.0110           0
      5253 MEMB     42       PMPG     H13X     HAL2     0.900000E-01   1.00800           0
      5254 MEMB     42       PMPG     H13Y     HAL2     0.900000E-01   1.00800           0
      5255 MEMB     42       PMPG     C314     CTL2    -0.180000       12.0110           0
      5256 MEMB     42       PMPG     H14X     HAL2     0.900000E-01   1.00800           0
      5257 MEMB     42       PMPG     H14Y     HAL2     0.900000E-01   1.00800           0
      5258 MEMB     42       PMPG     C315     CTL2    -0.180000       12.0110           0
      5259 MEMB     42       PMPG     H15X     HAL2     0.900000E-01   1.00800           0
      5260 MEMB     42       PMPG     H15Y     HAL2     0.900000E-01   1.00800           0
      5261 MEMB     42       PMPG     C316     CTL3    -0.270000       12.0110           0
      5262 MEMB     42       PMPG     H16X     HAL3     0.900000E-01   1.00800           0
      5263 MEMB     42       PMPG     H16Y     HAL3     0.900000E-01   1.00800           0
      5264 MEMB     42       PMPG     H16Z     HAL3     0.900000E-01   1.00800           0
      5265 MEMB     43       PMPE     N        NH3L    -0.300000       14.0070           0
      5266 MEMB     43       PMPE     HN1      HCL      0.330000       1.00800           0
      5267 MEMB     43       PMPE     HN2      HCL      0.330000       1.00800           0
      5268 MEMB     43       PMPE     HN3      HCL      0.330000       1.00800           0
      5269 MEMB     43       PMPE     C12      CTL2     0.130000       12.0110           0
      5270 MEMB     43       PMPE     H12A     HAL2     0.900000E-01   1.00800           0
      5271 MEMB     43       PMPE     H12B     HAL2     0.900000E-01   1.00800           0
      5272 MEMB     43       PMPE     C11      CTL2    -0.800000E-01   12.0110           0
      5273 MEMB     43       PMPE     H11A     HAL2     0.900000E-01   1.00800           0
      5274 MEMB     43       PMPE     H11B     HAL2     0.900000E-01   1.00800           0
      5275 MEMB     43       PMPE     P        PL        1.50000       30.9740           0
      5276 MEMB     43       PMPE     O13      O2L     -0.780000       15.9994           0
      5277 MEMB     43       PMPE     O14      O2L     -0.780000       15.9994           0
      5278 MEMB     43       PMPE     O11      OSLP    -0.570000       15.9994           0
      5279 MEMB     43       PMPE     O12      OSLP    -0.570000       15.9994           0
      5280 MEMB     43       PMPE     C1       CTL2    -0.800000E-01   12.0110           0
      5281 MEMB     43       PMPE     HA       HAL2     0.900000E-01   1.00800           0
      5282 MEMB     43       PMPE     HB       HAL2     0.900000E-01   1.00800           0
      5283 MEMB     43       PMPE     C2       CTL1     0.170000       12.0110           0
      5284 MEMB     43       PMPE     HS       HAL1     0.900000E-01   1.00800           0
      5285 MEMB     43       PMPE     O21      OSL     -0.490000       15.9994           0
      5286 MEMB     43       PMPE     C21      CL       0.900000       12.0110           0
      5287 MEMB     43       PMPE     O22      OBL     -0.630000       15.9994           0
      5288 MEMB     43       PMPE     C22      CTL2    -0.220000       12.0110           0
      5289 MEMB     43       PMPE     H2R      HAL2     0.900000E-01   1.00800           0
      5290 MEMB     43       PMPE     H2S      HAL2     0.900000E-01   1.00800           0
      5291 MEMB     43       PMPE     C3       CTL2     0.800000E-01   12.0110           0
      5292 MEMB     43       PMPE     HX       HAL2     0.900000E-01   1.00800           0
      5293 MEMB     43       PMPE     HY       HAL2     0.900000E-01   1.00800           0
      5294 MEMB     43       PMPE     O31      OSL     -0.490000       15.9994           0
      5295 MEMB     43       PMPE     C31      CL       0.900000       12.0110           0
      5296 MEMB     43       PMPE     O32      OBL     -0.630000       15.9994           0
      5297 MEMB     43       PMPE     C32      CTL2    -0.220000       12.0110           0
      5298 MEMB     43       PMPE     H2X      HAL2     0.900000E-01   1.00800           0
      5299 MEMB     43       PMPE     H2Y      HAL2     0.900000E-01   1.00800           0
      5300 MEMB     43       PMPE     C23      CTL2    -0.180000       12.0110           0
      5301 MEMB     43       PMPE     H3R      HAL2     0.900000E-01   1.00800           0
      5302 MEMB     43       PMPE     H3S      HAL2     0.900000E-01   1.00800           0
      5303 MEMB     43       PMPE     C24      CTL2    -0.180000       12.0110           0
      5304 MEMB     43       PMPE     H4R      HAL2     0.900000E-01   1.00800           0
      5305 MEMB     43       PMPE     H4S      HAL2     0.900000E-01   1.00800           0
      5306 MEMB     43       PMPE     C25      CTL2    -0.180000       12.0110           0
      5307 MEMB     43       PMPE     H5R      HAL2     0.900000E-01   1.00800           0
      5308 MEMB     43       PMPE     H5S      HAL2     0.900000E-01   1.00800           0
      5309 MEMB     43       PMPE     C26      CTL2    -0.180000       12.0110           0
      5310 MEMB     43       PMPE     H6R      HAL2     0.900000E-01   1.00800           0
      5311 MEMB     43       PMPE     H6S      HAL2     0.900000E-01   1.00800           0
      5312 MEMB     43       PMPE     C27      CTL2    -0.180000       12.0110           0
      5313 MEMB     43       PMPE     H7R      HAL2     0.900000E-01   1.00800           0
      5314 MEMB     43       PMPE     H7S      HAL2     0.900000E-01   1.00800           0
      5315 MEMB     43       PMPE     C28      CTL2    -0.180000       12.0110           0
      5316 MEMB     43       PMPE     H8R      HAL2     0.900000E-01   1.00800           0
      5317 MEMB     43       PMPE     H8S      HAL2     0.900000E-01   1.00800           0
      5318 MEMB     43       PMPE     C29      CG3RC1  -0.900000E-01   12.0110           0
      5319 MEMB     43       PMPE     H9R      HGA1     0.900000E-01   1.00800           0
      5320 MEMB     43       PMPE     C217     CG3C31  -0.180000       12.0110           0
      5321 MEMB     43       PMPE     H17R     HGA2     0.900000E-01   1.00800           0
      5322 MEMB     43       PMPE     H17S     HGA2     0.900000E-01   1.00800           0
      5323 MEMB     43       PMPE     C210     CG3RC1  -0.900000E-01   12.0110           0
      5324 MEMB     43       PMPE     H10R     HGA1     0.900000E-01   1.00800           0
      5325 MEMB     43       PMPE     C211     CTL2    -0.180000       12.0110           0
      5326 MEMB     43       PMPE     H11R     HAL2     0.900000E-01   1.00800           0
      5327 MEMB     43       PMPE     H11S     HAL2     0.900000E-01   1.00800           0
      5328 MEMB     43       PMPE     C212     CTL2    -0.180000       12.0110           0
      5329 MEMB     43       PMPE     H12R     HAL2     0.900000E-01   1.00800           0
      5330 MEMB     43       PMPE     H12S     HAL2     0.900000E-01   1.00800           0
      5331 MEMB     43       PMPE     C213     CTL2    -0.180000       12.0110           0
      5332 MEMB     43       PMPE     H13R     HAL2     0.900000E-01   1.00800           0
      5333 MEMB     43       PMPE     H13S     HAL2     0.900000E-01   1.00800           0
      5334 MEMB     43       PMPE     C214     CTL2    -0.180000       12.0110           0
      5335 MEMB     43       PMPE     H14R     HAL2     0.900000E-01   1.00800           0
      5336 MEMB     43       PMPE     H14S     HAL2     0.900000E-01   1.00800           0
      5337 MEMB     43       PMPE     C215     CTL2    -0.180000       12.0110           0
      5338 MEMB     43       PMPE     H15R     HAL2     0.900000E-01   1.00800           0
      5339 MEMB     43       PMPE     H15S     HAL2     0.900000E-01   1.00800           0
      5340 MEMB     43       PMPE     C216     CTL3    -0.270000       12.0110           0
      5341 MEMB     43       PMPE     H16R     HAL3     0.900000E-01   1.00800           0
      5342 MEMB     43       PMPE     H16S     HAL3     0.900000E-01   1.00800           0
      5343 MEMB     43       PMPE     H16T     HAL3     0.900000E-01   1.00800           0
      5344 MEMB     43       PMPE     C33      CTL2    -0.180000       12.0110           0
      5345 MEMB     43       PMPE     H3X      HAL2     0.900000E-01   1.00800           0
      5346 MEMB     43       PMPE     H3Y      HAL2     0.900000E-01   1.00800           0
      5347 MEMB     43       PMPE     C34      CTL2    -0.180000       12.0110           0
      5348 MEMB     43       PMPE     H4X      HAL2     0.900000E-01   1.00800           0
      5349 MEMB     43       PMPE     H4Y      HAL2     0.900000E-01   1.00800           0
      5350 MEMB     43       PMPE     C35      CTL2    -0.180000       12.0110           0
      5351 MEMB     43       PMPE     H5X      HAL2     0.900000E-01   1.00800           0
      5352 MEMB     43       PMPE     H5Y      HAL2     0.900000E-01   1.00800           0
      5353 MEMB     43       PMPE     C36      CTL2    -0.180000       12.0110           0
      5354 MEMB     43       PMPE     H6X      HAL2     0.900000E-01   1.00800           0
      5355 MEMB     43       PMPE     H6Y      HAL2     0.900000E-01   1.00800           0
      5356 MEMB     43       PMPE     C37      CTL2    -0.180000       12.0110           0
      5357 MEMB     43       PMPE     H7X      HAL2     0.900000E-01   1.00800           0
      5358 MEMB     43       PMPE     H7Y      HAL2     0.900000E-01   1.00800           0
      5359 MEMB     43       PMPE     C38      CTL2    -0.180000       12.0110           0
      5360 MEMB     43       PMPE     H8X      HAL2     0.900000E-01   1.00800           0
      5361 MEMB     43       PMPE     H8Y      HAL2     0.900000E-01   1.00800           0
      5362 MEMB     43       PMPE     C39      CTL2    -0.180000       12.0110           0
      5363 MEMB     43       PMPE     H9X      HAL2     0.900000E-01   1.00800           0
      5364 MEMB     43       PMPE     H9Y      HAL2     0.900000E-01   1.00800           0
      5365 MEMB     43       PMPE     C310     CTL2    -0.180000       12.0110           0
      5366 MEMB     43       PMPE     H10X     HAL2     0.900000E-01   1.00800           0
      5367 MEMB     43       PMPE     H10Y     HAL2     0.900000E-01   1.00800           0
      5368 MEMB     43       PMPE     C311     CTL2    -0.180000       12.0110           0
      5369 MEMB     43       PMPE     H11X     HAL2     0.900000E-01   1.00800           0
      5370 MEMB     43       PMPE     H11Y     HAL2     0.900000E-01   1.00800           0
      5371 MEMB     43       PMPE     C312     CTL2    -0.180000       12.0110           0
      5372 MEMB     43       PMPE     H12X     HAL2     0.900000E-01   1.00800           0
      5373 MEMB     43       PMPE     H12Y     HAL2     0.900000E-01   1.00800           0
      5374 MEMB     43       PMPE     C313     CTL2    -0.180000       12.0110           0
      5375 MEMB     43       PMPE     H13X     HAL2     0.900000E-01   1.00800           0
      5376 MEMB     43       PMPE     H13Y     HAL2     0.900000E-01   1.00800           0
      5377 MEMB     43       PMPE     C314     CTL2    -0.180000       12.0110           0
      5378 MEMB     43       PMPE     H14X     HAL2     0.900000E-01   1.00800           0
      5379 MEMB     43       PMPE     H14Y     HAL2     0.900000E-01   1.00800           0
      5380 MEMB     43       PMPE     C315     CTL2    -0.180000       12.0110           0
      5381 MEMB     43       PMPE     H15X     HAL2     0.900000E-01   1.00800           0
      5382 MEMB     43       PMPE     H15Y     HAL2     0.900000E-01   1.00800           0
      5383 MEMB     43       PMPE     C316     CTL3    -0.270000       12.0110           0
      5384 MEMB     43       PMPE     H16X     HAL3     0.900000E-01   1.00800           0
      5385 MEMB     43       PMPE     H16Y     HAL3     0.900000E-01   1.00800           0
      5386 MEMB     43       PMPE     H16Z     HAL3     0.900000E-01   1.00800           0
      5387 MEMB     44       QMPE     N        NH3L    -0.300000       14.0070           0
      5388 MEMB     44       QMPE     HN1      HCL      0.330000       1.00800           0
      5389 MEMB     44       QMPE     HN2      HCL      0.330000       1.00800           0
      5390 MEMB     44       QMPE     HN3      HCL      0.330000       1.00800           0
      5391 MEMB     44       QMPE     C12      CTL2     0.130000       12.0110           0
      5392 MEMB     44       QMPE     H12A     HAL2     0.900000E-01   1.00800           0
      5393 MEMB     44       QMPE     H12B     HAL2     0.900000E-01   1.00800           0
      5394 MEMB     44       QMPE     C11      CTL2    -0.800000E-01   12.0110           0
      5395 MEMB     44       QMPE     H11A     HAL2     0.900000E-01   1.00800           0
      5396 MEMB     44       QMPE     H11B     HAL2     0.900000E-01   1.00800           0
      5397 MEMB     44       QMPE     P        PL        1.50000       30.9740           0
      5398 MEMB     44       QMPE     O13      O2L     -0.780000       15.9994           0
      5399 MEMB     44       QMPE     O14      O2L     -0.780000       15.9994           0
      5400 MEMB     44       QMPE     O11      OSLP    -0.570000       15.9994           0
      5401 MEMB     44       QMPE     O12      OSLP    -0.570000       15.9994           0
      5402 MEMB     44       QMPE     C1       CTL2    -0.800000E-01   12.0110           0
      5403 MEMB     44       QMPE     HA       HAL2     0.900000E-01   1.00800           0
      5404 MEMB     44       QMPE     HB       HAL2     0.900000E-01   1.00800           0
      5405 MEMB     44       QMPE     C2       CTL1     0.170000       12.0110           0
      5406 MEMB     44       QMPE     HS       HAL1     0.900000E-01   1.00800           0
      5407 MEMB     44       QMPE     O21      OSL     -0.490000       15.9994           0
      5408 MEMB     44       QMPE     C21      CL       0.900000       12.0110           0
      5409 MEMB     44       QMPE     O22      OBL     -0.630000       15.9994           0
      5410 MEMB     44       QMPE     C22      CTL2    -0.220000       12.0110           0
      5411 MEMB     44       QMPE     H2R      HAL2     0.900000E-01   1.00800           0
      5412 MEMB     44       QMPE     H2S      HAL2     0.900000E-01   1.00800           0
      5413 MEMB     44       QMPE     C3       CTL2     0.800000E-01   12.0110           0
      5414 MEMB     44       QMPE     HX       HAL2     0.900000E-01   1.00800           0
      5415 MEMB     44       QMPE     HY       HAL2     0.900000E-01   1.00800           0
      5416 MEMB     44       QMPE     O31      OSL     -0.490000       15.9994           0
      5417 MEMB     44       QMPE     C31      CL       0.900000       12.0110           0
      5418 MEMB     44       QMPE     O32      OBL     -0.630000       15.9994           0
      5419 MEMB     44       QMPE     C32      CTL2    -0.220000       12.0110           0
      5420 MEMB     44       QMPE     H2X      HAL2     0.900000E-01   1.00800           0
      5421 MEMB     44       QMPE     H2Y      HAL2     0.900000E-01   1.00800           0
      5422 MEMB     44       QMPE     C23      CTL2    -0.180000       12.0110           0
      5423 MEMB     44       QMPE     H3R      HAL2     0.900000E-01   1.00800           0
      5424 MEMB     44       QMPE     H3S      HAL2     0.900000E-01   1.00800           0
      5425 MEMB     44       QMPE     C24      CTL2    -0.180000       12.0110           0
      5426 MEMB     44       QMPE     H4R      HAL2     0.900000E-01   1.00800           0
      5427 MEMB     44       QMPE     H4S      HAL2     0.900000E-01   1.00800           0
      5428 MEMB     44       QMPE     C25      CTL2    -0.180000       12.0110           0
      5429 MEMB     44       QMPE     H5R      HAL2     0.900000E-01   1.00800           0
      5430 MEMB     44       QMPE     H5S      HAL2     0.900000E-01   1.00800           0
      5431 MEMB     44       QMPE     C26      CTL2    -0.180000       12.0110           0
      5432 MEMB     44       QMPE     H6R      HAL2     0.900000E-01   1.00800           0
      5433 MEMB     44       QMPE     H6S      HAL2     0.900000E-01   1.00800           0
      5434 MEMB     44       QMPE     C27      CTL2    -0.180000       12.0110           0
      5435 MEMB     44       QMPE     H7R      HAL2     0.900000E-01   1.00800           0
      5436 MEMB     44       QMPE     H7S      HAL2     0.900000E-01   1.00800           0
      5437 MEMB     44       QMPE     C28      CTL2    -0.180000       12.0110           0
      5438 MEMB     44       QMPE     H8R      HAL2     0.900000E-01   1.00800           0
      5439 MEMB     44       QMPE     H8S      HAL2     0.900000E-01   1.00800           0
      5440 MEMB     44       QMPE     C29      CG3RC1  -0.900000E-01   12.0110           0
      5441 MEMB     44       QMPE     H9R      HGA1     0.900000E-01   1.00800           0
      5442 MEMB     44       QMPE     C217     CG3C31  -0.180000       12.0110           0
      5443 MEMB     44       QMPE     H17R     HGA2     0.900000E-01   1.00800           0
      5444 MEMB     44       QMPE     H17S     HGA2     0.900000E-01   1.00800           0
      5445 MEMB     44       QMPE     C210     CG3RC1  -0.900000E-01   12.0110           0
      5446 MEMB     44       QMPE     H10R     HGA1     0.900000E-01   1.00800           0
      5447 MEMB     44       QMPE     C211     CTL2    -0.180000       12.0110           0
      5448 MEMB     44       QMPE     H11R     HAL2     0.900000E-01   1.00800           0
      5449 MEMB     44       QMPE     H11S     HAL2     0.900000E-01   1.00800           0
      5450 MEMB     44       QMPE     C212     CTL2    -0.180000       12.0110           0
      5451 MEMB     44       QMPE     H12R     HAL2     0.900000E-01   1.00800           0
      5452 MEMB     44       QMPE     H12S     HAL2     0.900000E-01   1.00800           0
      5453 MEMB     44       QMPE     C213     CTL2    -0.180000       12.0110           0
      5454 MEMB     44       QMPE     H13R     HAL2     0.900000E-01   1.00800           0
      5455 MEMB     44       QMPE     H13S     HAL2     0.900000E-01   1.00800           0
      5456 MEMB     44       QMPE     C214     CTL2    -0.180000       12.0110           0
      5457 MEMB     44       QMPE     H14R     HAL2     0.900000E-01   1.00800           0
      5458 MEMB     44       QMPE     H14S     HAL2     0.900000E-01   1.00800           0
      5459 MEMB     44       QMPE     C215     CTL2    -0.180000       12.0110           0
      5460 MEMB     44       QMPE     H15R     HAL2     0.900000E-01   1.00800           0
      5461 MEMB     44       QMPE     H15S     HAL2     0.900000E-01   1.00800           0
      5462 MEMB     44       QMPE     C216     CTL3    -0.270000       12.0110           0
      5463 MEMB     44       QMPE     H16R     HAL3     0.900000E-01   1.00800           0
      5464 MEMB     44       QMPE     H16S     HAL3     0.900000E-01   1.00800           0
      5465 MEMB     44       QMPE     H16T     HAL3     0.900000E-01   1.00800           0
      5466 MEMB     44       QMPE     C33      CTL2    -0.180000       12.0110           0
      5467 MEMB     44       QMPE     H3X      HAL2     0.900000E-01   1.00800           0
      5468 MEMB     44       QMPE     H3Y      HAL2     0.900000E-01   1.00800           0
      5469 MEMB     44       QMPE     C34      CTL2    -0.180000       12.0110           0
      5470 MEMB     44       QMPE     H4X      HAL2     0.900000E-01   1.00800           0
      5471 MEMB     44       QMPE     H4Y      HAL2     0.900000E-01   1.00800           0
      5472 MEMB     44       QMPE     C35      CTL2    -0.180000       12.0110           0
      5473 MEMB     44       QMPE     H5X      HAL2     0.900000E-01   1.00800           0
      5474 MEMB     44       QMPE     H5Y      HAL2     0.900000E-01   1.00800           0
      5475 MEMB     44       QMPE     C36      CTL2    -0.180000       12.0110           0
      5476 MEMB     44       QMPE     H6X      HAL2     0.900000E-01   1.00800           0
      5477 MEMB     44       QMPE     H6Y      HAL2     0.900000E-01   1.00800           0
      5478 MEMB     44       QMPE     C37      CTL2    -0.180000       12.0110           0
      5479 MEMB     44       QMPE     H7X      HAL2     0.900000E-01   1.00800           0
      5480 MEMB     44       QMPE     H7Y      HAL2     0.900000E-01   1.00800           0
      5481 MEMB     44       QMPE     C38      CTL2    -0.180000       12.0110           0
      5482 MEMB     44       QMPE     H8X      HAL2     0.900000E-01   1.00800           0
      5483 MEMB     44       QMPE     H8Y      HAL2     0.900000E-01   1.00800           0
      5484 MEMB     44       QMPE     C39      CTL2    -0.180000       12.0110           0
      5485 MEMB     44       QMPE     H9X      HAL2     0.900000E-01   1.00800           0
      5486 MEMB     44       QMPE     H9Y      HAL2     0.900000E-01   1.00800           0
      5487 MEMB     44       QMPE     C310     CTL2    -0.180000       12.0110           0
      5488 MEMB     44       QMPE     H10X     HAL2     0.900000E-01   1.00800           0
      5489 MEMB     44       QMPE     H10Y     HAL2     0.900000E-01   1.00800           0
      5490 MEMB     44       QMPE     C311     CTL2    -0.180000       12.0110           0
      5491 MEMB     44       QMPE     H11X     HAL2     0.900000E-01   1.00800           0
      5492 MEMB     44       QMPE     H11Y     HAL2     0.900000E-01   1.00800           0
      5493 MEMB     44       QMPE     C312     CTL2    -0.180000       12.0110           0
      5494 MEMB     44       QMPE     H12X     HAL2     0.900000E-01   1.00800           0
      5495 MEMB     44       QMPE     H12Y     HAL2     0.900000E-01   1.00800           0
      5496 MEMB     44       QMPE     C313     CTL2    -0.180000       12.0110           0
      5497 MEMB     44       QMPE     H13X     HAL2     0.900000E-01   1.00800           0
      5498 MEMB     44       QMPE     H13Y     HAL2     0.900000E-01   1.00800           0
      5499 MEMB     44       QMPE     C314     CTL2    -0.180000       12.0110           0
      5500 MEMB     44       QMPE     H14X     HAL2     0.900000E-01   1.00800           0
      5501 MEMB     44       QMPE     H14Y     HAL2     0.900000E-01   1.00800           0
      5502 MEMB     44       QMPE     C315     CTL3    -0.270000       12.0110           0
      5503 MEMB     44       QMPE     H15X     HAL3     0.900000E-01   1.00800           0
      5504 MEMB     44       QMPE     H15Y     HAL3     0.900000E-01   1.00800           0
      5505 MEMB     44       QMPE     H15Z     HAL3     0.900000E-01   1.00800           0
      5506 MEMB     45       PVCL2    C3       CTL2    -0.800000E-01   12.0110           0
      5507 MEMB     45       PVCL2    HG31     HAL2     0.900000E-01   1.00800           0
      5508 MEMB     45       PVCL2    HG32     HAL2     0.900000E-01   1.00800           0
      5509 MEMB     45       PVCL2    P3       PL        1.50000       30.9740           0
      5510 MEMB     45       PVCL2    OP33     O2L     -0.780000       15.9994           0
      5511 MEMB     45       PVCL2    OP34     O2L     -0.780000       15.9994           0
      5512 MEMB     45       PVCL2    OP31     OSLP    -0.570000       15.9994           0
      5513 MEMB     45       PVCL2    OP32     OSLP    -0.570000       15.9994           0
      5514 MEMB     45       PVCL2    C31      CTL2    -0.800000E-01   12.0110           0
      5515 MEMB     45       PVCL2    H31J     HAL2     0.900000E-01   1.00800           0
      5516 MEMB     45       PVCL2    H31K     HAL2     0.900000E-01   1.00800           0
      5517 MEMB     45       PVCL2    C2       CTL1     0.140000       12.0110           0
      5518 MEMB     45       PVCL2    HG22     HAL1     0.900000E-01   1.00800           0
      5519 MEMB     45       PVCL2    OG12     OHL     -0.650000       15.9994           0
      5520 MEMB     45       PVCL2    HO12     HOL      0.420000       1.00800           0
      5521 MEMB     45       PVCL2    C1       CTL2    -0.800000E-01   12.0110           0
      5522 MEMB     45       PVCL2    HG11     HAL2     0.900000E-01   1.00800           0
      5523 MEMB     45       PVCL2    HG12     HAL2     0.900000E-01   1.00800           0
      5524 MEMB     45       PVCL2    P1       PL        1.50000       30.9740           0
      5525 MEMB     45       PVCL2    OP13     O2L     -0.780000       15.9994           0
      5526 MEMB     45       PVCL2    OP14     O2L     -0.780000       15.9994           0
      5527 MEMB     45       PVCL2    OP11     OSLP    -0.570000       15.9994           0
      5528 MEMB     45       PVCL2    OP12     OSLP    -0.570000       15.9994           0
      5529 MEMB     45       PVCL2    C11      CTL2    -0.800000E-01   12.0110           0
      5530 MEMB     45       PVCL2    H11J     HAL2     0.900000E-01   1.00800           0
      5531 MEMB     45       PVCL2    H11K     HAL2     0.900000E-01   1.00800           0
      5532 MEMB     45       PVCL2    C12      CTL1     0.170000       12.0110           0
      5533 MEMB     45       PVCL2    H12J     HAL1     0.900000E-01   1.00800           0
      5534 MEMB     45       PVCL2    O12      OSL     -0.490000       15.9994           0
      5535 MEMB     45       PVCL2    CA1      CL       0.900000       12.0110           0
      5536 MEMB     45       PVCL2    OA1      OBL     -0.630000       15.9994           0
      5537 MEMB     45       PVCL2    CA2      CTL2    -0.220000       12.0110           0
      5538 MEMB     45       PVCL2    H2A      HAL2     0.900000E-01   1.00800           0
      5539 MEMB     45       PVCL2    H2B      HAL2     0.900000E-01   1.00800           0
      5540 MEMB     45       PVCL2    C13      CTL2     0.800000E-01   12.0110           0
      5541 MEMB     45       PVCL2    H13J     HAL2     0.900000E-01   1.00800           0
      5542 MEMB     45       PVCL2    H13K     HAL2     0.900000E-01   1.00800           0
      5543 MEMB     45       PVCL2    O13      OSL     -0.490000       15.9994           0
      5544 MEMB     45       PVCL2    CB1      CL       0.900000       12.0110           0
      5545 MEMB     45       PVCL2    OB1      OBL     -0.630000       15.9994           0
      5546 MEMB     45       PVCL2    CB2      CTL2    -0.220000       12.0110           0
      5547 MEMB     45       PVCL2    H2D      HAL2     0.900000E-01   1.00800           0
      5548 MEMB     45       PVCL2    H2E      HAL2     0.900000E-01   1.00800           0
      5549 MEMB     45       PVCL2    C32      CTL1     0.170000       12.0110           0
      5550 MEMB     45       PVCL2    H32J     HAL1     0.900000E-01   1.00800           0
      5551 MEMB     45       PVCL2    O32      OSL     -0.490000       15.9994           0
      5552 MEMB     45       PVCL2    CC1      CL       0.900000       12.0110           0
      5553 MEMB     45       PVCL2    OC1      OBL     -0.630000       15.9994           0
      5554 MEMB     45       PVCL2    CC2      CTL2    -0.220000       12.0110           0
      5555 MEMB     45       PVCL2    H2R      HAL2     0.900000E-01   1.00800           0
      5556 MEMB     45       PVCL2    H2S      HAL2     0.900000E-01   1.00800           0
      5557 MEMB     45       PVCL2    C33      CTL2     0.800000E-01   12.0110           0
      5558 MEMB     45       PVCL2    H33J     HAL2     0.900000E-01   1.00800           0
      5559 MEMB     45       PVCL2    H33K     HAL2     0.900000E-01   1.00800           0
      5560 MEMB     45       PVCL2    O33      OSL     -0.490000       15.9994           0
      5561 MEMB     45       PVCL2    CD1      CL       0.900000       12.0110           0
      5562 MEMB     45       PVCL2    OD1      OBL     -0.630000       15.9994           0
      5563 MEMB     45       PVCL2    CD2      CTL2    -0.220000       12.0110           0
      5564 MEMB     45       PVCL2    H2X      HAL2     0.900000E-01   1.00800           0
      5565 MEMB     45       PVCL2    H2Y      HAL2     0.900000E-01   1.00800           0
      5566 MEMB     45       PVCL2    CA3      CTL2    -0.180000       12.0110           0
      5567 MEMB     45       PVCL2    H3A      HAL2     0.900000E-01   1.00800           0
      5568 MEMB     45       PVCL2    H3B      HAL2     0.900000E-01   1.00800           0
      5569 MEMB     45       PVCL2    CA4      CTL2    -0.180000       12.0110           0
      5570 MEMB     45       PVCL2    H4A      HAL2     0.900000E-01   1.00800           0
      5571 MEMB     45       PVCL2    H4B      HAL2     0.900000E-01   1.00800           0
      5572 MEMB     45       PVCL2    CA5      CTL2    -0.180000       12.0110           0
      5573 MEMB     45       PVCL2    H5A      HAL2     0.900000E-01   1.00800           0
      5574 MEMB     45       PVCL2    H5B      HAL2     0.900000E-01   1.00800           0
      5575 MEMB     45       PVCL2    CA6      CTL2    -0.180000       12.0110           0
      5576 MEMB     45       PVCL2    H6A      HAL2     0.900000E-01   1.00800           0
      5577 MEMB     45       PVCL2    H6B      HAL2     0.900000E-01   1.00800           0
      5578 MEMB     45       PVCL2    CA7      CTL2    -0.180000       12.0110           0
      5579 MEMB     45       PVCL2    H7A      HAL2     0.900000E-01   1.00800           0
      5580 MEMB     45       PVCL2    H7B      HAL2     0.900000E-01   1.00800           0
      5581 MEMB     45       PVCL2    CA8      CTL2    -0.180000       12.0110           0
      5582 MEMB     45       PVCL2    H8A      HAL2     0.900000E-01   1.00800           0
      5583 MEMB     45       PVCL2    H8B      HAL2     0.900000E-01   1.00800           0
      5584 MEMB     45       PVCL2    CA9      CTL2    -0.180000       12.0110           0
      5585 MEMB     45       PVCL2    H9A      HAL2     0.900000E-01   1.00800           0
      5586 MEMB     45       PVCL2    H9B      HAL2     0.900000E-01   1.00800           0
      5587 MEMB     45       PVCL2    CA10     CTL2    -0.180000       12.0110           0
      5588 MEMB     45       PVCL2    H10A     HAL2     0.900000E-01   1.00800           0
      5589 MEMB     45       PVCL2    H10B     HAL2     0.900000E-01   1.00800           0
      5590 MEMB     45       PVCL2    CA11     CEL1    -0.150000       12.0110           0
      5591 MEMB     45       PVCL2    H11A     HEL1     0.150000       1.00800           0
      5592 MEMB     45       PVCL2    CA12     CEL1    -0.150000       12.0110           0
      5593 MEMB     45       PVCL2    H12A     HEL1     0.150000       1.00800           0
      5594 MEMB     45       PVCL2    CA13     CTL2    -0.180000       12.0110           0
      5595 MEMB     45       PVCL2    H13A     HAL2     0.900000E-01   1.00800           0
      5596 MEMB     45       PVCL2    H13B     HAL2     0.900000E-01   1.00800           0
      5597 MEMB     45       PVCL2    CA14     CTL2    -0.180000       12.0110           0
      5598 MEMB     45       PVCL2    H14A     HAL2     0.900000E-01   1.00800           0
      5599 MEMB     45       PVCL2    H14B     HAL2     0.900000E-01   1.00800           0
      5600 MEMB     45       PVCL2    CA15     CTL2    -0.180000       12.0110           0
      5601 MEMB     45       PVCL2    H15A     HAL2     0.900000E-01   1.00800           0
      5602 MEMB     45       PVCL2    H15B     HAL2     0.900000E-01   1.00800           0
      5603 MEMB     45       PVCL2    CA16     CTL2    -0.180000       12.0110           0
      5604 MEMB     45       PVCL2    H16A     HAL2     0.900000E-01   1.00800           0
      5605 MEMB     45       PVCL2    H16B     HAL2     0.900000E-01   1.00800           0
      5606 MEMB     45       PVCL2    CA17     CTL2    -0.180000       12.0110           0
      5607 MEMB     45       PVCL2    H17A     HAL2     0.900000E-01   1.00800           0
      5608 MEMB     45       PVCL2    H17B     HAL2     0.900000E-01   1.00800           0
      5609 MEMB     45       PVCL2    CA18     CTL3    -0.270000       12.0110           0
      5610 MEMB     45       PVCL2    H18A     HAL3     0.900000E-01   1.00800           0
      5611 MEMB     45       PVCL2    H18B     HAL3     0.900000E-01   1.00800           0
      5612 MEMB     45       PVCL2    H18C     HAL3     0.900000E-01   1.00800           0
      5613 MEMB     45       PVCL2    CB3      CTL2    -0.180000       12.0110           0
      5614 MEMB     45       PVCL2    H3D      HAL2     0.900000E-01   1.00800           0
      5615 MEMB     45       PVCL2    H3E      HAL2     0.900000E-01   1.00800           0
      5616 MEMB     45       PVCL2    CB4      CTL2    -0.180000       12.0110           0
      5617 MEMB     45       PVCL2    H4D      HAL2     0.900000E-01   1.00800           0
      5618 MEMB     45       PVCL2    H4E      HAL2     0.900000E-01   1.00800           0
      5619 MEMB     45       PVCL2    CB5      CTL2    -0.180000       12.0110           0
      5620 MEMB     45       PVCL2    H5D      HAL2     0.900000E-01   1.00800           0
      5621 MEMB     45       PVCL2    H5E      HAL2     0.900000E-01   1.00800           0
      5622 MEMB     45       PVCL2    CB6      CTL2    -0.180000       12.0110           0
      5623 MEMB     45       PVCL2    H6D      HAL2     0.900000E-01   1.00800           0
      5624 MEMB     45       PVCL2    H6E      HAL2     0.900000E-01   1.00800           0
      5625 MEMB     45       PVCL2    CB7      CTL2    -0.180000       12.0110           0
      5626 MEMB     45       PVCL2    H7D      HAL2     0.900000E-01   1.00800           0
      5627 MEMB     45       PVCL2    H7E      HAL2     0.900000E-01   1.00800           0
      5628 MEMB     45       PVCL2    CB8      CTL2    -0.180000       12.0110           0
      5629 MEMB     45       PVCL2    H8D      HAL2     0.900000E-01   1.00800           0
      5630 MEMB     45       PVCL2    H8E      HAL2     0.900000E-01   1.00800           0
      5631 MEMB     45       PVCL2    CB9      CTL2    -0.180000       12.0110           0
      5632 MEMB     45       PVCL2    H9D      HAL2     0.900000E-01   1.00800           0
      5633 MEMB     45       PVCL2    H9E      HAL2     0.900000E-01   1.00800           0
      5634 MEMB     45       PVCL2    CB10     CTL2    -0.180000       12.0110           0
      5635 MEMB     45       PVCL2    H10D     HAL2     0.900000E-01   1.00800           0
      5636 MEMB     45       PVCL2    H10E     HAL2     0.900000E-01   1.00800           0
      5637 MEMB     45       PVCL2    CB11     CTL2    -0.180000       12.0110           0
      5638 MEMB     45       PVCL2    H11D     HAL2     0.900000E-01   1.00800           0
      5639 MEMB     45       PVCL2    H11E     HAL2     0.900000E-01   1.00800           0
      5640 MEMB     45       PVCL2    CB12     CTL2    -0.180000       12.0110           0
      5641 MEMB     45       PVCL2    H12D     HAL2     0.900000E-01   1.00800           0
      5642 MEMB     45       PVCL2    H12E     HAL2     0.900000E-01   1.00800           0
      5643 MEMB     45       PVCL2    CB13     CTL2    -0.180000       12.0110           0
      5644 MEMB     45       PVCL2    H13D     HAL2     0.900000E-01   1.00800           0
      5645 MEMB     45       PVCL2    H13E     HAL2     0.900000E-01   1.00800           0
      5646 MEMB     45       PVCL2    CB14     CTL2    -0.180000       12.0110           0
      5647 MEMB     45       PVCL2    H14D     HAL2     0.900000E-01   1.00800           0
      5648 MEMB     45       PVCL2    H14E     HAL2     0.900000E-01   1.00800           0
      5649 MEMB     45       PVCL2    CB15     CTL2    -0.180000       12.0110           0
      5650 MEMB     45       PVCL2    H15D     HAL2     0.900000E-01   1.00800           0
      5651 MEMB     45       PVCL2    H15E     HAL2     0.900000E-01   1.00800           0
      5652 MEMB     45       PVCL2    CB16     CTL3    -0.270000       12.0110           0
      5653 MEMB     45       PVCL2    H16D     HAL3     0.900000E-01   1.00800           0
      5654 MEMB     45       PVCL2    H16E     HAL3     0.900000E-01   1.00800           0
      5655 MEMB     45       PVCL2    H16F     HAL3     0.900000E-01   1.00800           0
      5656 MEMB     45       PVCL2    CC3      CTL2    -0.180000       12.0110           0
      5657 MEMB     45       PVCL2    H3R      HAL2     0.900000E-01   1.00800           0
      5658 MEMB     45       PVCL2    H3S      HAL2     0.900000E-01   1.00800           0
      5659 MEMB     45       PVCL2    CC4      CTL2    -0.180000       12.0110           0
      5660 MEMB     45       PVCL2    H4R      HAL2     0.900000E-01   1.00800           0
      5661 MEMB     45       PVCL2    H4S      HAL2     0.900000E-01   1.00800           0
      5662 MEMB     45       PVCL2    CC5      CTL2    -0.180000       12.0110           0
      5663 MEMB     45       PVCL2    H5R      HAL2     0.900000E-01   1.00800           0
      5664 MEMB     45       PVCL2    H5S      HAL2     0.900000E-01   1.00800           0
      5665 MEMB     45       PVCL2    CC6      CTL2    -0.180000       12.0110           0
      5666 MEMB     45       PVCL2    H6R      HAL2     0.900000E-01   1.00800           0
      5667 MEMB     45       PVCL2    H6S      HAL2     0.900000E-01   1.00800           0
      5668 MEMB     45       PVCL2    CC7      CTL2    -0.180000       12.0110           0
      5669 MEMB     45       PVCL2    H7R      HAL2     0.900000E-01   1.00800           0
      5670 MEMB     45       PVCL2    H7S      HAL2     0.900000E-01   1.00800           0
      5671 MEMB     45       PVCL2    CC8      CTL2    -0.180000       12.0110           0
      5672 MEMB     45       PVCL2    H8R      HAL2     0.900000E-01   1.00800           0
      5673 MEMB     45       PVCL2    H8S      HAL2     0.900000E-01   1.00800           0
      5674 MEMB     45       PVCL2    CC9      CTL2    -0.180000       12.0110           0
      5675 MEMB     45       PVCL2    H9R      HAL2     0.900000E-01   1.00800           0
      5676 MEMB     45       PVCL2    H9S      HAL2     0.900000E-01   1.00800           0
      5677 MEMB     45       PVCL2    CC10     CTL2    -0.180000       12.0110           0
      5678 MEMB     45       PVCL2    H10R     HAL2     0.900000E-01   1.00800           0
      5679 MEMB     45       PVCL2    H10S     HAL2     0.900000E-01   1.00800           0
      5680 MEMB     45       PVCL2    CC11     CEL1    -0.150000       12.0110           0
      5681 MEMB     45       PVCL2    H11R     HEL1     0.150000       1.00800           0
      5682 MEMB     45       PVCL2    CC12     CEL1    -0.150000       12.0110           0
      5683 MEMB     45       PVCL2    H12R     HEL1     0.150000       1.00800           0
      5684 MEMB     45       PVCL2    CC13     CTL2    -0.180000       12.0110           0
      5685 MEMB     45       PVCL2    H13R     HAL2     0.900000E-01   1.00800           0
      5686 MEMB     45       PVCL2    H13S     HAL2     0.900000E-01   1.00800           0
      5687 MEMB     45       PVCL2    CC14     CTL2    -0.180000       12.0110           0
      5688 MEMB     45       PVCL2    H14R     HAL2     0.900000E-01   1.00800           0
      5689 MEMB     45       PVCL2    H14S     HAL2     0.900000E-01   1.00800           0
      5690 MEMB     45       PVCL2    CC15     CTL2    -0.180000       12.0110           0
      5691 MEMB     45       PVCL2    H15R     HAL2     0.900000E-01   1.00800           0
      5692 MEMB     45       PVCL2    H15S     HAL2     0.900000E-01   1.00800           0
      5693 MEMB     45       PVCL2    CC16     CTL2    -0.180000       12.0110           0
      5694 MEMB     45       PVCL2    H16R     HAL2     0.900000E-01   1.00800           0
      5695 MEMB     45       PVCL2    H16S     HAL2     0.900000E-01   1.00800           0
      5696 MEMB     45       PVCL2    CC17     CTL2    -0.180000       12.0110           0
      5697 MEMB     45       PVCL2    H17R     HAL2     0.900000E-01   1.00800           0
      5698 MEMB     45       PVCL2    H17S     HAL2     0.900000E-01   1.00800           0
      5699 MEMB     45       PVCL2    CC18     CTL3    -0.270000       12.0110           0
      5700 MEMB     45       PVCL2    H18R     HAL3     0.900000E-01   1.00800           0
      5701 MEMB     45       PVCL2    H18S     HAL3     0.900000E-01   1.00800           0
      5702 MEMB     45       PVCL2    H18T     HAL3     0.900000E-01   1.00800           0
      5703 MEMB     45       PVCL2    CD3      CTL2    -0.180000       12.0110           0
      5704 MEMB     45       PVCL2    H3X      HAL2     0.900000E-01   1.00800           0
      5705 MEMB     45       PVCL2    H3Y      HAL2     0.900000E-01   1.00800           0
      5706 MEMB     45       PVCL2    CD4      CTL2    -0.180000       12.0110           0
      5707 MEMB     45       PVCL2    H4X      HAL2     0.900000E-01   1.00800           0
      5708 MEMB     45       PVCL2    H4Y      HAL2     0.900000E-01   1.00800           0
      5709 MEMB     45       PVCL2    CD5      CTL2    -0.180000       12.0110           0
      5710 MEMB     45       PVCL2    H5X      HAL2     0.900000E-01   1.00800           0
      5711 MEMB     45       PVCL2    H5Y      HAL2     0.900000E-01   1.00800           0
      5712 MEMB     45       PVCL2    CD6      CTL2    -0.180000       12.0110           0
      5713 MEMB     45       PVCL2    H6X      HAL2     0.900000E-01   1.00800           0
      5714 MEMB     45       PVCL2    H6Y      HAL2     0.900000E-01   1.00800           0
      5715 MEMB     45       PVCL2    CD7      CTL2    -0.180000       12.0110           0
      5716 MEMB     45       PVCL2    H7X      HAL2     0.900000E-01   1.00800           0
      5717 MEMB     45       PVCL2    H7Y      HAL2     0.900000E-01   1.00800           0
      5718 MEMB     45       PVCL2    CD8      CTL2    -0.180000       12.0110           0
      5719 MEMB     45       PVCL2    H8X      HAL2     0.900000E-01   1.00800           0
      5720 MEMB     45       PVCL2    H8Y      HAL2     0.900000E-01   1.00800           0
      5721 MEMB     45       PVCL2    CD9      CTL2    -0.180000       12.0110           0
      5722 MEMB     45       PVCL2    H9X      HAL2     0.900000E-01   1.00800           0
      5723 MEMB     45       PVCL2    H9Y      HAL2     0.900000E-01   1.00800           0
      5724 MEMB     45       PVCL2    CD10     CTL2    -0.180000       12.0110           0
      5725 MEMB     45       PVCL2    H10X     HAL2     0.900000E-01   1.00800           0
      5726 MEMB     45       PVCL2    H10Y     HAL2     0.900000E-01   1.00800           0
      5727 MEMB     45       PVCL2    CD11     CTL2    -0.180000       12.0110           0
      5728 MEMB     45       PVCL2    H11X     HAL2     0.900000E-01   1.00800           0
      5729 MEMB     45       PVCL2    H11Y     HAL2     0.900000E-01   1.00800           0
      5730 MEMB     45       PVCL2    CD12     CTL2    -0.180000       12.0110           0
      5731 MEMB     45       PVCL2    H12X     HAL2     0.900000E-01   1.00800           0
      5732 MEMB     45       PVCL2    H12Y     HAL2     0.900000E-01   1.00800           0
      5733 MEMB     45       PVCL2    CD13     CTL2    -0.180000       12.0110           0
      5734 MEMB     45       PVCL2    H13X     HAL2     0.900000E-01   1.00800           0
      5735 MEMB     45       PVCL2    H13Y     HAL2     0.900000E-01   1.00800           0
      5736 MEMB     45       PVCL2    CD14     CTL2    -0.180000       12.0110           0
      5737 MEMB     45       PVCL2    H14X     HAL2     0.900000E-01   1.00800           0
      5738 MEMB     45       PVCL2    H14Y     HAL2     0.900000E-01   1.00800           0
      5739 MEMB     45       PVCL2    CD15     CTL2    -0.180000       12.0110           0
      5740 MEMB     45       PVCL2    H15X     HAL2     0.900000E-01   1.00800           0
      5741 MEMB     45       PVCL2    H15Y     HAL2     0.900000E-01   1.00800           0
      5742 MEMB     45       PVCL2    CD16     CTL3    -0.270000       12.0110           0
      5743 MEMB     45       PVCL2    H16X     HAL3     0.900000E-01   1.00800           0
      5744 MEMB     45       PVCL2    H16Y     HAL3     0.900000E-01   1.00800           0
      5745 MEMB     45       PVCL2    H16Z     HAL3     0.900000E-01   1.00800           0
      5746 MEMB     46       PMPE     N        NH3L    -0.300000       14.0070           0
      5747 MEMB     46       PMPE     HN1      HCL      0.330000       1.00800           0
      5748 MEMB     46       PMPE     HN2      HCL      0.330000       1.00800           0
      5749 MEMB     46       PMPE     HN3      HCL      0.330000       1.00800           0
      5750 MEMB     46       PMPE     C12      CTL2     0.130000       12.0110           0
      5751 MEMB     46       PMPE     H12A     HAL2     0.900000E-01   1.00800           0
      5752 MEMB     46       PMPE     H12B     HAL2     0.900000E-01   1.00800           0
      5753 MEMB     46       PMPE     C11      CTL2    -0.800000E-01   12.0110           0
      5754 MEMB     46       PMPE     H11A     HAL2     0.900000E-01   1.00800           0
      5755 MEMB     46       PMPE     H11B     HAL2     0.900000E-01   1.00800           0
      5756 MEMB     46       PMPE     P        PL        1.50000       30.9740           0
      5757 MEMB     46       PMPE     O13      O2L     -0.780000       15.9994           0
      5758 MEMB     46       PMPE     O14      O2L     -0.780000       15.9994           0
      5759 MEMB     46       PMPE     O11      OSLP    -0.570000       15.9994           0
      5760 MEMB     46       PMPE     O12      OSLP    -0.570000       15.9994           0
      5761 MEMB     46       PMPE     C1       CTL2    -0.800000E-01   12.0110           0
      5762 MEMB     46       PMPE     HA       HAL2     0.900000E-01   1.00800           0
      5763 MEMB     46       PMPE     HB       HAL2     0.900000E-01   1.00800           0
      5764 MEMB     46       PMPE     C2       CTL1     0.170000       12.0110           0
      5765 MEMB     46       PMPE     HS       HAL1     0.900000E-01   1.00800           0
      5766 MEMB     46       PMPE     O21      OSL     -0.490000       15.9994           0
      5767 MEMB     46       PMPE     C21      CL       0.900000       12.0110           0
      5768 MEMB     46       PMPE     O22      OBL     -0.630000       15.9994           0
      5769 MEMB     46       PMPE     C22      CTL2    -0.220000       12.0110           0
      5770 MEMB     46       PMPE     H2R      HAL2     0.900000E-01   1.00800           0
      5771 MEMB     46       PMPE     H2S      HAL2     0.900000E-01   1.00800           0
      5772 MEMB     46       PMPE     C3       CTL2     0.800000E-01   12.0110           0
      5773 MEMB     46       PMPE     HX       HAL2     0.900000E-01   1.00800           0
      5774 MEMB     46       PMPE     HY       HAL2     0.900000E-01   1.00800           0
      5775 MEMB     46       PMPE     O31      OSL     -0.490000       15.9994           0
      5776 MEMB     46       PMPE     C31      CL       0.900000       12.0110           0
      5777 MEMB     46       PMPE     O32      OBL     -0.630000       15.9994           0
      5778 MEMB     46       PMPE     C32      CTL2    -0.220000       12.0110           0
      5779 MEMB     46       PMPE     H2X      HAL2     0.900000E-01   1.00800           0
      5780 MEMB     46       PMPE     H2Y      HAL2     0.900000E-01   1.00800           0
      5781 MEMB     46       PMPE     C23      CTL2    -0.180000       12.0110           0
      5782 MEMB     46       PMPE     H3R      HAL2     0.900000E-01   1.00800           0
      5783 MEMB     46       PMPE     H3S      HAL2     0.900000E-01   1.00800           0
      5784 MEMB     46       PMPE     C24      CTL2    -0.180000       12.0110           0
      5785 MEMB     46       PMPE     H4R      HAL2     0.900000E-01   1.00800           0
      5786 MEMB     46       PMPE     H4S      HAL2     0.900000E-01   1.00800           0
      5787 MEMB     46       PMPE     C25      CTL2    -0.180000       12.0110           0
      5788 MEMB     46       PMPE     H5R      HAL2     0.900000E-01   1.00800           0
      5789 MEMB     46       PMPE     H5S      HAL2     0.900000E-01   1.00800           0
      5790 MEMB     46       PMPE     C26      CTL2    -0.180000       12.0110           0
      5791 MEMB     46       PMPE     H6R      HAL2     0.900000E-01   1.00800           0
      5792 MEMB     46       PMPE     H6S      HAL2     0.900000E-01   1.00800           0
      5793 MEMB     46       PMPE     C27      CTL2    -0.180000       12.0110           0
      5794 MEMB     46       PMPE     H7R      HAL2     0.900000E-01   1.00800           0
      5795 MEMB     46       PMPE     H7S      HAL2     0.900000E-01   1.00800           0
      5796 MEMB     46       PMPE     C28      CTL2    -0.180000       12.0110           0
      5797 MEMB     46       PMPE     H8R      HAL2     0.900000E-01   1.00800           0
      5798 MEMB     46       PMPE     H8S      HAL2     0.900000E-01   1.00800           0
      5799 MEMB     46       PMPE     C29      CG3RC1  -0.900000E-01   12.0110           0
      5800 MEMB     46       PMPE     H9R      HGA1     0.900000E-01   1.00800           0
      5801 MEMB     46       PMPE     C217     CG3C31  -0.180000       12.0110           0
      5802 MEMB     46       PMPE     H17R     HGA2     0.900000E-01   1.00800           0
      5803 MEMB     46       PMPE     H17S     HGA2     0.900000E-01   1.00800           0
      5804 MEMB     46       PMPE     C210     CG3RC1  -0.900000E-01   12.0110           0
      5805 MEMB     46       PMPE     H10R     HGA1     0.900000E-01   1.00800           0
      5806 MEMB     46       PMPE     C211     CTL2    -0.180000       12.0110           0
      5807 MEMB     46       PMPE     H11R     HAL2     0.900000E-01   1.00800           0
      5808 MEMB     46       PMPE     H11S     HAL2     0.900000E-01   1.00800           0
      5809 MEMB     46       PMPE     C212     CTL2    -0.180000       12.0110           0
      5810 MEMB     46       PMPE     H12R     HAL2     0.900000E-01   1.00800           0
      5811 MEMB     46       PMPE     H12S     HAL2     0.900000E-01   1.00800           0
      5812 MEMB     46       PMPE     C213     CTL2    -0.180000       12.0110           0
      5813 MEMB     46       PMPE     H13R     HAL2     0.900000E-01   1.00800           0
      5814 MEMB     46       PMPE     H13S     HAL2     0.900000E-01   1.00800           0
      5815 MEMB     46       PMPE     C214     CTL2    -0.180000       12.0110           0
      5816 MEMB     46       PMPE     H14R     HAL2     0.900000E-01   1.00800           0
      5817 MEMB     46       PMPE     H14S     HAL2     0.900000E-01   1.00800           0
      5818 MEMB     46       PMPE     C215     CTL2    -0.180000       12.0110           0
      5819 MEMB     46       PMPE     H15R     HAL2     0.900000E-01   1.00800           0
      5820 MEMB     46       PMPE     H15S     HAL2     0.900000E-01   1.00800           0
      5821 MEMB     46       PMPE     C216     CTL3    -0.270000       12.0110           0
      5822 MEMB     46       PMPE     H16R     HAL3     0.900000E-01   1.00800           0
      5823 MEMB     46       PMPE     H16S     HAL3     0.900000E-01   1.00800           0
      5824 MEMB     46       PMPE     H16T     HAL3     0.900000E-01   1.00800           0
      5825 MEMB     46       PMPE     C33      CTL2    -0.180000       12.0110           0
      5826 MEMB     46       PMPE     H3X      HAL2     0.900000E-01   1.00800           0
      5827 MEMB     46       PMPE     H3Y      HAL2     0.900000E-01   1.00800           0
      5828 MEMB     46       PMPE     C34      CTL2    -0.180000       12.0110           0
      5829 MEMB     46       PMPE     H4X      HAL2     0.900000E-01   1.00800           0
      5830 MEMB     46       PMPE     H4Y      HAL2     0.900000E-01   1.00800           0
      5831 MEMB     46       PMPE     C35      CTL2    -0.180000       12.0110           0
      5832 MEMB     46       PMPE     H5X      HAL2     0.900000E-01   1.00800           0
      5833 MEMB     46       PMPE     H5Y      HAL2     0.900000E-01   1.00800           0
      5834 MEMB     46       PMPE     C36      CTL2    -0.180000       12.0110           0
      5835 MEMB     46       PMPE     H6X      HAL2     0.900000E-01   1.00800           0
      5836 MEMB     46       PMPE     H6Y      HAL2     0.900000E-01   1.00800           0
      5837 MEMB     46       PMPE     C37      CTL2    -0.180000       12.0110           0
      5838 MEMB     46       PMPE     H7X      HAL2     0.900000E-01   1.00800           0
      5839 MEMB     46       PMPE     H7Y      HAL2     0.900000E-01   1.00800           0
      5840 MEMB     46       PMPE     C38      CTL2    -0.180000       12.0110           0
      5841 MEMB     46       PMPE     H8X      HAL2     0.900000E-01   1.00800           0
      5842 MEMB     46       PMPE     H8Y      HAL2     0.900000E-01   1.00800           0
      5843 MEMB     46       PMPE     C39      CTL2    -0.180000       12.0110           0
      5844 MEMB     46       PMPE     H9X      HAL2     0.900000E-01   1.00800           0
      5845 MEMB     46       PMPE     H9Y      HAL2     0.900000E-01   1.00800           0
      5846 MEMB     46       PMPE     C310     CTL2    -0.180000       12.0110           0
      5847 MEMB     46       PMPE     H10X     HAL2     0.900000E-01   1.00800           0
      5848 MEMB     46       PMPE     H10Y     HAL2     0.900000E-01   1.00800           0
      5849 MEMB     46       PMPE     C311     CTL2    -0.180000       12.0110           0
      5850 MEMB     46       PMPE     H11X     HAL2     0.900000E-01   1.00800           0
      5851 MEMB     46       PMPE     H11Y     HAL2     0.900000E-01   1.00800           0
      5852 MEMB     46       PMPE     C312     CTL2    -0.180000       12.0110           0
      5853 MEMB     46       PMPE     H12X     HAL2     0.900000E-01   1.00800           0
      5854 MEMB     46       PMPE     H12Y     HAL2     0.900000E-01   1.00800           0
      5855 MEMB     46       PMPE     C313     CTL2    -0.180000       12.0110           0
      5856 MEMB     46       PMPE     H13X     HAL2     0.900000E-01   1.00800           0
      5857 MEMB     46       PMPE     H13Y     HAL2     0.900000E-01   1.00800           0
      5858 MEMB     46       PMPE     C314     CTL2    -0.180000       12.0110           0
      5859 MEMB     46       PMPE     H14X     HAL2     0.900000E-01   1.00800           0
      5860 MEMB     46       PMPE     H14Y     HAL2     0.900000E-01   1.00800           0
      5861 MEMB     46       PMPE     C315     CTL2    -0.180000       12.0110           0
      5862 MEMB     46       PMPE     H15X     HAL2     0.900000E-01   1.00800           0
      5863 MEMB     46       PMPE     H15Y     HAL2     0.900000E-01   1.00800           0
      5864 MEMB     46       PMPE     C316     CTL3    -0.270000       12.0110           0
      5865 MEMB     46       PMPE     H16X     HAL3     0.900000E-01   1.00800           0
      5866 MEMB     46       PMPE     H16Y     HAL3     0.900000E-01   1.00800           0
      5867 MEMB     46       PMPE     H16Z     HAL3     0.900000E-01   1.00800           0
      5868 MEMB     47       PMPE     N        NH3L    -0.300000       14.0070           0
      5869 MEMB     47       PMPE     HN1      HCL      0.330000       1.00800           0
      5870 MEMB     47       PMPE     HN2      HCL      0.330000       1.00800           0
      5871 MEMB     47       PMPE     HN3      HCL      0.330000       1.00800           0
      5872 MEMB     47       PMPE     C12      CTL2     0.130000       12.0110           0
      5873 MEMB     47       PMPE     H12A     HAL2     0.900000E-01   1.00800           0
      5874 MEMB     47       PMPE     H12B     HAL2     0.900000E-01   1.00800           0
      5875 MEMB     47       PMPE     C11      CTL2    -0.800000E-01   12.0110           0
      5876 MEMB     47       PMPE     H11A     HAL2     0.900000E-01   1.00800           0
      5877 MEMB     47       PMPE     H11B     HAL2     0.900000E-01   1.00800           0
      5878 MEMB     47       PMPE     P        PL        1.50000       30.9740           0
      5879 MEMB     47       PMPE     O13      O2L     -0.780000       15.9994           0
      5880 MEMB     47       PMPE     O14      O2L     -0.780000       15.9994           0
      5881 MEMB     47       PMPE     O11      OSLP    -0.570000       15.9994           0
      5882 MEMB     47       PMPE     O12      OSLP    -0.570000       15.9994           0
      5883 MEMB     47       PMPE     C1       CTL2    -0.800000E-01   12.0110           0
      5884 MEMB     47       PMPE     HA       HAL2     0.900000E-01   1.00800           0
      5885 MEMB     47       PMPE     HB       HAL2     0.900000E-01   1.00800           0
      5886 MEMB     47       PMPE     C2       CTL1     0.170000       12.0110           0
      5887 MEMB     47       PMPE     HS       HAL1     0.900000E-01   1.00800           0
      5888 MEMB     47       PMPE     O21      OSL     -0.490000       15.9994           0
      5889 MEMB     47       PMPE     C21      CL       0.900000       12.0110           0
      5890 MEMB     47       PMPE     O22      OBL     -0.630000       15.9994           0
      5891 MEMB     47       PMPE     C22      CTL2    -0.220000       12.0110           0
      5892 MEMB     47       PMPE     H2R      HAL2     0.900000E-01   1.00800           0
      5893 MEMB     47       PMPE     H2S      HAL2     0.900000E-01   1.00800           0
      5894 MEMB     47       PMPE     C3       CTL2     0.800000E-01   12.0110           0
      5895 MEMB     47       PMPE     HX       HAL2     0.900000E-01   1.00800           0
      5896 MEMB     47       PMPE     HY       HAL2     0.900000E-01   1.00800           0
      5897 MEMB     47       PMPE     O31      OSL     -0.490000       15.9994           0
      5898 MEMB     47       PMPE     C31      CL       0.900000       12.0110           0
      5899 MEMB     47       PMPE     O32      OBL     -0.630000       15.9994           0
      5900 MEMB     47       PMPE     C32      CTL2    -0.220000       12.0110           0
      5901 MEMB     47       PMPE     H2X      HAL2     0.900000E-01   1.00800           0
      5902 MEMB     47       PMPE     H2Y      HAL2     0.900000E-01   1.00800           0
      5903 MEMB     47       PMPE     C23      CTL2    -0.180000       12.0110           0
      5904 MEMB     47       PMPE     H3R      HAL2     0.900000E-01   1.00800           0
      5905 MEMB     47       PMPE     H3S      HAL2     0.900000E-01   1.00800           0
      5906 MEMB     47       PMPE     C24      CTL2    -0.180000       12.0110           0
      5907 MEMB     47       PMPE     H4R      HAL2     0.900000E-01   1.00800           0
      5908 MEMB     47       PMPE     H4S      HAL2     0.900000E-01   1.00800           0
      5909 MEMB     47       PMPE     C25      CTL2    -0.180000       12.0110           0
      5910 MEMB     47       PMPE     H5R      HAL2     0.900000E-01   1.00800           0
      5911 MEMB     47       PMPE     H5S      HAL2     0.900000E-01   1.00800           0
      5912 MEMB     47       PMPE     C26      CTL2    -0.180000       12.0110           0
      5913 MEMB     47       PMPE     H6R      HAL2     0.900000E-01   1.00800           0
      5914 MEMB     47       PMPE     H6S      HAL2     0.900000E-01   1.00800           0
      5915 MEMB     47       PMPE     C27      CTL2    -0.180000       12.0110           0
      5916 MEMB     47       PMPE     H7R      HAL2     0.900000E-01   1.00800           0
      5917 MEMB     47       PMPE     H7S      HAL2     0.900000E-01   1.00800           0
      5918 MEMB     47       PMPE     C28      CTL2    -0.180000       12.0110           0
      5919 MEMB     47       PMPE     H8R      HAL2     0.900000E-01   1.00800           0
      5920 MEMB     47       PMPE     H8S      HAL2     0.900000E-01   1.00800           0
      5921 MEMB     47       PMPE     C29      CG3RC1  -0.900000E-01   12.0110           0
      5922 MEMB     47       PMPE     H9R      HGA1     0.900000E-01   1.00800           0
      5923 MEMB     47       PMPE     C217     CG3C31  -0.180000       12.0110           0
      5924 MEMB     47       PMPE     H17R     HGA2     0.900000E-01   1.00800           0
      5925 MEMB     47       PMPE     H17S     HGA2     0.900000E-01   1.00800           0
      5926 MEMB     47       PMPE     C210     CG3RC1  -0.900000E-01   12.0110           0
      5927 MEMB     47       PMPE     H10R     HGA1     0.900000E-01   1.00800           0
      5928 MEMB     47       PMPE     C211     CTL2    -0.180000       12.0110           0
      5929 MEMB     47       PMPE     H11R     HAL2     0.900000E-01   1.00800           0
      5930 MEMB     47       PMPE     H11S     HAL2     0.900000E-01   1.00800           0
      5931 MEMB     47       PMPE     C212     CTL2    -0.180000       12.0110           0
      5932 MEMB     47       PMPE     H12R     HAL2     0.900000E-01   1.00800           0
      5933 MEMB     47       PMPE     H12S     HAL2     0.900000E-01   1.00800           0
      5934 MEMB     47       PMPE     C213     CTL2    -0.180000       12.0110           0
      5935 MEMB     47       PMPE     H13R     HAL2     0.900000E-01   1.00800           0
      5936 MEMB     47       PMPE     H13S     HAL2     0.900000E-01   1.00800           0
      5937 MEMB     47       PMPE     C214     CTL2    -0.180000       12.0110           0
      5938 MEMB     47       PMPE     H14R     HAL2     0.900000E-01   1.00800           0
      5939 MEMB     47       PMPE     H14S     HAL2     0.900000E-01   1.00800           0
      5940 MEMB     47       PMPE     C215     CTL2    -0.180000       12.0110           0
      5941 MEMB     47       PMPE     H15R     HAL2     0.900000E-01   1.00800           0
      5942 MEMB     47       PMPE     H15S     HAL2     0.900000E-01   1.00800           0
      5943 MEMB     47       PMPE     C216     CTL3    -0.270000       12.0110           0
      5944 MEMB     47       PMPE     H16R     HAL3     0.900000E-01   1.00800           0
      5945 MEMB     47       PMPE     H16S     HAL3     0.900000E-01   1.00800           0
      5946 MEMB     47       PMPE     H16T     HAL3     0.900000E-01   1.00800           0
      5947 MEMB     47       PMPE     C33      CTL2    -0.180000       12.0110           0
      5948 MEMB     47       PMPE     H3X      HAL2     0.900000E-01   1.00800           0
      5949 MEMB     47       PMPE     H3Y      HAL2     0.900000E-01   1.00800           0
      5950 MEMB     47       PMPE     C34      CTL2    -0.180000       12.0110           0
      5951 MEMB     47       PMPE     H4X      HAL2     0.900000E-01   1.00800           0
      5952 MEMB     47       PMPE     H4Y      HAL2     0.900000E-01   1.00800           0
      5953 MEMB     47       PMPE     C35      CTL2    -0.180000       12.0110           0
      5954 MEMB     47       PMPE     H5X      HAL2     0.900000E-01   1.00800           0
      5955 MEMB     47       PMPE     H5Y      HAL2     0.900000E-01   1.00800           0
      5956 MEMB     47       PMPE     C36      CTL2    -0.180000       12.0110           0
      5957 MEMB     47       PMPE     H6X      HAL2     0.900000E-01   1.00800           0
      5958 MEMB     47       PMPE     H6Y      HAL2     0.900000E-01   1.00800           0
      5959 MEMB     47       PMPE     C37      CTL2    -0.180000       12.0110           0
      5960 MEMB     47       PMPE     H7X      HAL2     0.900000E-01   1.00800           0
      5961 MEMB     47       PMPE     H7Y      HAL2     0.900000E-01   1.00800           0
      5962 MEMB     47       PMPE     C38      CTL2    -0.180000       12.0110           0
      5963 MEMB     47       PMPE     H8X      HAL2     0.900000E-01   1.00800           0
      5964 MEMB     47       PMPE     H8Y      HAL2     0.900000E-01   1.00800           0
      5965 MEMB     47       PMPE     C39      CTL2    -0.180000       12.0110           0
      5966 MEMB     47       PMPE     H9X      HAL2     0.900000E-01   1.00800           0
      5967 MEMB     47       PMPE     H9Y      HAL2     0.900000E-01   1.00800           0
      5968 MEMB     47       PMPE     C310     CTL2    -0.180000       12.0110           0
      5969 MEMB     47       PMPE     H10X     HAL2     0.900000E-01   1.00800           0
      5970 MEMB     47       PMPE     H10Y     HAL2     0.900000E-01   1.00800           0
      5971 MEMB     47       PMPE     C311     CTL2    -0.180000       12.0110           0
      5972 MEMB     47       PMPE     H11X     HAL2     0.900000E-01   1.00800           0
      5973 MEMB     47       PMPE     H11Y     HAL2     0.900000E-01   1.00800           0
      5974 MEMB     47       PMPE     C312     CTL2    -0.180000       12.0110           0
      5975 MEMB     47       PMPE     H12X     HAL2     0.900000E-01   1.00800           0
      5976 MEMB     47       PMPE     H12Y     HAL2     0.900000E-01   1.00800           0
      5977 MEMB     47       PMPE     C313     CTL2    -0.180000       12.0110           0
      5978 MEMB     47       PMPE     H13X     HAL2     0.900000E-01   1.00800           0
      5979 MEMB     47       PMPE     H13Y     HAL2     0.900000E-01   1.00800           0
      5980 MEMB     47       PMPE     C314     CTL2    -0.180000       12.0110           0
      5981 MEMB     47       PMPE     H14X     HAL2     0.900000E-01   1.00800           0
      5982 MEMB     47       PMPE     H14Y     HAL2     0.900000E-01   1.00800           0
      5983 MEMB     47       PMPE     C315     CTL2    -0.180000       12.0110           0
      5984 MEMB     47       PMPE     H15X     HAL2     0.900000E-01   1.00800           0
      5985 MEMB     47       PMPE     H15Y     HAL2     0.900000E-01   1.00800           0
      5986 MEMB     47       PMPE     C316     CTL3    -0.270000       12.0110           0
      5987 MEMB     47       PMPE     H16X     HAL3     0.900000E-01   1.00800           0
      5988 MEMB     47       PMPE     H16Y     HAL3     0.900000E-01   1.00800           0
      5989 MEMB     47       PMPE     H16Z     HAL3     0.900000E-01   1.00800           0
      5990 MEMB     48       POPE     N        NH3L    -0.300000       14.0070           0
      5991 MEMB     48       POPE     HN1      HCL      0.330000       1.00800           0
      5992 MEMB     48       POPE     HN2      HCL      0.330000       1.00800           0
      5993 MEMB     48       POPE     HN3      HCL      0.330000       1.00800           0
      5994 MEMB     48       POPE     C12      CTL2     0.130000       12.0110           0
      5995 MEMB     48       POPE     H12A     HAL2     0.900000E-01   1.00800           0
      5996 MEMB     48       POPE     H12B     HAL2     0.900000E-01   1.00800           0
      5997 MEMB     48       POPE     C11      CTL2    -0.800000E-01   12.0110           0
      5998 MEMB     48       POPE     H11A     HAL2     0.900000E-01   1.00800           0
      5999 MEMB     48       POPE     H11B     HAL2     0.900000E-01   1.00800           0
      6000 MEMB     48       POPE     P        PL        1.50000       30.9740           0
      6001 MEMB     48       POPE     O13      O2L     -0.780000       15.9994           0
      6002 MEMB     48       POPE     O14      O2L     -0.780000       15.9994           0
      6003 MEMB     48       POPE     O11      OSLP    -0.570000       15.9994           0
      6004 MEMB     48       POPE     O12      OSLP    -0.570000       15.9994           0
      6005 MEMB     48       POPE     C1       CTL2    -0.800000E-01   12.0110           0
      6006 MEMB     48       POPE     HA       HAL2     0.900000E-01   1.00800           0
      6007 MEMB     48       POPE     HB       HAL2     0.900000E-01   1.00800           0
      6008 MEMB     48       POPE     C2       CTL1     0.170000       12.0110           0
      6009 MEMB     48       POPE     HS       HAL1     0.900000E-01   1.00800           0
      6010 MEMB     48       POPE     O21      OSL     -0.490000       15.9994           0
      6011 MEMB     48       POPE     C21      CL       0.900000       12.0110           0
      6012 MEMB     48       POPE     O22      OBL     -0.630000       15.9994           0
      6013 MEMB     48       POPE     C22      CTL2    -0.220000       12.0110           0
      6014 MEMB     48       POPE     H2R      HAL2     0.900000E-01   1.00800           0
      6015 MEMB     48       POPE     H2S      HAL2     0.900000E-01   1.00800           0
      6016 MEMB     48       POPE     C3       CTL2     0.800000E-01   12.0110           0
      6017 MEMB     48       POPE     HX       HAL2     0.900000E-01   1.00800           0
      6018 MEMB     48       POPE     HY       HAL2     0.900000E-01   1.00800           0
      6019 MEMB     48       POPE     O31      OSL     -0.490000       15.9994           0
      6020 MEMB     48       POPE     C31      CL       0.900000       12.0110           0
      6021 MEMB     48       POPE     O32      OBL     -0.630000       15.9994           0
      6022 MEMB     48       POPE     C32      CTL2    -0.220000       12.0110           0
      6023 MEMB     48       POPE     H2X      HAL2     0.900000E-01   1.00800           0
      6024 MEMB     48       POPE     H2Y      HAL2     0.900000E-01   1.00800           0
      6025 MEMB     48       POPE     C23      CTL2    -0.180000       12.0110           0
      6026 MEMB     48       POPE     H3R      HAL2     0.900000E-01   1.00800           0
      6027 MEMB     48       POPE     H3S      HAL2     0.900000E-01   1.00800           0
      6028 MEMB     48       POPE     C24      CTL2    -0.180000       12.0110           0
      6029 MEMB     48       POPE     H4R      HAL2     0.900000E-01   1.00800           0
      6030 MEMB     48       POPE     H4S      HAL2     0.900000E-01   1.00800           0
      6031 MEMB     48       POPE     C25      CTL2    -0.180000       12.0110           0
      6032 MEMB     48       POPE     H5R      HAL2     0.900000E-01   1.00800           0
      6033 MEMB     48       POPE     H5S      HAL2     0.900000E-01   1.00800           0
      6034 MEMB     48       POPE     C26      CTL2    -0.180000       12.0110           0
      6035 MEMB     48       POPE     H6R      HAL2     0.900000E-01   1.00800           0
      6036 MEMB     48       POPE     H6S      HAL2     0.900000E-01   1.00800           0
      6037 MEMB     48       POPE     C27      CTL2    -0.180000       12.0110           0
      6038 MEMB     48       POPE     H7R      HAL2     0.900000E-01   1.00800           0
      6039 MEMB     48       POPE     H7S      HAL2     0.900000E-01   1.00800           0
      6040 MEMB     48       POPE     C28      CTL2    -0.180000       12.0110           0
      6041 MEMB     48       POPE     H8R      HAL2     0.900000E-01   1.00800           0
      6042 MEMB     48       POPE     H8S      HAL2     0.900000E-01   1.00800           0
      6043 MEMB     48       POPE     C29      CEL1    -0.150000       12.0110           0
      6044 MEMB     48       POPE     H91      HEL1     0.150000       1.00800           0
      6045 MEMB     48       POPE     C210     CEL1    -0.150000       12.0110           0
      6046 MEMB     48       POPE     H101     HEL1     0.150000       1.00800           0
      6047 MEMB     48       POPE     C211     CTL2    -0.180000       12.0110           0
      6048 MEMB     48       POPE     H11R     HAL2     0.900000E-01   1.00800           0
      6049 MEMB     48       POPE     H11S     HAL2     0.900000E-01   1.00800           0
      6050 MEMB     48       POPE     C212     CTL2    -0.180000       12.0110           0
      6051 MEMB     48       POPE     H12R     HAL2     0.900000E-01   1.00800           0
      6052 MEMB     48       POPE     H12S     HAL2     0.900000E-01   1.00800           0
      6053 MEMB     48       POPE     C213     CTL2    -0.180000       12.0110           0
      6054 MEMB     48       POPE     H13R     HAL2     0.900000E-01   1.00800           0
      6055 MEMB     48       POPE     H13S     HAL2     0.900000E-01   1.00800           0
      6056 MEMB     48       POPE     C214     CTL2    -0.180000       12.0110           0
      6057 MEMB     48       POPE     H14R     HAL2     0.900000E-01   1.00800           0
      6058 MEMB     48       POPE     H14S     HAL2     0.900000E-01   1.00800           0
      6059 MEMB     48       POPE     C215     CTL2    -0.180000       12.0110           0
      6060 MEMB     48       POPE     H15R     HAL2     0.900000E-01   1.00800           0
      6061 MEMB     48       POPE     H15S     HAL2     0.900000E-01   1.00800           0
      6062 MEMB     48       POPE     C216     CTL2    -0.180000       12.0110           0
      6063 MEMB     48       POPE     H16R     HAL2     0.900000E-01   1.00800           0
      6064 MEMB     48       POPE     H16S     HAL2     0.900000E-01   1.00800           0
      6065 MEMB     48       POPE     C217     CTL2    -0.180000       12.0110           0
      6066 MEMB     48       POPE     H17R     HAL2     0.900000E-01   1.00800           0
      6067 MEMB     48       POPE     H17S     HAL2     0.900000E-01   1.00800           0
      6068 MEMB     48       POPE     C218     CTL3    -0.270000       12.0110           0
      6069 MEMB     48       POPE     H18R     HAL3     0.900000E-01   1.00800           0
      6070 MEMB     48       POPE     H18S     HAL3     0.900000E-01   1.00800           0
      6071 MEMB     48       POPE     H18T     HAL3     0.900000E-01   1.00800           0
      6072 MEMB     48       POPE     C33      CTL2    -0.180000       12.0110           0
      6073 MEMB     48       POPE     H3X      HAL2     0.900000E-01   1.00800           0
      6074 MEMB     48       POPE     H3Y      HAL2     0.900000E-01   1.00800           0
      6075 MEMB     48       POPE     C34      CTL2    -0.180000       12.0110           0
      6076 MEMB     48       POPE     H4X      HAL2     0.900000E-01   1.00800           0
      6077 MEMB     48       POPE     H4Y      HAL2     0.900000E-01   1.00800           0
      6078 MEMB     48       POPE     C35      CTL2    -0.180000       12.0110           0
      6079 MEMB     48       POPE     H5X      HAL2     0.900000E-01   1.00800           0
      6080 MEMB     48       POPE     H5Y      HAL2     0.900000E-01   1.00800           0
      6081 MEMB     48       POPE     C36      CTL2    -0.180000       12.0110           0
      6082 MEMB     48       POPE     H6X      HAL2     0.900000E-01   1.00800           0
      6083 MEMB     48       POPE     H6Y      HAL2     0.900000E-01   1.00800           0
      6084 MEMB     48       POPE     C37      CTL2    -0.180000       12.0110           0
      6085 MEMB     48       POPE     H7X      HAL2     0.900000E-01   1.00800           0
      6086 MEMB     48       POPE     H7Y      HAL2     0.900000E-01   1.00800           0
      6087 MEMB     48       POPE     C38      CTL2    -0.180000       12.0110           0
      6088 MEMB     48       POPE     H8X      HAL2     0.900000E-01   1.00800           0
      6089 MEMB     48       POPE     H8Y      HAL2     0.900000E-01   1.00800           0
      6090 MEMB     48       POPE     C39      CTL2    -0.180000       12.0110           0
      6091 MEMB     48       POPE     H9X      HAL2     0.900000E-01   1.00800           0
      6092 MEMB     48       POPE     H9Y      HAL2     0.900000E-01   1.00800           0
      6093 MEMB     48       POPE     C310     CTL2    -0.180000       12.0110           0
      6094 MEMB     48       POPE     H10X     HAL2     0.900000E-01   1.00800           0
      6095 MEMB     48       POPE     H10Y     HAL2     0.900000E-01   1.00800           0
      6096 MEMB     48       POPE     C311     CTL2    -0.180000       12.0110           0
      6097 MEMB     48       POPE     H11X     HAL2     0.900000E-01   1.00800           0
      6098 MEMB     48       POPE     H11Y     HAL2     0.900000E-01   1.00800           0
      6099 MEMB     48       POPE     C312     CTL2    -0.180000       12.0110           0
      6100 MEMB     48       POPE     H12X     HAL2     0.900000E-01   1.00800           0
      6101 MEMB     48       POPE     H12Y     HAL2     0.900000E-01   1.00800           0
      6102 MEMB     48       POPE     C313     CTL2    -0.180000       12.0110           0
      6103 MEMB     48       POPE     H13X     HAL2     0.900000E-01   1.00800           0
      6104 MEMB     48       POPE     H13Y     HAL2     0.900000E-01   1.00800           0
      6105 MEMB     48       POPE     C314     CTL2    -0.180000       12.0110           0
      6106 MEMB     48       POPE     H14X     HAL2     0.900000E-01   1.00800           0
      6107 MEMB     48       POPE     H14Y     HAL2     0.900000E-01   1.00800           0
      6108 MEMB     48       POPE     C315     CTL2    -0.180000       12.0110           0
      6109 MEMB     48       POPE     H15X     HAL2     0.900000E-01   1.00800           0
      6110 MEMB     48       POPE     H15Y     HAL2     0.900000E-01   1.00800           0
      6111 MEMB     48       POPE     C316     CTL3    -0.270000       12.0110           0
      6112 MEMB     48       POPE     H16X     HAL3     0.900000E-01   1.00800           0
      6113 MEMB     48       POPE     H16Y     HAL3     0.900000E-01   1.00800           0
      6114 MEMB     48       POPE     H16Z     HAL3     0.900000E-01   1.00800           0
      6115 MEMB     49       PMPE     N        NH3L    -0.300000       14.0070           0
      6116 MEMB     49       PMPE     HN1      HCL      0.330000       1.00800           0
      6117 MEMB     49       PMPE     HN2      HCL      0.330000       1.00800           0
      6118 MEMB     49       PMPE     HN3      HCL      0.330000       1.00800           0
      6119 MEMB     49       PMPE     C12      CTL2     0.130000       12.0110           0
      6120 MEMB     49       PMPE     H12A     HAL2     0.900000E-01   1.00800           0
      6121 MEMB     49       PMPE     H12B     HAL2     0.900000E-01   1.00800           0
      6122 MEMB     49       PMPE     C11      CTL2    -0.800000E-01   12.0110           0
      6123 MEMB     49       PMPE     H11A     HAL2     0.900000E-01   1.00800           0
      6124 MEMB     49       PMPE     H11B     HAL2     0.900000E-01   1.00800           0
      6125 MEMB     49       PMPE     P        PL        1.50000       30.9740           0
      6126 MEMB     49       PMPE     O13      O2L     -0.780000       15.9994           0
      6127 MEMB     49       PMPE     O14      O2L     -0.780000       15.9994           0
      6128 MEMB     49       PMPE     O11      OSLP    -0.570000       15.9994           0
      6129 MEMB     49       PMPE     O12      OSLP    -0.570000       15.9994           0
      6130 MEMB     49       PMPE     C1       CTL2    -0.800000E-01   12.0110           0
      6131 MEMB     49       PMPE     HA       HAL2     0.900000E-01   1.00800           0
      6132 MEMB     49       PMPE     HB       HAL2     0.900000E-01   1.00800           0
      6133 MEMB     49       PMPE     C2       CTL1     0.170000       12.0110           0
      6134 MEMB     49       PMPE     HS       HAL1     0.900000E-01   1.00800           0
      6135 MEMB     49       PMPE     O21      OSL     -0.490000       15.9994           0
      6136 MEMB     49       PMPE     C21      CL       0.900000       12.0110           0
      6137 MEMB     49       PMPE     O22      OBL     -0.630000       15.9994           0
      6138 MEMB     49       PMPE     C22      CTL2    -0.220000       12.0110           0
      6139 MEMB     49       PMPE     H2R      HAL2     0.900000E-01   1.00800           0
      6140 MEMB     49       PMPE     H2S      HAL2     0.900000E-01   1.00800           0
      6141 MEMB     49       PMPE     C3       CTL2     0.800000E-01   12.0110           0
      6142 MEMB     49       PMPE     HX       HAL2     0.900000E-01   1.00800           0
      6143 MEMB     49       PMPE     HY       HAL2     0.900000E-01   1.00800           0
      6144 MEMB     49       PMPE     O31      OSL     -0.490000       15.9994           0
      6145 MEMB     49       PMPE     C31      CL       0.900000       12.0110           0
      6146 MEMB     49       PMPE     O32      OBL     -0.630000       15.9994           0
      6147 MEMB     49       PMPE     C32      CTL2    -0.220000       12.0110           0
      6148 MEMB     49       PMPE     H2X      HAL2     0.900000E-01   1.00800           0
      6149 MEMB     49       PMPE     H2Y      HAL2     0.900000E-01   1.00800           0
      6150 MEMB     49       PMPE     C23      CTL2    -0.180000       12.0110           0
      6151 MEMB     49       PMPE     H3R      HAL2     0.900000E-01   1.00800           0
      6152 MEMB     49       PMPE     H3S      HAL2     0.900000E-01   1.00800           0
      6153 MEMB     49       PMPE     C24      CTL2    -0.180000       12.0110           0
      6154 MEMB     49       PMPE     H4R      HAL2     0.900000E-01   1.00800           0
      6155 MEMB     49       PMPE     H4S      HAL2     0.900000E-01   1.00800           0
      6156 MEMB     49       PMPE     C25      CTL2    -0.180000       12.0110           0
      6157 MEMB     49       PMPE     H5R      HAL2     0.900000E-01   1.00800           0
      6158 MEMB     49       PMPE     H5S      HAL2     0.900000E-01   1.00800           0
      6159 MEMB     49       PMPE     C26      CTL2    -0.180000       12.0110           0
      6160 MEMB     49       PMPE     H6R      HAL2     0.900000E-01   1.00800           0
      6161 MEMB     49       PMPE     H6S      HAL2     0.900000E-01   1.00800           0
      6162 MEMB     49       PMPE     C27      CTL2    -0.180000       12.0110           0
      6163 MEMB     49       PMPE     H7R      HAL2     0.900000E-01   1.00800           0
      6164 MEMB     49       PMPE     H7S      HAL2     0.900000E-01   1.00800           0
      6165 MEMB     49       PMPE     C28      CTL2    -0.180000       12.0110           0
      6166 MEMB     49       PMPE     H8R      HAL2     0.900000E-01   1.00800           0
      6167 MEMB     49       PMPE     H8S      HAL2     0.900000E-01   1.00800           0
      6168 MEMB     49       PMPE     C29      CG3RC1  -0.900000E-01   12.0110           0
      6169 MEMB     49       PMPE     H9R      HGA1     0.900000E-01   1.00800           0
      6170 MEMB     49       PMPE     C217     CG3C31  -0.180000       12.0110           0
      6171 MEMB     49       PMPE     H17R     HGA2     0.900000E-01   1.00800           0
      6172 MEMB     49       PMPE     H17S     HGA2     0.900000E-01   1.00800           0
      6173 MEMB     49       PMPE     C210     CG3RC1  -0.900000E-01   12.0110           0
      6174 MEMB     49       PMPE     H10R     HGA1     0.900000E-01   1.00800           0
      6175 MEMB     49       PMPE     C211     CTL2    -0.180000       12.0110           0
      6176 MEMB     49       PMPE     H11R     HAL2     0.900000E-01   1.00800           0
      6177 MEMB     49       PMPE     H11S     HAL2     0.900000E-01   1.00800           0
      6178 MEMB     49       PMPE     C212     CTL2    -0.180000       12.0110           0
      6179 MEMB     49       PMPE     H12R     HAL2     0.900000E-01   1.00800           0
      6180 MEMB     49       PMPE     H12S     HAL2     0.900000E-01   1.00800           0
      6181 MEMB     49       PMPE     C213     CTL2    -0.180000       12.0110           0
      6182 MEMB     49       PMPE     H13R     HAL2     0.900000E-01   1.00800           0
      6183 MEMB     49       PMPE     H13S     HAL2     0.900000E-01   1.00800           0
      6184 MEMB     49       PMPE     C214     CTL2    -0.180000       12.0110           0
      6185 MEMB     49       PMPE     H14R     HAL2     0.900000E-01   1.00800           0
      6186 MEMB     49       PMPE     H14S     HAL2     0.900000E-01   1.00800           0
      6187 MEMB     49       PMPE     C215     CTL2    -0.180000       12.0110           0
      6188 MEMB     49       PMPE     H15R     HAL2     0.900000E-01   1.00800           0
      6189 MEMB     49       PMPE     H15S     HAL2     0.900000E-01   1.00800           0
      6190 MEMB     49       PMPE     C216     CTL3    -0.270000       12.0110           0
      6191 MEMB     49       PMPE     H16R     HAL3     0.900000E-01   1.00800           0
      6192 MEMB     49       PMPE     H16S     HAL3     0.900000E-01   1.00800           0
      6193 MEMB     49       PMPE     H16T     HAL3     0.900000E-01   1.00800           0
      6194 MEMB     49       PMPE     C33      CTL2    -0.180000       12.0110           0
      6195 MEMB     49       PMPE     H3X      HAL2     0.900000E-01   1.00800           0
      6196 MEMB     49       PMPE     H3Y      HAL2     0.900000E-01   1.00800           0
      6197 MEMB     49       PMPE     C34      CTL2    -0.180000       12.0110           0
      6198 MEMB     49       PMPE     H4X      HAL2     0.900000E-01   1.00800           0
      6199 MEMB     49       PMPE     H4Y      HAL2     0.900000E-01   1.00800           0
      6200 MEMB     49       PMPE     C35      CTL2    -0.180000       12.0110           0
      6201 MEMB     49       PMPE     H5X      HAL2     0.900000E-01   1.00800           0
      6202 MEMB     49       PMPE     H5Y      HAL2     0.900000E-01   1.00800           0
      6203 MEMB     49       PMPE     C36      CTL2    -0.180000       12.0110           0
      6204 MEMB     49       PMPE     H6X      HAL2     0.900000E-01   1.00800           0
      6205 MEMB     49       PMPE     H6Y      HAL2     0.900000E-01   1.00800           0
      6206 MEMB     49       PMPE     C37      CTL2    -0.180000       12.0110           0
      6207 MEMB     49       PMPE     H7X      HAL2     0.900000E-01   1.00800           0
      6208 MEMB     49       PMPE     H7Y      HAL2     0.900000E-01   1.00800           0
      6209 MEMB     49       PMPE     C38      CTL2    -0.180000       12.0110           0
      6210 MEMB     49       PMPE     H8X      HAL2     0.900000E-01   1.00800           0
      6211 MEMB     49       PMPE     H8Y      HAL2     0.900000E-01   1.00800           0
      6212 MEMB     49       PMPE     C39      CTL2    -0.180000       12.0110           0
      6213 MEMB     49       PMPE     H9X      HAL2     0.900000E-01   1.00800           0
      6214 MEMB     49       PMPE     H9Y      HAL2     0.900000E-01   1.00800           0
      6215 MEMB     49       PMPE     C310     CTL2    -0.180000       12.0110           0
      6216 MEMB     49       PMPE     H10X     HAL2     0.900000E-01   1.00800           0
      6217 MEMB     49       PMPE     H10Y     HAL2     0.900000E-01   1.00800           0
      6218 MEMB     49       PMPE     C311     CTL2    -0.180000       12.0110           0
      6219 MEMB     49       PMPE     H11X     HAL2     0.900000E-01   1.00800           0
      6220 MEMB     49       PMPE     H11Y     HAL2     0.900000E-01   1.00800           0
      6221 MEMB     49       PMPE     C312     CTL2    -0.180000       12.0110           0
      6222 MEMB     49       PMPE     H12X     HAL2     0.900000E-01   1.00800           0
      6223 MEMB     49       PMPE     H12Y     HAL2     0.900000E-01   1.00800           0
      6224 MEMB     49       PMPE     C313     CTL2    -0.180000       12.0110           0
      6225 MEMB     49       PMPE     H13X     HAL2     0.900000E-01   1.00800           0
      6226 MEMB     49       PMPE     H13Y     HAL2     0.900000E-01   1.00800           0
      6227 MEMB     49       PMPE     C314     CTL2    -0.180000       12.0110           0
      6228 MEMB     49       PMPE     H14X     HAL2     0.900000E-01   1.00800           0
      6229 MEMB     49       PMPE     H14Y     HAL2     0.900000E-01   1.00800           0
      6230 MEMB     49       PMPE     C315     CTL2    -0.180000       12.0110           0
      6231 MEMB     49       PMPE     H15X     HAL2     0.900000E-01   1.00800           0
      6232 MEMB     49       PMPE     H15Y     HAL2     0.900000E-01   1.00800           0
      6233 MEMB     49       PMPE     C316     CTL3    -0.270000       12.0110           0
      6234 MEMB     49       PMPE     H16X     HAL3     0.900000E-01   1.00800           0
      6235 MEMB     49       PMPE     H16Y     HAL3     0.900000E-01   1.00800           0
      6236 MEMB     49       PMPE     H16Z     HAL3     0.900000E-01   1.00800           0
      6237 MEMB     50       POPE     N        NH3L    -0.300000       14.0070           0
      6238 MEMB     50       POPE     HN1      HCL      0.330000       1.00800           0
      6239 MEMB     50       POPE     HN2      HCL      0.330000       1.00800           0
      6240 MEMB     50       POPE     HN3      HCL      0.330000       1.00800           0
      6241 MEMB     50       POPE     C12      CTL2     0.130000       12.0110           0
      6242 MEMB     50       POPE     H12A     HAL2     0.900000E-01   1.00800           0
      6243 MEMB     50       POPE     H12B     HAL2     0.900000E-01   1.00800           0
      6244 MEMB     50       POPE     C11      CTL2    -0.800000E-01   12.0110           0
      6245 MEMB     50       POPE     H11A     HAL2     0.900000E-01   1.00800           0
      6246 MEMB     50       POPE     H11B     HAL2     0.900000E-01   1.00800           0
      6247 MEMB     50       POPE     P        PL        1.50000       30.9740           0
      6248 MEMB     50       POPE     O13      O2L     -0.780000       15.9994           0
      6249 MEMB     50       POPE     O14      O2L     -0.780000       15.9994           0
      6250 MEMB     50       POPE     O11      OSLP    -0.570000       15.9994           0
      6251 MEMB     50       POPE     O12      OSLP    -0.570000       15.9994           0
      6252 MEMB     50       POPE     C1       CTL2    -0.800000E-01   12.0110           0
      6253 MEMB     50       POPE     HA       HAL2     0.900000E-01   1.00800           0
      6254 MEMB     50       POPE     HB       HAL2     0.900000E-01   1.00800           0
      6255 MEMB     50       POPE     C2       CTL1     0.170000       12.0110           0
      6256 MEMB     50       POPE     HS       HAL1     0.900000E-01   1.00800           0
      6257 MEMB     50       POPE     O21      OSL     -0.490000       15.9994           0
      6258 MEMB     50       POPE     C21      CL       0.900000       12.0110           0
      6259 MEMB     50       POPE     O22      OBL     -0.630000       15.9994           0
      6260 MEMB     50       POPE     C22      CTL2    -0.220000       12.0110           0
      6261 MEMB     50       POPE     H2R      HAL2     0.900000E-01   1.00800           0
      6262 MEMB     50       POPE     H2S      HAL2     0.900000E-01   1.00800           0
      6263 MEMB     50       POPE     C3       CTL2     0.800000E-01   12.0110           0
      6264 MEMB     50       POPE     HX       HAL2     0.900000E-01   1.00800           0
      6265 MEMB     50       POPE     HY       HAL2     0.900000E-01   1.00800           0
      6266 MEMB     50       POPE     O31      OSL     -0.490000       15.9994           0
      6267 MEMB     50       POPE     C31      CL       0.900000       12.0110           0
      6268 MEMB     50       POPE     O32      OBL     -0.630000       15.9994           0
      6269 MEMB     50       POPE     C32      CTL2    -0.220000       12.0110           0
      6270 MEMB     50       POPE     H2X      HAL2     0.900000E-01   1.00800           0
      6271 MEMB     50       POPE     H2Y      HAL2     0.900000E-01   1.00800           0
      6272 MEMB     50       POPE     C23      CTL2    -0.180000       12.0110           0
      6273 MEMB     50       POPE     H3R      HAL2     0.900000E-01   1.00800           0
      6274 MEMB     50       POPE     H3S      HAL2     0.900000E-01   1.00800           0
      6275 MEMB     50       POPE     C24      CTL2    -0.180000       12.0110           0
      6276 MEMB     50       POPE     H4R      HAL2     0.900000E-01   1.00800           0
      6277 MEMB     50       POPE     H4S      HAL2     0.900000E-01   1.00800           0
      6278 MEMB     50       POPE     C25      CTL2    -0.180000       12.0110           0
      6279 MEMB     50       POPE     H5R      HAL2     0.900000E-01   1.00800           0
      6280 MEMB     50       POPE     H5S      HAL2     0.900000E-01   1.00800           0
      6281 MEMB     50       POPE     C26      CTL2    -0.180000       12.0110           0
      6282 MEMB     50       POPE     H6R      HAL2     0.900000E-01   1.00800           0
      6283 MEMB     50       POPE     H6S      HAL2     0.900000E-01   1.00800           0
      6284 MEMB     50       POPE     C27      CTL2    -0.180000       12.0110           0
      6285 MEMB     50       POPE     H7R      HAL2     0.900000E-01   1.00800           0
      6286 MEMB     50       POPE     H7S      HAL2     0.900000E-01   1.00800           0
      6287 MEMB     50       POPE     C28      CTL2    -0.180000       12.0110           0
      6288 MEMB     50       POPE     H8R      HAL2     0.900000E-01   1.00800           0
      6289 MEMB     50       POPE     H8S      HAL2     0.900000E-01   1.00800           0
      6290 MEMB     50       POPE     C29      CEL1    -0.150000       12.0110           0
      6291 MEMB     50       POPE     H91      HEL1     0.150000       1.00800           0
      6292 MEMB     50       POPE     C210     CEL1    -0.150000       12.0110           0
      6293 MEMB     50       POPE     H101     HEL1     0.150000       1.00800           0
      6294 MEMB     50       POPE     C211     CTL2    -0.180000       12.0110           0
      6295 MEMB     50       POPE     H11R     HAL2     0.900000E-01   1.00800           0
      6296 MEMB     50       POPE     H11S     HAL2     0.900000E-01   1.00800           0
      6297 MEMB     50       POPE     C212     CTL2    -0.180000       12.0110           0
      6298 MEMB     50       POPE     H12R     HAL2     0.900000E-01   1.00800           0
      6299 MEMB     50       POPE     H12S     HAL2     0.900000E-01   1.00800           0
      6300 MEMB     50       POPE     C213     CTL2    -0.180000       12.0110           0
      6301 MEMB     50       POPE     H13R     HAL2     0.900000E-01   1.00800           0
      6302 MEMB     50       POPE     H13S     HAL2     0.900000E-01   1.00800           0
      6303 MEMB     50       POPE     C214     CTL2    -0.180000       12.0110           0
      6304 MEMB     50       POPE     H14R     HAL2     0.900000E-01   1.00800           0
      6305 MEMB     50       POPE     H14S     HAL2     0.900000E-01   1.00800           0
      6306 MEMB     50       POPE     C215     CTL2    -0.180000       12.0110           0
      6307 MEMB     50       POPE     H15R     HAL2     0.900000E-01   1.00800           0
      6308 MEMB     50       POPE     H15S     HAL2     0.900000E-01   1.00800           0
      6309 MEMB     50       POPE     C216     CTL2    -0.180000       12.0110           0
      6310 MEMB     50       POPE     H16R     HAL2     0.900000E-01   1.00800           0
      6311 MEMB     50       POPE     H16S     HAL2     0.900000E-01   1.00800           0
      6312 MEMB     50       POPE     C217     CTL2    -0.180000       12.0110           0
      6313 MEMB     50       POPE     H17R     HAL2     0.900000E-01   1.00800           0
      6314 MEMB     50       POPE     H17S     HAL2     0.900000E-01   1.00800           0
      6315 MEMB     50       POPE     C218     CTL3    -0.270000       12.0110           0
      6316 MEMB     50       POPE     H18R     HAL3     0.900000E-01   1.00800           0
      6317 MEMB     50       POPE     H18S     HAL3     0.900000E-01   1.00800           0
      6318 MEMB     50       POPE     H18T     HAL3     0.900000E-01   1.00800           0
      6319 MEMB     50       POPE     C33      CTL2    -0.180000       12.0110           0
      6320 MEMB     50       POPE     H3X      HAL2     0.900000E-01   1.00800           0
      6321 MEMB     50       POPE     H3Y      HAL2     0.900000E-01   1.00800           0
      6322 MEMB     50       POPE     C34      CTL2    -0.180000       12.0110           0
      6323 MEMB     50       POPE     H4X      HAL2     0.900000E-01   1.00800           0
      6324 MEMB     50       POPE     H4Y      HAL2     0.900000E-01   1.00800           0
      6325 MEMB     50       POPE     C35      CTL2    -0.180000       12.0110           0
      6326 MEMB     50       POPE     H5X      HAL2     0.900000E-01   1.00800           0
      6327 MEMB     50       POPE     H5Y      HAL2     0.900000E-01   1.00800           0
      6328 MEMB     50       POPE     C36      CTL2    -0.180000       12.0110           0
      6329 MEMB     50       POPE     H6X      HAL2     0.900000E-01   1.00800           0
      6330 MEMB     50       POPE     H6Y      HAL2     0.900000E-01   1.00800           0
      6331 MEMB     50       POPE     C37      CTL2    -0.180000       12.0110           0
      6332 MEMB     50       POPE     H7X      HAL2     0.900000E-01   1.00800           0
      6333 MEMB     50       POPE     H7Y      HAL2     0.900000E-01   1.00800           0
      6334 MEMB     50       POPE     C38      CTL2    -0.180000       12.0110           0
      6335 MEMB     50       POPE     H8X      HAL2     0.900000E-01   1.00800           0
      6336 MEMB     50       POPE     H8Y      HAL2     0.900000E-01   1.00800           0
      6337 MEMB     50       POPE     C39      CTL2    -0.180000       12.0110           0
      6338 MEMB     50       POPE     H9X      HAL2     0.900000E-01   1.00800           0
      6339 MEMB     50       POPE     H9Y      HAL2     0.900000E-01   1.00800           0
      6340 MEMB     50       POPE     C310     CTL2    -0.180000       12.0110           0
      6341 MEMB     50       POPE     H10X     HAL2     0.900000E-01   1.00800           0
      6342 MEMB     50       POPE     H10Y     HAL2     0.900000E-01   1.00800           0
      6343 MEMB     50       POPE     C311     CTL2    -0.180000       12.0110           0
      6344 MEMB     50       POPE     H11X     HAL2     0.900000E-01   1.00800           0
      6345 MEMB     50       POPE     H11Y     HAL2     0.900000E-01   1.00800           0
      6346 MEMB     50       POPE     C312     CTL2    -0.180000       12.0110           0
      6347 MEMB     50       POPE     H12X     HAL2     0.900000E-01   1.00800           0
      6348 MEMB     50       POPE     H12Y     HAL2     0.900000E-01   1.00800           0
      6349 MEMB     50       POPE     C313     CTL2    -0.180000       12.0110           0
      6350 MEMB     50       POPE     H13X     HAL2     0.900000E-01   1.00800           0
      6351 MEMB     50       POPE     H13Y     HAL2     0.900000E-01   1.00800           0
      6352 MEMB     50       POPE     C314     CTL2    -0.180000       12.0110           0
      6353 MEMB     50       POPE     H14X     HAL2     0.900000E-01   1.00800           0
      6354 MEMB     50       POPE     H14Y     HAL2     0.900000E-01   1.00800           0
      6355 MEMB     50       POPE     C315     CTL2    -0.180000       12.0110           0
      6356 MEMB     50       POPE     H15X     HAL2     0.900000E-01   1.00800           0
      6357 MEMB     50       POPE     H15Y     HAL2     0.900000E-01   1.00800           0
      6358 MEMB     50       POPE     C316     CTL3    -0.270000       12.0110           0
      6359 MEMB     50       POPE     H16X     HAL3     0.900000E-01   1.00800           0
      6360 MEMB     50       POPE     H16Y     HAL3     0.900000E-01   1.00800           0
      6361 MEMB     50       POPE     H16Z     HAL3     0.900000E-01   1.00800           0
      6362 MEMB     51       PMPE     N        NH3L    -0.300000       14.0070           0
      6363 MEMB     51       PMPE     HN1      HCL      0.330000       1.00800           0
      6364 MEMB     51       PMPE     HN2      HCL      0.330000       1.00800           0
      6365 MEMB     51       PMPE     HN3      HCL      0.330000       1.00800           0
      6366 MEMB     51       PMPE     C12      CTL2     0.130000       12.0110           0
      6367 MEMB     51       PMPE     H12A     HAL2     0.900000E-01   1.00800           0
      6368 MEMB     51       PMPE     H12B     HAL2     0.900000E-01   1.00800           0
      6369 MEMB     51       PMPE     C11      CTL2    -0.800000E-01   12.0110           0
      6370 MEMB     51       PMPE     H11A     HAL2     0.900000E-01   1.00800           0
      6371 MEMB     51       PMPE     H11B     HAL2     0.900000E-01   1.00800           0
      6372 MEMB     51       PMPE     P        PL        1.50000       30.9740           0
      6373 MEMB     51       PMPE     O13      O2L     -0.780000       15.9994           0
      6374 MEMB     51       PMPE     O14      O2L     -0.780000       15.9994           0
      6375 MEMB     51       PMPE     O11      OSLP    -0.570000       15.9994           0
      6376 MEMB     51       PMPE     O12      OSLP    -0.570000       15.9994           0
      6377 MEMB     51       PMPE     C1       CTL2    -0.800000E-01   12.0110           0
      6378 MEMB     51       PMPE     HA       HAL2     0.900000E-01   1.00800           0
      6379 MEMB     51       PMPE     HB       HAL2     0.900000E-01   1.00800           0
      6380 MEMB     51       PMPE     C2       CTL1     0.170000       12.0110           0
      6381 MEMB     51       PMPE     HS       HAL1     0.900000E-01   1.00800           0
      6382 MEMB     51       PMPE     O21      OSL     -0.490000       15.9994           0
      6383 MEMB     51       PMPE     C21      CL       0.900000       12.0110           0
      6384 MEMB     51       PMPE     O22      OBL     -0.630000       15.9994           0
      6385 MEMB     51       PMPE     C22      CTL2    -0.220000       12.0110           0
      6386 MEMB     51       PMPE     H2R      HAL2     0.900000E-01   1.00800           0
      6387 MEMB     51       PMPE     H2S      HAL2     0.900000E-01   1.00800           0
      6388 MEMB     51       PMPE     C3       CTL2     0.800000E-01   12.0110           0
      6389 MEMB     51       PMPE     HX       HAL2     0.900000E-01   1.00800           0
      6390 MEMB     51       PMPE     HY       HAL2     0.900000E-01   1.00800           0
      6391 MEMB     51       PMPE     O31      OSL     -0.490000       15.9994           0
      6392 MEMB     51       PMPE     C31      CL       0.900000       12.0110           0
      6393 MEMB     51       PMPE     O32      OBL     -0.630000       15.9994           0
      6394 MEMB     51       PMPE     C32      CTL2    -0.220000       12.0110           0
      6395 MEMB     51       PMPE     H2X      HAL2     0.900000E-01   1.00800           0
      6396 MEMB     51       PMPE     H2Y      HAL2     0.900000E-01   1.00800           0
      6397 MEMB     51       PMPE     C23      CTL2    -0.180000       12.0110           0
      6398 MEMB     51       PMPE     H3R      HAL2     0.900000E-01   1.00800           0
      6399 MEMB     51       PMPE     H3S      HAL2     0.900000E-01   1.00800           0
      6400 MEMB     51       PMPE     C24      CTL2    -0.180000       12.0110           0
      6401 MEMB     51       PMPE     H4R      HAL2     0.900000E-01   1.00800           0
      6402 MEMB     51       PMPE     H4S      HAL2     0.900000E-01   1.00800           0
      6403 MEMB     51       PMPE     C25      CTL2    -0.180000       12.0110           0
      6404 MEMB     51       PMPE     H5R      HAL2     0.900000E-01   1.00800           0
      6405 MEMB     51       PMPE     H5S      HAL2     0.900000E-01   1.00800           0
      6406 MEMB     51       PMPE     C26      CTL2    -0.180000       12.0110           0
      6407 MEMB     51       PMPE     H6R      HAL2     0.900000E-01   1.00800           0
      6408 MEMB     51       PMPE     H6S      HAL2     0.900000E-01   1.00800           0
      6409 MEMB     51       PMPE     C27      CTL2    -0.180000       12.0110           0
      6410 MEMB     51       PMPE     H7R      HAL2     0.900000E-01   1.00800           0
      6411 MEMB     51       PMPE     H7S      HAL2     0.900000E-01   1.00800           0
      6412 MEMB     51       PMPE     C28      CTL2    -0.180000       12.0110           0
      6413 MEMB     51       PMPE     H8R      HAL2     0.900000E-01   1.00800           0
      6414 MEMB     51       PMPE     H8S      HAL2     0.900000E-01   1.00800           0
      6415 MEMB     51       PMPE     C29      CG3RC1  -0.900000E-01   12.0110           0
      6416 MEMB     51       PMPE     H9R      HGA1     0.900000E-01   1.00800           0
      6417 MEMB     51       PMPE     C217     CG3C31  -0.180000       12.0110           0
      6418 MEMB     51       PMPE     H17R     HGA2     0.900000E-01   1.00800           0
      6419 MEMB     51       PMPE     H17S     HGA2     0.900000E-01   1.00800           0
      6420 MEMB     51       PMPE     C210     CG3RC1  -0.900000E-01   12.0110           0
      6421 MEMB     51       PMPE     H10R     HGA1     0.900000E-01   1.00800           0
      6422 MEMB     51       PMPE     C211     CTL2    -0.180000       12.0110           0
      6423 MEMB     51       PMPE     H11R     HAL2     0.900000E-01   1.00800           0
      6424 MEMB     51       PMPE     H11S     HAL2     0.900000E-01   1.00800           0
      6425 MEMB     51       PMPE     C212     CTL2    -0.180000       12.0110           0
      6426 MEMB     51       PMPE     H12R     HAL2     0.900000E-01   1.00800           0
      6427 MEMB     51       PMPE     H12S     HAL2     0.900000E-01   1.00800           0
      6428 MEMB     51       PMPE     C213     CTL2    -0.180000       12.0110           0
      6429 MEMB     51       PMPE     H13R     HAL2     0.900000E-01   1.00800           0
      6430 MEMB     51       PMPE     H13S     HAL2     0.900000E-01   1.00800           0
      6431 MEMB     51       PMPE     C214     CTL2    -0.180000       12.0110           0
      6432 MEMB     51       PMPE     H14R     HAL2     0.900000E-01   1.00800           0
      6433 MEMB     51       PMPE     H14S     HAL2     0.900000E-01   1.00800           0
      6434 MEMB     51       PMPE     C215     CTL2    -0.180000       12.0110           0
      6435 MEMB     51       PMPE     H15R     HAL2     0.900000E-01   1.00800           0
      6436 MEMB     51       PMPE     H15S     HAL2     0.900000E-01   1.00800           0
      6437 MEMB     51       PMPE     C216     CTL3    -0.270000       12.0110           0
      6438 MEMB     51       PMPE     H16R     HAL3     0.900000E-01   1.00800           0
      6439 MEMB     51       PMPE     H16S     HAL3     0.900000E-01   1.00800           0
      6440 MEMB     51       PMPE     H16T     HAL3     0.900000E-01   1.00800           0
      6441 MEMB     51       PMPE     C33      CTL2    -0.180000       12.0110           0
      6442 MEMB     51       PMPE     H3X      HAL2     0.900000E-01   1.00800           0
      6443 MEMB     51       PMPE     H3Y      HAL2     0.900000E-01   1.00800           0
      6444 MEMB     51       PMPE     C34      CTL2    -0.180000       12.0110           0
      6445 MEMB     51       PMPE     H4X      HAL2     0.900000E-01   1.00800           0
      6446 MEMB     51       PMPE     H4Y      HAL2     0.900000E-01   1.00800           0
      6447 MEMB     51       PMPE     C35      CTL2    -0.180000       12.0110           0
      6448 MEMB     51       PMPE     H5X      HAL2     0.900000E-01   1.00800           0
      6449 MEMB     51       PMPE     H5Y      HAL2     0.900000E-01   1.00800           0
      6450 MEMB     51       PMPE     C36      CTL2    -0.180000       12.0110           0
      6451 MEMB     51       PMPE     H6X      HAL2     0.900000E-01   1.00800           0
      6452 MEMB     51       PMPE     H6Y      HAL2     0.900000E-01   1.00800           0
      6453 MEMB     51       PMPE     C37      CTL2    -0.180000       12.0110           0
      6454 MEMB     51       PMPE     H7X      HAL2     0.900000E-01   1.00800           0
      6455 MEMB     51       PMPE     H7Y      HAL2     0.900000E-01   1.00800           0
      6456 MEMB     51       PMPE     C38      CTL2    -0.180000       12.0110           0
      6457 MEMB     51       PMPE     H8X      HAL2     0.900000E-01   1.00800           0
      6458 MEMB     51       PMPE     H8Y      HAL2     0.900000E-01   1.00800           0
      6459 MEMB     51       PMPE     C39      CTL2    -0.180000       12.0110           0
      6460 MEMB     51       PMPE     H9X      HAL2     0.900000E-01   1.00800           0
      6461 MEMB     51       PMPE     H9Y      HAL2     0.900000E-01   1.00800           0
      6462 MEMB     51       PMPE     C310     CTL2    -0.180000       12.0110           0
      6463 MEMB     51       PMPE     H10X     HAL2     0.900000E-01   1.00800           0
      6464 MEMB     51       PMPE     H10Y     HAL2     0.900000E-01   1.00800           0
      6465 MEMB     51       PMPE     C311     CTL2    -0.180000       12.0110           0
      6466 MEMB     51       PMPE     H11X     HAL2     0.900000E-01   1.00800           0
      6467 MEMB     51       PMPE     H11Y     HAL2     0.900000E-01   1.00800           0
      6468 MEMB     51       PMPE     C312     CTL2    -0.180000       12.0110           0
      6469 MEMB     51       PMPE     H12X     HAL2     0.900000E-01   1.00800           0
      6470 MEMB     51       PMPE     H12Y     HAL2     0.900000E-01   1.00800           0
      6471 MEMB     51       PMPE     C313     CTL2    -0.180000       12.0110           0
      6472 MEMB     51       PMPE     H13X     HAL2     0.900000E-01   1.00800           0
      6473 MEMB     51       PMPE     H13Y     HAL2     0.900000E-01   1.00800           0
      6474 MEMB     51       PMPE     C314     CTL2    -0.180000       12.0110           0
      6475 MEMB     51       PMPE     H14X     HAL2     0.900000E-01   1.00800           0
      6476 MEMB     51       PMPE     H14Y     HAL2     0.900000E-01   1.00800           0
      6477 MEMB     51       PMPE     C315     CTL2    -0.180000       12.0110           0
      6478 MEMB     51       PMPE     H15X     HAL2     0.900000E-01   1.00800           0
      6479 MEMB     51       PMPE     H15Y     HAL2     0.900000E-01   1.00800           0
      6480 MEMB     51       PMPE     C316     CTL3    -0.270000       12.0110           0
      6481 MEMB     51       PMPE     H16X     HAL3     0.900000E-01   1.00800           0
      6482 MEMB     51       PMPE     H16Y     HAL3     0.900000E-01   1.00800           0
      6483 MEMB     51       PMPE     H16Z     HAL3     0.900000E-01   1.00800           0
      6484 MEMB     52       QMPE     N        NH3L    -0.300000       14.0070           0
      6485 MEMB     52       QMPE     HN1      HCL      0.330000       1.00800           0
      6486 MEMB     52       QMPE     HN2      HCL      0.330000       1.00800           0
      6487 MEMB     52       QMPE     HN3      HCL      0.330000       1.00800           0
      6488 MEMB     52       QMPE     C12      CTL2     0.130000       12.0110           0
      6489 MEMB     52       QMPE     H12A     HAL2     0.900000E-01   1.00800           0
      6490 MEMB     52       QMPE     H12B     HAL2     0.900000E-01   1.00800           0
      6491 MEMB     52       QMPE     C11      CTL2    -0.800000E-01   12.0110           0
      6492 MEMB     52       QMPE     H11A     HAL2     0.900000E-01   1.00800           0
      6493 MEMB     52       QMPE     H11B     HAL2     0.900000E-01   1.00800           0
      6494 MEMB     52       QMPE     P        PL        1.50000       30.9740           0
      6495 MEMB     52       QMPE     O13      O2L     -0.780000       15.9994           0
      6496 MEMB     52       QMPE     O14      O2L     -0.780000       15.9994           0
      6497 MEMB     52       QMPE     O11      OSLP    -0.570000       15.9994           0
      6498 MEMB     52       QMPE     O12      OSLP    -0.570000       15.9994           0
      6499 MEMB     52       QMPE     C1       CTL2    -0.800000E-01   12.0110           0
      6500 MEMB     52       QMPE     HA       HAL2     0.900000E-01   1.00800           0
      6501 MEMB     52       QMPE     HB       HAL2     0.900000E-01   1.00800           0
      6502 MEMB     52       QMPE     C2       CTL1     0.170000       12.0110           0
      6503 MEMB     52       QMPE     HS       HAL1     0.900000E-01   1.00800           0
      6504 MEMB     52       QMPE     O21      OSL     -0.490000       15.9994           0
      6505 MEMB     52       QMPE     C21      CL       0.900000       12.0110           0
      6506 MEMB     52       QMPE     O22      OBL     -0.630000       15.9994           0
      6507 MEMB     52       QMPE     C22      CTL2    -0.220000       12.0110           0
      6508 MEMB     52       QMPE     H2R      HAL2     0.900000E-01   1.00800           0
      6509 MEMB     52       QMPE     H2S      HAL2     0.900000E-01   1.00800           0
      6510 MEMB     52       QMPE     C3       CTL2     0.800000E-01   12.0110           0
      6511 MEMB     52       QMPE     HX       HAL2     0.900000E-01   1.00800           0
      6512 MEMB     52       QMPE     HY       HAL2     0.900000E-01   1.00800           0
      6513 MEMB     52       QMPE     O31      OSL     -0.490000       15.9994           0
      6514 MEMB     52       QMPE     C31      CL       0.900000       12.0110           0
      6515 MEMB     52       QMPE     O32      OBL     -0.630000       15.9994           0
      6516 MEMB     52       QMPE     C32      CTL2    -0.220000       12.0110           0
      6517 MEMB     52       QMPE     H2X      HAL2     0.900000E-01   1.00800           0
      6518 MEMB     52       QMPE     H2Y      HAL2     0.900000E-01   1.00800           0
      6519 MEMB     52       QMPE     C23      CTL2    -0.180000       12.0110           0
      6520 MEMB     52       QMPE     H3R      HAL2     0.900000E-01   1.00800           0
      6521 MEMB     52       QMPE     H3S      HAL2     0.900000E-01   1.00800           0
      6522 MEMB     52       QMPE     C24      CTL2    -0.180000       12.0110           0
      6523 MEMB     52       QMPE     H4R      HAL2     0.900000E-01   1.00800           0
      6524 MEMB     52       QMPE     H4S      HAL2     0.900000E-01   1.00800           0
      6525 MEMB     52       QMPE     C25      CTL2    -0.180000       12.0110           0
      6526 MEMB     52       QMPE     H5R      HAL2     0.900000E-01   1.00800           0
      6527 MEMB     52       QMPE     H5S      HAL2     0.900000E-01   1.00800           0
      6528 MEMB     52       QMPE     C26      CTL2    -0.180000       12.0110           0
      6529 MEMB     52       QMPE     H6R      HAL2     0.900000E-01   1.00800           0
      6530 MEMB     52       QMPE     H6S      HAL2     0.900000E-01   1.00800           0
      6531 MEMB     52       QMPE     C27      CTL2    -0.180000       12.0110           0
      6532 MEMB     52       QMPE     H7R      HAL2     0.900000E-01   1.00800           0
      6533 MEMB     52       QMPE     H7S      HAL2     0.900000E-01   1.00800           0
      6534 MEMB     52       QMPE     C28      CTL2    -0.180000       12.0110           0
      6535 MEMB     52       QMPE     H8R      HAL2     0.900000E-01   1.00800           0
      6536 MEMB     52       QMPE     H8S      HAL2     0.900000E-01   1.00800           0
      6537 MEMB     52       QMPE     C29      CG3RC1  -0.900000E-01   12.0110           0
      6538 MEMB     52       QMPE     H9R      HGA1     0.900000E-01   1.00800           0
      6539 MEMB     52       QMPE     C217     CG3C31  -0.180000       12.0110           0
      6540 MEMB     52       QMPE     H17R     HGA2     0.900000E-01   1.00800           0
      6541 MEMB     52       QMPE     H17S     HGA2     0.900000E-01   1.00800           0
      6542 MEMB     52       QMPE     C210     CG3RC1  -0.900000E-01   12.0110           0
      6543 MEMB     52       QMPE     H10R     HGA1     0.900000E-01   1.00800           0
      6544 MEMB     52       QMPE     C211     CTL2    -0.180000       12.0110           0
      6545 MEMB     52       QMPE     H11R     HAL2     0.900000E-01   1.00800           0
      6546 MEMB     52       QMPE     H11S     HAL2     0.900000E-01   1.00800           0
      6547 MEMB     52       QMPE     C212     CTL2    -0.180000       12.0110           0
      6548 MEMB     52       QMPE     H12R     HAL2     0.900000E-01   1.00800           0
      6549 MEMB     52       QMPE     H12S     HAL2     0.900000E-01   1.00800           0
      6550 MEMB     52       QMPE     C213     CTL2    -0.180000       12.0110           0
      6551 MEMB     52       QMPE     H13R     HAL2     0.900000E-01   1.00800           0
      6552 MEMB     52       QMPE     H13S     HAL2     0.900000E-01   1.00800           0
      6553 MEMB     52       QMPE     C214     CTL2    -0.180000       12.0110           0
      6554 MEMB     52       QMPE     H14R     HAL2     0.900000E-01   1.00800           0
      6555 MEMB     52       QMPE     H14S     HAL2     0.900000E-01   1.00800           0
      6556 MEMB     52       QMPE     C215     CTL2    -0.180000       12.0110           0
      6557 MEMB     52       QMPE     H15R     HAL2     0.900000E-01   1.00800           0
      6558 MEMB     52       QMPE     H15S     HAL2     0.900000E-01   1.00800           0
      6559 MEMB     52       QMPE     C216     CTL3    -0.270000       12.0110           0
      6560 MEMB     52       QMPE     H16R     HAL3     0.900000E-01   1.00800           0
      6561 MEMB     52       QMPE     H16S     HAL3     0.900000E-01   1.00800           0
      6562 MEMB     52       QMPE     H16T     HAL3     0.900000E-01   1.00800           0
      6563 MEMB     52       QMPE     C33      CTL2    -0.180000       12.0110           0
      6564 MEMB     52       QMPE     H3X      HAL2     0.900000E-01   1.00800           0
      6565 MEMB     52       QMPE     H3Y      HAL2     0.900000E-01   1.00800           0
      6566 MEMB     52       QMPE     C34      CTL2    -0.180000       12.0110           0
      6567 MEMB     52       QMPE     H4X      HAL2     0.900000E-01   1.00800           0
      6568 MEMB     52       QMPE     H4Y      HAL2     0.900000E-01   1.00800           0
      6569 MEMB     52       QMPE     C35      CTL2    -0.180000       12.0110           0
      6570 MEMB     52       QMPE     H5X      HAL2     0.900000E-01   1.00800           0
      6571 MEMB     52       QMPE     H5Y      HAL2     0.900000E-01   1.00800           0
      6572 MEMB     52       QMPE     C36      CTL2    -0.180000       12.0110           0
      6573 MEMB     52       QMPE     H6X      HAL2     0.900000E-01   1.00800           0
      6574 MEMB     52       QMPE     H6Y      HAL2     0.900000E-01   1.00800           0
      6575 MEMB     52       QMPE     C37      CTL2    -0.180000       12.0110           0
      6576 MEMB     52       QMPE     H7X      HAL2     0.900000E-01   1.00800           0
      6577 MEMB     52       QMPE     H7Y      HAL2     0.900000E-01   1.00800           0
      6578 MEMB     52       QMPE     C38      CTL2    -0.180000       12.0110           0
      6579 MEMB     52       QMPE     H8X      HAL2     0.900000E-01   1.00800           0
      6580 MEMB     52       QMPE     H8Y      HAL2     0.900000E-01   1.00800           0
      6581 MEMB     52       QMPE     C39      CTL2    -0.180000       12.0110           0
      6582 MEMB     52       QMPE     H9X      HAL2     0.900000E-01   1.00800           0
      6583 MEMB     52       QMPE     H9Y      HAL2     0.900000E-01   1.00800           0
      6584 MEMB     52       QMPE     C310     CTL2    -0.180000       12.0110           0
      6585 MEMB     52       QMPE     H10X     HAL2     0.900000E-01   1.00800           0
      6586 MEMB     52       QMPE     H10Y     HAL2     0.900000E-01   1.00800           0
      6587 MEMB     52       QMPE     C311     CTL2    -0.180000       12.0110           0
      6588 MEMB     52       QMPE     H11X     HAL2     0.900000E-01   1.00800           0
      6589 MEMB     52       QMPE     H11Y     HAL2     0.900000E-01   1.00800           0
      6590 MEMB     52       QMPE     C312     CTL2    -0.180000       12.0110           0
      6591 MEMB     52       QMPE     H12X     HAL2     0.900000E-01   1.00800           0
      6592 MEMB     52       QMPE     H12Y     HAL2     0.900000E-01   1.00800           0
      6593 MEMB     52       QMPE     C313     CTL2    -0.180000       12.0110           0
      6594 MEMB     52       QMPE     H13X     HAL2     0.900000E-01   1.00800           0
      6595 MEMB     52       QMPE     H13Y     HAL2     0.900000E-01   1.00800           0
      6596 MEMB     52       QMPE     C314     CTL2    -0.180000       12.0110           0
      6597 MEMB     52       QMPE     H14X     HAL2     0.900000E-01   1.00800           0
      6598 MEMB     52       QMPE     H14Y     HAL2     0.900000E-01   1.00800           0
      6599 MEMB     52       QMPE     C315     CTL3    -0.270000       12.0110           0
      6600 MEMB     52       QMPE     H15X     HAL3     0.900000E-01   1.00800           0
      6601 MEMB     52       QMPE     H15Y     HAL3     0.900000E-01   1.00800           0
      6602 MEMB     52       QMPE     H15Z     HAL3     0.900000E-01   1.00800           0
      6603 MEMB     53       POPE     N        NH3L    -0.300000       14.0070           0
      6604 MEMB     53       POPE     HN1      HCL      0.330000       1.00800           0
      6605 MEMB     53       POPE     HN2      HCL      0.330000       1.00800           0
      6606 MEMB     53       POPE     HN3      HCL      0.330000       1.00800           0
      6607 MEMB     53       POPE     C12      CTL2     0.130000       12.0110           0
      6608 MEMB     53       POPE     H12A     HAL2     0.900000E-01   1.00800           0
      6609 MEMB     53       POPE     H12B     HAL2     0.900000E-01   1.00800           0
      6610 MEMB     53       POPE     C11      CTL2    -0.800000E-01   12.0110           0
      6611 MEMB     53       POPE     H11A     HAL2     0.900000E-01   1.00800           0
      6612 MEMB     53       POPE     H11B     HAL2     0.900000E-01   1.00800           0
      6613 MEMB     53       POPE     P        PL        1.50000       30.9740           0
      6614 MEMB     53       POPE     O13      O2L     -0.780000       15.9994           0
      6615 MEMB     53       POPE     O14      O2L     -0.780000       15.9994           0
      6616 MEMB     53       POPE     O11      OSLP    -0.570000       15.9994           0
      6617 MEMB     53       POPE     O12      OSLP    -0.570000       15.9994           0
      6618 MEMB     53       POPE     C1       CTL2    -0.800000E-01   12.0110           0
      6619 MEMB     53       POPE     HA       HAL2     0.900000E-01   1.00800           0
      6620 MEMB     53       POPE     HB       HAL2     0.900000E-01   1.00800           0
      6621 MEMB     53       POPE     C2       CTL1     0.170000       12.0110           0
      6622 MEMB     53       POPE     HS       HAL1     0.900000E-01   1.00800           0
      6623 MEMB     53       POPE     O21      OSL     -0.490000       15.9994           0
      6624 MEMB     53       POPE     C21      CL       0.900000       12.0110           0
      6625 MEMB     53       POPE     O22      OBL     -0.630000       15.9994           0
      6626 MEMB     53       POPE     C22      CTL2    -0.220000       12.0110           0
      6627 MEMB     53       POPE     H2R      HAL2     0.900000E-01   1.00800           0
      6628 MEMB     53       POPE     H2S      HAL2     0.900000E-01   1.00800           0
      6629 MEMB     53       POPE     C3       CTL2     0.800000E-01   12.0110           0
      6630 MEMB     53       POPE     HX       HAL2     0.900000E-01   1.00800           0
      6631 MEMB     53       POPE     HY       HAL2     0.900000E-01   1.00800           0
      6632 MEMB     53       POPE     O31      OSL     -0.490000       15.9994           0
      6633 MEMB     53       POPE     C31      CL       0.900000       12.0110           0
      6634 MEMB     53       POPE     O32      OBL     -0.630000       15.9994           0
      6635 MEMB     53       POPE     C32      CTL2    -0.220000       12.0110           0
      6636 MEMB     53       POPE     H2X      HAL2     0.900000E-01   1.00800           0
      6637 MEMB     53       POPE     H2Y      HAL2     0.900000E-01   1.00800           0
      6638 MEMB     53       POPE     C23      CTL2    -0.180000       12.0110           0
      6639 MEMB     53       POPE     H3R      HAL2     0.900000E-01   1.00800           0
      6640 MEMB     53       POPE     H3S      HAL2     0.900000E-01   1.00800           0
      6641 MEMB     53       POPE     C24      CTL2    -0.180000       12.0110           0
      6642 MEMB     53       POPE     H4R      HAL2     0.900000E-01   1.00800           0
      6643 MEMB     53       POPE     H4S      HAL2     0.900000E-01   1.00800           0
      6644 MEMB     53       POPE     C25      CTL2    -0.180000       12.0110           0
      6645 MEMB     53       POPE     H5R      HAL2     0.900000E-01   1.00800           0
      6646 MEMB     53       POPE     H5S      HAL2     0.900000E-01   1.00800           0
      6647 MEMB     53       POPE     C26      CTL2    -0.180000       12.0110           0
      6648 MEMB     53       POPE     H6R      HAL2     0.900000E-01   1.00800           0
      6649 MEMB     53       POPE     H6S      HAL2     0.900000E-01   1.00800           0
      6650 MEMB     53       POPE     C27      CTL2    -0.180000       12.0110           0
      6651 MEMB     53       POPE     H7R      HAL2     0.900000E-01   1.00800           0
      6652 MEMB     53       POPE     H7S      HAL2     0.900000E-01   1.00800           0
      6653 MEMB     53       POPE     C28      CTL2    -0.180000       12.0110           0
      6654 MEMB     53       POPE     H8R      HAL2     0.900000E-01   1.00800           0
      6655 MEMB     53       POPE     H8S      HAL2     0.900000E-01   1.00800           0
      6656 MEMB     53       POPE     C29      CEL1    -0.150000       12.0110           0
      6657 MEMB     53       POPE     H91      HEL1     0.150000       1.00800           0
      6658 MEMB     53       POPE     C210     CEL1    -0.150000       12.0110           0
      6659 MEMB     53       POPE     H101     HEL1     0.150000       1.00800           0
      6660 MEMB     53       POPE     C211     CTL2    -0.180000       12.0110           0
      6661 MEMB     53       POPE     H11R     HAL2     0.900000E-01   1.00800           0
      6662 MEMB     53       POPE     H11S     HAL2     0.900000E-01   1.00800           0
      6663 MEMB     53       POPE     C212     CTL2    -0.180000       12.0110           0
      6664 MEMB     53       POPE     H12R     HAL2     0.900000E-01   1.00800           0
      6665 MEMB     53       POPE     H12S     HAL2     0.900000E-01   1.00800           0
      6666 MEMB     53       POPE     C213     CTL2    -0.180000       12.0110           0
      6667 MEMB     53       POPE     H13R     HAL2     0.900000E-01   1.00800           0
      6668 MEMB     53       POPE     H13S     HAL2     0.900000E-01   1.00800           0
      6669 MEMB     53       POPE     C214     CTL2    -0.180000       12.0110           0
      6670 MEMB     53       POPE     H14R     HAL2     0.900000E-01   1.00800           0
      6671 MEMB     53       POPE     H14S     HAL2     0.900000E-01   1.00800           0
      6672 MEMB     53       POPE     C215     CTL2    -0.180000       12.0110           0
      6673 MEMB     53       POPE     H15R     HAL2     0.900000E-01   1.00800           0
      6674 MEMB     53       POPE     H15S     HAL2     0.900000E-01   1.00800           0
      6675 MEMB     53       POPE     C216     CTL2    -0.180000       12.0110           0
      6676 MEMB     53       POPE     H16R     HAL2     0.900000E-01   1.00800           0
      6677 MEMB     53       POPE     H16S     HAL2     0.900000E-01   1.00800           0
      6678 MEMB     53       POPE     C217     CTL2    -0.180000       12.0110           0
      6679 MEMB     53       POPE     H17R     HAL2     0.900000E-01   1.00800           0
      6680 MEMB     53       POPE     H17S     HAL2     0.900000E-01   1.00800           0
      6681 MEMB     53       POPE     C218     CTL3    -0.270000       12.0110           0
      6682 MEMB     53       POPE     H18R     HAL3     0.900000E-01   1.00800           0
      6683 MEMB     53       POPE     H18S     HAL3     0.900000E-01   1.00800           0
      6684 MEMB     53       POPE     H18T     HAL3     0.900000E-01   1.00800           0
      6685 MEMB     53       POPE     C33      CTL2    -0.180000       12.0110           0
      6686 MEMB     53       POPE     H3X      HAL2     0.900000E-01   1.00800           0
      6687 MEMB     53       POPE     H3Y      HAL2     0.900000E-01   1.00800           0
      6688 MEMB     53       POPE     C34      CTL2    -0.180000       12.0110           0
      6689 MEMB     53       POPE     H4X      HAL2     0.900000E-01   1.00800           0
      6690 MEMB     53       POPE     H4Y      HAL2     0.900000E-01   1.00800           0
      6691 MEMB     53       POPE     C35      CTL2    -0.180000       12.0110           0
      6692 MEMB     53       POPE     H5X      HAL2     0.900000E-01   1.00800           0
      6693 MEMB     53       POPE     H5Y      HAL2     0.900000E-01   1.00800           0
      6694 MEMB     53       POPE     C36      CTL2    -0.180000       12.0110           0
      6695 MEMB     53       POPE     H6X      HAL2     0.900000E-01   1.00800           0
      6696 MEMB     53       POPE     H6Y      HAL2     0.900000E-01   1.00800           0
      6697 MEMB     53       POPE     C37      CTL2    -0.180000       12.0110           0
      6698 MEMB     53       POPE     H7X      HAL2     0.900000E-01   1.00800           0
      6699 MEMB     53       POPE     H7Y      HAL2     0.900000E-01   1.00800           0
      6700 MEMB     53       POPE     C38      CTL2    -0.180000       12.0110           0
      6701 MEMB     53       POPE     H8X      HAL2     0.900000E-01   1.00800           0
      6702 MEMB     53       POPE     H8Y      HAL2     0.900000E-01   1.00800           0
      6703 MEMB     53       POPE     C39      CTL2    -0.180000       12.0110           0
      6704 MEMB     53       POPE     H9X      HAL2     0.900000E-01   1.00800           0
      6705 MEMB     53       POPE     H9Y      HAL2     0.900000E-01   1.00800           0
      6706 MEMB     53       POPE     C310     CTL2    -0.180000       12.0110           0
      6707 MEMB     53       POPE     H10X     HAL2     0.900000E-01   1.00800           0
      6708 MEMB     53       POPE     H10Y     HAL2     0.900000E-01   1.00800           0
      6709 MEMB     53       POPE     C311     CTL2    -0.180000       12.0110           0
      6710 MEMB     53       POPE     H11X     HAL2     0.900000E-01   1.00800           0
      6711 MEMB     53       POPE     H11Y     HAL2     0.900000E-01   1.00800           0
      6712 MEMB     53       POPE     C312     CTL2    -0.180000       12.0110           0
      6713 MEMB     53       POPE     H12X     HAL2     0.900000E-01   1.00800           0
      6714 MEMB     53       POPE     H12Y     HAL2     0.900000E-01   1.00800           0
      6715 MEMB     53       POPE     C313     CTL2    -0.180000       12.0110           0
      6716 MEMB     53       POPE     H13X     HAL2     0.900000E-01   1.00800           0
      6717 MEMB     53       POPE     H13Y     HAL2     0.900000E-01   1.00800           0
      6718 MEMB     53       POPE     C314     CTL2    -0.180000       12.0110           0
      6719 MEMB     53       POPE     H14X     HAL2     0.900000E-01   1.00800           0
      6720 MEMB     53       POPE     H14Y     HAL2     0.900000E-01   1.00800           0
      6721 MEMB     53       POPE     C315     CTL2    -0.180000       12.0110           0
      6722 MEMB     53       POPE     H15X     HAL2     0.900000E-01   1.00800           0
      6723 MEMB     53       POPE     H15Y     HAL2     0.900000E-01   1.00800           0
      6724 MEMB     53       POPE     C316     CTL3    -0.270000       12.0110           0
      6725 MEMB     53       POPE     H16X     HAL3     0.900000E-01   1.00800           0
      6726 MEMB     53       POPE     H16Y     HAL3     0.900000E-01   1.00800           0
      6727 MEMB     53       POPE     H16Z     HAL3     0.900000E-01   1.00800           0
      6728 MEMB     54       QMPE     N        NH3L    -0.300000       14.0070           0
      6729 MEMB     54       QMPE     HN1      HCL      0.330000       1.00800           0
      6730 MEMB     54       QMPE     HN2      HCL      0.330000       1.00800           0
      6731 MEMB     54       QMPE     HN3      HCL      0.330000       1.00800           0
      6732 MEMB     54       QMPE     C12      CTL2     0.130000       12.0110           0
      6733 MEMB     54       QMPE     H12A     HAL2     0.900000E-01   1.00800           0
      6734 MEMB     54       QMPE     H12B     HAL2     0.900000E-01   1.00800           0
      6735 MEMB     54       QMPE     C11      CTL2    -0.800000E-01   12.0110           0
      6736 MEMB     54       QMPE     H11A     HAL2     0.900000E-01   1.00800           0
      6737 MEMB     54       QMPE     H11B     HAL2     0.900000E-01   1.00800           0
      6738 MEMB     54       QMPE     P        PL        1.50000       30.9740           0
      6739 MEMB     54       QMPE     O13      O2L     -0.780000       15.9994           0
      6740 MEMB     54       QMPE     O14      O2L     -0.780000       15.9994           0
      6741 MEMB     54       QMPE     O11      OSLP    -0.570000       15.9994           0
      6742 MEMB     54       QMPE     O12      OSLP    -0.570000       15.9994           0
      6743 MEMB     54       QMPE     C1       CTL2    -0.800000E-01   12.0110           0
      6744 MEMB     54       QMPE     HA       HAL2     0.900000E-01   1.00800           0
      6745 MEMB     54       QMPE     HB       HAL2     0.900000E-01   1.00800           0
      6746 MEMB     54       QMPE     C2       CTL1     0.170000       12.0110           0
      6747 MEMB     54       QMPE     HS       HAL1     0.900000E-01   1.00800           0
      6748 MEMB     54       QMPE     O21      OSL     -0.490000       15.9994           0
      6749 MEMB     54       QMPE     C21      CL       0.900000       12.0110           0
      6750 MEMB     54       QMPE     O22      OBL     -0.630000       15.9994           0
      6751 MEMB     54       QMPE     C22      CTL2    -0.220000       12.0110           0
      6752 MEMB     54       QMPE     H2R      HAL2     0.900000E-01   1.00800           0
      6753 MEMB     54       QMPE     H2S      HAL2     0.900000E-01   1.00800           0
      6754 MEMB     54       QMPE     C3       CTL2     0.800000E-01   12.0110           0
      6755 MEMB     54       QMPE     HX       HAL2     0.900000E-01   1.00800           0
      6756 MEMB     54       QMPE     HY       HAL2     0.900000E-01   1.00800           0
      6757 MEMB     54       QMPE     O31      OSL     -0.490000       15.9994           0
      6758 MEMB     54       QMPE     C31      CL       0.900000       12.0110           0
      6759 MEMB     54       QMPE     O32      OBL     -0.630000       15.9994           0
      6760 MEMB     54       QMPE     C32      CTL2    -0.220000       12.0110           0
      6761 MEMB     54       QMPE     H2X      HAL2     0.900000E-01   1.00800           0
      6762 MEMB     54       QMPE     H2Y      HAL2     0.900000E-01   1.00800           0
      6763 MEMB     54       QMPE     C23      CTL2    -0.180000       12.0110           0
      6764 MEMB     54       QMPE     H3R      HAL2     0.900000E-01   1.00800           0
      6765 MEMB     54       QMPE     H3S      HAL2     0.900000E-01   1.00800           0
      6766 MEMB     54       QMPE     C24      CTL2    -0.180000       12.0110           0
      6767 MEMB     54       QMPE     H4R      HAL2     0.900000E-01   1.00800           0
      6768 MEMB     54       QMPE     H4S      HAL2     0.900000E-01   1.00800           0
      6769 MEMB     54       QMPE     C25      CTL2    -0.180000       12.0110           0
      6770 MEMB     54       QMPE     H5R      HAL2     0.900000E-01   1.00800           0
      6771 MEMB     54       QMPE     H5S      HAL2     0.900000E-01   1.00800           0
      6772 MEMB     54       QMPE     C26      CTL2    -0.180000       12.0110           0
      6773 MEMB     54       QMPE     H6R      HAL2     0.900000E-01   1.00800           0
      6774 MEMB     54       QMPE     H6S      HAL2     0.900000E-01   1.00800           0
      6775 MEMB     54       QMPE     C27      CTL2    -0.180000       12.0110           0
      6776 MEMB     54       QMPE     H7R      HAL2     0.900000E-01   1.00800           0
      6777 MEMB     54       QMPE     H7S      HAL2     0.900000E-01   1.00800           0
      6778 MEMB     54       QMPE     C28      CTL2    -0.180000       12.0110           0
      6779 MEMB     54       QMPE     H8R      HAL2     0.900000E-01   1.00800           0
      6780 MEMB     54       QMPE     H8S      HAL2     0.900000E-01   1.00800           0
      6781 MEMB     54       QMPE     C29      CG3RC1  -0.900000E-01   12.0110           0
      6782 MEMB     54       QMPE     H9R      HGA1     0.900000E-01   1.00800           0
      6783 MEMB     54       QMPE     C217     CG3C31  -0.180000       12.0110           0
      6784 MEMB     54       QMPE     H17R     HGA2     0.900000E-01   1.00800           0
      6785 MEMB     54       QMPE     H17S     HGA2     0.900000E-01   1.00800           0
      6786 MEMB     54       QMPE     C210     CG3RC1  -0.900000E-01   12.0110           0
      6787 MEMB     54       QMPE     H10R     HGA1     0.900000E-01   1.00800           0
      6788 MEMB     54       QMPE     C211     CTL2    -0.180000       12.0110           0
      6789 MEMB     54       QMPE     H11R     HAL2     0.900000E-01   1.00800           0
      6790 MEMB     54       QMPE     H11S     HAL2     0.900000E-01   1.00800           0
      6791 MEMB     54       QMPE     C212     CTL2    -0.180000       12.0110           0
      6792 MEMB     54       QMPE     H12R     HAL2     0.900000E-01   1.00800           0
      6793 MEMB     54       QMPE     H12S     HAL2     0.900000E-01   1.00800           0
      6794 MEMB     54       QMPE     C213     CTL2    -0.180000       12.0110           0
      6795 MEMB     54       QMPE     H13R     HAL2     0.900000E-01   1.00800           0
      6796 MEMB     54       QMPE     H13S     HAL2     0.900000E-01   1.00800           0
      6797 MEMB     54       QMPE     C214     CTL2    -0.180000       12.0110           0
      6798 MEMB     54       QMPE     H14R     HAL2     0.900000E-01   1.00800           0
      6799 MEMB     54       QMPE     H14S     HAL2     0.900000E-01   1.00800           0
      6800 MEMB     54       QMPE     C215     CTL2    -0.180000       12.0110           0
      6801 MEMB     54       QMPE     H15R     HAL2     0.900000E-01   1.00800           0
      6802 MEMB     54       QMPE     H15S     HAL2     0.900000E-01   1.00800           0
      6803 MEMB     54       QMPE     C216     CTL3    -0.270000       12.0110           0
      6804 MEMB     54       QMPE     H16R     HAL3     0.900000E-01   1.00800           0
      6805 MEMB     54       QMPE     H16S     HAL3     0.900000E-01   1.00800           0
      6806 MEMB     54       QMPE     H16T     HAL3     0.900000E-01   1.00800           0
      6807 MEMB     54       QMPE     C33      CTL2    -0.180000       12.0110           0
      6808 MEMB     54       QMPE     H3X      HAL2     0.900000E-01   1.00800           0
      6809 MEMB     54       QMPE     H3Y      HAL2     0.900000E-01   1.00800           0
      6810 MEMB     54       QMPE     C34      CTL2    -0.180000       12.0110           0
      6811 MEMB     54       QMPE     H4X      HAL2     0.900000E-01   1.00800           0
      6812 MEMB     54       QMPE     H4Y      HAL2     0.900000E-01   1.00800           0
      6813 MEMB     54       QMPE     C35      CTL2    -0.180000       12.0110           0
      6814 MEMB     54       QMPE     H5X      HAL2     0.900000E-01   1.00800           0
      6815 MEMB     54       QMPE     H5Y      HAL2     0.900000E-01   1.00800           0
      6816 MEMB     54       QMPE     C36      CTL2    -0.180000       12.0110           0
      6817 MEMB     54       QMPE     H6X      HAL2     0.900000E-01   1.00800           0
      6818 MEMB     54       QMPE     H6Y      HAL2     0.900000E-01   1.00800           0
      6819 MEMB     54       QMPE     C37      CTL2    -0.180000       12.0110           0
      6820 MEMB     54       QMPE     H7X      HAL2     0.900000E-01   1.00800           0
      6821 MEMB     54       QMPE     H7Y      HAL2     0.900000E-01   1.00800           0
      6822 MEMB     54       QMPE     C38      CTL2    -0.180000       12.0110           0
      6823 MEMB     54       QMPE     H8X      HAL2     0.900000E-01   1.00800           0
      6824 MEMB     54       QMPE     H8Y      HAL2     0.900000E-01   1.00800           0
      6825 MEMB     54       QMPE     C39      CTL2    -0.180000       12.0110           0
      6826 MEMB     54       QMPE     H9X      HAL2     0.900000E-01   1.00800           0
      6827 MEMB     54       QMPE     H9Y      HAL2     0.900000E-01   1.00800           0
      6828 MEMB     54       QMPE     C310     CTL2    -0.180000       12.0110           0
      6829 MEMB     54       QMPE     H10X     HAL2     0.900000E-01   1.00800           0
      6830 MEMB     54       QMPE     H10Y     HAL2     0.900000E-01   1.00800           0
      6831 MEMB     54       QMPE     C311     CTL2    -0.180000       12.0110           0
      6832 MEMB     54       QMPE     H11X     HAL2     0.900000E-01   1.00800           0
      6833 MEMB     54       QMPE     H11Y     HAL2     0.900000E-01   1.00800           0
      6834 MEMB     54       QMPE     C312     CTL2    -0.180000       12.0110           0
      6835 MEMB     54       QMPE     H12X     HAL2     0.900000E-01   1.00800           0
      6836 MEMB     54       QMPE     H12Y     HAL2     0.900000E-01   1.00800           0
      6837 MEMB     54       QMPE     C313     CTL2    -0.180000       12.0110           0
      6838 MEMB     54       QMPE     H13X     HAL2     0.900000E-01   1.00800           0
      6839 MEMB     54       QMPE     H13Y     HAL2     0.900000E-01   1.00800           0
      6840 MEMB     54       QMPE     C314     CTL2    -0.180000       12.0110           0
      6841 MEMB     54       QMPE     H14X     HAL2     0.900000E-01   1.00800           0
      6842 MEMB     54       QMPE     H14Y     HAL2     0.900000E-01   1.00800           0
      6843 MEMB     54       QMPE     C315     CTL3    -0.270000       12.0110           0
      6844 MEMB     54       QMPE     H15X     HAL3     0.900000E-01   1.00800           0
      6845 MEMB     54       QMPE     H15Y     HAL3     0.900000E-01   1.00800           0
      6846 MEMB     54       QMPE     H15Z     HAL3     0.900000E-01   1.00800           0
      6847 MEMB     55       POPE     N        NH3L    -0.300000       14.0070           0
      6848 MEMB     55       POPE     HN1      HCL      0.330000       1.00800           0
      6849 MEMB     55       POPE     HN2      HCL      0.330000       1.00800           0
      6850 MEMB     55       POPE     HN3      HCL      0.330000       1.00800           0
      6851 MEMB     55       POPE     C12      CTL2     0.130000       12.0110           0
      6852 MEMB     55       POPE     H12A     HAL2     0.900000E-01   1.00800           0
      6853 MEMB     55       POPE     H12B     HAL2     0.900000E-01   1.00800           0
      6854 MEMB     55       POPE     C11      CTL2    -0.800000E-01   12.0110           0
      6855 MEMB     55       POPE     H11A     HAL2     0.900000E-01   1.00800           0
      6856 MEMB     55       POPE     H11B     HAL2     0.900000E-01   1.00800           0
      6857 MEMB     55       POPE     P        PL        1.50000       30.9740           0
      6858 MEMB     55       POPE     O13      O2L     -0.780000       15.9994           0
      6859 MEMB     55       POPE     O14      O2L     -0.780000       15.9994           0
      6860 MEMB     55       POPE     O11      OSLP    -0.570000       15.9994           0
      6861 MEMB     55       POPE     O12      OSLP    -0.570000       15.9994           0
      6862 MEMB     55       POPE     C1       CTL2    -0.800000E-01   12.0110           0
      6863 MEMB     55       POPE     HA       HAL2     0.900000E-01   1.00800           0
      6864 MEMB     55       POPE     HB       HAL2     0.900000E-01   1.00800           0
      6865 MEMB     55       POPE     C2       CTL1     0.170000       12.0110           0
      6866 MEMB     55       POPE     HS       HAL1     0.900000E-01   1.00800           0
      6867 MEMB     55       POPE     O21      OSL     -0.490000       15.9994           0
      6868 MEMB     55       POPE     C21      CL       0.900000       12.0110           0
      6869 MEMB     55       POPE     O22      OBL     -0.630000       15.9994           0
      6870 MEMB     55       POPE     C22      CTL2    -0.220000       12.0110           0
      6871 MEMB     55       POPE     H2R      HAL2     0.900000E-01   1.00800           0
      6872 MEMB     55       POPE     H2S      HAL2     0.900000E-01   1.00800           0
      6873 MEMB     55       POPE     C3       CTL2     0.800000E-01   12.0110           0
      6874 MEMB     55       POPE     HX       HAL2     0.900000E-01   1.00800           0
      6875 MEMB     55       POPE     HY       HAL2     0.900000E-01   1.00800           0
      6876 MEMB     55       POPE     O31      OSL     -0.490000       15.9994           0
      6877 MEMB     55       POPE     C31      CL       0.900000       12.0110           0
      6878 MEMB     55       POPE     O32      OBL     -0.630000       15.9994           0
      6879 MEMB     55       POPE     C32      CTL2    -0.220000       12.0110           0
      6880 MEMB     55       POPE     H2X      HAL2     0.900000E-01   1.00800           0
      6881 MEMB     55       POPE     H2Y      HAL2     0.900000E-01   1.00800           0
      6882 MEMB     55       POPE     C23      CTL2    -0.180000       12.0110           0
      6883 MEMB     55       POPE     H3R      HAL2     0.900000E-01   1.00800           0
      6884 MEMB     55       POPE     H3S      HAL2     0.900000E-01   1.00800           0
      6885 MEMB     55       POPE     C24      CTL2    -0.180000       12.0110           0
      6886 MEMB     55       POPE     H4R      HAL2     0.900000E-01   1.00800           0
      6887 MEMB     55       POPE     H4S      HAL2     0.900000E-01   1.00800           0
      6888 MEMB     55       POPE     C25      CTL2    -0.180000       12.0110           0
      6889 MEMB     55       POPE     H5R      HAL2     0.900000E-01   1.00800           0
      6890 MEMB     55       POPE     H5S      HAL2     0.900000E-01   1.00800           0
      6891 MEMB     55       POPE     C26      CTL2    -0.180000       12.0110           0
      6892 MEMB     55       POPE     H6R      HAL2     0.900000E-01   1.00800           0
      6893 MEMB     55       POPE     H6S      HAL2     0.900000E-01   1.00800           0
      6894 MEMB     55       POPE     C27      CTL2    -0.180000       12.0110           0
      6895 MEMB     55       POPE     H7R      HAL2     0.900000E-01   1.00800           0
      6896 MEMB     55       POPE     H7S      HAL2     0.900000E-01   1.00800           0
      6897 MEMB     55       POPE     C28      CTL2    -0.180000       12.0110           0
      6898 MEMB     55       POPE     H8R      HAL2     0.900000E-01   1.00800           0
      6899 MEMB     55       POPE     H8S      HAL2     0.900000E-01   1.00800           0
      6900 MEMB     55       POPE     C29      CEL1    -0.150000       12.0110           0
      6901 MEMB     55       POPE     H91      HEL1     0.150000       1.00800           0
      6902 MEMB     55       POPE     C210     CEL1    -0.150000       12.0110           0
      6903 MEMB     55       POPE     H101     HEL1     0.150000       1.00800           0
      6904 MEMB     55       POPE     C211     CTL2    -0.180000       12.0110           0
      6905 MEMB     55       POPE     H11R     HAL2     0.900000E-01   1.00800           0
      6906 MEMB     55       POPE     H11S     HAL2     0.900000E-01   1.00800           0
      6907 MEMB     55       POPE     C212     CTL2    -0.180000       12.0110           0
      6908 MEMB     55       POPE     H12R     HAL2     0.900000E-01   1.00800           0
      6909 MEMB     55       POPE     H12S     HAL2     0.900000E-01   1.00800           0
      6910 MEMB     55       POPE     C213     CTL2    -0.180000       12.0110           0
      6911 MEMB     55       POPE     H13R     HAL2     0.900000E-01   1.00800           0
      6912 MEMB     55       POPE     H13S     HAL2     0.900000E-01   1.00800           0
      6913 MEMB     55       POPE     C214     CTL2    -0.180000       12.0110           0
      6914 MEMB     55       POPE     H14R     HAL2     0.900000E-01   1.00800           0
      6915 MEMB     55       POPE     H14S     HAL2     0.900000E-01   1.00800           0
      6916 MEMB     55       POPE     C215     CTL2    -0.180000       12.0110           0
      6917 MEMB     55       POPE     H15R     HAL2     0.900000E-01   1.00800           0
      6918 MEMB     55       POPE     H15S     HAL2     0.900000E-01   1.00800           0
      6919 MEMB     55       POPE     C216     CTL2    -0.180000       12.0110           0
      6920 MEMB     55       POPE     H16R     HAL2     0.900000E-01   1.00800           0
      6921 MEMB     55       POPE     H16S     HAL2     0.900000E-01   1.00800           0
      6922 MEMB     55       POPE     C217     CTL2    -0.180000       12.0110           0
      6923 MEMB     55       POPE     H17R     HAL2     0.900000E-01   1.00800           0
      6924 MEMB     55       POPE     H17S     HAL2     0.900000E-01   1.00800           0
      6925 MEMB     55       POPE     C218     CTL3    -0.270000       12.0110           0
      6926 MEMB     55       POPE     H18R     HAL3     0.900000E-01   1.00800           0
      6927 MEMB     55       POPE     H18S     HAL3     0.900000E-01   1.00800           0
      6928 MEMB     55       POPE     H18T     HAL3     0.900000E-01   1.00800           0
      6929 MEMB     55       POPE     C33      CTL2    -0.180000       12.0110           0
      6930 MEMB     55       POPE     H3X      HAL2     0.900000E-01   1.00800           0
      6931 MEMB     55       POPE     H3Y      HAL2     0.900000E-01   1.00800           0
      6932 MEMB     55       POPE     C34      CTL2    -0.180000       12.0110           0
      6933 MEMB     55       POPE     H4X      HAL2     0.900000E-01   1.00800           0
      6934 MEMB     55       POPE     H4Y      HAL2     0.900000E-01   1.00800           0
      6935 MEMB     55       POPE     C35      CTL2    -0.180000       12.0110           0
      6936 MEMB     55       POPE     H5X      HAL2     0.900000E-01   1.00800           0
      6937 MEMB     55       POPE     H5Y      HAL2     0.900000E-01   1.00800           0
      6938 MEMB     55       POPE     C36      CTL2    -0.180000       12.0110           0
      6939 MEMB     55       POPE     H6X      HAL2     0.900000E-01   1.00800           0
      6940 MEMB     55       POPE     H6Y      HAL2     0.900000E-01   1.00800           0
      6941 MEMB     55       POPE     C37      CTL2    -0.180000       12.0110           0
      6942 MEMB     55       POPE     H7X      HAL2     0.900000E-01   1.00800           0
      6943 MEMB     55       POPE     H7Y      HAL2     0.900000E-01   1.00800           0
      6944 MEMB     55       POPE     C38      CTL2    -0.180000       12.0110           0
      6945 MEMB     55       POPE     H8X      HAL2     0.900000E-01   1.00800           0
      6946 MEMB     55       POPE     H8Y      HAL2     0.900000E-01   1.00800           0
      6947 MEMB     55       POPE     C39      CTL2    -0.180000       12.0110           0
      6948 MEMB     55       POPE     H9X      HAL2     0.900000E-01   1.00800           0
      6949 MEMB     55       POPE     H9Y      HAL2     0.900000E-01   1.00800           0
      6950 MEMB     55       POPE     C310     CTL2    -0.180000       12.0110           0
      6951 MEMB     55       POPE     H10X     HAL2     0.900000E-01   1.00800           0
      6952 MEMB     55       POPE     H10Y     HAL2     0.900000E-01   1.00800           0
      6953 MEMB     55       POPE     C311     CTL2    -0.180000       12.0110           0
      6954 MEMB     55       POPE     H11X     HAL2     0.900000E-01   1.00800           0
      6955 MEMB     55       POPE     H11Y     HAL2     0.900000E-01   1.00800           0
      6956 MEMB     55       POPE     C312     CTL2    -0.180000       12.0110           0
      6957 MEMB     55       POPE     H12X     HAL2     0.900000E-01   1.00800           0
      6958 MEMB     55       POPE     H12Y     HAL2     0.900000E-01   1.00800           0
      6959 MEMB     55       POPE     C313     CTL2    -0.180000       12.0110           0
      6960 MEMB     55       POPE     H13X     HAL2     0.900000E-01   1.00800           0
      6961 MEMB     55       POPE     H13Y     HAL2     0.900000E-01   1.00800           0
      6962 MEMB     55       POPE     C314     CTL2    -0.180000       12.0110           0
      6963 MEMB     55       POPE     H14X     HAL2     0.900000E-01   1.00800           0
      6964 MEMB     55       POPE     H14Y     HAL2     0.900000E-01   1.00800           0
      6965 MEMB     55       POPE     C315     CTL2    -0.180000       12.0110           0
      6966 MEMB     55       POPE     H15X     HAL2     0.900000E-01   1.00800           0
      6967 MEMB     55       POPE     H15Y     HAL2     0.900000E-01   1.00800           0
      6968 MEMB     55       POPE     C316     CTL3    -0.270000       12.0110           0
      6969 MEMB     55       POPE     H16X     HAL3     0.900000E-01   1.00800           0
      6970 MEMB     55       POPE     H16Y     HAL3     0.900000E-01   1.00800           0
      6971 MEMB     55       POPE     H16Z     HAL3     0.900000E-01   1.00800           0
      6972 MEMB     56       PMPE     N        NH3L    -0.300000       14.0070           0
      6973 MEMB     56       PMPE     HN1      HCL      0.330000       1.00800           0
      6974 MEMB     56       PMPE     HN2      HCL      0.330000       1.00800           0
      6975 MEMB     56       PMPE     HN3      HCL      0.330000       1.00800           0
      6976 MEMB     56       PMPE     C12      CTL2     0.130000       12.0110           0
      6977 MEMB     56       PMPE     H12A     HAL2     0.900000E-01   1.00800           0
      6978 MEMB     56       PMPE     H12B     HAL2     0.900000E-01   1.00800           0
      6979 MEMB     56       PMPE     C11      CTL2    -0.800000E-01   12.0110           0
      6980 MEMB     56       PMPE     H11A     HAL2     0.900000E-01   1.00800           0
      6981 MEMB     56       PMPE     H11B     HAL2     0.900000E-01   1.00800           0
      6982 MEMB     56       PMPE     P        PL        1.50000       30.9740           0
      6983 MEMB     56       PMPE     O13      O2L     -0.780000       15.9994           0
      6984 MEMB     56       PMPE     O14      O2L     -0.780000       15.9994           0
      6985 MEMB     56       PMPE     O11      OSLP    -0.570000       15.9994           0
      6986 MEMB     56       PMPE     O12      OSLP    -0.570000       15.9994           0
      6987 MEMB     56       PMPE     C1       CTL2    -0.800000E-01   12.0110           0
      6988 MEMB     56       PMPE     HA       HAL2     0.900000E-01   1.00800           0
      6989 MEMB     56       PMPE     HB       HAL2     0.900000E-01   1.00800           0
      6990 MEMB     56       PMPE     C2       CTL1     0.170000       12.0110           0
      6991 MEMB     56       PMPE     HS       HAL1     0.900000E-01   1.00800           0
      6992 MEMB     56       PMPE     O21      OSL     -0.490000       15.9994           0
      6993 MEMB     56       PMPE     C21      CL       0.900000       12.0110           0
      6994 MEMB     56       PMPE     O22      OBL     -0.630000       15.9994           0
      6995 MEMB     56       PMPE     C22      CTL2    -0.220000       12.0110           0
      6996 MEMB     56       PMPE     H2R      HAL2     0.900000E-01   1.00800           0
      6997 MEMB     56       PMPE     H2S      HAL2     0.900000E-01   1.00800           0
      6998 MEMB     56       PMPE     C3       CTL2     0.800000E-01   12.0110           0
      6999 MEMB     56       PMPE     HX       HAL2     0.900000E-01   1.00800           0
      7000 MEMB     56       PMPE     HY       HAL2     0.900000E-01   1.00800           0
      7001 MEMB     56       PMPE     O31      OSL     -0.490000       15.9994           0
      7002 MEMB     56       PMPE     C31      CL       0.900000       12.0110           0
      7003 MEMB     56       PMPE     O32      OBL     -0.630000       15.9994           0
      7004 MEMB     56       PMPE     C32      CTL2    -0.220000       12.0110           0
      7005 MEMB     56       PMPE     H2X      HAL2     0.900000E-01   1.00800           0
      7006 MEMB     56       PMPE     H2Y      HAL2     0.900000E-01   1.00800           0
      7007 MEMB     56       PMPE     C23      CTL2    -0.180000       12.0110           0
      7008 MEMB     56       PMPE     H3R      HAL2     0.900000E-01   1.00800           0
      7009 MEMB     56       PMPE     H3S      HAL2     0.900000E-01   1.00800           0
      7010 MEMB     56       PMPE     C24      CTL2    -0.180000       12.0110           0
      7011 MEMB     56       PMPE     H4R      HAL2     0.900000E-01   1.00800           0
      7012 MEMB     56       PMPE     H4S      HAL2     0.900000E-01   1.00800           0
      7013 MEMB     56       PMPE     C25      CTL2    -0.180000       12.0110           0
      7014 MEMB     56       PMPE     H5R      HAL2     0.900000E-01   1.00800           0
      7015 MEMB     56       PMPE     H5S      HAL2     0.900000E-01   1.00800           0
      7016 MEMB     56       PMPE     C26      CTL2    -0.180000       12.0110           0
      7017 MEMB     56       PMPE     H6R      HAL2     0.900000E-01   1.00800           0
      7018 MEMB     56       PMPE     H6S      HAL2     0.900000E-01   1.00800           0
      7019 MEMB     56       PMPE     C27      CTL2    -0.180000       12.0110           0
      7020 MEMB     56       PMPE     H7R      HAL2     0.900000E-01   1.00800           0
      7021 MEMB     56       PMPE     H7S      HAL2     0.900000E-01   1.00800           0
      7022 MEMB     56       PMPE     C28      CTL2    -0.180000       12.0110           0
      7023 MEMB     56       PMPE     H8R      HAL2     0.900000E-01   1.00800           0
      7024 MEMB     56       PMPE     H8S      HAL2     0.900000E-01   1.00800           0
      7025 MEMB     56       PMPE     C29      CG3RC1  -0.900000E-01   12.0110           0
      7026 MEMB     56       PMPE     H9R      HGA1     0.900000E-01   1.00800           0
      7027 MEMB     56       PMPE     C217     CG3C31  -0.180000       12.0110           0
      7028 MEMB     56       PMPE     H17R     HGA2     0.900000E-01   1.00800           0
      7029 MEMB     56       PMPE     H17S     HGA2     0.900000E-01   1.00800           0
      7030 MEMB     56       PMPE     C210     CG3RC1  -0.900000E-01   12.0110           0
      7031 MEMB     56       PMPE     H10R     HGA1     0.900000E-01   1.00800           0
      7032 MEMB     56       PMPE     C211     CTL2    -0.180000       12.0110           0
      7033 MEMB     56       PMPE     H11R     HAL2     0.900000E-01   1.00800           0
      7034 MEMB     56       PMPE     H11S     HAL2     0.900000E-01   1.00800           0
      7035 MEMB     56       PMPE     C212     CTL2    -0.180000       12.0110           0
      7036 MEMB     56       PMPE     H12R     HAL2     0.900000E-01   1.00800           0
      7037 MEMB     56       PMPE     H12S     HAL2     0.900000E-01   1.00800           0
      7038 MEMB     56       PMPE     C213     CTL2    -0.180000       12.0110           0
      7039 MEMB     56       PMPE     H13R     HAL2     0.900000E-01   1.00800           0
      7040 MEMB     56       PMPE     H13S     HAL2     0.900000E-01   1.00800           0
      7041 MEMB     56       PMPE     C214     CTL2    -0.180000       12.0110           0
      7042 MEMB     56       PMPE     H14R     HAL2     0.900000E-01   1.00800           0
      7043 MEMB     56       PMPE     H14S     HAL2     0.900000E-01   1.00800           0
      7044 MEMB     56       PMPE     C215     CTL2    -0.180000       12.0110           0
      7045 MEMB     56       PMPE     H15R     HAL2     0.900000E-01   1.00800           0
      7046 MEMB     56       PMPE     H15S     HAL2     0.900000E-01   1.00800           0
      7047 MEMB     56       PMPE     C216     CTL3    -0.270000       12.0110           0
      7048 MEMB     56       PMPE     H16R     HAL3     0.900000E-01   1.00800           0
      7049 MEMB     56       PMPE     H16S     HAL3     0.900000E-01   1.00800           0
      7050 MEMB     56       PMPE     H16T     HAL3     0.900000E-01   1.00800           0
      7051 MEMB     56       PMPE     C33      CTL2    -0.180000       12.0110           0
      7052 MEMB     56       PMPE     H3X      HAL2     0.900000E-01   1.00800           0
      7053 MEMB     56       PMPE     H3Y      HAL2     0.900000E-01   1.00800           0
      7054 MEMB     56       PMPE     C34      CTL2    -0.180000       12.0110           0
      7055 MEMB     56       PMPE     H4X      HAL2     0.900000E-01   1.00800           0
      7056 MEMB     56       PMPE     H4Y      HAL2     0.900000E-01   1.00800           0
      7057 MEMB     56       PMPE     C35      CTL2    -0.180000       12.0110           0
      7058 MEMB     56       PMPE     H5X      HAL2     0.900000E-01   1.00800           0
      7059 MEMB     56       PMPE     H5Y      HAL2     0.900000E-01   1.00800           0
      7060 MEMB     56       PMPE     C36      CTL2    -0.180000       12.0110           0
      7061 MEMB     56       PMPE     H6X      HAL2     0.900000E-01   1.00800           0
      7062 MEMB     56       PMPE     H6Y      HAL2     0.900000E-01   1.00800           0
      7063 MEMB     56       PMPE     C37      CTL2    -0.180000       12.0110           0
      7064 MEMB     56       PMPE     H7X      HAL2     0.900000E-01   1.00800           0
      7065 MEMB     56       PMPE     H7Y      HAL2     0.900000E-01   1.00800           0
      7066 MEMB     56       PMPE     C38      CTL2    -0.180000       12.0110           0
      7067 MEMB     56       PMPE     H8X      HAL2     0.900000E-01   1.00800           0
      7068 MEMB     56       PMPE     H8Y      HAL2     0.900000E-01   1.00800           0
      7069 MEMB     56       PMPE     C39      CTL2    -0.180000       12.0110           0
      7070 MEMB     56       PMPE     H9X      HAL2     0.900000E-01   1.00800           0
      7071 MEMB     56       PMPE     H9Y      HAL2     0.900000E-01   1.00800           0
      7072 MEMB     56       PMPE     C310     CTL2    -0.180000       12.0110           0
      7073 MEMB     56       PMPE     H10X     HAL2     0.900000E-01   1.00800           0
      7074 MEMB     56       PMPE     H10Y     HAL2     0.900000E-01   1.00800           0
      7075 MEMB     56       PMPE     C311     CTL2    -0.180000       12.0110           0
      7076 MEMB     56       PMPE     H11X     HAL2     0.900000E-01   1.00800           0
      7077 MEMB     56       PMPE     H11Y     HAL2     0.900000E-01   1.00800           0
      7078 MEMB     56       PMPE     C312     CTL2    -0.180000       12.0110           0
      7079 MEMB     56       PMPE     H12X     HAL2     0.900000E-01   1.00800           0
      7080 MEMB     56       PMPE     H12Y     HAL2     0.900000E-01   1.00800           0
      7081 MEMB     56       PMPE     C313     CTL2    -0.180000       12.0110           0
      7082 MEMB     56       PMPE     H13X     HAL2     0.900000E-01   1.00800           0
      7083 MEMB     56       PMPE     H13Y     HAL2     0.900000E-01   1.00800           0
      7084 MEMB     56       PMPE     C314     CTL2    -0.180000       12.0110           0
      7085 MEMB     56       PMPE     H14X     HAL2     0.900000E-01   1.00800           0
      7086 MEMB     56       PMPE     H14Y     HAL2     0.900000E-01   1.00800           0
      7087 MEMB     56       PMPE     C315     CTL2    -0.180000       12.0110           0
      7088 MEMB     56       PMPE     H15X     HAL2     0.900000E-01   1.00800           0
      7089 MEMB     56       PMPE     H15Y     HAL2     0.900000E-01   1.00800           0
      7090 MEMB     56       PMPE     C316     CTL3    -0.270000       12.0110           0
      7091 MEMB     56       PMPE     H16X     HAL3     0.900000E-01   1.00800           0
      7092 MEMB     56       PMPE     H16Y     HAL3     0.900000E-01   1.00800           0
      7093 MEMB     56       PMPE     H16Z     HAL3     0.900000E-01   1.00800           0
      7094 MEMB     57       PMPE     N        NH3L    -0.300000       14.0070           0
      7095 MEMB     57       PMPE     HN1      HCL      0.330000       1.00800           0
      7096 MEMB     57       PMPE     HN2      HCL      0.330000       1.00800           0
      7097 MEMB     57       PMPE     HN3      HCL      0.330000       1.00800           0
      7098 MEMB     57       PMPE     C12      CTL2     0.130000       12.0110           0
      7099 MEMB     57       PMPE     H12A     HAL2     0.900000E-01   1.00800           0
      7100 MEMB     57       PMPE     H12B     HAL2     0.900000E-01   1.00800           0
      7101 MEMB     57       PMPE     C11      CTL2    -0.800000E-01   12.0110           0
      7102 MEMB     57       PMPE     H11A     HAL2     0.900000E-01   1.00800           0
      7103 MEMB     57       PMPE     H11B     HAL2     0.900000E-01   1.00800           0
      7104 MEMB     57       PMPE     P        PL        1.50000       30.9740           0
      7105 MEMB     57       PMPE     O13      O2L     -0.780000       15.9994           0
      7106 MEMB     57       PMPE     O14      O2L     -0.780000       15.9994           0
      7107 MEMB     57       PMPE     O11      OSLP    -0.570000       15.9994           0
      7108 MEMB     57       PMPE     O12      OSLP    -0.570000       15.9994           0
      7109 MEMB     57       PMPE     C1       CTL2    -0.800000E-01   12.0110           0
      7110 MEMB     57       PMPE     HA       HAL2     0.900000E-01   1.00800           0
      7111 MEMB     57       PMPE     HB       HAL2     0.900000E-01   1.00800           0
      7112 MEMB     57       PMPE     C2       CTL1     0.170000       12.0110           0
      7113 MEMB     57       PMPE     HS       HAL1     0.900000E-01   1.00800           0
      7114 MEMB     57       PMPE     O21      OSL     -0.490000       15.9994           0
      7115 MEMB     57       PMPE     C21      CL       0.900000       12.0110           0
      7116 MEMB     57       PMPE     O22      OBL     -0.630000       15.9994           0
      7117 MEMB     57       PMPE     C22      CTL2    -0.220000       12.0110           0
      7118 MEMB     57       PMPE     H2R      HAL2     0.900000E-01   1.00800           0
      7119 MEMB     57       PMPE     H2S      HAL2     0.900000E-01   1.00800           0
      7120 MEMB     57       PMPE     C3       CTL2     0.800000E-01   12.0110           0
      7121 MEMB     57       PMPE     HX       HAL2     0.900000E-01   1.00800           0
      7122 MEMB     57       PMPE     HY       HAL2     0.900000E-01   1.00800           0
      7123 MEMB     57       PMPE     O31      OSL     -0.490000       15.9994           0
      7124 MEMB     57       PMPE     C31      CL       0.900000       12.0110           0
      7125 MEMB     57       PMPE     O32      OBL     -0.630000       15.9994           0
      7126 MEMB     57       PMPE     C32      CTL2    -0.220000       12.0110           0
      7127 MEMB     57       PMPE     H2X      HAL2     0.900000E-01   1.00800           0
      7128 MEMB     57       PMPE     H2Y      HAL2     0.900000E-01   1.00800           0
      7129 MEMB     57       PMPE     C23      CTL2    -0.180000       12.0110           0
      7130 MEMB     57       PMPE     H3R      HAL2     0.900000E-01   1.00800           0
      7131 MEMB     57       PMPE     H3S      HAL2     0.900000E-01   1.00800           0
      7132 MEMB     57       PMPE     C24      CTL2    -0.180000       12.0110           0
      7133 MEMB     57       PMPE     H4R      HAL2     0.900000E-01   1.00800           0
      7134 MEMB     57       PMPE     H4S      HAL2     0.900000E-01   1.00800           0
      7135 MEMB     57       PMPE     C25      CTL2    -0.180000       12.0110           0
      7136 MEMB     57       PMPE     H5R      HAL2     0.900000E-01   1.00800           0
      7137 MEMB     57       PMPE     H5S      HAL2     0.900000E-01   1.00800           0
      7138 MEMB     57       PMPE     C26      CTL2    -0.180000       12.0110           0
      7139 MEMB     57       PMPE     H6R      HAL2     0.900000E-01   1.00800           0
      7140 MEMB     57       PMPE     H6S      HAL2     0.900000E-01   1.00800           0
      7141 MEMB     57       PMPE     C27      CTL2    -0.180000       12.0110           0
      7142 MEMB     57       PMPE     H7R      HAL2     0.900000E-01   1.00800           0
      7143 MEMB     57       PMPE     H7S      HAL2     0.900000E-01   1.00800           0
      7144 MEMB     57       PMPE     C28      CTL2    -0.180000       12.0110           0
      7145 MEMB     57       PMPE     H8R      HAL2     0.900000E-01   1.00800           0
      7146 MEMB     57       PMPE     H8S      HAL2     0.900000E-01   1.00800           0
      7147 MEMB     57       PMPE     C29      CG3RC1  -0.900000E-01   12.0110           0
      7148 MEMB     57       PMPE     H9R      HGA1     0.900000E-01   1.00800           0
      7149 MEMB     57       PMPE     C217     CG3C31  -0.180000       12.0110           0
      7150 MEMB     57       PMPE     H17R     HGA2     0.900000E-01   1.00800           0
      7151 MEMB     57       PMPE     H17S     HGA2     0.900000E-01   1.00800           0
      7152 MEMB     57       PMPE     C210     CG3RC1  -0.900000E-01   12.0110           0
      7153 MEMB     57       PMPE     H10R     HGA1     0.900000E-01   1.00800           0
      7154 MEMB     57       PMPE     C211     CTL2    -0.180000       12.0110           0
      7155 MEMB     57       PMPE     H11R     HAL2     0.900000E-01   1.00800           0
      7156 MEMB     57       PMPE     H11S     HAL2     0.900000E-01   1.00800           0
      7157 MEMB     57       PMPE     C212     CTL2    -0.180000       12.0110           0
      7158 MEMB     57       PMPE     H12R     HAL2     0.900000E-01   1.00800           0
      7159 MEMB     57       PMPE     H12S     HAL2     0.900000E-01   1.00800           0
      7160 MEMB     57       PMPE     C213     CTL2    -0.180000       12.0110           0
      7161 MEMB     57       PMPE     H13R     HAL2     0.900000E-01   1.00800           0
      7162 MEMB     57       PMPE     H13S     HAL2     0.900000E-01   1.00800           0
      7163 MEMB     57       PMPE     C214     CTL2    -0.180000       12.0110           0
      7164 MEMB     57       PMPE     H14R     HAL2     0.900000E-01   1.00800           0
      7165 MEMB     57       PMPE     H14S     HAL2     0.900000E-01   1.00800           0
      7166 MEMB     57       PMPE     C215     CTL2    -0.180000       12.0110           0
      7167 MEMB     57       PMPE     H15R     HAL2     0.900000E-01   1.00800           0
      7168 MEMB     57       PMPE     H15S     HAL2     0.900000E-01   1.00800           0
      7169 MEMB     57       PMPE     C216     CTL3    -0.270000       12.0110           0
      7170 MEMB     57       PMPE     H16R     HAL3     0.900000E-01   1.00800           0
      7171 MEMB     57       PMPE     H16S     HAL3     0.900000E-01   1.00800           0
      7172 MEMB     57       PMPE     H16T     HAL3     0.900000E-01   1.00800           0
      7173 MEMB     57       PMPE     C33      CTL2    -0.180000       12.0110           0
      7174 MEMB     57       PMPE     H3X      HAL2     0.900000E-01   1.00800           0
      7175 MEMB     57       PMPE     H3Y      HAL2     0.900000E-01   1.00800           0
      7176 MEMB     57       PMPE     C34      CTL2    -0.180000       12.0110           0
      7177 MEMB     57       PMPE     H4X      HAL2     0.900000E-01   1.00800           0
      7178 MEMB     57       PMPE     H4Y      HAL2     0.900000E-01   1.00800           0
      7179 MEMB     57       PMPE     C35      CTL2    -0.180000       12.0110           0
      7180 MEMB     57       PMPE     H5X      HAL2     0.900000E-01   1.00800           0
      7181 MEMB     57       PMPE     H5Y      HAL2     0.900000E-01   1.00800           0
      7182 MEMB     57       PMPE     C36      CTL2    -0.180000       12.0110           0
      7183 MEMB     57       PMPE     H6X      HAL2     0.900000E-01   1.00800           0
      7184 MEMB     57       PMPE     H6Y      HAL2     0.900000E-01   1.00800           0
      7185 MEMB     57       PMPE     C37      CTL2    -0.180000       12.0110           0
      7186 MEMB     57       PMPE     H7X      HAL2     0.900000E-01   1.00800           0
      7187 MEMB     57       PMPE     H7Y      HAL2     0.900000E-01   1.00800           0
      7188 MEMB     57       PMPE     C38      CTL2    -0.180000       12.0110           0
      7189 MEMB     57       PMPE     H8X      HAL2     0.900000E-01   1.00800           0
      7190 MEMB     57       PMPE     H8Y      HAL2     0.900000E-01   1.00800           0
      7191 MEMB     57       PMPE     C39      CTL2    -0.180000       12.0110           0
      7192 MEMB     57       PMPE     H9X      HAL2     0.900000E-01   1.00800           0
      7193 MEMB     57       PMPE     H9Y      HAL2     0.900000E-01   1.00800           0
      7194 MEMB     57       PMPE     C310     CTL2    -0.180000       12.0110           0
      7195 MEMB     57       PMPE     H10X     HAL2     0.900000E-01   1.00800           0
      7196 MEMB     57       PMPE     H10Y     HAL2     0.900000E-01   1.00800           0
      7197 MEMB     57       PMPE     C311     CTL2    -0.180000       12.0110           0
      7198 MEMB     57       PMPE     H11X     HAL2     0.900000E-01   1.00800           0
      7199 MEMB     57       PMPE     H11Y     HAL2     0.900000E-01   1.00800           0
      7200 MEMB     57       PMPE     C312     CTL2    -0.180000       12.0110           0
      7201 MEMB     57       PMPE     H12X     HAL2     0.900000E-01   1.00800           0
      7202 MEMB     57       PMPE     H12Y     HAL2     0.900000E-01   1.00800           0
      7203 MEMB     57       PMPE     C313     CTL2    -0.180000       12.0110           0
      7204 MEMB     57       PMPE     H13X     HAL2     0.900000E-01   1.00800           0
      7205 MEMB     57       PMPE     H13Y     HAL2     0.900000E-01   1.00800           0
      7206 MEMB     57       PMPE     C314     CTL2    -0.180000       12.0110           0
      7207 MEMB     57       PMPE     H14X     HAL2     0.900000E-01   1.00800           0
      7208 MEMB     57       PMPE     H14Y     HAL2     0.900000E-01   1.00800           0
      7209 MEMB     57       PMPE     C315     CTL2    -0.180000       12.0110           0
      7210 MEMB     57       PMPE     H15X     HAL2     0.900000E-01   1.00800           0
      7211 MEMB     57       PMPE     H15Y     HAL2     0.900000E-01   1.00800           0
      7212 MEMB     57       PMPE     C316     CTL3    -0.270000       12.0110           0
      7213 MEMB     57       PMPE     H16X     HAL3     0.900000E-01   1.00800           0
      7214 MEMB     57       PMPE     H16Y     HAL3     0.900000E-01   1.00800           0
      7215 MEMB     57       PMPE     H16Z     HAL3     0.900000E-01   1.00800           0
      7216 MEMB     58       POPE     N        NH3L    -0.300000       14.0070           0
      7217 MEMB     58       POPE     HN1      HCL      0.330000       1.00800           0
      7218 MEMB     58       POPE     HN2      HCL      0.330000       1.00800           0
      7219 MEMB     58       POPE     HN3      HCL      0.330000       1.00800           0
      7220 MEMB     58       POPE     C12      CTL2     0.130000       12.0110           0
      7221 MEMB     58       POPE     H12A     HAL2     0.900000E-01   1.00800           0
      7222 MEMB     58       POPE     H12B     HAL2     0.900000E-01   1.00800           0
      7223 MEMB     58       POPE     C11      CTL2    -0.800000E-01   12.0110           0
      7224 MEMB     58       POPE     H11A     HAL2     0.900000E-01   1.00800           0
      7225 MEMB     58       POPE     H11B     HAL2     0.900000E-01   1.00800           0
      7226 MEMB     58       POPE     P        PL        1.50000       30.9740           0
      7227 MEMB     58       POPE     O13      O2L     -0.780000       15.9994           0
      7228 MEMB     58       POPE     O14      O2L     -0.780000       15.9994           0
      7229 MEMB     58       POPE     O11      OSLP    -0.570000       15.9994           0
      7230 MEMB     58       POPE     O12      OSLP    -0.570000       15.9994           0
      7231 MEMB     58       POPE     C1       CTL2    -0.800000E-01   12.0110           0
      7232 MEMB     58       POPE     HA       HAL2     0.900000E-01   1.00800           0
      7233 MEMB     58       POPE     HB       HAL2     0.900000E-01   1.00800           0
      7234 MEMB     58       POPE     C2       CTL1     0.170000       12.0110           0
      7235 MEMB     58       POPE     HS       HAL1     0.900000E-01   1.00800           0
      7236 MEMB     58       POPE     O21      OSL     -0.490000       15.9994           0
      7237 MEMB     58       POPE     C21      CL       0.900000       12.0110           0
      7238 MEMB     58       POPE     O22      OBL     -0.630000       15.9994           0
      7239 MEMB     58       POPE     C22      CTL2    -0.220000       12.0110           0
      7240 MEMB     58       POPE     H2R      HAL2     0.900000E-01   1.00800           0
      7241 MEMB     58       POPE     H2S      HAL2     0.900000E-01   1.00800           0
      7242 MEMB     58       POPE     C3       CTL2     0.800000E-01   12.0110           0
      7243 MEMB     58       POPE     HX       HAL2     0.900000E-01   1.00800           0
      7244 MEMB     58       POPE     HY       HAL2     0.900000E-01   1.00800           0
      7245 MEMB     58       POPE     O31      OSL     -0.490000       15.9994           0
      7246 MEMB     58       POPE     C31      CL       0.900000       12.0110           0
      7247 MEMB     58       POPE     O32      OBL     -0.630000       15.9994           0
      7248 MEMB     58       POPE     C32      CTL2    -0.220000       12.0110           0
      7249 MEMB     58       POPE     H2X      HAL2     0.900000E-01   1.00800           0
      7250 MEMB     58       POPE     H2Y      HAL2     0.900000E-01   1.00800           0
      7251 MEMB     58       POPE     C23      CTL2    -0.180000       12.0110           0
      7252 MEMB     58       POPE     H3R      HAL2     0.900000E-01   1.00800           0
      7253 MEMB     58       POPE     H3S      HAL2     0.900000E-01   1.00800           0
      7254 MEMB     58       POPE     C24      CTL2    -0.180000       12.0110           0
      7255 MEMB     58       POPE     H4R      HAL2     0.900000E-01   1.00800           0
      7256 MEMB     58       POPE     H4S      HAL2     0.900000E-01   1.00800           0
      7257 MEMB     58       POPE     C25      CTL2    -0.180000       12.0110           0
      7258 MEMB     58       POPE     H5R      HAL2     0.900000E-01   1.00800           0
      7259 MEMB     58       POPE     H5S      HAL2     0.900000E-01   1.00800           0
      7260 MEMB     58       POPE     C26      CTL2    -0.180000       12.0110           0
      7261 MEMB     58       POPE     H6R      HAL2     0.900000E-01   1.00800           0
      7262 MEMB     58       POPE     H6S      HAL2     0.900000E-01   1.00800           0
      7263 MEMB     58       POPE     C27      CTL2    -0.180000       12.0110           0
      7264 MEMB     58       POPE     H7R      HAL2     0.900000E-01   1.00800           0
      7265 MEMB     58       POPE     H7S      HAL2     0.900000E-01   1.00800           0
      7266 MEMB     58       POPE     C28      CTL2    -0.180000       12.0110           0
      7267 MEMB     58       POPE     H8R      HAL2     0.900000E-01   1.00800           0
      7268 MEMB     58       POPE     H8S      HAL2     0.900000E-01   1.00800           0
      7269 MEMB     58       POPE     C29      CEL1    -0.150000       12.0110           0
      7270 MEMB     58       POPE     H91      HEL1     0.150000       1.00800           0
      7271 MEMB     58       POPE     C210     CEL1    -0.150000       12.0110           0
      7272 MEMB     58       POPE     H101     HEL1     0.150000       1.00800           0
      7273 MEMB     58       POPE     C211     CTL2    -0.180000       12.0110           0
      7274 MEMB     58       POPE     H11R     HAL2     0.900000E-01   1.00800           0
      7275 MEMB     58       POPE     H11S     HAL2     0.900000E-01   1.00800           0
      7276 MEMB     58       POPE     C212     CTL2    -0.180000       12.0110           0
      7277 MEMB     58       POPE     H12R     HAL2     0.900000E-01   1.00800           0
      7278 MEMB     58       POPE     H12S     HAL2     0.900000E-01   1.00800           0
      7279 MEMB     58       POPE     C213     CTL2    -0.180000       12.0110           0
      7280 MEMB     58       POPE     H13R     HAL2     0.900000E-01   1.00800           0
      7281 MEMB     58       POPE     H13S     HAL2     0.900000E-01   1.00800           0
      7282 MEMB     58       POPE     C214     CTL2    -0.180000       12.0110           0
      7283 MEMB     58       POPE     H14R     HAL2     0.900000E-01   1.00800           0
      7284 MEMB     58       POPE     H14S     HAL2     0.900000E-01   1.00800           0
      7285 MEMB     58       POPE     C215     CTL2    -0.180000       12.0110           0
      7286 MEMB     58       POPE     H15R     HAL2     0.900000E-01   1.00800           0
      7287 MEMB     58       POPE     H15S     HAL2     0.900000E-01   1.00800           0
      7288 MEMB     58       POPE     C216     CTL2    -0.180000       12.0110           0
      7289 MEMB     58       POPE     H16R     HAL2     0.900000E-01   1.00800           0
      7290 MEMB     58       POPE     H16S     HAL2     0.900000E-01   1.00800           0
      7291 MEMB     58       POPE     C217     CTL2    -0.180000       12.0110           0
      7292 MEMB     58       POPE     H17R     HAL2     0.900000E-01   1.00800           0
      7293 MEMB     58       POPE     H17S     HAL2     0.900000E-01   1.00800           0
      7294 MEMB     58       POPE     C218     CTL3    -0.270000       12.0110           0
      7295 MEMB     58       POPE     H18R     HAL3     0.900000E-01   1.00800           0
      7296 MEMB     58       POPE     H18S     HAL3     0.900000E-01   1.00800           0
      7297 MEMB     58       POPE     H18T     HAL3     0.900000E-01   1.00800           0
      7298 MEMB     58       POPE     C33      CTL2    -0.180000       12.0110           0
      7299 MEMB     58       POPE     H3X      HAL2     0.900000E-01   1.00800           0
      7300 MEMB     58       POPE     H3Y      HAL2     0.900000E-01   1.00800           0
      7301 MEMB     58       POPE     C34      CTL2    -0.180000       12.0110           0
      7302 MEMB     58       POPE     H4X      HAL2     0.900000E-01   1.00800           0
      7303 MEMB     58       POPE     H4Y      HAL2     0.900000E-01   1.00800           0
      7304 MEMB     58       POPE     C35      CTL2    -0.180000       12.0110           0
      7305 MEMB     58       POPE     H5X      HAL2     0.900000E-01   1.00800           0
      7306 MEMB     58       POPE     H5Y      HAL2     0.900000E-01   1.00800           0
      7307 MEMB     58       POPE     C36      CTL2    -0.180000       12.0110           0
      7308 MEMB     58       POPE     H6X      HAL2     0.900000E-01   1.00800           0
      7309 MEMB     58       POPE     H6Y      HAL2     0.900000E-01   1.00800           0
      7310 MEMB     58       POPE     C37      CTL2    -0.180000       12.0110           0
      7311 MEMB     58       POPE     H7X      HAL2     0.900000E-01   1.00800           0
      7312 MEMB     58       POPE     H7Y      HAL2     0.900000E-01   1.00800           0
      7313 MEMB     58       POPE     C38      CTL2    -0.180000       12.0110           0
      7314 MEMB     58       POPE     H8X      HAL2     0.900000E-01   1.00800           0
      7315 MEMB     58       POPE     H8Y      HAL2     0.900000E-01   1.00800           0
      7316 MEMB     58       POPE     C39      CTL2    -0.180000       12.0110           0
      7317 MEMB     58       POPE     H9X      HAL2     0.900000E-01   1.00800           0
      7318 MEMB     58       POPE     H9Y      HAL2     0.900000E-01   1.00800           0
      7319 MEMB     58       POPE     C310     CTL2    -0.180000       12.0110           0
      7320 MEMB     58       POPE     H10X     HAL2     0.900000E-01   1.00800           0
      7321 MEMB     58       POPE     H10Y     HAL2     0.900000E-01   1.00800           0
      7322 MEMB     58       POPE     C311     CTL2    -0.180000       12.0110           0
      7323 MEMB     58       POPE     H11X     HAL2     0.900000E-01   1.00800           0
      7324 MEMB     58       POPE     H11Y     HAL2     0.900000E-01   1.00800           0
      7325 MEMB     58       POPE     C312     CTL2    -0.180000       12.0110           0
      7326 MEMB     58       POPE     H12X     HAL2     0.900000E-01   1.00800           0
      7327 MEMB     58       POPE     H12Y     HAL2     0.900000E-01   1.00800           0
      7328 MEMB     58       POPE     C313     CTL2    -0.180000       12.0110           0
      7329 MEMB     58       POPE     H13X     HAL2     0.900000E-01   1.00800           0
      7330 MEMB     58       POPE     H13Y     HAL2     0.900000E-01   1.00800           0
      7331 MEMB     58       POPE     C314     CTL2    -0.180000       12.0110           0
      7332 MEMB     58       POPE     H14X     HAL2     0.900000E-01   1.00800           0
      7333 MEMB     58       POPE     H14Y     HAL2     0.900000E-01   1.00800           0
      7334 MEMB     58       POPE     C315     CTL2    -0.180000       12.0110           0
      7335 MEMB     58       POPE     H15X     HAL2     0.900000E-01   1.00800           0
      7336 MEMB     58       POPE     H15Y     HAL2     0.900000E-01   1.00800           0
      7337 MEMB     58       POPE     C316     CTL3    -0.270000       12.0110           0
      7338 MEMB     58       POPE     H16X     HAL3     0.900000E-01   1.00800           0
      7339 MEMB     58       POPE     H16Y     HAL3     0.900000E-01   1.00800           0
      7340 MEMB     58       POPE     H16Z     HAL3     0.900000E-01   1.00800           0
      7341 MEMB     59       PMPE     N        NH3L    -0.300000       14.0070           0
      7342 MEMB     59       PMPE     HN1      HCL      0.330000       1.00800           0
      7343 MEMB     59       PMPE     HN2      HCL      0.330000       1.00800           0
      7344 MEMB     59       PMPE     HN3      HCL      0.330000       1.00800           0
      7345 MEMB     59       PMPE     C12      CTL2     0.130000       12.0110           0
      7346 MEMB     59       PMPE     H12A     HAL2     0.900000E-01   1.00800           0
      7347 MEMB     59       PMPE     H12B     HAL2     0.900000E-01   1.00800           0
      7348 MEMB     59       PMPE     C11      CTL2    -0.800000E-01   12.0110           0
      7349 MEMB     59       PMPE     H11A     HAL2     0.900000E-01   1.00800           0
      7350 MEMB     59       PMPE     H11B     HAL2     0.900000E-01   1.00800           0
      7351 MEMB     59       PMPE     P        PL        1.50000       30.9740           0
      7352 MEMB     59       PMPE     O13      O2L     -0.780000       15.9994           0
      7353 MEMB     59       PMPE     O14      O2L     -0.780000       15.9994           0
      7354 MEMB     59       PMPE     O11      OSLP    -0.570000       15.9994           0
      7355 MEMB     59       PMPE     O12      OSLP    -0.570000       15.9994           0
      7356 MEMB     59       PMPE     C1       CTL2    -0.800000E-01   12.0110           0
      7357 MEMB     59       PMPE     HA       HAL2     0.900000E-01   1.00800           0
      7358 MEMB     59       PMPE     HB       HAL2     0.900000E-01   1.00800           0
      7359 MEMB     59       PMPE     C2       CTL1     0.170000       12.0110           0
      7360 MEMB     59       PMPE     HS       HAL1     0.900000E-01   1.00800           0
      7361 MEMB     59       PMPE     O21      OSL     -0.490000       15.9994           0
      7362 MEMB     59       PMPE     C21      CL       0.900000       12.0110           0
      7363 MEMB     59       PMPE     O22      OBL     -0.630000       15.9994           0
      7364 MEMB     59       PMPE     C22      CTL2    -0.220000       12.0110           0
      7365 MEMB     59       PMPE     H2R      HAL2     0.900000E-01   1.00800           0
      7366 MEMB     59       PMPE     H2S      HAL2     0.900000E-01   1.00800           0
      7367 MEMB     59       PMPE     C3       CTL2     0.800000E-01   12.0110           0
      7368 MEMB     59       PMPE     HX       HAL2     0.900000E-01   1.00800           0
      7369 MEMB     59       PMPE     HY       HAL2     0.900000E-01   1.00800           0
      7370 MEMB     59       PMPE     O31      OSL     -0.490000       15.9994           0
      7371 MEMB     59       PMPE     C31      CL       0.900000       12.0110           0
      7372 MEMB     59       PMPE     O32      OBL     -0.630000       15.9994           0
      7373 MEMB     59       PMPE     C32      CTL2    -0.220000       12.0110           0
      7374 MEMB     59       PMPE     H2X      HAL2     0.900000E-01   1.00800           0
      7375 MEMB     59       PMPE     H2Y      HAL2     0.900000E-01   1.00800           0
      7376 MEMB     59       PMPE     C23      CTL2    -0.180000       12.0110           0
      7377 MEMB     59       PMPE     H3R      HAL2     0.900000E-01   1.00800           0
      7378 MEMB     59       PMPE     H3S      HAL2     0.900000E-01   1.00800           0
      7379 MEMB     59       PMPE     C24      CTL2    -0.180000       12.0110           0
      7380 MEMB     59       PMPE     H4R      HAL2     0.900000E-01   1.00800           0
      7381 MEMB     59       PMPE     H4S      HAL2     0.900000E-01   1.00800           0
      7382 MEMB     59       PMPE     C25      CTL2    -0.180000       12.0110           0
      7383 MEMB     59       PMPE     H5R      HAL2     0.900000E-01   1.00800           0
      7384 MEMB     59       PMPE     H5S      HAL2     0.900000E-01   1.00800           0
      7385 MEMB     59       PMPE     C26      CTL2    -0.180000       12.0110           0
      7386 MEMB     59       PMPE     H6R      HAL2     0.900000E-01   1.00800           0
      7387 MEMB     59       PMPE     H6S      HAL2     0.900000E-01   1.00800           0
      7388 MEMB     59       PMPE     C27      CTL2    -0.180000       12.0110           0
      7389 MEMB     59       PMPE     H7R      HAL2     0.900000E-01   1.00800           0
      7390 MEMB     59       PMPE     H7S      HAL2     0.900000E-01   1.00800           0
      7391 MEMB     59       PMPE     C28      CTL2    -0.180000       12.0110           0
      7392 MEMB     59       PMPE     H8R      HAL2     0.900000E-01   1.00800           0
      7393 MEMB     59       PMPE     H8S      HAL2     0.900000E-01   1.00800           0
      7394 MEMB     59       PMPE     C29      CG3RC1  -0.900000E-01   12.0110           0
      7395 MEMB     59       PMPE     H9R      HGA1     0.900000E-01   1.00800           0
      7396 MEMB     59       PMPE     C217     CG3C31  -0.180000       12.0110           0
      7397 MEMB     59       PMPE     H17R     HGA2     0.900000E-01   1.00800           0
      7398 MEMB     59       PMPE     H17S     HGA2     0.900000E-01   1.00800           0
      7399 MEMB     59       PMPE     C210     CG3RC1  -0.900000E-01   12.0110           0
      7400 MEMB     59       PMPE     H10R     HGA1     0.900000E-01   1.00800           0
      7401 MEMB     59       PMPE     C211     CTL2    -0.180000       12.0110           0
      7402 MEMB     59       PMPE     H11R     HAL2     0.900000E-01   1.00800           0
      7403 MEMB     59       PMPE     H11S     HAL2     0.900000E-01   1.00800           0
      7404 MEMB     59       PMPE     C212     CTL2    -0.180000       12.0110           0
      7405 MEMB     59       PMPE     H12R     HAL2     0.900000E-01   1.00800           0
      7406 MEMB     59       PMPE     H12S     HAL2     0.900000E-01   1.00800           0
      7407 MEMB     59       PMPE     C213     CTL2    -0.180000       12.0110           0
      7408 MEMB     59       PMPE     H13R     HAL2     0.900000E-01   1.00800           0
      7409 MEMB     59       PMPE     H13S     HAL2     0.900000E-01   1.00800           0
      7410 MEMB     59       PMPE     C214     CTL2    -0.180000       12.0110           0
      7411 MEMB     59       PMPE     H14R     HAL2     0.900000E-01   1.00800           0
      7412 MEMB     59       PMPE     H14S     HAL2     0.900000E-01   1.00800           0
      7413 MEMB     59       PMPE     C215     CTL2    -0.180000       12.0110           0
      7414 MEMB     59       PMPE     H15R     HAL2     0.900000E-01   1.00800           0
      7415 MEMB     59       PMPE     H15S     HAL2     0.900000E-01   1.00800           0
      7416 MEMB     59       PMPE     C216     CTL3    -0.270000       12.0110           0
      7417 MEMB     59       PMPE     H16R     HAL3     0.900000E-01   1.00800           0
      7418 MEMB     59       PMPE     H16S     HAL3     0.900000E-01   1.00800           0
      7419 MEMB     59       PMPE     H16T     HAL3     0.900000E-01   1.00800           0
      7420 MEMB     59       PMPE     C33      CTL2    -0.180000       12.0110           0
      7421 MEMB     59       PMPE     H3X      HAL2     0.900000E-01   1.00800           0
      7422 MEMB     59       PMPE     H3Y      HAL2     0.900000E-01   1.00800           0
      7423 MEMB     59       PMPE     C34      CTL2    -0.180000       12.0110           0
      7424 MEMB     59       PMPE     H4X      HAL2     0.900000E-01   1.00800           0
      7425 MEMB     59       PMPE     H4Y      HAL2     0.900000E-01   1.00800           0
      7426 MEMB     59       PMPE     C35      CTL2    -0.180000       12.0110           0
      7427 MEMB     59       PMPE     H5X      HAL2     0.900000E-01   1.00800           0
      7428 MEMB     59       PMPE     H5Y      HAL2     0.900000E-01   1.00800           0
      7429 MEMB     59       PMPE     C36      CTL2    -0.180000       12.0110           0
      7430 MEMB     59       PMPE     H6X      HAL2     0.900000E-01   1.00800           0
      7431 MEMB     59       PMPE     H6Y      HAL2     0.900000E-01   1.00800           0
      7432 MEMB     59       PMPE     C37      CTL2    -0.180000       12.0110           0
      7433 MEMB     59       PMPE     H7X      HAL2     0.900000E-01   1.00800           0
      7434 MEMB     59       PMPE     H7Y      HAL2     0.900000E-01   1.00800           0
      7435 MEMB     59       PMPE     C38      CTL2    -0.180000       12.0110           0
      7436 MEMB     59       PMPE     H8X      HAL2     0.900000E-01   1.00800           0
      7437 MEMB     59       PMPE     H8Y      HAL2     0.900000E-01   1.00800           0
      7438 MEMB     59       PMPE     C39      CTL2    -0.180000       12.0110           0
      7439 MEMB     59       PMPE     H9X      HAL2     0.900000E-01   1.00800           0
      7440 MEMB     59       PMPE     H9Y      HAL2     0.900000E-01   1.00800           0
      7441 MEMB     59       PMPE     C310     CTL2    -0.180000       12.0110           0
      7442 MEMB     59       PMPE     H10X     HAL2     0.900000E-01   1.00800           0
      7443 MEMB     59       PMPE     H10Y     HAL2     0.900000E-01   1.00800           0
      7444 MEMB     59       PMPE     C311     CTL2    -0.180000       12.0110           0
      7445 MEMB     59       PMPE     H11X     HAL2     0.900000E-01   1.00800           0
      7446 MEMB     59       PMPE     H11Y     HAL2     0.900000E-01   1.00800           0
      7447 MEMB     59       PMPE     C312     CTL2    -0.180000       12.0110           0
      7448 MEMB     59       PMPE     H12X     HAL2     0.900000E-01   1.00800           0
      7449 MEMB     59       PMPE     H12Y     HAL2     0.900000E-01   1.00800           0
      7450 MEMB     59       PMPE     C313     CTL2    -0.180000       12.0110           0
      7451 MEMB     59       PMPE     H13X     HAL2     0.900000E-01   1.00800           0
      7452 MEMB     59       PMPE     H13Y     HAL2     0.900000E-01   1.00800           0
      7453 MEMB     59       PMPE     C314     CTL2    -0.180000       12.0110           0
      7454 MEMB     59       PMPE     H14X     HAL2     0.900000E-01   1.00800           0
      7455 MEMB     59       PMPE     H14Y     HAL2     0.900000E-01   1.00800           0
      7456 MEMB     59       PMPE     C315     CTL2    -0.180000       12.0110           0
      7457 MEMB     59       PMPE     H15X     HAL2     0.900000E-01   1.00800           0
      7458 MEMB     59       PMPE     H15Y     HAL2     0.900000E-01   1.00800           0
      7459 MEMB     59       PMPE     C316     CTL3    -0.270000       12.0110           0
      7460 MEMB     59       PMPE     H16X     HAL3     0.900000E-01   1.00800           0
      7461 MEMB     59       PMPE     H16Y     HAL3     0.900000E-01   1.00800           0
      7462 MEMB     59       PMPE     H16Z     HAL3     0.900000E-01   1.00800           0
      7463 MEMB     60       PMPE     N        NH3L    -0.300000       14.0070           0
      7464 MEMB     60       PMPE     HN1      HCL      0.330000       1.00800           0
      7465 MEMB     60       PMPE     HN2      HCL      0.330000       1.00800           0
      7466 MEMB     60       PMPE     HN3      HCL      0.330000       1.00800           0
      7467 MEMB     60       PMPE     C12      CTL2     0.130000       12.0110           0
      7468 MEMB     60       PMPE     H12A     HAL2     0.900000E-01   1.00800           0
      7469 MEMB     60       PMPE     H12B     HAL2     0.900000E-01   1.00800           0
      7470 MEMB     60       PMPE     C11      CTL2    -0.800000E-01   12.0110           0
      7471 MEMB     60       PMPE     H11A     HAL2     0.900000E-01   1.00800           0
      7472 MEMB     60       PMPE     H11B     HAL2     0.900000E-01   1.00800           0
      7473 MEMB     60       PMPE     P        PL        1.50000       30.9740           0
      7474 MEMB     60       PMPE     O13      O2L     -0.780000       15.9994           0
      7475 MEMB     60       PMPE     O14      O2L     -0.780000       15.9994           0
      7476 MEMB     60       PMPE     O11      OSLP    -0.570000       15.9994           0
      7477 MEMB     60       PMPE     O12      OSLP    -0.570000       15.9994           0
      7478 MEMB     60       PMPE     C1       CTL2    -0.800000E-01   12.0110           0
      7479 MEMB     60       PMPE     HA       HAL2     0.900000E-01   1.00800           0
      7480 MEMB     60       PMPE     HB       HAL2     0.900000E-01   1.00800           0
      7481 MEMB     60       PMPE     C2       CTL1     0.170000       12.0110           0
      7482 MEMB     60       PMPE     HS       HAL1     0.900000E-01   1.00800           0
      7483 MEMB     60       PMPE     O21      OSL     -0.490000       15.9994           0
      7484 MEMB     60       PMPE     C21      CL       0.900000       12.0110           0
      7485 MEMB     60       PMPE     O22      OBL     -0.630000       15.9994           0
      7486 MEMB     60       PMPE     C22      CTL2    -0.220000       12.0110           0
      7487 MEMB     60       PMPE     H2R      HAL2     0.900000E-01   1.00800           0
      7488 MEMB     60       PMPE     H2S      HAL2     0.900000E-01   1.00800           0
      7489 MEMB     60       PMPE     C3       CTL2     0.800000E-01   12.0110           0
      7490 MEMB     60       PMPE     HX       HAL2     0.900000E-01   1.00800           0
      7491 MEMB     60       PMPE     HY       HAL2     0.900000E-01   1.00800           0
      7492 MEMB     60       PMPE     O31      OSL     -0.490000       15.9994           0
      7493 MEMB     60       PMPE     C31      CL       0.900000       12.0110           0
      7494 MEMB     60       PMPE     O32      OBL     -0.630000       15.9994           0
      7495 MEMB     60       PMPE     C32      CTL2    -0.220000       12.0110           0
      7496 MEMB     60       PMPE     H2X      HAL2     0.900000E-01   1.00800           0
      7497 MEMB     60       PMPE     H2Y      HAL2     0.900000E-01   1.00800           0
      7498 MEMB     60       PMPE     C23      CTL2    -0.180000       12.0110           0
      7499 MEMB     60       PMPE     H3R      HAL2     0.900000E-01   1.00800           0
      7500 MEMB     60       PMPE     H3S      HAL2     0.900000E-01   1.00800           0
      7501 MEMB     60       PMPE     C24      CTL2    -0.180000       12.0110           0
      7502 MEMB     60       PMPE     H4R      HAL2     0.900000E-01   1.00800           0
      7503 MEMB     60       PMPE     H4S      HAL2     0.900000E-01   1.00800           0
      7504 MEMB     60       PMPE     C25      CTL2    -0.180000       12.0110           0
      7505 MEMB     60       PMPE     H5R      HAL2     0.900000E-01   1.00800           0
      7506 MEMB     60       PMPE     H5S      HAL2     0.900000E-01   1.00800           0
      7507 MEMB     60       PMPE     C26      CTL2    -0.180000       12.0110           0
      7508 MEMB     60       PMPE     H6R      HAL2     0.900000E-01   1.00800           0
      7509 MEMB     60       PMPE     H6S      HAL2     0.900000E-01   1.00800           0
      7510 MEMB     60       PMPE     C27      CTL2    -0.180000       12.0110           0
      7511 MEMB     60       PMPE     H7R      HAL2     0.900000E-01   1.00800           0
      7512 MEMB     60       PMPE     H7S      HAL2     0.900000E-01   1.00800           0
      7513 MEMB     60       PMPE     C28      CTL2    -0.180000       12.0110           0
      7514 MEMB     60       PMPE     H8R      HAL2     0.900000E-01   1.00800           0
      7515 MEMB     60       PMPE     H8S      HAL2     0.900000E-01   1.00800           0
      7516 MEMB     60       PMPE     C29      CG3RC1  -0.900000E-01   12.0110           0
      7517 MEMB     60       PMPE     H9R      HGA1     0.900000E-01   1.00800           0
      7518 MEMB     60       PMPE     C217     CG3C31  -0.180000       12.0110           0
      7519 MEMB     60       PMPE     H17R     HGA2     0.900000E-01   1.00800           0
      7520 MEMB     60       PMPE     H17S     HGA2     0.900000E-01   1.00800           0
      7521 MEMB     60       PMPE     C210     CG3RC1  -0.900000E-01   12.0110           0
      7522 MEMB     60       PMPE     H10R     HGA1     0.900000E-01   1.00800           0
      7523 MEMB     60       PMPE     C211     CTL2    -0.180000       12.0110           0
      7524 MEMB     60       PMPE     H11R     HAL2     0.900000E-01   1.00800           0
      7525 MEMB     60       PMPE     H11S     HAL2     0.900000E-01   1.00800           0
      7526 MEMB     60       PMPE     C212     CTL2    -0.180000       12.0110           0
      7527 MEMB     60       PMPE     H12R     HAL2     0.900000E-01   1.00800           0
      7528 MEMB     60       PMPE     H12S     HAL2     0.900000E-01   1.00800           0
      7529 MEMB     60       PMPE     C213     CTL2    -0.180000       12.0110           0
      7530 MEMB     60       PMPE     H13R     HAL2     0.900000E-01   1.00800           0
      7531 MEMB     60       PMPE     H13S     HAL2     0.900000E-01   1.00800           0
      7532 MEMB     60       PMPE     C214     CTL2    -0.180000       12.0110           0
      7533 MEMB     60       PMPE     H14R     HAL2     0.900000E-01   1.00800           0
      7534 MEMB     60       PMPE     H14S     HAL2     0.900000E-01   1.00800           0
      7535 MEMB     60       PMPE     C215     CTL2    -0.180000       12.0110           0
      7536 MEMB     60       PMPE     H15R     HAL2     0.900000E-01   1.00800           0
      7537 MEMB     60       PMPE     H15S     HAL2     0.900000E-01   1.00800           0
      7538 MEMB     60       PMPE     C216     CTL3    -0.270000       12.0110           0
      7539 MEMB     60       PMPE     H16R     HAL3     0.900000E-01   1.00800           0
      7540 MEMB     60       PMPE     H16S     HAL3     0.900000E-01   1.00800           0
      7541 MEMB     60       PMPE     H16T     HAL3     0.900000E-01   1.00800           0
      7542 MEMB     60       PMPE     C33      CTL2    -0.180000       12.0110           0
      7543 MEMB     60       PMPE     H3X      HAL2     0.900000E-01   1.00800           0
      7544 MEMB     60       PMPE     H3Y      HAL2     0.900000E-01   1.00800           0
      7545 MEMB     60       PMPE     C34      CTL2    -0.180000       12.0110           0
      7546 MEMB     60       PMPE     H4X      HAL2     0.900000E-01   1.00800           0
      7547 MEMB     60       PMPE     H4Y      HAL2     0.900000E-01   1.00800           0
      7548 MEMB     60       PMPE     C35      CTL2    -0.180000       12.0110           0
      7549 MEMB     60       PMPE     H5X      HAL2     0.900000E-01   1.00800           0
      7550 MEMB     60       PMPE     H5Y      HAL2     0.900000E-01   1.00800           0
      7551 MEMB     60       PMPE     C36      CTL2    -0.180000       12.0110           0
      7552 MEMB     60       PMPE     H6X      HAL2     0.900000E-01   1.00800           0
      7553 MEMB     60       PMPE     H6Y      HAL2     0.900000E-01   1.00800           0
      7554 MEMB     60       PMPE     C37      CTL2    -0.180000       12.0110           0
      7555 MEMB     60       PMPE     H7X      HAL2     0.900000E-01   1.00800           0
      7556 MEMB     60       PMPE     H7Y      HAL2     0.900000E-01   1.00800           0
      7557 MEMB     60       PMPE     C38      CTL2    -0.180000       12.0110           0
      7558 MEMB     60       PMPE     H8X      HAL2     0.900000E-01   1.00800           0
      7559 MEMB     60       PMPE     H8Y      HAL2     0.900000E-01   1.00800           0
      7560 MEMB     60       PMPE     C39      CTL2    -0.180000       12.0110           0
      7561 MEMB     60       PMPE     H9X      HAL2     0.900000E-01   1.00800           0
      7562 MEMB     60       PMPE     H9Y      HAL2     0.900000E-01   1.00800           0
      7563 MEMB     60       PMPE     C310     CTL2    -0.180000       12.0110           0
      7564 MEMB     60       PMPE     H10X     HAL2     0.900000E-01   1.00800           0
      7565 MEMB     60       PMPE     H10Y     HAL2     0.900000E-01   1.00800           0
      7566 MEMB     60       PMPE     C311     CTL2    -0.180000       12.0110           0
      7567 MEMB     60       PMPE     H11X     HAL2     0.900000E-01   1.00800           0
      7568 MEMB     60       PMPE     H11Y     HAL2     0.900000E-01   1.00800           0
      7569 MEMB     60       PMPE     C312     CTL2    -0.180000       12.0110           0
      7570 MEMB     60       PMPE     H12X     HAL2     0.900000E-01   1.00800           0
      7571 MEMB     60       PMPE     H12Y     HAL2     0.900000E-01   1.00800           0
      7572 MEMB     60       PMPE     C313     CTL2    -0.180000       12.0110           0
      7573 MEMB     60       PMPE     H13X     HAL2     0.900000E-01   1.00800           0
      7574 MEMB     60       PMPE     H13Y     HAL2     0.900000E-01   1.00800           0
      7575 MEMB     60       PMPE     C314     CTL2    -0.180000       12.0110           0
      7576 MEMB     60       PMPE     H14X     HAL2     0.900000E-01   1.00800           0
      7577 MEMB     60       PMPE     H14Y     HAL2     0.900000E-01   1.00800           0
      7578 MEMB     60       PMPE     C315     CTL2    -0.180000       12.0110           0
      7579 MEMB     60       PMPE     H15X     HAL2     0.900000E-01   1.00800           0
      7580 MEMB     60       PMPE     H15Y     HAL2     0.900000E-01   1.00800           0
      7581 MEMB     60       PMPE     C316     CTL3    -0.270000       12.0110           0
      7582 MEMB     60       PMPE     H16X     HAL3     0.900000E-01   1.00800           0
      7583 MEMB     60       PMPE     H16Y     HAL3     0.900000E-01   1.00800           0
      7584 MEMB     60       PMPE     H16Z     HAL3     0.900000E-01   1.00800           0
      7585 MEMB     61       PMPE     N        NH3L    -0.300000       14.0070           0
      7586 MEMB     61       PMPE     HN1      HCL      0.330000       1.00800           0
      7587 MEMB     61       PMPE     HN2      HCL      0.330000       1.00800           0
      7588 MEMB     61       PMPE     HN3      HCL      0.330000       1.00800           0
      7589 MEMB     61       PMPE     C12      CTL2     0.130000       12.0110           0
      7590 MEMB     61       PMPE     H12A     HAL2     0.900000E-01   1.00800           0
      7591 MEMB     61       PMPE     H12B     HAL2     0.900000E-01   1.00800           0
      7592 MEMB     61       PMPE     C11      CTL2    -0.800000E-01   12.0110           0
      7593 MEMB     61       PMPE     H11A     HAL2     0.900000E-01   1.00800           0
      7594 MEMB     61       PMPE     H11B     HAL2     0.900000E-01   1.00800           0
      7595 MEMB     61       PMPE     P        PL        1.50000       30.9740           0
      7596 MEMB     61       PMPE     O13      O2L     -0.780000       15.9994           0
      7597 MEMB     61       PMPE     O14      O2L     -0.780000       15.9994           0
      7598 MEMB     61       PMPE     O11      OSLP    -0.570000       15.9994           0
      7599 MEMB     61       PMPE     O12      OSLP    -0.570000       15.9994           0
      7600 MEMB     61       PMPE     C1       CTL2    -0.800000E-01   12.0110           0
      7601 MEMB     61       PMPE     HA       HAL2     0.900000E-01   1.00800           0
      7602 MEMB     61       PMPE     HB       HAL2     0.900000E-01   1.00800           0
      7603 MEMB     61       PMPE     C2       CTL1     0.170000       12.0110           0
      7604 MEMB     61       PMPE     HS       HAL1     0.900000E-01   1.00800           0
      7605 MEMB     61       PMPE     O21      OSL     -0.490000       15.9994           0
      7606 MEMB     61       PMPE     C21      CL       0.900000       12.0110           0
      7607 MEMB     61       PMPE     O22      OBL     -0.630000       15.9994           0
      7608 MEMB     61       PMPE     C22      CTL2    -0.220000       12.0110           0
      7609 MEMB     61       PMPE     H2R      HAL2     0.900000E-01   1.00800           0
      7610 MEMB     61       PMPE     H2S      HAL2     0.900000E-01   1.00800           0
      7611 MEMB     61       PMPE     C3       CTL2     0.800000E-01   12.0110           0
      7612 MEMB     61       PMPE     HX       HAL2     0.900000E-01   1.00800           0
      7613 MEMB     61       PMPE     HY       HAL2     0.900000E-01   1.00800           0
      7614 MEMB     61       PMPE     O31      OSL     -0.490000       15.9994           0
      7615 MEMB     61       PMPE     C31      CL       0.900000       12.0110           0
      7616 MEMB     61       PMPE     O32      OBL     -0.630000       15.9994           0
      7617 MEMB     61       PMPE     C32      CTL2    -0.220000       12.0110           0
      7618 MEMB     61       PMPE     H2X      HAL2     0.900000E-01   1.00800           0
      7619 MEMB     61       PMPE     H2Y      HAL2     0.900000E-01   1.00800           0
      7620 MEMB     61       PMPE     C23      CTL2    -0.180000       12.0110           0
      7621 MEMB     61       PMPE     H3R      HAL2     0.900000E-01   1.00800           0
      7622 MEMB     61       PMPE     H3S      HAL2     0.900000E-01   1.00800           0
      7623 MEMB     61       PMPE     C24      CTL2    -0.180000       12.0110           0
      7624 MEMB     61       PMPE     H4R      HAL2     0.900000E-01   1.00800           0
      7625 MEMB     61       PMPE     H4S      HAL2     0.900000E-01   1.00800           0
      7626 MEMB     61       PMPE     C25      CTL2    -0.180000       12.0110           0
      7627 MEMB     61       PMPE     H5R      HAL2     0.900000E-01   1.00800           0
      7628 MEMB     61       PMPE     H5S      HAL2     0.900000E-01   1.00800           0
      7629 MEMB     61       PMPE     C26      CTL2    -0.180000       12.0110           0
      7630 MEMB     61       PMPE     H6R      HAL2     0.900000E-01   1.00800           0
      7631 MEMB     61       PMPE     H6S      HAL2     0.900000E-01   1.00800           0
      7632 MEMB     61       PMPE     C27      CTL2    -0.180000       12.0110           0
      7633 MEMB     61       PMPE     H7R      HAL2     0.900000E-01   1.00800           0
      7634 MEMB     61       PMPE     H7S      HAL2     0.900000E-01   1.00800           0
      7635 MEMB     61       PMPE     C28      CTL2    -0.180000       12.0110           0
      7636 MEMB     61       PMPE     H8R      HAL2     0.900000E-01   1.00800           0
      7637 MEMB     61       PMPE     H8S      HAL2     0.900000E-01   1.00800           0
      7638 MEMB     61       PMPE     C29      CG3RC1  -0.900000E-01   12.0110           0
      7639 MEMB     61       PMPE     H9R      HGA1     0.900000E-01   1.00800           0
      7640 MEMB     61       PMPE     C217     CG3C31  -0.180000       12.0110           0
      7641 MEMB     61       PMPE     H17R     HGA2     0.900000E-01   1.00800           0
      7642 MEMB     61       PMPE     H17S     HGA2     0.900000E-01   1.00800           0
      7643 MEMB     61       PMPE     C210     CG3RC1  -0.900000E-01   12.0110           0
      7644 MEMB     61       PMPE     H10R     HGA1     0.900000E-01   1.00800           0
      7645 MEMB     61       PMPE     C211     CTL2    -0.180000       12.0110           0
      7646 MEMB     61       PMPE     H11R     HAL2     0.900000E-01   1.00800           0
      7647 MEMB     61       PMPE     H11S     HAL2     0.900000E-01   1.00800           0
      7648 MEMB     61       PMPE     C212     CTL2    -0.180000       12.0110           0
      7649 MEMB     61       PMPE     H12R     HAL2     0.900000E-01   1.00800           0
      7650 MEMB     61       PMPE     H12S     HAL2     0.900000E-01   1.00800           0
      7651 MEMB     61       PMPE     C213     CTL2    -0.180000       12.0110           0
      7652 MEMB     61       PMPE     H13R     HAL2     0.900000E-01   1.00800           0
      7653 MEMB     61       PMPE     H13S     HAL2     0.900000E-01   1.00800           0
      7654 MEMB     61       PMPE     C214     CTL2    -0.180000       12.0110           0
      7655 MEMB     61       PMPE     H14R     HAL2     0.900000E-01   1.00800           0
      7656 MEMB     61       PMPE     H14S     HAL2     0.900000E-01   1.00800           0
      7657 MEMB     61       PMPE     C215     CTL2    -0.180000       12.0110           0
      7658 MEMB     61       PMPE     H15R     HAL2     0.900000E-01   1.00800           0
      7659 MEMB     61       PMPE     H15S     HAL2     0.900000E-01   1.00800           0
      7660 MEMB     61       PMPE     C216     CTL3    -0.270000       12.0110           0
      7661 MEMB     61       PMPE     H16R     HAL3     0.900000E-01   1.00800           0
      7662 MEMB     61       PMPE     H16S     HAL3     0.900000E-01   1.00800           0
      7663 MEMB     61       PMPE     H16T     HAL3     0.900000E-01   1.00800           0
      7664 MEMB     61       PMPE     C33      CTL2    -0.180000       12.0110           0
      7665 MEMB     61       PMPE     H3X      HAL2     0.900000E-01   1.00800           0
      7666 MEMB     61       PMPE     H3Y      HAL2     0.900000E-01   1.00800           0
      7667 MEMB     61       PMPE     C34      CTL2    -0.180000       12.0110           0
      7668 MEMB     61       PMPE     H4X      HAL2     0.900000E-01   1.00800           0
      7669 MEMB     61       PMPE     H4Y      HAL2     0.900000E-01   1.00800           0
      7670 MEMB     61       PMPE     C35      CTL2    -0.180000       12.0110           0
      7671 MEMB     61       PMPE     H5X      HAL2     0.900000E-01   1.00800           0
      7672 MEMB     61       PMPE     H5Y      HAL2     0.900000E-01   1.00800           0
      7673 MEMB     61       PMPE     C36      CTL2    -0.180000       12.0110           0
      7674 MEMB     61       PMPE     H6X      HAL2     0.900000E-01   1.00800           0
      7675 MEMB     61       PMPE     H6Y      HAL2     0.900000E-01   1.00800           0
      7676 MEMB     61       PMPE     C37      CTL2    -0.180000       12.0110           0
      7677 MEMB     61       PMPE     H7X      HAL2     0.900000E-01   1.00800           0
      7678 MEMB     61       PMPE     H7Y      HAL2     0.900000E-01   1.00800           0
      7679 MEMB     61       PMPE     C38      CTL2    -0.180000       12.0110           0
      7680 MEMB     61       PMPE     H8X      HAL2     0.900000E-01   1.00800           0
      7681 MEMB     61       PMPE     H8Y      HAL2     0.900000E-01   1.00800           0
      7682 MEMB     61       PMPE     C39      CTL2    -0.180000       12.0110           0
      7683 MEMB     61       PMPE     H9X      HAL2     0.900000E-01   1.00800           0
      7684 MEMB     61       PMPE     H9Y      HAL2     0.900000E-01   1.00800           0
      7685 MEMB     61       PMPE     C310     CTL2    -0.180000       12.0110           0
      7686 MEMB     61       PMPE     H10X     HAL2     0.900000E-01   1.00800           0
      7687 MEMB     61       PMPE     H10Y     HAL2     0.900000E-01   1.00800           0
      7688 MEMB     61       PMPE     C311     CTL2    -0.180000       12.0110           0
      7689 MEMB     61       PMPE     H11X     HAL2     0.900000E-01   1.00800           0
      7690 MEMB     61       PMPE     H11Y     HAL2     0.900000E-01   1.00800           0
      7691 MEMB     61       PMPE     C312     CTL2    -0.180000       12.0110           0
      7692 MEMB     61       PMPE     H12X     HAL2     0.900000E-01   1.00800           0
      7693 MEMB     61       PMPE     H12Y     HAL2     0.900000E-01   1.00800           0
      7694 MEMB     61       PMPE     C313     CTL2    -0.180000       12.0110           0
      7695 MEMB     61       PMPE     H13X     HAL2     0.900000E-01   1.00800           0
      7696 MEMB     61       PMPE     H13Y     HAL2     0.900000E-01   1.00800           0
      7697 MEMB     61       PMPE     C314     CTL2    -0.180000       12.0110           0
      7698 MEMB     61       PMPE     H14X     HAL2     0.900000E-01   1.00800           0
      7699 MEMB     61       PMPE     H14Y     HAL2     0.900000E-01   1.00800           0
      7700 MEMB     61       PMPE     C315     CTL2    -0.180000       12.0110           0
      7701 MEMB     61       PMPE     H15X     HAL2     0.900000E-01   1.00800           0
      7702 MEMB     61       PMPE     H15Y     HAL2     0.900000E-01   1.00800           0
      7703 MEMB     61       PMPE     C316     CTL3    -0.270000       12.0110           0
      7704 MEMB     61       PMPE     H16X     HAL3     0.900000E-01   1.00800           0
      7705 MEMB     61       PMPE     H16Y     HAL3     0.900000E-01   1.00800           0
      7706 MEMB     61       PMPE     H16Z     HAL3     0.900000E-01   1.00800           0
      7707 MEMB     62       PYPG     C13      CTL2     0.500000E-01   12.0110           0
      7708 MEMB     62       PYPG     H13A     HAL2     0.900000E-01   1.00800           0
      7709 MEMB     62       PYPG     H13B     HAL2     0.900000E-01   1.00800           0
      7710 MEMB     62       PYPG     OC3      OHL     -0.660000       15.9994           0
      7711 MEMB     62       PYPG     HO3      HOL      0.430000       1.00800           0
      7712 MEMB     62       PYPG     C12      CTL1     0.140000       12.0110           0
      7713 MEMB     62       PYPG     H12A     HAL1     0.900000E-01   1.00800           0
      7714 MEMB     62       PYPG     OC2      OHL     -0.660000       15.9994           0
      7715 MEMB     62       PYPG     HO2      HOL      0.430000       1.00800           0
      7716 MEMB     62       PYPG     C11      CTL2    -0.800000E-01   12.0110           0
      7717 MEMB     62       PYPG     H11A     HAL2     0.900000E-01   1.00800           0
      7718 MEMB     62       PYPG     H11B     HAL2     0.900000E-01   1.00800           0
      7719 MEMB     62       PYPG     P        PL        1.50000       30.9740           0
      7720 MEMB     62       PYPG     O13      O2L     -0.780000       15.9994           0
      7721 MEMB     62       PYPG     O14      O2L     -0.780000       15.9994           0
      7722 MEMB     62       PYPG     O11      OSLP    -0.570000       15.9994           0
      7723 MEMB     62       PYPG     O12      OSLP    -0.570000       15.9994           0
      7724 MEMB     62       PYPG     C1       CTL2    -0.800000E-01   12.0110           0
      7725 MEMB     62       PYPG     HA       HAL2     0.900000E-01   1.00800           0
      7726 MEMB     62       PYPG     HB       HAL2     0.900000E-01   1.00800           0
      7727 MEMB     62       PYPG     C2       CTL1     0.170000       12.0110           0
      7728 MEMB     62       PYPG     HS       HAL1     0.900000E-01   1.00800           0
      7729 MEMB     62       PYPG     O21      OSL     -0.490000       15.9994           0
      7730 MEMB     62       PYPG     C21      CL       0.900000       12.0110           0
      7731 MEMB     62       PYPG     O22      OBL     -0.630000       15.9994           0
      7732 MEMB     62       PYPG     C22      CTL2    -0.220000       12.0110           0
      7733 MEMB     62       PYPG     H2R      HAL2     0.900000E-01   1.00800           0
      7734 MEMB     62       PYPG     H2S      HAL2     0.900000E-01   1.00800           0
      7735 MEMB     62       PYPG     C3       CTL2     0.800000E-01   12.0110           0
      7736 MEMB     62       PYPG     HX       HAL2     0.900000E-01   1.00800           0
      7737 MEMB     62       PYPG     HY       HAL2     0.900000E-01   1.00800           0
      7738 MEMB     62       PYPG     O31      OSL     -0.490000       15.9994           0
      7739 MEMB     62       PYPG     C31      CL       0.900000       12.0110           0
      7740 MEMB     62       PYPG     O32      OBL     -0.630000       15.9994           0
      7741 MEMB     62       PYPG     C32      CTL2    -0.220000       12.0110           0
      7742 MEMB     62       PYPG     H2X      HAL2     0.900000E-01   1.00800           0
      7743 MEMB     62       PYPG     H2Y      HAL2     0.900000E-01   1.00800           0
      7744 MEMB     62       PYPG     C23      CTL2    -0.180000       12.0110           0
      7745 MEMB     62       PYPG     H3R      HAL2     0.900000E-01   1.00800           0
      7746 MEMB     62       PYPG     H3S      HAL2     0.900000E-01   1.00800           0
      7747 MEMB     62       PYPG     C24      CTL2    -0.180000       12.0110           0
      7748 MEMB     62       PYPG     H4R      HAL2     0.900000E-01   1.00800           0
      7749 MEMB     62       PYPG     H4S      HAL2     0.900000E-01   1.00800           0
      7750 MEMB     62       PYPG     C25      CTL2    -0.180000       12.0110           0
      7751 MEMB     62       PYPG     H5R      HAL2     0.900000E-01   1.00800           0
      7752 MEMB     62       PYPG     H5S      HAL2     0.900000E-01   1.00800           0
      7753 MEMB     62       PYPG     C26      CTL2    -0.180000       12.0110           0
      7754 MEMB     62       PYPG     H6R      HAL2     0.900000E-01   1.00800           0
      7755 MEMB     62       PYPG     H6S      HAL2     0.900000E-01   1.00800           0
      7756 MEMB     62       PYPG     C27      CTL2    -0.180000       12.0110           0
      7757 MEMB     62       PYPG     H7R      HAL2     0.900000E-01   1.00800           0
      7758 MEMB     62       PYPG     H7S      HAL2     0.900000E-01   1.00800           0
      7759 MEMB     62       PYPG     C28      CTL2    -0.180000       12.0110           0
      7760 MEMB     62       PYPG     H8R      HAL2     0.900000E-01   1.00800           0
      7761 MEMB     62       PYPG     H8S      HAL2     0.900000E-01   1.00800           0
      7762 MEMB     62       PYPG     C29      CEL1    -0.150000       12.0110           0
      7763 MEMB     62       PYPG     H9R      HEL1     0.150000       1.00800           0
      7764 MEMB     62       PYPG     C210     CEL1    -0.150000       12.0110           0
      7765 MEMB     62       PYPG     H10R     HEL1     0.150000       1.00800           0
      7766 MEMB     62       PYPG     C211     CTL2    -0.180000       12.0110           0
      7767 MEMB     62       PYPG     H11R     HAL2     0.900000E-01   1.00800           0
      7768 MEMB     62       PYPG     H11S     HAL2     0.900000E-01   1.00800           0
      7769 MEMB     62       PYPG     C212     CTL2    -0.180000       12.0110           0
      7770 MEMB     62       PYPG     H12R     HAL2     0.900000E-01   1.00800           0
      7771 MEMB     62       PYPG     H12S     HAL2     0.900000E-01   1.00800           0
      7772 MEMB     62       PYPG     C213     CTL2    -0.180000       12.0110           0
      7773 MEMB     62       PYPG     H13R     HAL2     0.900000E-01   1.00800           0
      7774 MEMB     62       PYPG     H13S     HAL2     0.900000E-01   1.00800           0
      7775 MEMB     62       PYPG     C214     CTL2    -0.180000       12.0110           0
      7776 MEMB     62       PYPG     H14R     HAL2     0.900000E-01   1.00800           0
      7777 MEMB     62       PYPG     H14S     HAL2     0.900000E-01   1.00800           0
      7778 MEMB     62       PYPG     C215     CTL2    -0.180000       12.0110           0
      7779 MEMB     62       PYPG     H15R     HAL2     0.900000E-01   1.00800           0
      7780 MEMB     62       PYPG     H15S     HAL2     0.900000E-01   1.00800           0
      7781 MEMB     62       PYPG     C216     CTL3    -0.270000       12.0110           0
      7782 MEMB     62       PYPG     H16R     HAL3     0.900000E-01   1.00800           0
      7783 MEMB     62       PYPG     H16S     HAL3     0.900000E-01   1.00800           0
      7784 MEMB     62       PYPG     H16T     HAL3     0.900000E-01   1.00800           0
      7785 MEMB     62       PYPG     C33      CTL2    -0.180000       12.0110           0
      7786 MEMB     62       PYPG     H3X      HAL2     0.900000E-01   1.00800           0
      7787 MEMB     62       PYPG     H3Y      HAL2     0.900000E-01   1.00800           0
      7788 MEMB     62       PYPG     C34      CTL2    -0.180000       12.0110           0
      7789 MEMB     62       PYPG     H4X      HAL2     0.900000E-01   1.00800           0
      7790 MEMB     62       PYPG     H4Y      HAL2     0.900000E-01   1.00800           0
      7791 MEMB     62       PYPG     C35      CTL2    -0.180000       12.0110           0
      7792 MEMB     62       PYPG     H5X      HAL2     0.900000E-01   1.00800           0
      7793 MEMB     62       PYPG     H5Y      HAL2     0.900000E-01   1.00800           0
      7794 MEMB     62       PYPG     C36      CTL2    -0.180000       12.0110           0
      7795 MEMB     62       PYPG     H6X      HAL2     0.900000E-01   1.00800           0
      7796 MEMB     62       PYPG     H6Y      HAL2     0.900000E-01   1.00800           0
      7797 MEMB     62       PYPG     C37      CTL2    -0.180000       12.0110           0
      7798 MEMB     62       PYPG     H7X      HAL2     0.900000E-01   1.00800           0
      7799 MEMB     62       PYPG     H7Y      HAL2     0.900000E-01   1.00800           0
      7800 MEMB     62       PYPG     C38      CTL2    -0.180000       12.0110           0
      7801 MEMB     62       PYPG     H8X      HAL2     0.900000E-01   1.00800           0
      7802 MEMB     62       PYPG     H8Y      HAL2     0.900000E-01   1.00800           0
      7803 MEMB     62       PYPG     C39      CTL2    -0.180000       12.0110           0
      7804 MEMB     62       PYPG     H9X      HAL2     0.900000E-01   1.00800           0
      7805 MEMB     62       PYPG     H9Y      HAL2     0.900000E-01   1.00800           0
      7806 MEMB     62       PYPG     C310     CTL2    -0.180000       12.0110           0
      7807 MEMB     62       PYPG     H10X     HAL2     0.900000E-01   1.00800           0
      7808 MEMB     62       PYPG     H10Y     HAL2     0.900000E-01   1.00800           0
      7809 MEMB     62       PYPG     C311     CTL2    -0.180000       12.0110           0
      7810 MEMB     62       PYPG     H11X     HAL2     0.900000E-01   1.00800           0
      7811 MEMB     62       PYPG     H11Y     HAL2     0.900000E-01   1.00800           0
      7812 MEMB     62       PYPG     C312     CTL2    -0.180000       12.0110           0
      7813 MEMB     62       PYPG     H12X     HAL2     0.900000E-01   1.00800           0
      7814 MEMB     62       PYPG     H12Y     HAL2     0.900000E-01   1.00800           0
      7815 MEMB     62       PYPG     C313     CTL2    -0.180000       12.0110           0
      7816 MEMB     62       PYPG     H13X     HAL2     0.900000E-01   1.00800           0
      7817 MEMB     62       PYPG     H13Y     HAL2     0.900000E-01   1.00800           0
      7818 MEMB     62       PYPG     C314     CTL2    -0.180000       12.0110           0
      7819 MEMB     62       PYPG     H14X     HAL2     0.900000E-01   1.00800           0
      7820 MEMB     62       PYPG     H14Y     HAL2     0.900000E-01   1.00800           0
      7821 MEMB     62       PYPG     C315     CTL2    -0.180000       12.0110           0
      7822 MEMB     62       PYPG     H15X     HAL2     0.900000E-01   1.00800           0
      7823 MEMB     62       PYPG     H15Y     HAL2     0.900000E-01   1.00800           0
      7824 MEMB     62       PYPG     C316     CTL3    -0.270000       12.0110           0
      7825 MEMB     62       PYPG     H16X     HAL3     0.900000E-01   1.00800           0
      7826 MEMB     62       PYPG     H16Y     HAL3     0.900000E-01   1.00800           0
      7827 MEMB     62       PYPG     H16Z     HAL3     0.900000E-01   1.00800           0
      7828 MEMB     63       PYPG     C13      CTL2     0.500000E-01   12.0110           0
      7829 MEMB     63       PYPG     H13A     HAL2     0.900000E-01   1.00800           0
      7830 MEMB     63       PYPG     H13B     HAL2     0.900000E-01   1.00800           0
      7831 MEMB     63       PYPG     OC3      OHL     -0.660000       15.9994           0
      7832 MEMB     63       PYPG     HO3      HOL      0.430000       1.00800           0
      7833 MEMB     63       PYPG     C12      CTL1     0.140000       12.0110           0
      7834 MEMB     63       PYPG     H12A     HAL1     0.900000E-01   1.00800           0
      7835 MEMB     63       PYPG     OC2      OHL     -0.660000       15.9994           0
      7836 MEMB     63       PYPG     HO2      HOL      0.430000       1.00800           0
      7837 MEMB     63       PYPG     C11      CTL2    -0.800000E-01   12.0110           0
      7838 MEMB     63       PYPG     H11A     HAL2     0.900000E-01   1.00800           0
      7839 MEMB     63       PYPG     H11B     HAL2     0.900000E-01   1.00800           0
      7840 MEMB     63       PYPG     P        PL        1.50000       30.9740           0
      7841 MEMB     63       PYPG     O13      O2L     -0.780000       15.9994           0
      7842 MEMB     63       PYPG     O14      O2L     -0.780000       15.9994           0
      7843 MEMB     63       PYPG     O11      OSLP    -0.570000       15.9994           0
      7844 MEMB     63       PYPG     O12      OSLP    -0.570000       15.9994           0
      7845 MEMB     63       PYPG     C1       CTL2    -0.800000E-01   12.0110           0
      7846 MEMB     63       PYPG     HA       HAL2     0.900000E-01   1.00800           0
      7847 MEMB     63       PYPG     HB       HAL2     0.900000E-01   1.00800           0
      7848 MEMB     63       PYPG     C2       CTL1     0.170000       12.0110           0
      7849 MEMB     63       PYPG     HS       HAL1     0.900000E-01   1.00800           0
      7850 MEMB     63       PYPG     O21      OSL     -0.490000       15.9994           0
      7851 MEMB     63       PYPG     C21      CL       0.900000       12.0110           0
      7852 MEMB     63       PYPG     O22      OBL     -0.630000       15.9994           0
      7853 MEMB     63       PYPG     C22      CTL2    -0.220000       12.0110           0
      7854 MEMB     63       PYPG     H2R      HAL2     0.900000E-01   1.00800           0
      7855 MEMB     63       PYPG     H2S      HAL2     0.900000E-01   1.00800           0
      7856 MEMB     63       PYPG     C3       CTL2     0.800000E-01   12.0110           0
      7857 MEMB     63       PYPG     HX       HAL2     0.900000E-01   1.00800           0
      7858 MEMB     63       PYPG     HY       HAL2     0.900000E-01   1.00800           0
      7859 MEMB     63       PYPG     O31      OSL     -0.490000       15.9994           0
      7860 MEMB     63       PYPG     C31      CL       0.900000       12.0110           0
      7861 MEMB     63       PYPG     O32      OBL     -0.630000       15.9994           0
      7862 MEMB     63       PYPG     C32      CTL2    -0.220000       12.0110           0
      7863 MEMB     63       PYPG     H2X      HAL2     0.900000E-01   1.00800           0
      7864 MEMB     63       PYPG     H2Y      HAL2     0.900000E-01   1.00800           0
      7865 MEMB     63       PYPG     C23      CTL2    -0.180000       12.0110           0
      7866 MEMB     63       PYPG     H3R      HAL2     0.900000E-01   1.00800           0
      7867 MEMB     63       PYPG     H3S      HAL2     0.900000E-01   1.00800           0
      7868 MEMB     63       PYPG     C24      CTL2    -0.180000       12.0110           0
      7869 MEMB     63       PYPG     H4R      HAL2     0.900000E-01   1.00800           0
      7870 MEMB     63       PYPG     H4S      HAL2     0.900000E-01   1.00800           0
      7871 MEMB     63       PYPG     C25      CTL2    -0.180000       12.0110           0
      7872 MEMB     63       PYPG     H5R      HAL2     0.900000E-01   1.00800           0
      7873 MEMB     63       PYPG     H5S      HAL2     0.900000E-01   1.00800           0
      7874 MEMB     63       PYPG     C26      CTL2    -0.180000       12.0110           0
      7875 MEMB     63       PYPG     H6R      HAL2     0.900000E-01   1.00800           0
      7876 MEMB     63       PYPG     H6S      HAL2     0.900000E-01   1.00800           0
      7877 MEMB     63       PYPG     C27      CTL2    -0.180000       12.0110           0
      7878 MEMB     63       PYPG     H7R      HAL2     0.900000E-01   1.00800           0
      7879 MEMB     63       PYPG     H7S      HAL2     0.900000E-01   1.00800           0
      7880 MEMB     63       PYPG     C28      CTL2    -0.180000       12.0110           0
      7881 MEMB     63       PYPG     H8R      HAL2     0.900000E-01   1.00800           0
      7882 MEMB     63       PYPG     H8S      HAL2     0.900000E-01   1.00800           0
      7883 MEMB     63       PYPG     C29      CEL1    -0.150000       12.0110           0
      7884 MEMB     63       PYPG     H9R      HEL1     0.150000       1.00800           0
      7885 MEMB     63       PYPG     C210     CEL1    -0.150000       12.0110           0
      7886 MEMB     63       PYPG     H10R     HEL1     0.150000       1.00800           0
      7887 MEMB     63       PYPG     C211     CTL2    -0.180000       12.0110           0
      7888 MEMB     63       PYPG     H11R     HAL2     0.900000E-01   1.00800           0
      7889 MEMB     63       PYPG     H11S     HAL2     0.900000E-01   1.00800           0
      7890 MEMB     63       PYPG     C212     CTL2    -0.180000       12.0110           0
      7891 MEMB     63       PYPG     H12R     HAL2     0.900000E-01   1.00800           0
      7892 MEMB     63       PYPG     H12S     HAL2     0.900000E-01   1.00800           0
      7893 MEMB     63       PYPG     C213     CTL2    -0.180000       12.0110           0
      7894 MEMB     63       PYPG     H13R     HAL2     0.900000E-01   1.00800           0
      7895 MEMB     63       PYPG     H13S     HAL2     0.900000E-01   1.00800           0
      7896 MEMB     63       PYPG     C214     CTL2    -0.180000       12.0110           0
      7897 MEMB     63       PYPG     H14R     HAL2     0.900000E-01   1.00800           0
      7898 MEMB     63       PYPG     H14S     HAL2     0.900000E-01   1.00800           0
      7899 MEMB     63       PYPG     C215     CTL2    -0.180000       12.0110           0
      7900 MEMB     63       PYPG     H15R     HAL2     0.900000E-01   1.00800           0
      7901 MEMB     63       PYPG     H15S     HAL2     0.900000E-01   1.00800           0
      7902 MEMB     63       PYPG     C216     CTL3    -0.270000       12.0110           0
      7903 MEMB     63       PYPG     H16R     HAL3     0.900000E-01   1.00800           0
      7904 MEMB     63       PYPG     H16S     HAL3     0.900000E-01   1.00800           0
      7905 MEMB     63       PYPG     H16T     HAL3     0.900000E-01   1.00800           0
      7906 MEMB     63       PYPG     C33      CTL2    -0.180000       12.0110           0
      7907 MEMB     63       PYPG     H3X      HAL2     0.900000E-01   1.00800           0
      7908 MEMB     63       PYPG     H3Y      HAL2     0.900000E-01   1.00800           0
      7909 MEMB     63       PYPG     C34      CTL2    -0.180000       12.0110           0
      7910 MEMB     63       PYPG     H4X      HAL2     0.900000E-01   1.00800           0
      7911 MEMB     63       PYPG     H4Y      HAL2     0.900000E-01   1.00800           0
      7912 MEMB     63       PYPG     C35      CTL2    -0.180000       12.0110           0
      7913 MEMB     63       PYPG     H5X      HAL2     0.900000E-01   1.00800           0
      7914 MEMB     63       PYPG     H5Y      HAL2     0.900000E-01   1.00800           0
      7915 MEMB     63       PYPG     C36      CTL2    -0.180000       12.0110           0
      7916 MEMB     63       PYPG     H6X      HAL2     0.900000E-01   1.00800           0
      7917 MEMB     63       PYPG     H6Y      HAL2     0.900000E-01   1.00800           0
      7918 MEMB     63       PYPG     C37      CTL2    -0.180000       12.0110           0
      7919 MEMB     63       PYPG     H7X      HAL2     0.900000E-01   1.00800           0
      7920 MEMB     63       PYPG     H7Y      HAL2     0.900000E-01   1.00800           0
      7921 MEMB     63       PYPG     C38      CTL2    -0.180000       12.0110           0
      7922 MEMB     63       PYPG     H8X      HAL2     0.900000E-01   1.00800           0
      7923 MEMB     63       PYPG     H8Y      HAL2     0.900000E-01   1.00800           0
      7924 MEMB     63       PYPG     C39      CTL2    -0.180000       12.0110           0
      7925 MEMB     63       PYPG     H9X      HAL2     0.900000E-01   1.00800           0
      7926 MEMB     63       PYPG     H9Y      HAL2     0.900000E-01   1.00800           0
      7927 MEMB     63       PYPG     C310     CTL2    -0.180000       12.0110           0
      7928 MEMB     63       PYPG     H10X     HAL2     0.900000E-01   1.00800           0
      7929 MEMB     63       PYPG     H10Y     HAL2     0.900000E-01   1.00800           0
      7930 MEMB     63       PYPG     C311     CTL2    -0.180000       12.0110           0
      7931 MEMB     63       PYPG     H11X     HAL2     0.900000E-01   1.00800           0
      7932 MEMB     63       PYPG     H11Y     HAL2     0.900000E-01   1.00800           0
      7933 MEMB     63       PYPG     C312     CTL2    -0.180000       12.0110           0
      7934 MEMB     63       PYPG     H12X     HAL2     0.900000E-01   1.00800           0
      7935 MEMB     63       PYPG     H12Y     HAL2     0.900000E-01   1.00800           0
      7936 MEMB     63       PYPG     C313     CTL2    -0.180000       12.0110           0
      7937 MEMB     63       PYPG     H13X     HAL2     0.900000E-01   1.00800           0
      7938 MEMB     63       PYPG     H13Y     HAL2     0.900000E-01   1.00800           0
      7939 MEMB     63       PYPG     C314     CTL2    -0.180000       12.0110           0
      7940 MEMB     63       PYPG     H14X     HAL2     0.900000E-01   1.00800           0
      7941 MEMB     63       PYPG     H14Y     HAL2     0.900000E-01   1.00800           0
      7942 MEMB     63       PYPG     C315     CTL2    -0.180000       12.0110           0
      7943 MEMB     63       PYPG     H15X     HAL2     0.900000E-01   1.00800           0
      7944 MEMB     63       PYPG     H15Y     HAL2     0.900000E-01   1.00800           0
      7945 MEMB     63       PYPG     C316     CTL3    -0.270000       12.0110           0
      7946 MEMB     63       PYPG     H16X     HAL3     0.900000E-01   1.00800           0
      7947 MEMB     63       PYPG     H16Y     HAL3     0.900000E-01   1.00800           0
      7948 MEMB     63       PYPG     H16Z     HAL3     0.900000E-01   1.00800           0
      7949 MEMB     64       QMPE     N        NH3L    -0.300000       14.0070           0
      7950 MEMB     64       QMPE     HN1      HCL      0.330000       1.00800           0
      7951 MEMB     64       QMPE     HN2      HCL      0.330000       1.00800           0
      7952 MEMB     64       QMPE     HN3      HCL      0.330000       1.00800           0
      7953 MEMB     64       QMPE     C12      CTL2     0.130000       12.0110           0
      7954 MEMB     64       QMPE     H12A     HAL2     0.900000E-01   1.00800           0
      7955 MEMB     64       QMPE     H12B     HAL2     0.900000E-01   1.00800           0
      7956 MEMB     64       QMPE     C11      CTL2    -0.800000E-01   12.0110           0
      7957 MEMB     64       QMPE     H11A     HAL2     0.900000E-01   1.00800           0
      7958 MEMB     64       QMPE     H11B     HAL2     0.900000E-01   1.00800           0
      7959 MEMB     64       QMPE     P        PL        1.50000       30.9740           0
      7960 MEMB     64       QMPE     O13      O2L     -0.780000       15.9994           0
      7961 MEMB     64       QMPE     O14      O2L     -0.780000       15.9994           0
      7962 MEMB     64       QMPE     O11      OSLP    -0.570000       15.9994           0
      7963 MEMB     64       QMPE     O12      OSLP    -0.570000       15.9994           0
      7964 MEMB     64       QMPE     C1       CTL2    -0.800000E-01   12.0110           0
      7965 MEMB     64       QMPE     HA       HAL2     0.900000E-01   1.00800           0
      7966 MEMB     64       QMPE     HB       HAL2     0.900000E-01   1.00800           0
      7967 MEMB     64       QMPE     C2       CTL1     0.170000       12.0110           0
      7968 MEMB     64       QMPE     HS       HAL1     0.900000E-01   1.00800           0
      7969 MEMB     64       QMPE     O21      OSL     -0.490000       15.9994           0
      7970 MEMB     64       QMPE     C21      CL       0.900000       12.0110           0
      7971 MEMB     64       QMPE     O22      OBL     -0.630000       15.9994           0
      7972 MEMB     64       QMPE     C22      CTL2    -0.220000       12.0110           0
      7973 MEMB     64       QMPE     H2R      HAL2     0.900000E-01   1.00800           0
      7974 MEMB     64       QMPE     H2S      HAL2     0.900000E-01   1.00800           0
      7975 MEMB     64       QMPE     C3       CTL2     0.800000E-01   12.0110           0
      7976 MEMB     64       QMPE     HX       HAL2     0.900000E-01   1.00800           0
      7977 MEMB     64       QMPE     HY       HAL2     0.900000E-01   1.00800           0
      7978 MEMB     64       QMPE     O31      OSL     -0.490000       15.9994           0
      7979 MEMB     64       QMPE     C31      CL       0.900000       12.0110           0
      7980 MEMB     64       QMPE     O32      OBL     -0.630000       15.9994           0
      7981 MEMB     64       QMPE     C32      CTL2    -0.220000       12.0110           0
      7982 MEMB     64       QMPE     H2X      HAL2     0.900000E-01   1.00800           0
      7983 MEMB     64       QMPE     H2Y      HAL2     0.900000E-01   1.00800           0
      7984 MEMB     64       QMPE     C23      CTL2    -0.180000       12.0110           0
      7985 MEMB     64       QMPE     H3R      HAL2     0.900000E-01   1.00800           0
      7986 MEMB     64       QMPE     H3S      HAL2     0.900000E-01   1.00800           0
      7987 MEMB     64       QMPE     C24      CTL2    -0.180000       12.0110           0
      7988 MEMB     64       QMPE     H4R      HAL2     0.900000E-01   1.00800           0
      7989 MEMB     64       QMPE     H4S      HAL2     0.900000E-01   1.00800           0
      7990 MEMB     64       QMPE     C25      CTL2    -0.180000       12.0110           0
      7991 MEMB     64       QMPE     H5R      HAL2     0.900000E-01   1.00800           0
      7992 MEMB     64       QMPE     H5S      HAL2     0.900000E-01   1.00800           0
      7993 MEMB     64       QMPE     C26      CTL2    -0.180000       12.0110           0
      7994 MEMB     64       QMPE     H6R      HAL2     0.900000E-01   1.00800           0
      7995 MEMB     64       QMPE     H6S      HAL2     0.900000E-01   1.00800           0
      7996 MEMB     64       QMPE     C27      CTL2    -0.180000       12.0110           0
      7997 MEMB     64       QMPE     H7R      HAL2     0.900000E-01   1.00800           0
      7998 MEMB     64       QMPE     H7S      HAL2     0.900000E-01   1.00800           0
      7999 MEMB     64       QMPE     C28      CTL2    -0.180000       12.0110           0
      8000 MEMB     64       QMPE     H8R      HAL2     0.900000E-01   1.00800           0
      8001 MEMB     64       QMPE     H8S      HAL2     0.900000E-01   1.00800           0
      8002 MEMB     64       QMPE     C29      CG3RC1  -0.900000E-01   12.0110           0
      8003 MEMB     64       QMPE     H9R      HGA1     0.900000E-01   1.00800           0
      8004 MEMB     64       QMPE     C217     CG3C31  -0.180000       12.0110           0
      8005 MEMB     64       QMPE     H17R     HGA2     0.900000E-01   1.00800           0
      8006 MEMB     64       QMPE     H17S     HGA2     0.900000E-01   1.00800           0
      8007 MEMB     64       QMPE     C210     CG3RC1  -0.900000E-01   12.0110           0
      8008 MEMB     64       QMPE     H10R     HGA1     0.900000E-01   1.00800           0
      8009 MEMB     64       QMPE     C211     CTL2    -0.180000       12.0110           0
      8010 MEMB     64       QMPE     H11R     HAL2     0.900000E-01   1.00800           0
      8011 MEMB     64       QMPE     H11S     HAL2     0.900000E-01   1.00800           0
      8012 MEMB     64       QMPE     C212     CTL2    -0.180000       12.0110           0
      8013 MEMB     64       QMPE     H12R     HAL2     0.900000E-01   1.00800           0
      8014 MEMB     64       QMPE     H12S     HAL2     0.900000E-01   1.00800           0
      8015 MEMB     64       QMPE     C213     CTL2    -0.180000       12.0110           0
      8016 MEMB     64       QMPE     H13R     HAL2     0.900000E-01   1.00800           0
      8017 MEMB     64       QMPE     H13S     HAL2     0.900000E-01   1.00800           0
      8018 MEMB     64       QMPE     C214     CTL2    -0.180000       12.0110           0
      8019 MEMB     64       QMPE     H14R     HAL2     0.900000E-01   1.00800           0
      8020 MEMB     64       QMPE     H14S     HAL2     0.900000E-01   1.00800           0
      8021 MEMB     64       QMPE     C215     CTL2    -0.180000       12.0110           0
      8022 MEMB     64       QMPE     H15R     HAL2     0.900000E-01   1.00800           0
      8023 MEMB     64       QMPE     H15S     HAL2     0.900000E-01   1.00800           0
      8024 MEMB     64       QMPE     C216     CTL3    -0.270000       12.0110           0
      8025 MEMB     64       QMPE     H16R     HAL3     0.900000E-01   1.00800           0
      8026 MEMB     64       QMPE     H16S     HAL3     0.900000E-01   1.00800           0
      8027 MEMB     64       QMPE     H16T     HAL3     0.900000E-01   1.00800           0
      8028 MEMB     64       QMPE     C33      CTL2    -0.180000       12.0110           0
      8029 MEMB     64       QMPE     H3X      HAL2     0.900000E-01   1.00800           0
      8030 MEMB     64       QMPE     H3Y      HAL2     0.900000E-01   1.00800           0
      8031 MEMB     64       QMPE     C34      CTL2    -0.180000       12.0110           0
      8032 MEMB     64       QMPE     H4X      HAL2     0.900000E-01   1.00800           0
      8033 MEMB     64       QMPE     H4Y      HAL2     0.900000E-01   1.00800           0
      8034 MEMB     64       QMPE     C35      CTL2    -0.180000       12.0110           0
      8035 MEMB     64       QMPE     H5X      HAL2     0.900000E-01   1.00800           0
      8036 MEMB     64       QMPE     H5Y      HAL2     0.900000E-01   1.00800           0
      8037 MEMB     64       QMPE     C36      CTL2    -0.180000       12.0110           0
      8038 MEMB     64       QMPE     H6X      HAL2     0.900000E-01   1.00800           0
      8039 MEMB     64       QMPE     H6Y      HAL2     0.900000E-01   1.00800           0
      8040 MEMB     64       QMPE     C37      CTL2    -0.180000       12.0110           0
      8041 MEMB     64       QMPE     H7X      HAL2     0.900000E-01   1.00800           0
      8042 MEMB     64       QMPE     H7Y      HAL2     0.900000E-01   1.00800           0
      8043 MEMB     64       QMPE     C38      CTL2    -0.180000       12.0110           0
      8044 MEMB     64       QMPE     H8X      HAL2     0.900000E-01   1.00800           0
      8045 MEMB     64       QMPE     H8Y      HAL2     0.900000E-01   1.00800           0
      8046 MEMB     64       QMPE     C39      CTL2    -0.180000       12.0110           0
      8047 MEMB     64       QMPE     H9X      HAL2     0.900000E-01   1.00800           0
      8048 MEMB     64       QMPE     H9Y      HAL2     0.900000E-01   1.00800           0
      8049 MEMB     64       QMPE     C310     CTL2    -0.180000       12.0110           0
      8050 MEMB     64       QMPE     H10X     HAL2     0.900000E-01   1.00800           0
      8051 MEMB     64       QMPE     H10Y     HAL2     0.900000E-01   1.00800           0
      8052 MEMB     64       QMPE     C311     CTL2    -0.180000       12.0110           0
      8053 MEMB     64       QMPE     H11X     HAL2     0.900000E-01   1.00800           0
      8054 MEMB     64       QMPE     H11Y     HAL2     0.900000E-01   1.00800           0
      8055 MEMB     64       QMPE     C312     CTL2    -0.180000       12.0110           0
      8056 MEMB     64       QMPE     H12X     HAL2     0.900000E-01   1.00800           0
      8057 MEMB     64       QMPE     H12Y     HAL2     0.900000E-01   1.00800           0
      8058 MEMB     64       QMPE     C313     CTL2    -0.180000       12.0110           0
      8059 MEMB     64       QMPE     H13X     HAL2     0.900000E-01   1.00800           0
      8060 MEMB     64       QMPE     H13Y     HAL2     0.900000E-01   1.00800           0
      8061 MEMB     64       QMPE     C314     CTL2    -0.180000       12.0110           0
      8062 MEMB     64       QMPE     H14X     HAL2     0.900000E-01   1.00800           0
      8063 MEMB     64       QMPE     H14Y     HAL2     0.900000E-01   1.00800           0
      8064 MEMB     64       QMPE     C315     CTL3    -0.270000       12.0110           0
      8065 MEMB     64       QMPE     H15X     HAL3     0.900000E-01   1.00800           0
      8066 MEMB     64       QMPE     H15Y     HAL3     0.900000E-01   1.00800           0
      8067 MEMB     64       QMPE     H15Z     HAL3     0.900000E-01   1.00800           0
      8068 MEMB     65       POPE     N        NH3L    -0.300000       14.0070           0
      8069 MEMB     65       POPE     HN1      HCL      0.330000       1.00800           0
      8070 MEMB     65       POPE     HN2      HCL      0.330000       1.00800           0
      8071 MEMB     65       POPE     HN3      HCL      0.330000       1.00800           0
      8072 MEMB     65       POPE     C12      CTL2     0.130000       12.0110           0
      8073 MEMB     65       POPE     H12A     HAL2     0.900000E-01   1.00800           0
      8074 MEMB     65       POPE     H12B     HAL2     0.900000E-01   1.00800           0
      8075 MEMB     65       POPE     C11      CTL2    -0.800000E-01   12.0110           0
      8076 MEMB     65       POPE     H11A     HAL2     0.900000E-01   1.00800           0
      8077 MEMB     65       POPE     H11B     HAL2     0.900000E-01   1.00800           0
      8078 MEMB     65       POPE     P        PL        1.50000       30.9740           0
      8079 MEMB     65       POPE     O13      O2L     -0.780000       15.9994           0
      8080 MEMB     65       POPE     O14      O2L     -0.780000       15.9994           0
      8081 MEMB     65       POPE     O11      OSLP    -0.570000       15.9994           0
      8082 MEMB     65       POPE     O12      OSLP    -0.570000       15.9994           0
      8083 MEMB     65       POPE     C1       CTL2    -0.800000E-01   12.0110           0
      8084 MEMB     65       POPE     HA       HAL2     0.900000E-01   1.00800           0
      8085 MEMB     65       POPE     HB       HAL2     0.900000E-01   1.00800           0
      8086 MEMB     65       POPE     C2       CTL1     0.170000       12.0110           0
      8087 MEMB     65       POPE     HS       HAL1     0.900000E-01   1.00800           0
      8088 MEMB     65       POPE     O21      OSL     -0.490000       15.9994           0
      8089 MEMB     65       POPE     C21      CL       0.900000       12.0110           0
      8090 MEMB     65       POPE     O22      OBL     -0.630000       15.9994           0
      8091 MEMB     65       POPE     C22      CTL2    -0.220000       12.0110           0
      8092 MEMB     65       POPE     H2R      HAL2     0.900000E-01   1.00800           0
      8093 MEMB     65       POPE     H2S      HAL2     0.900000E-01   1.00800           0
      8094 MEMB     65       POPE     C3       CTL2     0.800000E-01   12.0110           0
      8095 MEMB     65       POPE     HX       HAL2     0.900000E-01   1.00800           0
      8096 MEMB     65       POPE     HY       HAL2     0.900000E-01   1.00800           0
      8097 MEMB     65       POPE     O31      OSL     -0.490000       15.9994           0
      8098 MEMB     65       POPE     C31      CL       0.900000       12.0110           0
      8099 MEMB     65       POPE     O32      OBL     -0.630000       15.9994           0
      8100 MEMB     65       POPE     C32      CTL2    -0.220000       12.0110           0
      8101 MEMB     65       POPE     H2X      HAL2     0.900000E-01   1.00800           0
      8102 MEMB     65       POPE     H2Y      HAL2     0.900000E-01   1.00800           0
      8103 MEMB     65       POPE     C23      CTL2    -0.180000       12.0110           0
      8104 MEMB     65       POPE     H3R      HAL2     0.900000E-01   1.00800           0
      8105 MEMB     65       POPE     H3S      HAL2     0.900000E-01   1.00800           0
      8106 MEMB     65       POPE     C24      CTL2    -0.180000       12.0110           0
      8107 MEMB     65       POPE     H4R      HAL2     0.900000E-01   1.00800           0
      8108 MEMB     65       POPE     H4S      HAL2     0.900000E-01   1.00800           0
      8109 MEMB     65       POPE     C25      CTL2    -0.180000       12.0110           0
      8110 MEMB     65       POPE     H5R      HAL2     0.900000E-01   1.00800           0
      8111 MEMB     65       POPE     H5S      HAL2     0.900000E-01   1.00800           0
      8112 MEMB     65       POPE     C26      CTL2    -0.180000       12.0110           0
      8113 MEMB     65       POPE     H6R      HAL2     0.900000E-01   1.00800           0
      8114 MEMB     65       POPE     H6S      HAL2     0.900000E-01   1.00800           0
      8115 MEMB     65       POPE     C27      CTL2    -0.180000       12.0110           0
      8116 MEMB     65       POPE     H7R      HAL2     0.900000E-01   1.00800           0
      8117 MEMB     65       POPE     H7S      HAL2     0.900000E-01   1.00800           0
      8118 MEMB     65       POPE     C28      CTL2    -0.180000       12.0110           0
      8119 MEMB     65       POPE     H8R      HAL2     0.900000E-01   1.00800           0
      8120 MEMB     65       POPE     H8S      HAL2     0.900000E-01   1.00800           0
      8121 MEMB     65       POPE     C29      CEL1    -0.150000       12.0110           0
      8122 MEMB     65       POPE     H91      HEL1     0.150000       1.00800           0
      8123 MEMB     65       POPE     C210     CEL1    -0.150000       12.0110           0
      8124 MEMB     65       POPE     H101     HEL1     0.150000       1.00800           0
      8125 MEMB     65       POPE     C211     CTL2    -0.180000       12.0110           0
      8126 MEMB     65       POPE     H11R     HAL2     0.900000E-01   1.00800           0
      8127 MEMB     65       POPE     H11S     HAL2     0.900000E-01   1.00800           0
      8128 MEMB     65       POPE     C212     CTL2    -0.180000       12.0110           0
      8129 MEMB     65       POPE     H12R     HAL2     0.900000E-01   1.00800           0
      8130 MEMB     65       POPE     H12S     HAL2     0.900000E-01   1.00800           0
      8131 MEMB     65       POPE     C213     CTL2    -0.180000       12.0110           0
      8132 MEMB     65       POPE     H13R     HAL2     0.900000E-01   1.00800           0
      8133 MEMB     65       POPE     H13S     HAL2     0.900000E-01   1.00800           0
      8134 MEMB     65       POPE     C214     CTL2    -0.180000       12.0110           0
      8135 MEMB     65       POPE     H14R     HAL2     0.900000E-01   1.00800           0
      8136 MEMB     65       POPE     H14S     HAL2     0.900000E-01   1.00800           0
      8137 MEMB     65       POPE     C215     CTL2    -0.180000       12.0110           0
      8138 MEMB     65       POPE     H15R     HAL2     0.900000E-01   1.00800           0
      8139 MEMB     65       POPE     H15S     HAL2     0.900000E-01   1.00800           0
      8140 MEMB     65       POPE     C216     CTL2    -0.180000       12.0110           0
      8141 MEMB     65       POPE     H16R     HAL2     0.900000E-01   1.00800           0
      8142 MEMB     65       POPE     H16S     HAL2     0.900000E-01   1.00800           0
      8143 MEMB     65       POPE     C217     CTL2    -0.180000       12.0110           0
      8144 MEMB     65       POPE     H17R     HAL2     0.900000E-01   1.00800           0
      8145 MEMB     65       POPE     H17S     HAL2     0.900000E-01   1.00800           0
      8146 MEMB     65       POPE     C218     CTL3    -0.270000       12.0110           0
      8147 MEMB     65       POPE     H18R     HAL3     0.900000E-01   1.00800           0
      8148 MEMB     65       POPE     H18S     HAL3     0.900000E-01   1.00800           0
      8149 MEMB     65       POPE     H18T     HAL3     0.900000E-01   1.00800           0
      8150 MEMB     65       POPE     C33      CTL2    -0.180000       12.0110           0
      8151 MEMB     65       POPE     H3X      HAL2     0.900000E-01   1.00800           0
      8152 MEMB     65       POPE     H3Y      HAL2     0.900000E-01   1.00800           0
      8153 MEMB     65       POPE     C34      CTL2    -0.180000       12.0110           0
      8154 MEMB     65       POPE     H4X      HAL2     0.900000E-01   1.00800           0
      8155 MEMB     65       POPE     H4Y      HAL2     0.900000E-01   1.00800           0
      8156 MEMB     65       POPE     C35      CTL2    -0.180000       12.0110           0
      8157 MEMB     65       POPE     H5X      HAL2     0.900000E-01   1.00800           0
      8158 MEMB     65       POPE     H5Y      HAL2     0.900000E-01   1.00800           0
      8159 MEMB     65       POPE     C36      CTL2    -0.180000       12.0110           0
      8160 MEMB     65       POPE     H6X      HAL2     0.900000E-01   1.00800           0
      8161 MEMB     65       POPE     H6Y      HAL2     0.900000E-01   1.00800           0
      8162 MEMB     65       POPE     C37      CTL2    -0.180000       12.0110           0
      8163 MEMB     65       POPE     H7X      HAL2     0.900000E-01   1.00800           0
      8164 MEMB     65       POPE     H7Y      HAL2     0.900000E-01   1.00800           0
      8165 MEMB     65       POPE     C38      CTL2    -0.180000       12.0110           0
      8166 MEMB     65       POPE     H8X      HAL2     0.900000E-01   1.00800           0
      8167 MEMB     65       POPE     H8Y      HAL2     0.900000E-01   1.00800           0
      8168 MEMB     65       POPE     C39      CTL2    -0.180000       12.0110           0
      8169 MEMB     65       POPE     H9X      HAL2     0.900000E-01   1.00800           0
      8170 MEMB     65       POPE     H9Y      HAL2     0.900000E-01   1.00800           0
      8171 MEMB     65       POPE     C310     CTL2    -0.180000       12.0110           0
      8172 MEMB     65       POPE     H10X     HAL2     0.900000E-01   1.00800           0
      8173 MEMB     65       POPE     H10Y     HAL2     0.900000E-01   1.00800           0
      8174 MEMB     65       POPE     C311     CTL2    -0.180000       12.0110           0
      8175 MEMB     65       POPE     H11X     HAL2     0.900000E-01   1.00800           0
      8176 MEMB     65       POPE     H11Y     HAL2     0.900000E-01   1.00800           0
      8177 MEMB     65       POPE     C312     CTL2    -0.180000       12.0110           0
      8178 MEMB     65       POPE     H12X     HAL2     0.900000E-01   1.00800           0
      8179 MEMB     65       POPE     H12Y     HAL2     0.900000E-01   1.00800           0
      8180 MEMB     65       POPE     C313     CTL2    -0.180000       12.0110           0
      8181 MEMB     65       POPE     H13X     HAL2     0.900000E-01   1.00800           0
      8182 MEMB     65       POPE     H13Y     HAL2     0.900000E-01   1.00800           0
      8183 MEMB     65       POPE     C314     CTL2    -0.180000       12.0110           0
      8184 MEMB     65       POPE     H14X     HAL2     0.900000E-01   1.00800           0
      8185 MEMB     65       POPE     H14Y     HAL2     0.900000E-01   1.00800           0
      8186 MEMB     65       POPE     C315     CTL2    -0.180000       12.0110           0
      8187 MEMB     65       POPE     H15X     HAL2     0.900000E-01   1.00800           0
      8188 MEMB     65       POPE     H15Y     HAL2     0.900000E-01   1.00800           0
      8189 MEMB     65       POPE     C316     CTL3    -0.270000       12.0110           0
      8190 MEMB     65       POPE     H16X     HAL3     0.900000E-01   1.00800           0
      8191 MEMB     65       POPE     H16Y     HAL3     0.900000E-01   1.00800           0
      8192 MEMB     65       POPE     H16Z     HAL3     0.900000E-01   1.00800           0
      8193 MEMB     66       OYPE     N        NH3L    -0.300000       14.0070           0
      8194 MEMB     66       OYPE     HN1      HCL      0.330000       1.00800           0
      8195 MEMB     66       OYPE     HN2      HCL      0.330000       1.00800           0
      8196 MEMB     66       OYPE     HN3      HCL      0.330000       1.00800           0
      8197 MEMB     66       OYPE     C12      CTL2     0.130000       12.0110           0
      8198 MEMB     66       OYPE     H12A     HAL2     0.900000E-01   1.00800           0
      8199 MEMB     66       OYPE     H12B     HAL2     0.900000E-01   1.00800           0
      8200 MEMB     66       OYPE     C11      CTL2    -0.800000E-01   12.0110           0
      8201 MEMB     66       OYPE     H11A     HAL2     0.900000E-01   1.00800           0
      8202 MEMB     66       OYPE     H11B     HAL2     0.900000E-01   1.00800           0
      8203 MEMB     66       OYPE     P        PL        1.50000       30.9740           0
      8204 MEMB     66       OYPE     O13      O2L     -0.780000       15.9994           0
      8205 MEMB     66       OYPE     O14      O2L     -0.780000       15.9994           0
      8206 MEMB     66       OYPE     O11      OSLP    -0.570000       15.9994           0
      8207 MEMB     66       OYPE     O12      OSLP    -0.570000       15.9994           0
      8208 MEMB     66       OYPE     C1       CTL2    -0.800000E-01   12.0110           0
      8209 MEMB     66       OYPE     HA       HAL2     0.900000E-01   1.00800           0
      8210 MEMB     66       OYPE     HB       HAL2     0.900000E-01   1.00800           0
      8211 MEMB     66       OYPE     C2       CTL1     0.170000       12.0110           0
      8212 MEMB     66       OYPE     HS       HAL1     0.900000E-01   1.00800           0
      8213 MEMB     66       OYPE     O21      OSL     -0.490000       15.9994           0
      8214 MEMB     66       OYPE     C21      CL       0.900000       12.0110           0
      8215 MEMB     66       OYPE     O22      OBL     -0.630000       15.9994           0
      8216 MEMB     66       OYPE     C22      CTL2    -0.220000       12.0110           0
      8217 MEMB     66       OYPE     H2R      HAL2     0.900000E-01   1.00800           0
      8218 MEMB     66       OYPE     H2S      HAL2     0.900000E-01   1.00800           0
      8219 MEMB     66       OYPE     C3       CTL2     0.800000E-01   12.0110           0
      8220 MEMB     66       OYPE     HX       HAL2     0.900000E-01   1.00800           0
      8221 MEMB     66       OYPE     HY       HAL2     0.900000E-01   1.00800           0
      8222 MEMB     66       OYPE     O31      OSL     -0.490000       15.9994           0
      8223 MEMB     66       OYPE     C31      CL       0.900000       12.0110           0
      8224 MEMB     66       OYPE     O32      OBL     -0.630000       15.9994           0
      8225 MEMB     66       OYPE     C32      CTL2    -0.220000       12.0110           0
      8226 MEMB     66       OYPE     H2X      HAL2     0.900000E-01   1.00800           0
      8227 MEMB     66       OYPE     H2Y      HAL2     0.900000E-01   1.00800           0
      8228 MEMB     66       OYPE     C23      CTL2    -0.180000       12.0110           0
      8229 MEMB     66       OYPE     H3R      HAL2     0.900000E-01   1.00800           0
      8230 MEMB     66       OYPE     H3S      HAL2     0.900000E-01   1.00800           0
      8231 MEMB     66       OYPE     C24      CTL2    -0.180000       12.0110           0
      8232 MEMB     66       OYPE     H4R      HAL2     0.900000E-01   1.00800           0
      8233 MEMB     66       OYPE     H4S      HAL2     0.900000E-01   1.00800           0
      8234 MEMB     66       OYPE     C25      CTL2    -0.180000       12.0110           0
      8235 MEMB     66       OYPE     H5R      HAL2     0.900000E-01   1.00800           0
      8236 MEMB     66       OYPE     H5S      HAL2     0.900000E-01   1.00800           0
      8237 MEMB     66       OYPE     C26      CTL2    -0.180000       12.0110           0
      8238 MEMB     66       OYPE     H6R      HAL2     0.900000E-01   1.00800           0
      8239 MEMB     66       OYPE     H6S      HAL2     0.900000E-01   1.00800           0
      8240 MEMB     66       OYPE     C27      CTL2    -0.180000       12.0110           0
      8241 MEMB     66       OYPE     H7R      HAL2     0.900000E-01   1.00800           0
      8242 MEMB     66       OYPE     H7S      HAL2     0.900000E-01   1.00800           0
      8243 MEMB     66       OYPE     C28      CTL2    -0.180000       12.0110           0
      8244 MEMB     66       OYPE     H8R      HAL2     0.900000E-01   1.00800           0
      8245 MEMB     66       OYPE     H8S      HAL2     0.900000E-01   1.00800           0
      8246 MEMB     66       OYPE     C29      CEL1    -0.150000       12.0110           0
      8247 MEMB     66       OYPE     H9R      HEL1     0.150000       1.00800           0
      8248 MEMB     66       OYPE     C210     CEL1    -0.150000       12.0110           0
      8249 MEMB     66       OYPE     H10R     HEL1     0.150000       1.00800           0
      8250 MEMB     66       OYPE     C211     CTL2    -0.180000       12.0110           0
      8251 MEMB     66       OYPE     H11R     HAL2     0.900000E-01   1.00800           0
      8252 MEMB     66       OYPE     H11S     HAL2     0.900000E-01   1.00800           0
      8253 MEMB     66       OYPE     C212     CTL2    -0.180000       12.0110           0
      8254 MEMB     66       OYPE     H12R     HAL2     0.900000E-01   1.00800           0
      8255 MEMB     66       OYPE     H12S     HAL2     0.900000E-01   1.00800           0
      8256 MEMB     66       OYPE     C213     CTL2    -0.180000       12.0110           0
      8257 MEMB     66       OYPE     H13R     HAL2     0.900000E-01   1.00800           0
      8258 MEMB     66       OYPE     H13S     HAL2     0.900000E-01   1.00800           0
      8259 MEMB     66       OYPE     C214     CTL2    -0.180000       12.0110           0
      8260 MEMB     66       OYPE     H14R     HAL2     0.900000E-01   1.00800           0
      8261 MEMB     66       OYPE     H14S     HAL2     0.900000E-01   1.00800           0
      8262 MEMB     66       OYPE     C215     CTL2    -0.180000       12.0110           0
      8263 MEMB     66       OYPE     H15R     HAL2     0.900000E-01   1.00800           0
      8264 MEMB     66       OYPE     H15S     HAL2     0.900000E-01   1.00800           0
      8265 MEMB     66       OYPE     C216     CTL3    -0.270000       12.0110           0
      8266 MEMB     66       OYPE     H16R     HAL3     0.900000E-01   1.00800           0
      8267 MEMB     66       OYPE     H16S     HAL3     0.900000E-01   1.00800           0
      8268 MEMB     66       OYPE     H16T     HAL3     0.900000E-01   1.00800           0
      8269 MEMB     66       OYPE     C33      CTL2    -0.180000       12.0110           0
      8270 MEMB     66       OYPE     H3X      HAL2     0.900000E-01   1.00800           0
      8271 MEMB     66       OYPE     H3Y      HAL2     0.900000E-01   1.00800           0
      8272 MEMB     66       OYPE     C34      CTL2    -0.180000       12.0110           0
      8273 MEMB     66       OYPE     H4X      HAL2     0.900000E-01   1.00800           0
      8274 MEMB     66       OYPE     H4Y      HAL2     0.900000E-01   1.00800           0
      8275 MEMB     66       OYPE     C35      CTL2    -0.180000       12.0110           0
      8276 MEMB     66       OYPE     H5X      HAL2     0.900000E-01   1.00800           0
      8277 MEMB     66       OYPE     H5Y      HAL2     0.900000E-01   1.00800           0
      8278 MEMB     66       OYPE     C36      CTL2    -0.180000       12.0110           0
      8279 MEMB     66       OYPE     H6X      HAL2     0.900000E-01   1.00800           0
      8280 MEMB     66       OYPE     H6Y      HAL2     0.900000E-01   1.00800           0
      8281 MEMB     66       OYPE     C37      CTL2    -0.180000       12.0110           0
      8282 MEMB     66       OYPE     H7X      HAL2     0.900000E-01   1.00800           0
      8283 MEMB     66       OYPE     H7Y      HAL2     0.900000E-01   1.00800           0
      8284 MEMB     66       OYPE     C38      CTL2    -0.180000       12.0110           0
      8285 MEMB     66       OYPE     H8X      HAL2     0.900000E-01   1.00800           0
      8286 MEMB     66       OYPE     H8Y      HAL2     0.900000E-01   1.00800           0
      8287 MEMB     66       OYPE     C39      CEL1    -0.150000       12.0110           0
      8288 MEMB     66       OYPE     H9X      HEL1     0.150000       1.00800           0
      8289 MEMB     66       OYPE     C310     CEL1    -0.150000       12.0110           0
      8290 MEMB     66       OYPE     H10X     HEL1     0.150000       1.00800           0
      8291 MEMB     66       OYPE     C311     CTL2    -0.180000       12.0110           0
      8292 MEMB     66       OYPE     H11X     HAL2     0.900000E-01   1.00800           0
      8293 MEMB     66       OYPE     H11Y     HAL2     0.900000E-01   1.00800           0
      8294 MEMB     66       OYPE     C312     CTL2    -0.180000       12.0110           0
      8295 MEMB     66       OYPE     H12X     HAL2     0.900000E-01   1.00800           0
      8296 MEMB     66       OYPE     H12Y     HAL2     0.900000E-01   1.00800           0
      8297 MEMB     66       OYPE     C313     CTL2    -0.180000       12.0110           0
      8298 MEMB     66       OYPE     H13X     HAL2     0.900000E-01   1.00800           0
      8299 MEMB     66       OYPE     H13Y     HAL2     0.900000E-01   1.00800           0
      8300 MEMB     66       OYPE     C314     CTL2    -0.180000       12.0110           0
      8301 MEMB     66       OYPE     H14X     HAL2     0.900000E-01   1.00800           0
      8302 MEMB     66       OYPE     H14Y     HAL2     0.900000E-01   1.00800           0
      8303 MEMB     66       OYPE     C315     CTL2    -0.180000       12.0110           0
      8304 MEMB     66       OYPE     H15X     HAL2     0.900000E-01   1.00800           0
      8305 MEMB     66       OYPE     H15Y     HAL2     0.900000E-01   1.00800           0
      8306 MEMB     66       OYPE     C316     CTL2    -0.180000       12.0110           0
      8307 MEMB     66       OYPE     H16X     HAL2     0.900000E-01   1.00800           0
      8308 MEMB     66       OYPE     H16Y     HAL2     0.900000E-01   1.00800           0
      8309 MEMB     66       OYPE     C317     CTL2    -0.180000       12.0110           0
      8310 MEMB     66       OYPE     H17X     HAL2     0.900000E-01   1.00800           0
      8311 MEMB     66       OYPE     H17Y     HAL2     0.900000E-01   1.00800           0
      8312 MEMB     66       OYPE     C318     CTL3    -0.270000       12.0110           0
      8313 MEMB     66       OYPE     H18X     HAL3     0.900000E-01   1.00800           0
      8314 MEMB     66       OYPE     H18Y     HAL3     0.900000E-01   1.00800           0
      8315 MEMB     66       OYPE     H18Z     HAL3     0.900000E-01   1.00800           0
      8316 MEMB     67       OYPE     N        NH3L    -0.300000       14.0070           0
      8317 MEMB     67       OYPE     HN1      HCL      0.330000       1.00800           0
      8318 MEMB     67       OYPE     HN2      HCL      0.330000       1.00800           0
      8319 MEMB     67       OYPE     HN3      HCL      0.330000       1.00800           0
      8320 MEMB     67       OYPE     C12      CTL2     0.130000       12.0110           0
      8321 MEMB     67       OYPE     H12A     HAL2     0.900000E-01   1.00800           0
      8322 MEMB     67       OYPE     H12B     HAL2     0.900000E-01   1.00800           0
      8323 MEMB     67       OYPE     C11      CTL2    -0.800000E-01   12.0110           0
      8324 MEMB     67       OYPE     H11A     HAL2     0.900000E-01   1.00800           0
      8325 MEMB     67       OYPE     H11B     HAL2     0.900000E-01   1.00800           0
      8326 MEMB     67       OYPE     P        PL        1.50000       30.9740           0
      8327 MEMB     67       OYPE     O13      O2L     -0.780000       15.9994           0
      8328 MEMB     67       OYPE     O14      O2L     -0.780000       15.9994           0
      8329 MEMB     67       OYPE     O11      OSLP    -0.570000       15.9994           0
      8330 MEMB     67       OYPE     O12      OSLP    -0.570000       15.9994           0
      8331 MEMB     67       OYPE     C1       CTL2    -0.800000E-01   12.0110           0
      8332 MEMB     67       OYPE     HA       HAL2     0.900000E-01   1.00800           0
      8333 MEMB     67       OYPE     HB       HAL2     0.900000E-01   1.00800           0
      8334 MEMB     67       OYPE     C2       CTL1     0.170000       12.0110           0
      8335 MEMB     67       OYPE     HS       HAL1     0.900000E-01   1.00800           0
      8336 MEMB     67       OYPE     O21      OSL     -0.490000       15.9994           0
      8337 MEMB     67       OYPE     C21      CL       0.900000       12.0110           0
      8338 MEMB     67       OYPE     O22      OBL     -0.630000       15.9994           0
      8339 MEMB     67       OYPE     C22      CTL2    -0.220000       12.0110           0
      8340 MEMB     67       OYPE     H2R      HAL2     0.900000E-01   1.00800           0
      8341 MEMB     67       OYPE     H2S      HAL2     0.900000E-01   1.00800           0
      8342 MEMB     67       OYPE     C3       CTL2     0.800000E-01   12.0110           0
      8343 MEMB     67       OYPE     HX       HAL2     0.900000E-01   1.00800           0
      8344 MEMB     67       OYPE     HY       HAL2     0.900000E-01   1.00800           0
      8345 MEMB     67       OYPE     O31      OSL     -0.490000       15.9994           0
      8346 MEMB     67       OYPE     C31      CL       0.900000       12.0110           0
      8347 MEMB     67       OYPE     O32      OBL     -0.630000       15.9994           0
      8348 MEMB     67       OYPE     C32      CTL2    -0.220000       12.0110           0
      8349 MEMB     67       OYPE     H2X      HAL2     0.900000E-01   1.00800           0
      8350 MEMB     67       OYPE     H2Y      HAL2     0.900000E-01   1.00800           0
      8351 MEMB     67       OYPE     C23      CTL2    -0.180000       12.0110           0
      8352 MEMB     67       OYPE     H3R      HAL2     0.900000E-01   1.00800           0
      8353 MEMB     67       OYPE     H3S      HAL2     0.900000E-01   1.00800           0
      8354 MEMB     67       OYPE     C24      CTL2    -0.180000       12.0110           0
      8355 MEMB     67       OYPE     H4R      HAL2     0.900000E-01   1.00800           0
      8356 MEMB     67       OYPE     H4S      HAL2     0.900000E-01   1.00800           0
      8357 MEMB     67       OYPE     C25      CTL2    -0.180000       12.0110           0
      8358 MEMB     67       OYPE     H5R      HAL2     0.900000E-01   1.00800           0
      8359 MEMB     67       OYPE     H5S      HAL2     0.900000E-01   1.00800           0
      8360 MEMB     67       OYPE     C26      CTL2    -0.180000       12.0110           0
      8361 MEMB     67       OYPE     H6R      HAL2     0.900000E-01   1.00800           0
      8362 MEMB     67       OYPE     H6S      HAL2     0.900000E-01   1.00800           0
      8363 MEMB     67       OYPE     C27      CTL2    -0.180000       12.0110           0
      8364 MEMB     67       OYPE     H7R      HAL2     0.900000E-01   1.00800           0
      8365 MEMB     67       OYPE     H7S      HAL2     0.900000E-01   1.00800           0
      8366 MEMB     67       OYPE     C28      CTL2    -0.180000       12.0110           0
      8367 MEMB     67       OYPE     H8R      HAL2     0.900000E-01   1.00800           0
      8368 MEMB     67       OYPE     H8S      HAL2     0.900000E-01   1.00800           0
      8369 MEMB     67       OYPE     C29      CEL1    -0.150000       12.0110           0
      8370 MEMB     67       OYPE     H9R      HEL1     0.150000       1.00800           0
      8371 MEMB     67       OYPE     C210     CEL1    -0.150000       12.0110           0
      8372 MEMB     67       OYPE     H10R     HEL1     0.150000       1.00800           0
      8373 MEMB     67       OYPE     C211     CTL2    -0.180000       12.0110           0
      8374 MEMB     67       OYPE     H11R     HAL2     0.900000E-01   1.00800           0
      8375 MEMB     67       OYPE     H11S     HAL2     0.900000E-01   1.00800           0
      8376 MEMB     67       OYPE     C212     CTL2    -0.180000       12.0110           0
      8377 MEMB     67       OYPE     H12R     HAL2     0.900000E-01   1.00800           0
      8378 MEMB     67       OYPE     H12S     HAL2     0.900000E-01   1.00800           0
      8379 MEMB     67       OYPE     C213     CTL2    -0.180000       12.0110           0
      8380 MEMB     67       OYPE     H13R     HAL2     0.900000E-01   1.00800           0
      8381 MEMB     67       OYPE     H13S     HAL2     0.900000E-01   1.00800           0
      8382 MEMB     67       OYPE     C214     CTL2    -0.180000       12.0110           0
      8383 MEMB     67       OYPE     H14R     HAL2     0.900000E-01   1.00800           0
      8384 MEMB     67       OYPE     H14S     HAL2     0.900000E-01   1.00800           0
      8385 MEMB     67       OYPE     C215     CTL2    -0.180000       12.0110           0
      8386 MEMB     67       OYPE     H15R     HAL2     0.900000E-01   1.00800           0
      8387 MEMB     67       OYPE     H15S     HAL2     0.900000E-01   1.00800           0
      8388 MEMB     67       OYPE     C216     CTL3    -0.270000       12.0110           0
      8389 MEMB     67       OYPE     H16R     HAL3     0.900000E-01   1.00800           0
      8390 MEMB     67       OYPE     H16S     HAL3     0.900000E-01   1.00800           0
      8391 MEMB     67       OYPE     H16T     HAL3     0.900000E-01   1.00800           0
      8392 MEMB     67       OYPE     C33      CTL2    -0.180000       12.0110           0
      8393 MEMB     67       OYPE     H3X      HAL2     0.900000E-01   1.00800           0
      8394 MEMB     67       OYPE     H3Y      HAL2     0.900000E-01   1.00800           0
      8395 MEMB     67       OYPE     C34      CTL2    -0.180000       12.0110           0
      8396 MEMB     67       OYPE     H4X      HAL2     0.900000E-01   1.00800           0
      8397 MEMB     67       OYPE     H4Y      HAL2     0.900000E-01   1.00800           0
      8398 MEMB     67       OYPE     C35      CTL2    -0.180000       12.0110           0
      8399 MEMB     67       OYPE     H5X      HAL2     0.900000E-01   1.00800           0
      8400 MEMB     67       OYPE     H5Y      HAL2     0.900000E-01   1.00800           0
      8401 MEMB     67       OYPE     C36      CTL2    -0.180000       12.0110           0
      8402 MEMB     67       OYPE     H6X      HAL2     0.900000E-01   1.00800           0
      8403 MEMB     67       OYPE     H6Y      HAL2     0.900000E-01   1.00800           0
      8404 MEMB     67       OYPE     C37      CTL2    -0.180000       12.0110           0
      8405 MEMB     67       OYPE     H7X      HAL2     0.900000E-01   1.00800           0
      8406 MEMB     67       OYPE     H7Y      HAL2     0.900000E-01   1.00800           0
      8407 MEMB     67       OYPE     C38      CTL2    -0.180000       12.0110           0
      8408 MEMB     67       OYPE     H8X      HAL2     0.900000E-01   1.00800           0
      8409 MEMB     67       OYPE     H8Y      HAL2     0.900000E-01   1.00800           0
      8410 MEMB     67       OYPE     C39      CEL1    -0.150000       12.0110           0
      8411 MEMB     67       OYPE     H9X      HEL1     0.150000       1.00800           0
      8412 MEMB     67       OYPE     C310     CEL1    -0.150000       12.0110           0
      8413 MEMB     67       OYPE     H10X     HEL1     0.150000       1.00800           0
      8414 MEMB     67       OYPE     C311     CTL2    -0.180000       12.0110           0
      8415 MEMB     67       OYPE     H11X     HAL2     0.900000E-01   1.00800           0
      8416 MEMB     67       OYPE     H11Y     HAL2     0.900000E-01   1.00800           0
      8417 MEMB     67       OYPE     C312     CTL2    -0.180000       12.0110           0
      8418 MEMB     67       OYPE     H12X     HAL2     0.900000E-01   1.00800           0
      8419 MEMB     67       OYPE     H12Y     HAL2     0.900000E-01   1.00800           0
      8420 MEMB     67       OYPE     C313     CTL2    -0.180000       12.0110           0
      8421 MEMB     67       OYPE     H13X     HAL2     0.900000E-01   1.00800           0
      8422 MEMB     67       OYPE     H13Y     HAL2     0.900000E-01   1.00800           0
      8423 MEMB     67       OYPE     C314     CTL2    -0.180000       12.0110           0
      8424 MEMB     67       OYPE     H14X     HAL2     0.900000E-01   1.00800           0
      8425 MEMB     67       OYPE     H14Y     HAL2     0.900000E-01   1.00800           0
      8426 MEMB     67       OYPE     C315     CTL2    -0.180000       12.0110           0
      8427 MEMB     67       OYPE     H15X     HAL2     0.900000E-01   1.00800           0
      8428 MEMB     67       OYPE     H15Y     HAL2     0.900000E-01   1.00800           0
      8429 MEMB     67       OYPE     C316     CTL2    -0.180000       12.0110           0
      8430 MEMB     67       OYPE     H16X     HAL2     0.900000E-01   1.00800           0
      8431 MEMB     67       OYPE     H16Y     HAL2     0.900000E-01   1.00800           0
      8432 MEMB     67       OYPE     C317     CTL2    -0.180000       12.0110           0
      8433 MEMB     67       OYPE     H17X     HAL2     0.900000E-01   1.00800           0
      8434 MEMB     67       OYPE     H17Y     HAL2     0.900000E-01   1.00800           0
      8435 MEMB     67       OYPE     C318     CTL3    -0.270000       12.0110           0
      8436 MEMB     67       OYPE     H18X     HAL3     0.900000E-01   1.00800           0
      8437 MEMB     67       OYPE     H18Y     HAL3     0.900000E-01   1.00800           0
      8438 MEMB     67       OYPE     H18Z     HAL3     0.900000E-01   1.00800           0
      8439 MEMB     68       PMPE     N        NH3L    -0.300000       14.0070           0
      8440 MEMB     68       PMPE     HN1      HCL      0.330000       1.00800           0
      8441 MEMB     68       PMPE     HN2      HCL      0.330000       1.00800           0
      8442 MEMB     68       PMPE     HN3      HCL      0.330000       1.00800           0
      8443 MEMB     68       PMPE     C12      CTL2     0.130000       12.0110           0
      8444 MEMB     68       PMPE     H12A     HAL2     0.900000E-01   1.00800           0
      8445 MEMB     68       PMPE     H12B     HAL2     0.900000E-01   1.00800           0
      8446 MEMB     68       PMPE     C11      CTL2    -0.800000E-01   12.0110           0
      8447 MEMB     68       PMPE     H11A     HAL2     0.900000E-01   1.00800           0
      8448 MEMB     68       PMPE     H11B     HAL2     0.900000E-01   1.00800           0
      8449 MEMB     68       PMPE     P        PL        1.50000       30.9740           0
      8450 MEMB     68       PMPE     O13      O2L     -0.780000       15.9994           0
      8451 MEMB     68       PMPE     O14      O2L     -0.780000       15.9994           0
      8452 MEMB     68       PMPE     O11      OSLP    -0.570000       15.9994           0
      8453 MEMB     68       PMPE     O12      OSLP    -0.570000       15.9994           0
      8454 MEMB     68       PMPE     C1       CTL2    -0.800000E-01   12.0110           0
      8455 MEMB     68       PMPE     HA       HAL2     0.900000E-01   1.00800           0
      8456 MEMB     68       PMPE     HB       HAL2     0.900000E-01   1.00800           0
      8457 MEMB     68       PMPE     C2       CTL1     0.170000       12.0110           0
      8458 MEMB     68       PMPE     HS       HAL1     0.900000E-01   1.00800           0
      8459 MEMB     68       PMPE     O21      OSL     -0.490000       15.9994           0
      8460 MEMB     68       PMPE     C21      CL       0.900000       12.0110           0
      8461 MEMB     68       PMPE     O22      OBL     -0.630000       15.9994           0
      8462 MEMB     68       PMPE     C22      CTL2    -0.220000       12.0110           0
      8463 MEMB     68       PMPE     H2R      HAL2     0.900000E-01   1.00800           0
      8464 MEMB     68       PMPE     H2S      HAL2     0.900000E-01   1.00800           0
      8465 MEMB     68       PMPE     C3       CTL2     0.800000E-01   12.0110           0
      8466 MEMB     68       PMPE     HX       HAL2     0.900000E-01   1.00800           0
      8467 MEMB     68       PMPE     HY       HAL2     0.900000E-01   1.00800           0
      8468 MEMB     68       PMPE     O31      OSL     -0.490000       15.9994           0
      8469 MEMB     68       PMPE     C31      CL       0.900000       12.0110           0
      8470 MEMB     68       PMPE     O32      OBL     -0.630000       15.9994           0
      8471 MEMB     68       PMPE     C32      CTL2    -0.220000       12.0110           0
      8472 MEMB     68       PMPE     H2X      HAL2     0.900000E-01   1.00800           0
      8473 MEMB     68       PMPE     H2Y      HAL2     0.900000E-01   1.00800           0
      8474 MEMB     68       PMPE     C23      CTL2    -0.180000       12.0110           0
      8475 MEMB     68       PMPE     H3R      HAL2     0.900000E-01   1.00800           0
      8476 MEMB     68       PMPE     H3S      HAL2     0.900000E-01   1.00800           0
      8477 MEMB     68       PMPE     C24      CTL2    -0.180000       12.0110           0
      8478 MEMB     68       PMPE     H4R      HAL2     0.900000E-01   1.00800           0
      8479 MEMB     68       PMPE     H4S      HAL2     0.900000E-01   1.00800           0
      8480 MEMB     68       PMPE     C25      CTL2    -0.180000       12.0110           0
      8481 MEMB     68       PMPE     H5R      HAL2     0.900000E-01   1.00800           0
      8482 MEMB     68       PMPE     H5S      HAL2     0.900000E-01   1.00800           0
      8483 MEMB     68       PMPE     C26      CTL2    -0.180000       12.0110           0
      8484 MEMB     68       PMPE     H6R      HAL2     0.900000E-01   1.00800           0
      8485 MEMB     68       PMPE     H6S      HAL2     0.900000E-01   1.00800           0
      8486 MEMB     68       PMPE     C27      CTL2    -0.180000       12.0110           0
      8487 MEMB     68       PMPE     H7R      HAL2     0.900000E-01   1.00800           0
      8488 MEMB     68       PMPE     H7S      HAL2     0.900000E-01   1.00800           0
      8489 MEMB     68       PMPE     C28      CTL2    -0.180000       12.0110           0
      8490 MEMB     68       PMPE     H8R      HAL2     0.900000E-01   1.00800           0
      8491 MEMB     68       PMPE     H8S      HAL2     0.900000E-01   1.00800           0
      8492 MEMB     68       PMPE     C29      CG3RC1  -0.900000E-01   12.0110           0
      8493 MEMB     68       PMPE     H9R      HGA1     0.900000E-01   1.00800           0
      8494 MEMB     68       PMPE     C217     CG3C31  -0.180000       12.0110           0
      8495 MEMB     68       PMPE     H17R     HGA2     0.900000E-01   1.00800           0
      8496 MEMB     68       PMPE     H17S     HGA2     0.900000E-01   1.00800           0
      8497 MEMB     68       PMPE     C210     CG3RC1  -0.900000E-01   12.0110           0
      8498 MEMB     68       PMPE     H10R     HGA1     0.900000E-01   1.00800           0
      8499 MEMB     68       PMPE     C211     CTL2    -0.180000       12.0110           0
      8500 MEMB     68       PMPE     H11R     HAL2     0.900000E-01   1.00800           0
      8501 MEMB     68       PMPE     H11S     HAL2     0.900000E-01   1.00800           0
      8502 MEMB     68       PMPE     C212     CTL2    -0.180000       12.0110           0
      8503 MEMB     68       PMPE     H12R     HAL2     0.900000E-01   1.00800           0
      8504 MEMB     68       PMPE     H12S     HAL2     0.900000E-01   1.00800           0
      8505 MEMB     68       PMPE     C213     CTL2    -0.180000       12.0110           0
      8506 MEMB     68       PMPE     H13R     HAL2     0.900000E-01   1.00800           0
      8507 MEMB     68       PMPE     H13S     HAL2     0.900000E-01   1.00800           0
      8508 MEMB     68       PMPE     C214     CTL2    -0.180000       12.0110           0
      8509 MEMB     68       PMPE     H14R     HAL2     0.900000E-01   1.00800           0
      8510 MEMB     68       PMPE     H14S     HAL2     0.900000E-01   1.00800           0
      8511 MEMB     68       PMPE     C215     CTL2    -0.180000       12.0110           0
      8512 MEMB     68       PMPE     H15R     HAL2     0.900000E-01   1.00800           0
      8513 MEMB     68       PMPE     H15S     HAL2     0.900000E-01   1.00800           0
      8514 MEMB     68       PMPE     C216     CTL3    -0.270000       12.0110           0
      8515 MEMB     68       PMPE     H16R     HAL3     0.900000E-01   1.00800           0
      8516 MEMB     68       PMPE     H16S     HAL3     0.900000E-01   1.00800           0
      8517 MEMB     68       PMPE     H16T     HAL3     0.900000E-01   1.00800           0
      8518 MEMB     68       PMPE     C33      CTL2    -0.180000       12.0110           0
      8519 MEMB     68       PMPE     H3X      HAL2     0.900000E-01   1.00800           0
      8520 MEMB     68       PMPE     H3Y      HAL2     0.900000E-01   1.00800           0
      8521 MEMB     68       PMPE     C34      CTL2    -0.180000       12.0110           0
      8522 MEMB     68       PMPE     H4X      HAL2     0.900000E-01   1.00800           0
      8523 MEMB     68       PMPE     H4Y      HAL2     0.900000E-01   1.00800           0
      8524 MEMB     68       PMPE     C35      CTL2    -0.180000       12.0110           0
      8525 MEMB     68       PMPE     H5X      HAL2     0.900000E-01   1.00800           0
      8526 MEMB     68       PMPE     H5Y      HAL2     0.900000E-01   1.00800           0
      8527 MEMB     68       PMPE     C36      CTL2    -0.180000       12.0110           0
      8528 MEMB     68       PMPE     H6X      HAL2     0.900000E-01   1.00800           0
      8529 MEMB     68       PMPE     H6Y      HAL2     0.900000E-01   1.00800           0
      8530 MEMB     68       PMPE     C37      CTL2    -0.180000       12.0110           0
      8531 MEMB     68       PMPE     H7X      HAL2     0.900000E-01   1.00800           0
      8532 MEMB     68       PMPE     H7Y      HAL2     0.900000E-01   1.00800           0
      8533 MEMB     68       PMPE     C38      CTL2    -0.180000       12.0110           0
      8534 MEMB     68       PMPE     H8X      HAL2     0.900000E-01   1.00800           0
      8535 MEMB     68       PMPE     H8Y      HAL2     0.900000E-01   1.00800           0
      8536 MEMB     68       PMPE     C39      CTL2    -0.180000       12.0110           0
      8537 MEMB     68       PMPE     H9X      HAL2     0.900000E-01   1.00800           0
      8538 MEMB     68       PMPE     H9Y      HAL2     0.900000E-01   1.00800           0
      8539 MEMB     68       PMPE     C310     CTL2    -0.180000       12.0110           0
      8540 MEMB     68       PMPE     H10X     HAL2     0.900000E-01   1.00800           0
      8541 MEMB     68       PMPE     H10Y     HAL2     0.900000E-01   1.00800           0
      8542 MEMB     68       PMPE     C311     CTL2    -0.180000       12.0110           0
      8543 MEMB     68       PMPE     H11X     HAL2     0.900000E-01   1.00800           0
      8544 MEMB     68       PMPE     H11Y     HAL2     0.900000E-01   1.00800           0
      8545 MEMB     68       PMPE     C312     CTL2    -0.180000       12.0110           0
      8546 MEMB     68       PMPE     H12X     HAL2     0.900000E-01   1.00800           0
      8547 MEMB     68       PMPE     H12Y     HAL2     0.900000E-01   1.00800           0
      8548 MEMB     68       PMPE     C313     CTL2    -0.180000       12.0110           0
      8549 MEMB     68       PMPE     H13X     HAL2     0.900000E-01   1.00800           0
      8550 MEMB     68       PMPE     H13Y     HAL2     0.900000E-01   1.00800           0
      8551 MEMB     68       PMPE     C314     CTL2    -0.180000       12.0110           0
      8552 MEMB     68       PMPE     H14X     HAL2     0.900000E-01   1.00800           0
      8553 MEMB     68       PMPE     H14Y     HAL2     0.900000E-01   1.00800           0
      8554 MEMB     68       PMPE     C315     CTL2    -0.180000       12.0110           0
      8555 MEMB     68       PMPE     H15X     HAL2     0.900000E-01   1.00800           0
      8556 MEMB     68       PMPE     H15Y     HAL2     0.900000E-01   1.00800           0
      8557 MEMB     68       PMPE     C316     CTL3    -0.270000       12.0110           0
      8558 MEMB     68       PMPE     H16X     HAL3     0.900000E-01   1.00800           0
      8559 MEMB     68       PMPE     H16Y     HAL3     0.900000E-01   1.00800           0
      8560 MEMB     68       PMPE     H16Z     HAL3     0.900000E-01   1.00800           0
      8561 MEMB     69       PMPE     N        NH3L    -0.300000       14.0070           0
      8562 MEMB     69       PMPE     HN1      HCL      0.330000       1.00800           0
      8563 MEMB     69       PMPE     HN2      HCL      0.330000       1.00800           0
      8564 MEMB     69       PMPE     HN3      HCL      0.330000       1.00800           0
      8565 MEMB     69       PMPE     C12      CTL2     0.130000       12.0110           0
      8566 MEMB     69       PMPE     H12A     HAL2     0.900000E-01   1.00800           0
      8567 MEMB     69       PMPE     H12B     HAL2     0.900000E-01   1.00800           0
      8568 MEMB     69       PMPE     C11      CTL2    -0.800000E-01   12.0110           0
      8569 MEMB     69       PMPE     H11A     HAL2     0.900000E-01   1.00800           0
      8570 MEMB     69       PMPE     H11B     HAL2     0.900000E-01   1.00800           0
      8571 MEMB     69       PMPE     P        PL        1.50000       30.9740           0
      8572 MEMB     69       PMPE     O13      O2L     -0.780000       15.9994           0
      8573 MEMB     69       PMPE     O14      O2L     -0.780000       15.9994           0
      8574 MEMB     69       PMPE     O11      OSLP    -0.570000       15.9994           0
      8575 MEMB     69       PMPE     O12      OSLP    -0.570000       15.9994           0
      8576 MEMB     69       PMPE     C1       CTL2    -0.800000E-01   12.0110           0
      8577 MEMB     69       PMPE     HA       HAL2     0.900000E-01   1.00800           0
      8578 MEMB     69       PMPE     HB       HAL2     0.900000E-01   1.00800           0
      8579 MEMB     69       PMPE     C2       CTL1     0.170000       12.0110           0
      8580 MEMB     69       PMPE     HS       HAL1     0.900000E-01   1.00800           0
      8581 MEMB     69       PMPE     O21      OSL     -0.490000       15.9994           0
      8582 MEMB     69       PMPE     C21      CL       0.900000       12.0110           0
      8583 MEMB     69       PMPE     O22      OBL     -0.630000       15.9994           0
      8584 MEMB     69       PMPE     C22      CTL2    -0.220000       12.0110           0
      8585 MEMB     69       PMPE     H2R      HAL2     0.900000E-01   1.00800           0
      8586 MEMB     69       PMPE     H2S      HAL2     0.900000E-01   1.00800           0
      8587 MEMB     69       PMPE     C3       CTL2     0.800000E-01   12.0110           0
      8588 MEMB     69       PMPE     HX       HAL2     0.900000E-01   1.00800           0
      8589 MEMB     69       PMPE     HY       HAL2     0.900000E-01   1.00800           0
      8590 MEMB     69       PMPE     O31      OSL     -0.490000       15.9994           0
      8591 MEMB     69       PMPE     C31      CL       0.900000       12.0110           0
      8592 MEMB     69       PMPE     O32      OBL     -0.630000       15.9994           0
      8593 MEMB     69       PMPE     C32      CTL2    -0.220000       12.0110           0
      8594 MEMB     69       PMPE     H2X      HAL2     0.900000E-01   1.00800           0
      8595 MEMB     69       PMPE     H2Y      HAL2     0.900000E-01   1.00800           0
      8596 MEMB     69       PMPE     C23      CTL2    -0.180000       12.0110           0
      8597 MEMB     69       PMPE     H3R      HAL2     0.900000E-01   1.00800           0
      8598 MEMB     69       PMPE     H3S      HAL2     0.900000E-01   1.00800           0
      8599 MEMB     69       PMPE     C24      CTL2    -0.180000       12.0110           0
      8600 MEMB     69       PMPE     H4R      HAL2     0.900000E-01   1.00800           0
      8601 MEMB     69       PMPE     H4S      HAL2     0.900000E-01   1.00800           0
      8602 MEMB     69       PMPE     C25      CTL2    -0.180000       12.0110           0
      8603 MEMB     69       PMPE     H5R      HAL2     0.900000E-01   1.00800           0
      8604 MEMB     69       PMPE     H5S      HAL2     0.900000E-01   1.00800           0
      8605 MEMB     69       PMPE     C26      CTL2    -0.180000       12.0110           0
      8606 MEMB     69       PMPE     H6R      HAL2     0.900000E-01   1.00800           0
      8607 MEMB     69       PMPE     H6S      HAL2     0.900000E-01   1.00800           0
      8608 MEMB     69       PMPE     C27      CTL2    -0.180000       12.0110           0
      8609 MEMB     69       PMPE     H7R      HAL2     0.900000E-01   1.00800           0
      8610 MEMB     69       PMPE     H7S      HAL2     0.900000E-01   1.00800           0
      8611 MEMB     69       PMPE     C28      CTL2    -0.180000       12.0110           0
      8612 MEMB     69       PMPE     H8R      HAL2     0.900000E-01   1.00800           0
      8613 MEMB     69       PMPE     H8S      HAL2     0.900000E-01   1.00800           0
      8614 MEMB     69       PMPE     C29      CG3RC1  -0.900000E-01   12.0110           0
      8615 MEMB     69       PMPE     H9R      HGA1     0.900000E-01   1.00800           0
      8616 MEMB     69       PMPE     C217     CG3C31  -0.180000       12.0110           0
      8617 MEMB     69       PMPE     H17R     HGA2     0.900000E-01   1.00800           0
      8618 MEMB     69       PMPE     H17S     HGA2     0.900000E-01   1.00800           0
      8619 MEMB     69       PMPE     C210     CG3RC1  -0.900000E-01   12.0110           0
      8620 MEMB     69       PMPE     H10R     HGA1     0.900000E-01   1.00800           0
      8621 MEMB     69       PMPE     C211     CTL2    -0.180000       12.0110           0
      8622 MEMB     69       PMPE     H11R     HAL2     0.900000E-01   1.00800           0
      8623 MEMB     69       PMPE     H11S     HAL2     0.900000E-01   1.00800           0
      8624 MEMB     69       PMPE     C212     CTL2    -0.180000       12.0110           0
      8625 MEMB     69       PMPE     H12R     HAL2     0.900000E-01   1.00800           0
      8626 MEMB     69       PMPE     H12S     HAL2     0.900000E-01   1.00800           0
      8627 MEMB     69       PMPE     C213     CTL2    -0.180000       12.0110           0
      8628 MEMB     69       PMPE     H13R     HAL2     0.900000E-01   1.00800           0
      8629 MEMB     69       PMPE     H13S     HAL2     0.900000E-01   1.00800           0
      8630 MEMB     69       PMPE     C214     CTL2    -0.180000       12.0110           0
      8631 MEMB     69       PMPE     H14R     HAL2     0.900000E-01   1.00800           0
      8632 MEMB     69       PMPE     H14S     HAL2     0.900000E-01   1.00800           0
      8633 MEMB     69       PMPE     C215     CTL2    -0.180000       12.0110           0
      8634 MEMB     69       PMPE     H15R     HAL2     0.900000E-01   1.00800           0
      8635 MEMB     69       PMPE     H15S     HAL2     0.900000E-01   1.00800           0
      8636 MEMB     69       PMPE     C216     CTL3    -0.270000       12.0110           0
      8637 MEMB     69       PMPE     H16R     HAL3     0.900000E-01   1.00800           0
      8638 MEMB     69       PMPE     H16S     HAL3     0.900000E-01   1.00800           0
      8639 MEMB     69       PMPE     H16T     HAL3     0.900000E-01   1.00800           0
      8640 MEMB     69       PMPE     C33      CTL2    -0.180000       12.0110           0
      8641 MEMB     69       PMPE     H3X      HAL2     0.900000E-01   1.00800           0
      8642 MEMB     69       PMPE     H3Y      HAL2     0.900000E-01   1.00800           0
      8643 MEMB     69       PMPE     C34      CTL2    -0.180000       12.0110           0
      8644 MEMB     69       PMPE     H4X      HAL2     0.900000E-01   1.00800           0
      8645 MEMB     69       PMPE     H4Y      HAL2     0.900000E-01   1.00800           0
      8646 MEMB     69       PMPE     C35      CTL2    -0.180000       12.0110           0
      8647 MEMB     69       PMPE     H5X      HAL2     0.900000E-01   1.00800           0
      8648 MEMB     69       PMPE     H5Y      HAL2     0.900000E-01   1.00800           0
      8649 MEMB     69       PMPE     C36      CTL2    -0.180000       12.0110           0
      8650 MEMB     69       PMPE     H6X      HAL2     0.900000E-01   1.00800           0
      8651 MEMB     69       PMPE     H6Y      HAL2     0.900000E-01   1.00800           0
      8652 MEMB     69       PMPE     C37      CTL2    -0.180000       12.0110           0
      8653 MEMB     69       PMPE     H7X      HAL2     0.900000E-01   1.00800           0
      8654 MEMB     69       PMPE     H7Y      HAL2     0.900000E-01   1.00800           0
      8655 MEMB     69       PMPE     C38      CTL2    -0.180000       12.0110           0
      8656 MEMB     69       PMPE     H8X      HAL2     0.900000E-01   1.00800           0
      8657 MEMB     69       PMPE     H8Y      HAL2     0.900000E-01   1.00800           0
      8658 MEMB     69       PMPE     C39      CTL2    -0.180000       12.0110           0
      8659 MEMB     69       PMPE     H9X      HAL2     0.900000E-01   1.00800           0
      8660 MEMB     69       PMPE     H9Y      HAL2     0.900000E-01   1.00800           0
      8661 MEMB     69       PMPE     C310     CTL2    -0.180000       12.0110           0
      8662 MEMB     69       PMPE     H10X     HAL2     0.900000E-01   1.00800           0
      8663 MEMB     69       PMPE     H10Y     HAL2     0.900000E-01   1.00800           0
      8664 MEMB     69       PMPE     C311     CTL2    -0.180000       12.0110           0
      8665 MEMB     69       PMPE     H11X     HAL2     0.900000E-01   1.00800           0
      8666 MEMB     69       PMPE     H11Y     HAL2     0.900000E-01   1.00800           0
      8667 MEMB     69       PMPE     C312     CTL2    -0.180000       12.0110           0
      8668 MEMB     69       PMPE     H12X     HAL2     0.900000E-01   1.00800           0
      8669 MEMB     69       PMPE     H12Y     HAL2     0.900000E-01   1.00800           0
      8670 MEMB     69       PMPE     C313     CTL2    -0.180000       12.0110           0
      8671 MEMB     69       PMPE     H13X     HAL2     0.900000E-01   1.00800           0
      8672 MEMB     69       PMPE     H13Y     HAL2     0.900000E-01   1.00800           0
      8673 MEMB     69       PMPE     C314     CTL2    -0.180000       12.0110           0
      8674 MEMB     69       PMPE     H14X     HAL2     0.900000E-01   1.00800           0
      8675 MEMB     69       PMPE     H14Y     HAL2     0.900000E-01   1.00800           0
      8676 MEMB     69       PMPE     C315     CTL2    -0.180000       12.0110           0
      8677 MEMB     69       PMPE     H15X     HAL2     0.900000E-01   1.00800           0
      8678 MEMB     69       PMPE     H15Y     HAL2     0.900000E-01   1.00800           0
      8679 MEMB     69       PMPE     C316     CTL3    -0.270000       12.0110           0
      8680 MEMB     69       PMPE     H16X     HAL3     0.900000E-01   1.00800           0
      8681 MEMB     69       PMPE     H16Y     HAL3     0.900000E-01   1.00800           0
      8682 MEMB     69       PMPE     H16Z     HAL3     0.900000E-01   1.00800           0
      8683 MEMB     70       OYPE     N        NH3L    -0.300000       14.0070           0
      8684 MEMB     70       OYPE     HN1      HCL      0.330000       1.00800           0
      8685 MEMB     70       OYPE     HN2      HCL      0.330000       1.00800           0
      8686 MEMB     70       OYPE     HN3      HCL      0.330000       1.00800           0
      8687 MEMB     70       OYPE     C12      CTL2     0.130000       12.0110           0
      8688 MEMB     70       OYPE     H12A     HAL2     0.900000E-01   1.00800           0
      8689 MEMB     70       OYPE     H12B     HAL2     0.900000E-01   1.00800           0
      8690 MEMB     70       OYPE     C11      CTL2    -0.800000E-01   12.0110           0
      8691 MEMB     70       OYPE     H11A     HAL2     0.900000E-01   1.00800           0
      8692 MEMB     70       OYPE     H11B     HAL2     0.900000E-01   1.00800           0
      8693 MEMB     70       OYPE     P        PL        1.50000       30.9740           0
      8694 MEMB     70       OYPE     O13      O2L     -0.780000       15.9994           0
      8695 MEMB     70       OYPE     O14      O2L     -0.780000       15.9994           0
      8696 MEMB     70       OYPE     O11      OSLP    -0.570000       15.9994           0
      8697 MEMB     70       OYPE     O12      OSLP    -0.570000       15.9994           0
      8698 MEMB     70       OYPE     C1       CTL2    -0.800000E-01   12.0110           0
      8699 MEMB     70       OYPE     HA       HAL2     0.900000E-01   1.00800           0
      8700 MEMB     70       OYPE     HB       HAL2     0.900000E-01   1.00800           0
      8701 MEMB     70       OYPE     C2       CTL1     0.170000       12.0110           0
      8702 MEMB     70       OYPE     HS       HAL1     0.900000E-01   1.00800           0
      8703 MEMB     70       OYPE     O21      OSL     -0.490000       15.9994           0
      8704 MEMB     70       OYPE     C21      CL       0.900000       12.0110           0
      8705 MEMB     70       OYPE     O22      OBL     -0.630000       15.9994           0
      8706 MEMB     70       OYPE     C22      CTL2    -0.220000       12.0110           0
      8707 MEMB     70       OYPE     H2R      HAL2     0.900000E-01   1.00800           0
      8708 MEMB     70       OYPE     H2S      HAL2     0.900000E-01   1.00800           0
      8709 MEMB     70       OYPE     C3       CTL2     0.800000E-01   12.0110           0
      8710 MEMB     70       OYPE     HX       HAL2     0.900000E-01   1.00800           0
      8711 MEMB     70       OYPE     HY       HAL2     0.900000E-01   1.00800           0
      8712 MEMB     70       OYPE     O31      OSL     -0.490000       15.9994           0
      8713 MEMB     70       OYPE     C31      CL       0.900000       12.0110           0
      8714 MEMB     70       OYPE     O32      OBL     -0.630000       15.9994           0
      8715 MEMB     70       OYPE     C32      CTL2    -0.220000       12.0110           0
      8716 MEMB     70       OYPE     H2X      HAL2     0.900000E-01   1.00800           0
      8717 MEMB     70       OYPE     H2Y      HAL2     0.900000E-01   1.00800           0
      8718 MEMB     70       OYPE     C23      CTL2    -0.180000       12.0110           0
      8719 MEMB     70       OYPE     H3R      HAL2     0.900000E-01   1.00800           0
      8720 MEMB     70       OYPE     H3S      HAL2     0.900000E-01   1.00800           0
      8721 MEMB     70       OYPE     C24      CTL2    -0.180000       12.0110           0
      8722 MEMB     70       OYPE     H4R      HAL2     0.900000E-01   1.00800           0
      8723 MEMB     70       OYPE     H4S      HAL2     0.900000E-01   1.00800           0
      8724 MEMB     70       OYPE     C25      CTL2    -0.180000       12.0110           0
      8725 MEMB     70       OYPE     H5R      HAL2     0.900000E-01   1.00800           0
      8726 MEMB     70       OYPE     H5S      HAL2     0.900000E-01   1.00800           0
      8727 MEMB     70       OYPE     C26      CTL2    -0.180000       12.0110           0
      8728 MEMB     70       OYPE     H6R      HAL2     0.900000E-01   1.00800           0
      8729 MEMB     70       OYPE     H6S      HAL2     0.900000E-01   1.00800           0
      8730 MEMB     70       OYPE     C27      CTL2    -0.180000       12.0110           0
      8731 MEMB     70       OYPE     H7R      HAL2     0.900000E-01   1.00800           0
      8732 MEMB     70       OYPE     H7S      HAL2     0.900000E-01   1.00800           0
      8733 MEMB     70       OYPE     C28      CTL2    -0.180000       12.0110           0
      8734 MEMB     70       OYPE     H8R      HAL2     0.900000E-01   1.00800           0
      8735 MEMB     70       OYPE     H8S      HAL2     0.900000E-01   1.00800           0
      8736 MEMB     70       OYPE     C29      CEL1    -0.150000       12.0110           0
      8737 MEMB     70       OYPE     H9R      HEL1     0.150000       1.00800           0
      8738 MEMB     70       OYPE     C210     CEL1    -0.150000       12.0110           0
      8739 MEMB     70       OYPE     H10R     HEL1     0.150000       1.00800           0
      8740 MEMB     70       OYPE     C211     CTL2    -0.180000       12.0110           0
      8741 MEMB     70       OYPE     H11R     HAL2     0.900000E-01   1.00800           0
      8742 MEMB     70       OYPE     H11S     HAL2     0.900000E-01   1.00800           0
      8743 MEMB     70       OYPE     C212     CTL2    -0.180000       12.0110           0
      8744 MEMB     70       OYPE     H12R     HAL2     0.900000E-01   1.00800           0
      8745 MEMB     70       OYPE     H12S     HAL2     0.900000E-01   1.00800           0
      8746 MEMB     70       OYPE     C213     CTL2    -0.180000       12.0110           0
      8747 MEMB     70       OYPE     H13R     HAL2     0.900000E-01   1.00800           0
      8748 MEMB     70       OYPE     H13S     HAL2     0.900000E-01   1.00800           0
      8749 MEMB     70       OYPE     C214     CTL2    -0.180000       12.0110           0
      8750 MEMB     70       OYPE     H14R     HAL2     0.900000E-01   1.00800           0
      8751 MEMB     70       OYPE     H14S     HAL2     0.900000E-01   1.00800           0
      8752 MEMB     70       OYPE     C215     CTL2    -0.180000       12.0110           0
      8753 MEMB     70       OYPE     H15R     HAL2     0.900000E-01   1.00800           0
      8754 MEMB     70       OYPE     H15S     HAL2     0.900000E-01   1.00800           0
      8755 MEMB     70       OYPE     C216     CTL3    -0.270000       12.0110           0
      8756 MEMB     70       OYPE     H16R     HAL3     0.900000E-01   1.00800           0
      8757 MEMB     70       OYPE     H16S     HAL3     0.900000E-01   1.00800           0
      8758 MEMB     70       OYPE     H16T     HAL3     0.900000E-01   1.00800           0
      8759 MEMB     70       OYPE     C33      CTL2    -0.180000       12.0110           0
      8760 MEMB     70       OYPE     H3X      HAL2     0.900000E-01   1.00800           0
      8761 MEMB     70       OYPE     H3Y      HAL2     0.900000E-01   1.00800           0
      8762 MEMB     70       OYPE     C34      CTL2    -0.180000       12.0110           0
      8763 MEMB     70       OYPE     H4X      HAL2     0.900000E-01   1.00800           0
      8764 MEMB     70       OYPE     H4Y      HAL2     0.900000E-01   1.00800           0
      8765 MEMB     70       OYPE     C35      CTL2    -0.180000       12.0110           0
      8766 MEMB     70       OYPE     H5X      HAL2     0.900000E-01   1.00800           0
      8767 MEMB     70       OYPE     H5Y      HAL2     0.900000E-01   1.00800           0
      8768 MEMB     70       OYPE     C36      CTL2    -0.180000       12.0110           0
      8769 MEMB     70       OYPE     H6X      HAL2     0.900000E-01   1.00800           0
      8770 MEMB     70       OYPE     H6Y      HAL2     0.900000E-01   1.00800           0
      8771 MEMB     70       OYPE     C37      CTL2    -0.180000       12.0110           0
      8772 MEMB     70       OYPE     H7X      HAL2     0.900000E-01   1.00800           0
      8773 MEMB     70       OYPE     H7Y      HAL2     0.900000E-01   1.00800           0
      8774 MEMB     70       OYPE     C38      CTL2    -0.180000       12.0110           0
      8775 MEMB     70       OYPE     H8X      HAL2     0.900000E-01   1.00800           0
      8776 MEMB     70       OYPE     H8Y      HAL2     0.900000E-01   1.00800           0
      8777 MEMB     70       OYPE     C39      CEL1    -0.150000       12.0110           0
      8778 MEMB     70       OYPE     H9X      HEL1     0.150000       1.00800           0
      8779 MEMB     70       OYPE     C310     CEL1    -0.150000       12.0110           0
      8780 MEMB     70       OYPE     H10X     HEL1     0.150000       1.00800           0
      8781 MEMB     70       OYPE     C311     CTL2    -0.180000       12.0110           0
      8782 MEMB     70       OYPE     H11X     HAL2     0.900000E-01   1.00800           0
      8783 MEMB     70       OYPE     H11Y     HAL2     0.900000E-01   1.00800           0
      8784 MEMB     70       OYPE     C312     CTL2    -0.180000       12.0110           0
      8785 MEMB     70       OYPE     H12X     HAL2     0.900000E-01   1.00800           0
      8786 MEMB     70       OYPE     H12Y     HAL2     0.900000E-01   1.00800           0
      8787 MEMB     70       OYPE     C313     CTL2    -0.180000       12.0110           0
      8788 MEMB     70       OYPE     H13X     HAL2     0.900000E-01   1.00800           0
      8789 MEMB     70       OYPE     H13Y     HAL2     0.900000E-01   1.00800           0
      8790 MEMB     70       OYPE     C314     CTL2    -0.180000       12.0110           0
      8791 MEMB     70       OYPE     H14X     HAL2     0.900000E-01   1.00800           0
      8792 MEMB     70       OYPE     H14Y     HAL2     0.900000E-01   1.00800           0
      8793 MEMB     70       OYPE     C315     CTL2    -0.180000       12.0110           0
      8794 MEMB     70       OYPE     H15X     HAL2     0.900000E-01   1.00800           0
      8795 MEMB     70       OYPE     H15Y     HAL2     0.900000E-01   1.00800           0
      8796 MEMB     70       OYPE     C316     CTL2    -0.180000       12.0110           0
      8797 MEMB     70       OYPE     H16X     HAL2     0.900000E-01   1.00800           0
      8798 MEMB     70       OYPE     H16Y     HAL2     0.900000E-01   1.00800           0
      8799 MEMB     70       OYPE     C317     CTL2    -0.180000       12.0110           0
      8800 MEMB     70       OYPE     H17X     HAL2     0.900000E-01   1.00800           0
      8801 MEMB     70       OYPE     H17Y     HAL2     0.900000E-01   1.00800           0
      8802 MEMB     70       OYPE     C318     CTL3    -0.270000       12.0110           0
      8803 MEMB     70       OYPE     H18X     HAL3     0.900000E-01   1.00800           0
      8804 MEMB     70       OYPE     H18Y     HAL3     0.900000E-01   1.00800           0
      8805 MEMB     70       OYPE     H18Z     HAL3     0.900000E-01   1.00800           0
      8806 MEMB     71       QMPE     N        NH3L    -0.300000       14.0070           0
      8807 MEMB     71       QMPE     HN1      HCL      0.330000       1.00800           0
      8808 MEMB     71       QMPE     HN2      HCL      0.330000       1.00800           0
      8809 MEMB     71       QMPE     HN3      HCL      0.330000       1.00800           0
      8810 MEMB     71       QMPE     C12      CTL2     0.130000       12.0110           0
      8811 MEMB     71       QMPE     H12A     HAL2     0.900000E-01   1.00800           0
      8812 MEMB     71       QMPE     H12B     HAL2     0.900000E-01   1.00800           0
      8813 MEMB     71       QMPE     C11      CTL2    -0.800000E-01   12.0110           0
      8814 MEMB     71       QMPE     H11A     HAL2     0.900000E-01   1.00800           0
      8815 MEMB     71       QMPE     H11B     HAL2     0.900000E-01   1.00800           0
      8816 MEMB     71       QMPE     P        PL        1.50000       30.9740           0
      8817 MEMB     71       QMPE     O13      O2L     -0.780000       15.9994           0
      8818 MEMB     71       QMPE     O14      O2L     -0.780000       15.9994           0
      8819 MEMB     71       QMPE     O11      OSLP    -0.570000       15.9994           0
      8820 MEMB     71       QMPE     O12      OSLP    -0.570000       15.9994           0
      8821 MEMB     71       QMPE     C1       CTL2    -0.800000E-01   12.0110           0
      8822 MEMB     71       QMPE     HA       HAL2     0.900000E-01   1.00800           0
      8823 MEMB     71       QMPE     HB       HAL2     0.900000E-01   1.00800           0
      8824 MEMB     71       QMPE     C2       CTL1     0.170000       12.0110           0
      8825 MEMB     71       QMPE     HS       HAL1     0.900000E-01   1.00800           0
      8826 MEMB     71       QMPE     O21      OSL     -0.490000       15.9994           0
      8827 MEMB     71       QMPE     C21      CL       0.900000       12.0110           0
      8828 MEMB     71       QMPE     O22      OBL     -0.630000       15.9994           0
      8829 MEMB     71       QMPE     C22      CTL2    -0.220000       12.0110           0
      8830 MEMB     71       QMPE     H2R      HAL2     0.900000E-01   1.00800           0
      8831 MEMB     71       QMPE     H2S      HAL2     0.900000E-01   1.00800           0
      8832 MEMB     71       QMPE     C3       CTL2     0.800000E-01   12.0110           0
      8833 MEMB     71       QMPE     HX       HAL2     0.900000E-01   1.00800           0
      8834 MEMB     71       QMPE     HY       HAL2     0.900000E-01   1.00800           0
      8835 MEMB     71       QMPE     O31      OSL     -0.490000       15.9994           0
      8836 MEMB     71       QMPE     C31      CL       0.900000       12.0110           0
      8837 MEMB     71       QMPE     O32      OBL     -0.630000       15.9994           0
      8838 MEMB     71       QMPE     C32      CTL2    -0.220000       12.0110           0
      8839 MEMB     71       QMPE     H2X      HAL2     0.900000E-01   1.00800           0
      8840 MEMB     71       QMPE     H2Y      HAL2     0.900000E-01   1.00800           0
      8841 MEMB     71       QMPE     C23      CTL2    -0.180000       12.0110           0
      8842 MEMB     71       QMPE     H3R      HAL2     0.900000E-01   1.00800           0
      8843 MEMB     71       QMPE     H3S      HAL2     0.900000E-01   1.00800           0
      8844 MEMB     71       QMPE     C24      CTL2    -0.180000       12.0110           0
      8845 MEMB     71       QMPE     H4R      HAL2     0.900000E-01   1.00800           0
      8846 MEMB     71       QMPE     H4S      HAL2     0.900000E-01   1.00800           0
      8847 MEMB     71       QMPE     C25      CTL2    -0.180000       12.0110           0
      8848 MEMB     71       QMPE     H5R      HAL2     0.900000E-01   1.00800           0
      8849 MEMB     71       QMPE     H5S      HAL2     0.900000E-01   1.00800           0
      8850 MEMB     71       QMPE     C26      CTL2    -0.180000       12.0110           0
      8851 MEMB     71       QMPE     H6R      HAL2     0.900000E-01   1.00800           0
      8852 MEMB     71       QMPE     H6S      HAL2     0.900000E-01   1.00800           0
      8853 MEMB     71       QMPE     C27      CTL2    -0.180000       12.0110           0
      8854 MEMB     71       QMPE     H7R      HAL2     0.900000E-01   1.00800           0
      8855 MEMB     71       QMPE     H7S      HAL2     0.900000E-01   1.00800           0
      8856 MEMB     71       QMPE     C28      CTL2    -0.180000       12.0110           0
      8857 MEMB     71       QMPE     H8R      HAL2     0.900000E-01   1.00800           0
      8858 MEMB     71       QMPE     H8S      HAL2     0.900000E-01   1.00800           0
      8859 MEMB     71       QMPE     C29      CG3RC1  -0.900000E-01   12.0110           0
      8860 MEMB     71       QMPE     H9R      HGA1     0.900000E-01   1.00800           0
      8861 MEMB     71       QMPE     C217     CG3C31  -0.180000       12.0110           0
      8862 MEMB     71       QMPE     H17R     HGA2     0.900000E-01   1.00800           0
      8863 MEMB     71       QMPE     H17S     HGA2     0.900000E-01   1.00800           0
      8864 MEMB     71       QMPE     C210     CG3RC1  -0.900000E-01   12.0110           0
      8865 MEMB     71       QMPE     H10R     HGA1     0.900000E-01   1.00800           0
      8866 MEMB     71       QMPE     C211     CTL2    -0.180000       12.0110           0
      8867 MEMB     71       QMPE     H11R     HAL2     0.900000E-01   1.00800           0
      8868 MEMB     71       QMPE     H11S     HAL2     0.900000E-01   1.00800           0
      8869 MEMB     71       QMPE     C212     CTL2    -0.180000       12.0110           0
      8870 MEMB     71       QMPE     H12R     HAL2     0.900000E-01   1.00800           0
      8871 MEMB     71       QMPE     H12S     HAL2     0.900000E-01   1.00800           0
      8872 MEMB     71       QMPE     C213     CTL2    -0.180000       12.0110           0
      8873 MEMB     71       QMPE     H13R     HAL2     0.900000E-01   1.00800           0
      8874 MEMB     71       QMPE     H13S     HAL2     0.900000E-01   1.00800           0
      8875 MEMB     71       QMPE     C214     CTL2    -0.180000       12.0110           0
      8876 MEMB     71       QMPE     H14R     HAL2     0.900000E-01   1.00800           0
      8877 MEMB     71       QMPE     H14S     HAL2     0.900000E-01   1.00800           0
      8878 MEMB     71       QMPE     C215     CTL2    -0.180000       12.0110           0
      8879 MEMB     71       QMPE     H15R     HAL2     0.900000E-01   1.00800           0
      8880 MEMB     71       QMPE     H15S     HAL2     0.900000E-01   1.00800           0
      8881 MEMB     71       QMPE     C216     CTL3    -0.270000       12.0110           0
      8882 MEMB     71       QMPE     H16R     HAL3     0.900000E-01   1.00800           0
      8883 MEMB     71       QMPE     H16S     HAL3     0.900000E-01   1.00800           0
      8884 MEMB     71       QMPE     H16T     HAL3     0.900000E-01   1.00800           0
      8885 MEMB     71       QMPE     C33      CTL2    -0.180000       12.0110           0
      8886 MEMB     71       QMPE     H3X      HAL2     0.900000E-01   1.00800           0
      8887 MEMB     71       QMPE     H3Y      HAL2     0.900000E-01   1.00800           0
      8888 MEMB     71       QMPE     C34      CTL2    -0.180000       12.0110           0
      8889 MEMB     71       QMPE     H4X      HAL2     0.900000E-01   1.00800           0
      8890 MEMB     71       QMPE     H4Y      HAL2     0.900000E-01   1.00800           0
      8891 MEMB     71       QMPE     C35      CTL2    -0.180000       12.0110           0
      8892 MEMB     71       QMPE     H5X      HAL2     0.900000E-01   1.00800           0
      8893 MEMB     71       QMPE     H5Y      HAL2     0.900000E-01   1.00800           0
      8894 MEMB     71       QMPE     C36      CTL2    -0.180000       12.0110           0
      8895 MEMB     71       QMPE     H6X      HAL2     0.900000E-01   1.00800           0
      8896 MEMB     71       QMPE     H6Y      HAL2     0.900000E-01   1.00800           0
      8897 MEMB     71       QMPE     C37      CTL2    -0.180000       12.0110           0
      8898 MEMB     71       QMPE     H7X      HAL2     0.900000E-01   1.00800           0
      8899 MEMB     71       QMPE     H7Y      HAL2     0.900000E-01   1.00800           0
      8900 MEMB     71       QMPE     C38      CTL2    -0.180000       12.0110           0
      8901 MEMB     71       QMPE     H8X      HAL2     0.900000E-01   1.00800           0
      8902 MEMB     71       QMPE     H8Y      HAL2     0.900000E-01   1.00800           0
      8903 MEMB     71       QMPE     C39      CTL2    -0.180000       12.0110           0
      8904 MEMB     71       QMPE     H9X      HAL2     0.900000E-01   1.00800           0
      8905 MEMB     71       QMPE     H9Y      HAL2     0.900000E-01   1.00800           0
      8906 MEMB     71       QMPE     C310     CTL2    -0.180000       12.0110           0
      8907 MEMB     71       QMPE     H10X     HAL2     0.900000E-01   1.00800           0
      8908 MEMB     71       QMPE     H10Y     HAL2     0.900000E-01   1.00800           0
      8909 MEMB     71       QMPE     C311     CTL2    -0.180000       12.0110           0
      8910 MEMB     71       QMPE     H11X     HAL2     0.900000E-01   1.00800           0
      8911 MEMB     71       QMPE     H11Y     HAL2     0.900000E-01   1.00800           0
      8912 MEMB     71       QMPE     C312     CTL2    -0.180000       12.0110           0
      8913 MEMB     71       QMPE     H12X     HAL2     0.900000E-01   1.00800           0
      8914 MEMB     71       QMPE     H12Y     HAL2     0.900000E-01   1.00800           0
      8915 MEMB     71       QMPE     C313     CTL2    -0.180000       12.0110           0
      8916 MEMB     71       QMPE     H13X     HAL2     0.900000E-01   1.00800           0
      8917 MEMB     71       QMPE     H13Y     HAL2     0.900000E-01   1.00800           0
      8918 MEMB     71       QMPE     C314     CTL2    -0.180000       12.0110           0
      8919 MEMB     71       QMPE     H14X     HAL2     0.900000E-01   1.00800           0
      8920 MEMB     71       QMPE     H14Y     HAL2     0.900000E-01   1.00800           0
      8921 MEMB     71       QMPE     C315     CTL3    -0.270000       12.0110           0
      8922 MEMB     71       QMPE     H15X     HAL3     0.900000E-01   1.00800           0
      8923 MEMB     71       QMPE     H15Y     HAL3     0.900000E-01   1.00800           0
      8924 MEMB     71       QMPE     H15Z     HAL3     0.900000E-01   1.00800           0
      8925 MEMB     72       OYPE     N        NH3L    -0.300000       14.0070           0
      8926 MEMB     72       OYPE     HN1      HCL      0.330000       1.00800           0
      8927 MEMB     72       OYPE     HN2      HCL      0.330000       1.00800           0
      8928 MEMB     72       OYPE     HN3      HCL      0.330000       1.00800           0
      8929 MEMB     72       OYPE     C12      CTL2     0.130000       12.0110           0
      8930 MEMB     72       OYPE     H12A     HAL2     0.900000E-01   1.00800           0
      8931 MEMB     72       OYPE     H12B     HAL2     0.900000E-01   1.00800           0
      8932 MEMB     72       OYPE     C11      CTL2    -0.800000E-01   12.0110           0
      8933 MEMB     72       OYPE     H11A     HAL2     0.900000E-01   1.00800           0
      8934 MEMB     72       OYPE     H11B     HAL2     0.900000E-01   1.00800           0
      8935 MEMB     72       OYPE     P        PL        1.50000       30.9740           0
      8936 MEMB     72       OYPE     O13      O2L     -0.780000       15.9994           0
      8937 MEMB     72       OYPE     O14      O2L     -0.780000       15.9994           0
      8938 MEMB     72       OYPE     O11      OSLP    -0.570000       15.9994           0
      8939 MEMB     72       OYPE     O12      OSLP    -0.570000       15.9994           0
      8940 MEMB     72       OYPE     C1       CTL2    -0.800000E-01   12.0110           0
      8941 MEMB     72       OYPE     HA       HAL2     0.900000E-01   1.00800           0
      8942 MEMB     72       OYPE     HB       HAL2     0.900000E-01   1.00800           0
      8943 MEMB     72       OYPE     C2       CTL1     0.170000       12.0110           0
      8944 MEMB     72       OYPE     HS       HAL1     0.900000E-01   1.00800           0
      8945 MEMB     72       OYPE     O21      OSL     -0.490000       15.9994           0
      8946 MEMB     72       OYPE     C21      CL       0.900000       12.0110           0
      8947 MEMB     72       OYPE     O22      OBL     -0.630000       15.9994           0
      8948 MEMB     72       OYPE     C22      CTL2    -0.220000       12.0110           0
      8949 MEMB     72       OYPE     H2R      HAL2     0.900000E-01   1.00800           0
      8950 MEMB     72       OYPE     H2S      HAL2     0.900000E-01   1.00800           0
      8951 MEMB     72       OYPE     C3       CTL2     0.800000E-01   12.0110           0
      8952 MEMB     72       OYPE     HX       HAL2     0.900000E-01   1.00800           0
      8953 MEMB     72       OYPE     HY       HAL2     0.900000E-01   1.00800           0
      8954 MEMB     72       OYPE     O31      OSL     -0.490000       15.9994           0
      8955 MEMB     72       OYPE     C31      CL       0.900000       12.0110           0
      8956 MEMB     72       OYPE     O32      OBL     -0.630000       15.9994           0
      8957 MEMB     72       OYPE     C32      CTL2    -0.220000       12.0110           0
      8958 MEMB     72       OYPE     H2X      HAL2     0.900000E-01   1.00800           0
      8959 MEMB     72       OYPE     H2Y      HAL2     0.900000E-01   1.00800           0
      8960 MEMB     72       OYPE     C23      CTL2    -0.180000       12.0110           0
      8961 MEMB     72       OYPE     H3R      HAL2     0.900000E-01   1.00800           0
      8962 MEMB     72       OYPE     H3S      HAL2     0.900000E-01   1.00800           0
      8963 MEMB     72       OYPE     C24      CTL2    -0.180000       12.0110           0
      8964 MEMB     72       OYPE     H4R      HAL2     0.900000E-01   1.00800           0
      8965 MEMB     72       OYPE     H4S      HAL2     0.900000E-01   1.00800           0
      8966 MEMB     72       OYPE     C25      CTL2    -0.180000       12.0110           0
      8967 MEMB     72       OYPE     H5R      HAL2     0.900000E-01   1.00800           0
      8968 MEMB     72       OYPE     H5S      HAL2     0.900000E-01   1.00800           0
      8969 MEMB     72       OYPE     C26      CTL2    -0.180000       12.0110           0
      8970 MEMB     72       OYPE     H6R      HAL2     0.900000E-01   1.00800           0
      8971 MEMB     72       OYPE     H6S      HAL2     0.900000E-01   1.00800           0
      8972 MEMB     72       OYPE     C27      CTL2    -0.180000       12.0110           0
      8973 MEMB     72       OYPE     H7R      HAL2     0.900000E-01   1.00800           0
      8974 MEMB     72       OYPE     H7S      HAL2     0.900000E-01   1.00800           0
      8975 MEMB     72       OYPE     C28      CTL2    -0.180000       12.0110           0
      8976 MEMB     72       OYPE     H8R      HAL2     0.900000E-01   1.00800           0
      8977 MEMB     72       OYPE     H8S      HAL2     0.900000E-01   1.00800           0
      8978 MEMB     72       OYPE     C29      CEL1    -0.150000       12.0110           0
      8979 MEMB     72       OYPE     H9R      HEL1     0.150000       1.00800           0
      8980 MEMB     72       OYPE     C210     CEL1    -0.150000       12.0110           0
      8981 MEMB     72       OYPE     H10R     HEL1     0.150000       1.00800           0
      8982 MEMB     72       OYPE     C211     CTL2    -0.180000       12.0110           0
      8983 MEMB     72       OYPE     H11R     HAL2     0.900000E-01   1.00800           0
      8984 MEMB     72       OYPE     H11S     HAL2     0.900000E-01   1.00800           0
      8985 MEMB     72       OYPE     C212     CTL2    -0.180000       12.0110           0
      8986 MEMB     72       OYPE     H12R     HAL2     0.900000E-01   1.00800           0
      8987 MEMB     72       OYPE     H12S     HAL2     0.900000E-01   1.00800           0
      8988 MEMB     72       OYPE     C213     CTL2    -0.180000       12.0110           0
      8989 MEMB     72       OYPE     H13R     HAL2     0.900000E-01   1.00800           0
      8990 MEMB     72       OYPE     H13S     HAL2     0.900000E-01   1.00800           0
      8991 MEMB     72       OYPE     C214     CTL2    -0.180000       12.0110           0
      8992 MEMB     72       OYPE     H14R     HAL2     0.900000E-01   1.00800           0
      8993 MEMB     72       OYPE     H14S     HAL2     0.900000E-01   1.00800           0
      8994 MEMB     72       OYPE     C215     CTL2    -0.180000       12.0110           0
      8995 MEMB     72       OYPE     H15R     HAL2     0.900000E-01   1.00800           0
      8996 MEMB     72       OYPE     H15S     HAL2     0.900000E-01   1.00800           0
      8997 MEMB     72       OYPE     C216     CTL3    -0.270000       12.0110           0
      8998 MEMB     72       OYPE     H16R     HAL3     0.900000E-01   1.00800           0
      8999 MEMB     72       OYPE     H16S     HAL3     0.900000E-01   1.00800           0
      9000 MEMB     72       OYPE     H16T     HAL3     0.900000E-01   1.00800           0
      9001 MEMB     72       OYPE     C33      CTL2    -0.180000       12.0110           0
      9002 MEMB     72       OYPE     H3X      HAL2     0.900000E-01   1.00800           0
      9003 MEMB     72       OYPE     H3Y      HAL2     0.900000E-01   1.00800           0
      9004 MEMB     72       OYPE     C34      CTL2    -0.180000       12.0110           0
      9005 MEMB     72       OYPE     H4X      HAL2     0.900000E-01   1.00800           0
      9006 MEMB     72       OYPE     H4Y      HAL2     0.900000E-01   1.00800           0
      9007 MEMB     72       OYPE     C35      CTL2    -0.180000       12.0110           0
      9008 MEMB     72       OYPE     H5X      HAL2     0.900000E-01   1.00800           0
      9009 MEMB     72       OYPE     H5Y      HAL2     0.900000E-01   1.00800           0
      9010 MEMB     72       OYPE     C36      CTL2    -0.180000       12.0110           0
      9011 MEMB     72       OYPE     H6X      HAL2     0.900000E-01   1.00800           0
      9012 MEMB     72       OYPE     H6Y      HAL2     0.900000E-01   1.00800           0
      9013 MEMB     72       OYPE     C37      CTL2    -0.180000       12.0110           0
      9014 MEMB     72       OYPE     H7X      HAL2     0.900000E-01   1.00800           0
      9015 MEMB     72       OYPE     H7Y      HAL2     0.900000E-01   1.00800           0
      9016 MEMB     72       OYPE     C38      CTL2    -0.180000       12.0110           0
      9017 MEMB     72       OYPE     H8X      HAL2     0.900000E-01   1.00800           0
      9018 MEMB     72       OYPE     H8Y      HAL2     0.900000E-01   1.00800           0
      9019 MEMB     72       OYPE     C39      CEL1    -0.150000       12.0110           0
      9020 MEMB     72       OYPE     H9X      HEL1     0.150000       1.00800           0
      9021 MEMB     72       OYPE     C310     CEL1    -0.150000       12.0110           0
      9022 MEMB     72       OYPE     H10X     HEL1     0.150000       1.00800           0
      9023 MEMB     72       OYPE     C311     CTL2    -0.180000       12.0110           0
      9024 MEMB     72       OYPE     H11X     HAL2     0.900000E-01   1.00800           0
      9025 MEMB     72       OYPE     H11Y     HAL2     0.900000E-01   1.00800           0
      9026 MEMB     72       OYPE     C312     CTL2    -0.180000       12.0110           0
      9027 MEMB     72       OYPE     H12X     HAL2     0.900000E-01   1.00800           0
      9028 MEMB     72       OYPE     H12Y     HAL2     0.900000E-01   1.00800           0
      9029 MEMB     72       OYPE     C313     CTL2    -0.180000       12.0110           0
      9030 MEMB     72       OYPE     H13X     HAL2     0.900000E-01   1.00800           0
      9031 MEMB     72       OYPE     H13Y     HAL2     0.900000E-01   1.00800           0
      9032 MEMB     72       OYPE     C314     CTL2    -0.180000       12.0110           0
      9033 MEMB     72       OYPE     H14X     HAL2     0.900000E-01   1.00800           0
      9034 MEMB     72       OYPE     H14Y     HAL2     0.900000E-01   1.00800           0
      9035 MEMB     72       OYPE     C315     CTL2    -0.180000       12.0110           0
      9036 MEMB     72       OYPE     H15X     HAL2     0.900000E-01   1.00800           0
      9037 MEMB     72       OYPE     H15Y     HAL2     0.900000E-01   1.00800           0
      9038 MEMB     72       OYPE     C316     CTL2    -0.180000       12.0110           0
      9039 MEMB     72       OYPE     H16X     HAL2     0.900000E-01   1.00800           0
      9040 MEMB     72       OYPE     H16Y     HAL2     0.900000E-01   1.00800           0
      9041 MEMB     72       OYPE     C317     CTL2    -0.180000       12.0110           0
      9042 MEMB     72       OYPE     H17X     HAL2     0.900000E-01   1.00800           0
      9043 MEMB     72       OYPE     H17Y     HAL2     0.900000E-01   1.00800           0
      9044 MEMB     72       OYPE     C318     CTL3    -0.270000       12.0110           0
      9045 MEMB     72       OYPE     H18X     HAL3     0.900000E-01   1.00800           0
      9046 MEMB     72       OYPE     H18Y     HAL3     0.900000E-01   1.00800           0
      9047 MEMB     72       OYPE     H18Z     HAL3     0.900000E-01   1.00800           0
      9048 MEMB     73       PMPG     C13      CTL2     0.500000E-01   12.0110           0
      9049 MEMB     73       PMPG     H13A     HAL2     0.900000E-01   1.00800           0
      9050 MEMB     73       PMPG     H13B     HAL2     0.900000E-01   1.00800           0
      9051 MEMB     73       PMPG     OC3      OHL     -0.660000       15.9994           0
      9052 MEMB     73       PMPG     HO3      HOL      0.430000       1.00800           0
      9053 MEMB     73       PMPG     C12      CTL1     0.140000       12.0110           0
      9054 MEMB     73       PMPG     H12A     HAL1     0.900000E-01   1.00800           0
      9055 MEMB     73       PMPG     OC2      OHL     -0.660000       15.9994           0
      9056 MEMB     73       PMPG     HO2      HOL      0.430000       1.00800           0
      9057 MEMB     73       PMPG     C11      CTL2    -0.800000E-01   12.0110           0
      9058 MEMB     73       PMPG     H11A     HAL2     0.900000E-01   1.00800           0
      9059 MEMB     73       PMPG     H11B     HAL2     0.900000E-01   1.00800           0
      9060 MEMB     73       PMPG     P        PL        1.50000       30.9740           0
      9061 MEMB     73       PMPG     O13      O2L     -0.780000       15.9994           0
      9062 MEMB     73       PMPG     O14      O2L     -0.780000       15.9994           0
      9063 MEMB     73       PMPG     O11      OSLP    -0.570000       15.9994           0
      9064 MEMB     73       PMPG     O12      OSLP    -0.570000       15.9994           0
      9065 MEMB     73       PMPG     C1       CTL2    -0.800000E-01   12.0110           0
      9066 MEMB     73       PMPG     HA       HAL2     0.900000E-01   1.00800           0
      9067 MEMB     73       PMPG     HB       HAL2     0.900000E-01   1.00800           0
      9068 MEMB     73       PMPG     C2       CTL1     0.170000       12.0110           0
      9069 MEMB     73       PMPG     HS       HAL1     0.900000E-01   1.00800           0
      9070 MEMB     73       PMPG     O21      OSL     -0.490000       15.9994           0
      9071 MEMB     73       PMPG     C21      CL       0.900000       12.0110           0
      9072 MEMB     73       PMPG     O22      OBL     -0.630000       15.9994           0
      9073 MEMB     73       PMPG     C22      CTL2    -0.220000       12.0110           0
      9074 MEMB     73       PMPG     H2R      HAL2     0.900000E-01   1.00800           0
      9075 MEMB     73       PMPG     H2S      HAL2     0.900000E-01   1.00800           0
      9076 MEMB     73       PMPG     C3       CTL2     0.800000E-01   12.0110           0
      9077 MEMB     73       PMPG     HX       HAL2     0.900000E-01   1.00800           0
      9078 MEMB     73       PMPG     HY       HAL2     0.900000E-01   1.00800           0
      9079 MEMB     73       PMPG     O31      OSL     -0.490000       15.9994           0
      9080 MEMB     73       PMPG     C31      CL       0.900000       12.0110           0
      9081 MEMB     73       PMPG     O32      OBL     -0.630000       15.9994           0
      9082 MEMB     73       PMPG     C32      CTL2    -0.220000       12.0110           0
      9083 MEMB     73       PMPG     H2X      HAL2     0.900000E-01   1.00800           0
      9084 MEMB     73       PMPG     H2Y      HAL2     0.900000E-01   1.00800           0
      9085 MEMB     73       PMPG     C23      CTL2    -0.180000       12.0110           0
      9086 MEMB     73       PMPG     H3R      HAL2     0.900000E-01   1.00800           0
      9087 MEMB     73       PMPG     H3S      HAL2     0.900000E-01   1.00800           0
      9088 MEMB     73       PMPG     C24      CTL2    -0.180000       12.0110           0
      9089 MEMB     73       PMPG     H4R      HAL2     0.900000E-01   1.00800           0
      9090 MEMB     73       PMPG     H4S      HAL2     0.900000E-01   1.00800           0
      9091 MEMB     73       PMPG     C25      CTL2    -0.180000       12.0110           0
      9092 MEMB     73       PMPG     H5R      HAL2     0.900000E-01   1.00800           0
      9093 MEMB     73       PMPG     H5S      HAL2     0.900000E-01   1.00800           0
      9094 MEMB     73       PMPG     C26      CTL2    -0.180000       12.0110           0
      9095 MEMB     73       PMPG     H6R      HAL2     0.900000E-01   1.00800           0
      9096 MEMB     73       PMPG     H6S      HAL2     0.900000E-01   1.00800           0
      9097 MEMB     73       PMPG     C27      CTL2    -0.180000       12.0110           0
      9098 MEMB     73       PMPG     H7R      HAL2     0.900000E-01   1.00800           0
      9099 MEMB     73       PMPG     H7S      HAL2     0.900000E-01   1.00800           0
      9100 MEMB     73       PMPG     C28      CTL2    -0.180000       12.0110           0
      9101 MEMB     73       PMPG     H8R      HAL2     0.900000E-01   1.00800           0
      9102 MEMB     73       PMPG     H8S      HAL2     0.900000E-01   1.00800           0
      9103 MEMB     73       PMPG     C29      CG3RC1  -0.900000E-01   12.0110           0
      9104 MEMB     73       PMPG     H9R      HGA1     0.900000E-01   1.00800           0
      9105 MEMB     73       PMPG     C217     CG3C31  -0.180000       12.0110           0
      9106 MEMB     73       PMPG     H17R     HGA2     0.900000E-01   1.00800           0
      9107 MEMB     73       PMPG     H17S     HGA2     0.900000E-01   1.00800           0
      9108 MEMB     73       PMPG     C210     CG3RC1  -0.900000E-01   12.0110           0
      9109 MEMB     73       PMPG     H10R     HGA1     0.900000E-01   1.00800           0
      9110 MEMB     73       PMPG     C211     CTL2    -0.180000       12.0110           0
      9111 MEMB     73       PMPG     H11R     HAL2     0.900000E-01   1.00800           0
      9112 MEMB     73       PMPG     H11S     HAL2     0.900000E-01   1.00800           0
      9113 MEMB     73       PMPG     C212     CTL2    -0.180000       12.0110           0
      9114 MEMB     73       PMPG     H12R     HAL2     0.900000E-01   1.00800           0
      9115 MEMB     73       PMPG     H12S     HAL2     0.900000E-01   1.00800           0
      9116 MEMB     73       PMPG     C213     CTL2    -0.180000       12.0110           0
      9117 MEMB     73       PMPG     H13R     HAL2     0.900000E-01   1.00800           0
      9118 MEMB     73       PMPG     H13S     HAL2     0.900000E-01   1.00800           0
      9119 MEMB     73       PMPG     C214     CTL2    -0.180000       12.0110           0
      9120 MEMB     73       PMPG     H14R     HAL2     0.900000E-01   1.00800           0
      9121 MEMB     73       PMPG     H14S     HAL2     0.900000E-01   1.00800           0
      9122 MEMB     73       PMPG     C215     CTL2    -0.180000       12.0110           0
      9123 MEMB     73       PMPG     H15R     HAL2     0.900000E-01   1.00800           0
      9124 MEMB     73       PMPG     H15S     HAL2     0.900000E-01   1.00800           0
      9125 MEMB     73       PMPG     C216     CTL3    -0.270000       12.0110           0
      9126 MEMB     73       PMPG     H16R     HAL3     0.900000E-01   1.00800           0
      9127 MEMB     73       PMPG     H16S     HAL3     0.900000E-01   1.00800           0
      9128 MEMB     73       PMPG     H16T     HAL3     0.900000E-01   1.00800           0
      9129 MEMB     73       PMPG     C33      CTL2    -0.180000       12.0110           0
      9130 MEMB     73       PMPG     H3X      HAL2     0.900000E-01   1.00800           0
      9131 MEMB     73       PMPG     H3Y      HAL2     0.900000E-01   1.00800           0
      9132 MEMB     73       PMPG     C34      CTL2    -0.180000       12.0110           0
      9133 MEMB     73       PMPG     H4X      HAL2     0.900000E-01   1.00800           0
      9134 MEMB     73       PMPG     H4Y      HAL2     0.900000E-01   1.00800           0
      9135 MEMB     73       PMPG     C35      CTL2    -0.180000       12.0110           0
      9136 MEMB     73       PMPG     H5X      HAL2     0.900000E-01   1.00800           0
      9137 MEMB     73       PMPG     H5Y      HAL2     0.900000E-01   1.00800           0
      9138 MEMB     73       PMPG     C36      CTL2    -0.180000       12.0110           0
      9139 MEMB     73       PMPG     H6X      HAL2     0.900000E-01   1.00800           0
      9140 MEMB     73       PMPG     H6Y      HAL2     0.900000E-01   1.00800           0
      9141 MEMB     73       PMPG     C37      CTL2    -0.180000       12.0110           0
      9142 MEMB     73       PMPG     H7X      HAL2     0.900000E-01   1.00800           0
      9143 MEMB     73       PMPG     H7Y      HAL2     0.900000E-01   1.00800           0
      9144 MEMB     73       PMPG     C38      CTL2    -0.180000       12.0110           0
      9145 MEMB     73       PMPG     H8X      HAL2     0.900000E-01   1.00800           0
      9146 MEMB     73       PMPG     H8Y      HAL2     0.900000E-01   1.00800           0
      9147 MEMB     73       PMPG     C39      CTL2    -0.180000       12.0110           0
      9148 MEMB     73       PMPG     H9X      HAL2     0.900000E-01   1.00800           0
      9149 MEMB     73       PMPG     H9Y      HAL2     0.900000E-01   1.00800           0
      9150 MEMB     73       PMPG     C310     CTL2    -0.180000       12.0110           0
      9151 MEMB     73       PMPG     H10X     HAL2     0.900000E-01   1.00800           0
      9152 MEMB     73       PMPG     H10Y     HAL2     0.900000E-01   1.00800           0
      9153 MEMB     73       PMPG     C311     CTL2    -0.180000       12.0110           0
      9154 MEMB     73       PMPG     H11X     HAL2     0.900000E-01   1.00800           0
      9155 MEMB     73       PMPG     H11Y     HAL2     0.900000E-01   1.00800           0
      9156 MEMB     73       PMPG     C312     CTL2    -0.180000       12.0110           0
      9157 MEMB     73       PMPG     H12X     HAL2     0.900000E-01   1.00800           0
      9158 MEMB     73       PMPG     H12Y     HAL2     0.900000E-01   1.00800           0
      9159 MEMB     73       PMPG     C313     CTL2    -0.180000       12.0110           0
      9160 MEMB     73       PMPG     H13X     HAL2     0.900000E-01   1.00800           0
      9161 MEMB     73       PMPG     H13Y     HAL2     0.900000E-01   1.00800           0
      9162 MEMB     73       PMPG     C314     CTL2    -0.180000       12.0110           0
      9163 MEMB     73       PMPG     H14X     HAL2     0.900000E-01   1.00800           0
      9164 MEMB     73       PMPG     H14Y     HAL2     0.900000E-01   1.00800           0
      9165 MEMB     73       PMPG     C315     CTL2    -0.180000       12.0110           0
      9166 MEMB     73       PMPG     H15X     HAL2     0.900000E-01   1.00800           0
      9167 MEMB     73       PMPG     H15Y     HAL2     0.900000E-01   1.00800           0
      9168 MEMB     73       PMPG     C316     CTL3    -0.270000       12.0110           0
      9169 MEMB     73       PMPG     H16X     HAL3     0.900000E-01   1.00800           0
      9170 MEMB     73       PMPG     H16Y     HAL3     0.900000E-01   1.00800           0
      9171 MEMB     73       PMPG     H16Z     HAL3     0.900000E-01   1.00800           0
      9172 MEMB     74       QMPE     N        NH3L    -0.300000       14.0070           0
      9173 MEMB     74       QMPE     HN1      HCL      0.330000       1.00800           0
      9174 MEMB     74       QMPE     HN2      HCL      0.330000       1.00800           0
      9175 MEMB     74       QMPE     HN3      HCL      0.330000       1.00800           0
      9176 MEMB     74       QMPE     C12      CTL2     0.130000       12.0110           0
      9177 MEMB     74       QMPE     H12A     HAL2     0.900000E-01   1.00800           0
      9178 MEMB     74       QMPE     H12B     HAL2     0.900000E-01   1.00800           0
      9179 MEMB     74       QMPE     C11      CTL2    -0.800000E-01   12.0110           0
      9180 MEMB     74       QMPE     H11A     HAL2     0.900000E-01   1.00800           0
      9181 MEMB     74       QMPE     H11B     HAL2     0.900000E-01   1.00800           0
      9182 MEMB     74       QMPE     P        PL        1.50000       30.9740           0
      9183 MEMB     74       QMPE     O13      O2L     -0.780000       15.9994           0
      9184 MEMB     74       QMPE     O14      O2L     -0.780000       15.9994           0
      9185 MEMB     74       QMPE     O11      OSLP    -0.570000       15.9994           0
      9186 MEMB     74       QMPE     O12      OSLP    -0.570000       15.9994           0
      9187 MEMB     74       QMPE     C1       CTL2    -0.800000E-01   12.0110           0
      9188 MEMB     74       QMPE     HA       HAL2     0.900000E-01   1.00800           0
      9189 MEMB     74       QMPE     HB       HAL2     0.900000E-01   1.00800           0
      9190 MEMB     74       QMPE     C2       CTL1     0.170000       12.0110           0
      9191 MEMB     74       QMPE     HS       HAL1     0.900000E-01   1.00800           0
      9192 MEMB     74       QMPE     O21      OSL     -0.490000       15.9994           0
      9193 MEMB     74       QMPE     C21      CL       0.900000       12.0110           0
      9194 MEMB     74       QMPE     O22      OBL     -0.630000       15.9994           0
      9195 MEMB     74       QMPE     C22      CTL2    -0.220000       12.0110           0
      9196 MEMB     74       QMPE     H2R      HAL2     0.900000E-01   1.00800           0
      9197 MEMB     74       QMPE     H2S      HAL2     0.900000E-01   1.00800           0
      9198 MEMB     74       QMPE     C3       CTL2     0.800000E-01   12.0110           0
      9199 MEMB     74       QMPE     HX       HAL2     0.900000E-01   1.00800           0
      9200 MEMB     74       QMPE     HY       HAL2     0.900000E-01   1.00800           0
      9201 MEMB     74       QMPE     O31      OSL     -0.490000       15.9994           0
      9202 MEMB     74       QMPE     C31      CL       0.900000       12.0110           0
      9203 MEMB     74       QMPE     O32      OBL     -0.630000       15.9994           0
      9204 MEMB     74       QMPE     C32      CTL2    -0.220000       12.0110           0
      9205 MEMB     74       QMPE     H2X      HAL2     0.900000E-01   1.00800           0
      9206 MEMB     74       QMPE     H2Y      HAL2     0.900000E-01   1.00800           0
      9207 MEMB     74       QMPE     C23      CTL2    -0.180000       12.0110           0
      9208 MEMB     74       QMPE     H3R      HAL2     0.900000E-01   1.00800           0
      9209 MEMB     74       QMPE     H3S      HAL2     0.900000E-01   1.00800           0
      9210 MEMB     74       QMPE     C24      CTL2    -0.180000       12.0110           0
      9211 MEMB     74       QMPE     H4R      HAL2     0.900000E-01   1.00800           0
      9212 MEMB     74       QMPE     H4S      HAL2     0.900000E-01   1.00800           0
      9213 MEMB     74       QMPE     C25      CTL2    -0.180000       12.0110           0
      9214 MEMB     74       QMPE     H5R      HAL2     0.900000E-01   1.00800           0
      9215 MEMB     74       QMPE     H5S      HAL2     0.900000E-01   1.00800           0
      9216 MEMB     74       QMPE     C26      CTL2    -0.180000       12.0110           0
      9217 MEMB     74       QMPE     H6R      HAL2     0.900000E-01   1.00800           0
      9218 MEMB     74       QMPE     H6S      HAL2     0.900000E-01   1.00800           0
      9219 MEMB     74       QMPE     C27      CTL2    -0.180000       12.0110           0
      9220 MEMB     74       QMPE     H7R      HAL2     0.900000E-01   1.00800           0
      9221 MEMB     74       QMPE     H7S      HAL2     0.900000E-01   1.00800           0
      9222 MEMB     74       QMPE     C28      CTL2    -0.180000       12.0110           0
      9223 MEMB     74       QMPE     H8R      HAL2     0.900000E-01   1.00800           0
      9224 MEMB     74       QMPE     H8S      HAL2     0.900000E-01   1.00800           0
      9225 MEMB     74       QMPE     C29      CG3RC1  -0.900000E-01   12.0110           0
      9226 MEMB     74       QMPE     H9R      HGA1     0.900000E-01   1.00800           0
      9227 MEMB     74       QMPE     C217     CG3C31  -0.180000       12.0110           0
      9228 MEMB     74       QMPE     H17R     HGA2     0.900000E-01   1.00800           0
      9229 MEMB     74       QMPE     H17S     HGA2     0.900000E-01   1.00800           0
      9230 MEMB     74       QMPE     C210     CG3RC1  -0.900000E-01   12.0110           0
      9231 MEMB     74       QMPE     H10R     HGA1     0.900000E-01   1.00800           0
      9232 MEMB     74       QMPE     C211     CTL2    -0.180000       12.0110           0
      9233 MEMB     74       QMPE     H11R     HAL2     0.900000E-01   1.00800           0
      9234 MEMB     74       QMPE     H11S     HAL2     0.900000E-01   1.00800           0
      9235 MEMB     74       QMPE     C212     CTL2    -0.180000       12.0110           0
      9236 MEMB     74       QMPE     H12R     HAL2     0.900000E-01   1.00800           0
      9237 MEMB     74       QMPE     H12S     HAL2     0.900000E-01   1.00800           0
      9238 MEMB     74       QMPE     C213     CTL2    -0.180000       12.0110           0
      9239 MEMB     74       QMPE     H13R     HAL2     0.900000E-01   1.00800           0
      9240 MEMB     74       QMPE     H13S     HAL2     0.900000E-01   1.00800           0
      9241 MEMB     74       QMPE     C214     CTL2    -0.180000       12.0110           0
      9242 MEMB     74       QMPE     H14R     HAL2     0.900000E-01   1.00800           0
      9243 MEMB     74       QMPE     H14S     HAL2     0.900000E-01   1.00800           0
      9244 MEMB     74       QMPE     C215     CTL2    -0.180000       12.0110           0
      9245 MEMB     74       QMPE     H15R     HAL2     0.900000E-01   1.00800           0
      9246 MEMB     74       QMPE     H15S     HAL2     0.900000E-01   1.00800           0
      9247 MEMB     74       QMPE     C216     CTL3    -0.270000       12.0110           0
      9248 MEMB     74       QMPE     H16R     HAL3     0.900000E-01   1.00800           0
      9249 MEMB     74       QMPE     H16S     HAL3     0.900000E-01   1.00800           0
      9250 MEMB     74       QMPE     H16T     HAL3     0.900000E-01   1.00800           0
      9251 MEMB     74       QMPE     C33      CTL2    -0.180000       12.0110           0
      9252 MEMB     74       QMPE     H3X      HAL2     0.900000E-01   1.00800           0
      9253 MEMB     74       QMPE     H3Y      HAL2     0.900000E-01   1.00800           0
      9254 MEMB     74       QMPE     C34      CTL2    -0.180000       12.0110           0
      9255 MEMB     74       QMPE     H4X      HAL2     0.900000E-01   1.00800           0
      9256 MEMB     74       QMPE     H4Y      HAL2     0.900000E-01   1.00800           0
      9257 MEMB     74       QMPE     C35      CTL2    -0.180000       12.0110           0
      9258 MEMB     74       QMPE     H5X      HAL2     0.900000E-01   1.00800           0
      9259 MEMB     74       QMPE     H5Y      HAL2     0.900000E-01   1.00800           0
      9260 MEMB     74       QMPE     C36      CTL2    -0.180000       12.0110           0
      9261 MEMB     74       QMPE     H6X      HAL2     0.900000E-01   1.00800           0
      9262 MEMB     74       QMPE     H6Y      HAL2     0.900000E-01   1.00800           0
      9263 MEMB     74       QMPE     C37      CTL2    -0.180000       12.0110           0
      9264 MEMB     74       QMPE     H7X      HAL2     0.900000E-01   1.00800           0
      9265 MEMB     74       QMPE     H7Y      HAL2     0.900000E-01   1.00800           0
      9266 MEMB     74       QMPE     C38      CTL2    -0.180000       12.0110           0
      9267 MEMB     74       QMPE     H8X      HAL2     0.900000E-01   1.00800           0
      9268 MEMB     74       QMPE     H8Y      HAL2     0.900000E-01   1.00800           0
      9269 MEMB     74       QMPE     C39      CTL2    -0.180000       12.0110           0
      9270 MEMB     74       QMPE     H9X      HAL2     0.900000E-01   1.00800           0
      9271 MEMB     74       QMPE     H9Y      HAL2     0.900000E-01   1.00800           0
      9272 MEMB     74       QMPE     C310     CTL2    -0.180000       12.0110           0
      9273 MEMB     74       QMPE     H10X     HAL2     0.900000E-01   1.00800           0
      9274 MEMB     74       QMPE     H10Y     HAL2     0.900000E-01   1.00800           0
      9275 MEMB     74       QMPE     C311     CTL2    -0.180000       12.0110           0
      9276 MEMB     74       QMPE     H11X     HAL2     0.900000E-01   1.00800           0
      9277 MEMB     74       QMPE     H11Y     HAL2     0.900000E-01   1.00800           0
      9278 MEMB     74       QMPE     C312     CTL2    -0.180000       12.0110           0
      9279 MEMB     74       QMPE     H12X     HAL2     0.900000E-01   1.00800           0
      9280 MEMB     74       QMPE     H12Y     HAL2     0.900000E-01   1.00800           0
      9281 MEMB     74       QMPE     C313     CTL2    -0.180000       12.0110           0
      9282 MEMB     74       QMPE     H13X     HAL2     0.900000E-01   1.00800           0
      9283 MEMB     74       QMPE     H13Y     HAL2     0.900000E-01   1.00800           0
      9284 MEMB     74       QMPE     C314     CTL2    -0.180000       12.0110           0
      9285 MEMB     74       QMPE     H14X     HAL2     0.900000E-01   1.00800           0
      9286 MEMB     74       QMPE     H14Y     HAL2     0.900000E-01   1.00800           0
      9287 MEMB     74       QMPE     C315     CTL3    -0.270000       12.0110           0
      9288 MEMB     74       QMPE     H15X     HAL3     0.900000E-01   1.00800           0
      9289 MEMB     74       QMPE     H15Y     HAL3     0.900000E-01   1.00800           0
      9290 MEMB     74       QMPE     H15Z     HAL3     0.900000E-01   1.00800           0
      9291 MEMB     75       PMPE     N        NH3L    -0.300000       14.0070           0
      9292 MEMB     75       PMPE     HN1      HCL      0.330000       1.00800           0
      9293 MEMB     75       PMPE     HN2      HCL      0.330000       1.00800           0
      9294 MEMB     75       PMPE     HN3      HCL      0.330000       1.00800           0
      9295 MEMB     75       PMPE     C12      CTL2     0.130000       12.0110           0
      9296 MEMB     75       PMPE     H12A     HAL2     0.900000E-01   1.00800           0
      9297 MEMB     75       PMPE     H12B     HAL2     0.900000E-01   1.00800           0
      9298 MEMB     75       PMPE     C11      CTL2    -0.800000E-01   12.0110           0
      9299 MEMB     75       PMPE     H11A     HAL2     0.900000E-01   1.00800           0
      9300 MEMB     75       PMPE     H11B     HAL2     0.900000E-01   1.00800           0
      9301 MEMB     75       PMPE     P        PL        1.50000       30.9740           0
      9302 MEMB     75       PMPE     O13      O2L     -0.780000       15.9994           0
      9303 MEMB     75       PMPE     O14      O2L     -0.780000       15.9994           0
      9304 MEMB     75       PMPE     O11      OSLP    -0.570000       15.9994           0
      9305 MEMB     75       PMPE     O12      OSLP    -0.570000       15.9994           0
      9306 MEMB     75       PMPE     C1       CTL2    -0.800000E-01   12.0110           0
      9307 MEMB     75       PMPE     HA       HAL2     0.900000E-01   1.00800           0
      9308 MEMB     75       PMPE     HB       HAL2     0.900000E-01   1.00800           0
      9309 MEMB     75       PMPE     C2       CTL1     0.170000       12.0110           0
      9310 MEMB     75       PMPE     HS       HAL1     0.900000E-01   1.00800           0
      9311 MEMB     75       PMPE     O21      OSL     -0.490000       15.9994           0
      9312 MEMB     75       PMPE     C21      CL       0.900000       12.0110           0
      9313 MEMB     75       PMPE     O22      OBL     -0.630000       15.9994           0
      9314 MEMB     75       PMPE     C22      CTL2    -0.220000       12.0110           0
      9315 MEMB     75       PMPE     H2R      HAL2     0.900000E-01   1.00800           0
      9316 MEMB     75       PMPE     H2S      HAL2     0.900000E-01   1.00800           0
      9317 MEMB     75       PMPE     C3       CTL2     0.800000E-01   12.0110           0
      9318 MEMB     75       PMPE     HX       HAL2     0.900000E-01   1.00800           0
      9319 MEMB     75       PMPE     HY       HAL2     0.900000E-01   1.00800           0
      9320 MEMB     75       PMPE     O31      OSL     -0.490000       15.9994           0
      9321 MEMB     75       PMPE     C31      CL       0.900000       12.0110           0
      9322 MEMB     75       PMPE     O32      OBL     -0.630000       15.9994           0
      9323 MEMB     75       PMPE     C32      CTL2    -0.220000       12.0110           0
      9324 MEMB     75       PMPE     H2X      HAL2     0.900000E-01   1.00800           0
      9325 MEMB     75       PMPE     H2Y      HAL2     0.900000E-01   1.00800           0
      9326 MEMB     75       PMPE     C23      CTL2    -0.180000       12.0110           0
      9327 MEMB     75       PMPE     H3R      HAL2     0.900000E-01   1.00800           0
      9328 MEMB     75       PMPE     H3S      HAL2     0.900000E-01   1.00800           0
      9329 MEMB     75       PMPE     C24      CTL2    -0.180000       12.0110           0
      9330 MEMB     75       PMPE     H4R      HAL2     0.900000E-01   1.00800           0
      9331 MEMB     75       PMPE     H4S      HAL2     0.900000E-01   1.00800           0
      9332 MEMB     75       PMPE     C25      CTL2    -0.180000       12.0110           0
      9333 MEMB     75       PMPE     H5R      HAL2     0.900000E-01   1.00800           0
      9334 MEMB     75       PMPE     H5S      HAL2     0.900000E-01   1.00800           0
      9335 MEMB     75       PMPE     C26      CTL2    -0.180000       12.0110           0
      9336 MEMB     75       PMPE     H6R      HAL2     0.900000E-01   1.00800           0
      9337 MEMB     75       PMPE     H6S      HAL2     0.900000E-01   1.00800           0
      9338 MEMB     75       PMPE     C27      CTL2    -0.180000       12.0110           0
      9339 MEMB     75       PMPE     H7R      HAL2     0.900000E-01   1.00800           0
      9340 MEMB     75       PMPE     H7S      HAL2     0.900000E-01   1.00800           0
      9341 MEMB     75       PMPE     C28      CTL2    -0.180000       12.0110           0
      9342 MEMB     75       PMPE     H8R      HAL2     0.900000E-01   1.00800           0
      9343 MEMB     75       PMPE     H8S      HAL2     0.900000E-01   1.00800           0
      9344 MEMB     75       PMPE     C29      CG3RC1  -0.900000E-01   12.0110           0
      9345 MEMB     75       PMPE     H9R      HGA1     0.900000E-01   1.00800           0
      9346 MEMB     75       PMPE     C217     CG3C31  -0.180000       12.0110           0
      9347 MEMB     75       PMPE     H17R     HGA2     0.900000E-01   1.00800           0
      9348 MEMB     75       PMPE     H17S     HGA2     0.900000E-01   1.00800           0
      9349 MEMB     75       PMPE     C210     CG3RC1  -0.900000E-01   12.0110           0
      9350 MEMB     75       PMPE     H10R     HGA1     0.900000E-01   1.00800           0
      9351 MEMB     75       PMPE     C211     CTL2    -0.180000       12.0110           0
      9352 MEMB     75       PMPE     H11R     HAL2     0.900000E-01   1.00800           0
      9353 MEMB     75       PMPE     H11S     HAL2     0.900000E-01   1.00800           0
      9354 MEMB     75       PMPE     C212     CTL2    -0.180000       12.0110           0
      9355 MEMB     75       PMPE     H12R     HAL2     0.900000E-01   1.00800           0
      9356 MEMB     75       PMPE     H12S     HAL2     0.900000E-01   1.00800           0
      9357 MEMB     75       PMPE     C213     CTL2    -0.180000       12.0110           0
      9358 MEMB     75       PMPE     H13R     HAL2     0.900000E-01   1.00800           0
      9359 MEMB     75       PMPE     H13S     HAL2     0.900000E-01   1.00800           0
      9360 MEMB     75       PMPE     C214     CTL2    -0.180000       12.0110           0
      9361 MEMB     75       PMPE     H14R     HAL2     0.900000E-01   1.00800           0
      9362 MEMB     75       PMPE     H14S     HAL2     0.900000E-01   1.00800           0
      9363 MEMB     75       PMPE     C215     CTL2    -0.180000       12.0110           0
      9364 MEMB     75       PMPE     H15R     HAL2     0.900000E-01   1.00800           0
      9365 MEMB     75       PMPE     H15S     HAL2     0.900000E-01   1.00800           0
      9366 MEMB     75       PMPE     C216     CTL3    -0.270000       12.0110           0
      9367 MEMB     75       PMPE     H16R     HAL3     0.900000E-01   1.00800           0
      9368 MEMB     75       PMPE     H16S     HAL3     0.900000E-01   1.00800           0
      9369 MEMB     75       PMPE     H16T     HAL3     0.900000E-01   1.00800           0
      9370 MEMB     75       PMPE     C33      CTL2    -0.180000       12.0110           0
      9371 MEMB     75       PMPE     H3X      HAL2     0.900000E-01   1.00800           0
      9372 MEMB     75       PMPE     H3Y      HAL2     0.900000E-01   1.00800           0
      9373 MEMB     75       PMPE     C34      CTL2    -0.180000       12.0110           0
      9374 MEMB     75       PMPE     H4X      HAL2     0.900000E-01   1.00800           0
      9375 MEMB     75       PMPE     H4Y      HAL2     0.900000E-01   1.00800           0
      9376 MEMB     75       PMPE     C35      CTL2    -0.180000       12.0110           0
      9377 MEMB     75       PMPE     H5X      HAL2     0.900000E-01   1.00800           0
      9378 MEMB     75       PMPE     H5Y      HAL2     0.900000E-01   1.00800           0
      9379 MEMB     75       PMPE     C36      CTL2    -0.180000       12.0110           0
      9380 MEMB     75       PMPE     H6X      HAL2     0.900000E-01   1.00800           0
      9381 MEMB     75       PMPE     H6Y      HAL2     0.900000E-01   1.00800           0
      9382 MEMB     75       PMPE     C37      CTL2    -0.180000       12.0110           0
      9383 MEMB     75       PMPE     H7X      HAL2     0.900000E-01   1.00800           0
      9384 MEMB     75       PMPE     H7Y      HAL2     0.900000E-01   1.00800           0
      9385 MEMB     75       PMPE     C38      CTL2    -0.180000       12.0110           0
      9386 MEMB     75       PMPE     H8X      HAL2     0.900000E-01   1.00800           0
      9387 MEMB     75       PMPE     H8Y      HAL2     0.900000E-01   1.00800           0
      9388 MEMB     75       PMPE     C39      CTL2    -0.180000       12.0110           0
      9389 MEMB     75       PMPE     H9X      HAL2     0.900000E-01   1.00800           0
      9390 MEMB     75       PMPE     H9Y      HAL2     0.900000E-01   1.00800           0
      9391 MEMB     75       PMPE     C310     CTL2    -0.180000       12.0110           0
      9392 MEMB     75       PMPE     H10X     HAL2     0.900000E-01   1.00800           0
      9393 MEMB     75       PMPE     H10Y     HAL2     0.900000E-01   1.00800           0
      9394 MEMB     75       PMPE     C311     CTL2    -0.180000       12.0110           0
      9395 MEMB     75       PMPE     H11X     HAL2     0.900000E-01   1.00800           0
      9396 MEMB     75       PMPE     H11Y     HAL2     0.900000E-01   1.00800           0
      9397 MEMB     75       PMPE     C312     CTL2    -0.180000       12.0110           0
      9398 MEMB     75       PMPE     H12X     HAL2     0.900000E-01   1.00800           0
      9399 MEMB     75       PMPE     H12Y     HAL2     0.900000E-01   1.00800           0
      9400 MEMB     75       PMPE     C313     CTL2    -0.180000       12.0110           0
      9401 MEMB     75       PMPE     H13X     HAL2     0.900000E-01   1.00800           0
      9402 MEMB     75       PMPE     H13Y     HAL2     0.900000E-01   1.00800           0
      9403 MEMB     75       PMPE     C314     CTL2    -0.180000       12.0110           0
      9404 MEMB     75       PMPE     H14X     HAL2     0.900000E-01   1.00800           0
      9405 MEMB     75       PMPE     H14Y     HAL2     0.900000E-01   1.00800           0
      9406 MEMB     75       PMPE     C315     CTL2    -0.180000       12.0110           0
      9407 MEMB     75       PMPE     H15X     HAL2     0.900000E-01   1.00800           0
      9408 MEMB     75       PMPE     H15Y     HAL2     0.900000E-01   1.00800           0
      9409 MEMB     75       PMPE     C316     CTL3    -0.270000       12.0110           0
      9410 MEMB     75       PMPE     H16X     HAL3     0.900000E-01   1.00800           0
      9411 MEMB     75       PMPE     H16Y     HAL3     0.900000E-01   1.00800           0
      9412 MEMB     75       PMPE     H16Z     HAL3     0.900000E-01   1.00800           0
      9413 MEMB     76       QMPE     N        NH3L    -0.300000       14.0070           0
      9414 MEMB     76       QMPE     HN1      HCL      0.330000       1.00800           0
      9415 MEMB     76       QMPE     HN2      HCL      0.330000       1.00800           0
      9416 MEMB     76       QMPE     HN3      HCL      0.330000       1.00800           0
      9417 MEMB     76       QMPE     C12      CTL2     0.130000       12.0110           0
      9418 MEMB     76       QMPE     H12A     HAL2     0.900000E-01   1.00800           0
      9419 MEMB     76       QMPE     H12B     HAL2     0.900000E-01   1.00800           0
      9420 MEMB     76       QMPE     C11      CTL2    -0.800000E-01   12.0110           0
      9421 MEMB     76       QMPE     H11A     HAL2     0.900000E-01   1.00800           0
      9422 MEMB     76       QMPE     H11B     HAL2     0.900000E-01   1.00800           0
      9423 MEMB     76       QMPE     P        PL        1.50000       30.9740           0
      9424 MEMB     76       QMPE     O13      O2L     -0.780000       15.9994           0
      9425 MEMB     76       QMPE     O14      O2L     -0.780000       15.9994           0
      9426 MEMB     76       QMPE     O11      OSLP    -0.570000       15.9994           0
      9427 MEMB     76       QMPE     O12      OSLP    -0.570000       15.9994           0
      9428 MEMB     76       QMPE     C1       CTL2    -0.800000E-01   12.0110           0
      9429 MEMB     76       QMPE     HA       HAL2     0.900000E-01   1.00800           0
      9430 MEMB     76       QMPE     HB       HAL2     0.900000E-01   1.00800           0
      9431 MEMB     76       QMPE     C2       CTL1     0.170000       12.0110           0
      9432 MEMB     76       QMPE     HS       HAL1     0.900000E-01   1.00800           0
      9433 MEMB     76       QMPE     O21      OSL     -0.490000       15.9994           0
      9434 MEMB     76       QMPE     C21      CL       0.900000       12.0110           0
      9435 MEMB     76       QMPE     O22      OBL     -0.630000       15.9994           0
      9436 MEMB     76       QMPE     C22      CTL2    -0.220000       12.0110           0
      9437 MEMB     76       QMPE     H2R      HAL2     0.900000E-01   1.00800           0
      9438 MEMB     76       QMPE     H2S      HAL2     0.900000E-01   1.00800           0
      9439 MEMB     76       QMPE     C3       CTL2     0.800000E-01   12.0110           0
      9440 MEMB     76       QMPE     HX       HAL2     0.900000E-01   1.00800           0
      9441 MEMB     76       QMPE     HY       HAL2     0.900000E-01   1.00800           0
      9442 MEMB     76       QMPE     O31      OSL     -0.490000       15.9994           0
      9443 MEMB     76       QMPE     C31      CL       0.900000       12.0110           0
      9444 MEMB     76       QMPE     O32      OBL     -0.630000       15.9994           0
      9445 MEMB     76       QMPE     C32      CTL2    -0.220000       12.0110           0
      9446 MEMB     76       QMPE     H2X      HAL2     0.900000E-01   1.00800           0
      9447 MEMB     76       QMPE     H2Y      HAL2     0.900000E-01   1.00800           0
      9448 MEMB     76       QMPE     C23      CTL2    -0.180000       12.0110           0
      9449 MEMB     76       QMPE     H3R      HAL2     0.900000E-01   1.00800           0
      9450 MEMB     76       QMPE     H3S      HAL2     0.900000E-01   1.00800           0
      9451 MEMB     76       QMPE     C24      CTL2    -0.180000       12.0110           0
      9452 MEMB     76       QMPE     H4R      HAL2     0.900000E-01   1.00800           0
      9453 MEMB     76       QMPE     H4S      HAL2     0.900000E-01   1.00800           0
      9454 MEMB     76       QMPE     C25      CTL2    -0.180000       12.0110           0
      9455 MEMB     76       QMPE     H5R      HAL2     0.900000E-01   1.00800           0
      9456 MEMB     76       QMPE     H5S      HAL2     0.900000E-01   1.00800           0
      9457 MEMB     76       QMPE     C26      CTL2    -0.180000       12.0110           0
      9458 MEMB     76       QMPE     H6R      HAL2     0.900000E-01   1.00800           0
      9459 MEMB     76       QMPE     H6S      HAL2     0.900000E-01   1.00800           0
      9460 MEMB     76       QMPE     C27      CTL2    -0.180000       12.0110           0
      9461 MEMB     76       QMPE     H7R      HAL2     0.900000E-01   1.00800           0
      9462 MEMB     76       QMPE     H7S      HAL2     0.900000E-01   1.00800           0
      9463 MEMB     76       QMPE     C28      CTL2    -0.180000       12.0110           0
      9464 MEMB     76       QMPE     H8R      HAL2     0.900000E-01   1.00800           0
      9465 MEMB     76       QMPE     H8S      HAL2     0.900000E-01   1.00800           0
      9466 MEMB     76       QMPE     C29      CG3RC1  -0.900000E-01   12.0110           0
      9467 MEMB     76       QMPE     H9R      HGA1     0.900000E-01   1.00800           0
      9468 MEMB     76       QMPE     C217     CG3C31  -0.180000       12.0110           0
      9469 MEMB     76       QMPE     H17R     HGA2     0.900000E-01   1.00800           0
      9470 MEMB     76       QMPE     H17S     HGA2     0.900000E-01   1.00800           0
      9471 MEMB     76       QMPE     C210     CG3RC1  -0.900000E-01   12.0110           0
      9472 MEMB     76       QMPE     H10R     HGA1     0.900000E-01   1.00800           0
      9473 MEMB     76       QMPE     C211     CTL2    -0.180000       12.0110           0
      9474 MEMB     76       QMPE     H11R     HAL2     0.900000E-01   1.00800           0
      9475 MEMB     76       QMPE     H11S     HAL2     0.900000E-01   1.00800           0
      9476 MEMB     76       QMPE     C212     CTL2    -0.180000       12.0110           0
      9477 MEMB     76       QMPE     H12R     HAL2     0.900000E-01   1.00800           0
      9478 MEMB     76       QMPE     H12S     HAL2     0.900000E-01   1.00800           0
      9479 MEMB     76       QMPE     C213     CTL2    -0.180000       12.0110           0
      9480 MEMB     76       QMPE     H13R     HAL2     0.900000E-01   1.00800           0
      9481 MEMB     76       QMPE     H13S     HAL2     0.900000E-01   1.00800           0
      9482 MEMB     76       QMPE     C214     CTL2    -0.180000       12.0110           0
      9483 MEMB     76       QMPE     H14R     HAL2     0.900000E-01   1.00800           0
      9484 MEMB     76       QMPE     H14S     HAL2     0.900000E-01   1.00800           0
      9485 MEMB     76       QMPE     C215     CTL2    -0.180000       12.0110           0
      9486 MEMB     76       QMPE     H15R     HAL2     0.900000E-01   1.00800           0
      9487 MEMB     76       QMPE     H15S     HAL2     0.900000E-01   1.00800           0
      9488 MEMB     76       QMPE     C216     CTL3    -0.270000       12.0110           0
      9489 MEMB     76       QMPE     H16R     HAL3     0.900000E-01   1.00800           0
      9490 MEMB     76       QMPE     H16S     HAL3     0.900000E-01   1.00800           0
      9491 MEMB     76       QMPE     H16T     HAL3     0.900000E-01   1.00800           0
      9492 MEMB     76       QMPE     C33      CTL2    -0.180000       12.0110           0
      9493 MEMB     76       QMPE     H3X      HAL2     0.900000E-01   1.00800           0
      9494 MEMB     76       QMPE     H3Y      HAL2     0.900000E-01   1.00800           0
      9495 MEMB     76       QMPE     C34      CTL2    -0.180000       12.0110           0
      9496 MEMB     76       QMPE     H4X      HAL2     0.900000E-01   1.00800           0
      9497 MEMB     76       QMPE     H4Y      HAL2     0.900000E-01   1.00800           0
      9498 MEMB     76       QMPE     C35      CTL2    -0.180000       12.0110           0
      9499 MEMB     76       QMPE     H5X      HAL2     0.900000E-01   1.00800           0
      9500 MEMB     76       QMPE     H5Y      HAL2     0.900000E-01   1.00800           0
      9501 MEMB     76       QMPE     C36      CTL2    -0.180000       12.0110           0
      9502 MEMB     76       QMPE     H6X      HAL2     0.900000E-01   1.00800           0
      9503 MEMB     76       QMPE     H6Y      HAL2     0.900000E-01   1.00800           0
      9504 MEMB     76       QMPE     C37      CTL2    -0.180000       12.0110           0
      9505 MEMB     76       QMPE     H7X      HAL2     0.900000E-01   1.00800           0
      9506 MEMB     76       QMPE     H7Y      HAL2     0.900000E-01   1.00800           0
      9507 MEMB     76       QMPE     C38      CTL2    -0.180000       12.0110           0
      9508 MEMB     76       QMPE     H8X      HAL2     0.900000E-01   1.00800           0
      9509 MEMB     76       QMPE     H8Y      HAL2     0.900000E-01   1.00800           0
      9510 MEMB     76       QMPE     C39      CTL2    -0.180000       12.0110           0
      9511 MEMB     76       QMPE     H9X      HAL2     0.900000E-01   1.00800           0
      9512 MEMB     76       QMPE     H9Y      HAL2     0.900000E-01   1.00800           0
      9513 MEMB     76       QMPE     C310     CTL2    -0.180000       12.0110           0
      9514 MEMB     76       QMPE     H10X     HAL2     0.900000E-01   1.00800           0
      9515 MEMB     76       QMPE     H10Y     HAL2     0.900000E-01   1.00800           0
      9516 MEMB     76       QMPE     C311     CTL2    -0.180000       12.0110           0
      9517 MEMB     76       QMPE     H11X     HAL2     0.900000E-01   1.00800           0
      9518 MEMB     76       QMPE     H11Y     HAL2     0.900000E-01   1.00800           0
      9519 MEMB     76       QMPE     C312     CTL2    -0.180000       12.0110           0
      9520 MEMB     76       QMPE     H12X     HAL2     0.900000E-01   1.00800           0
      9521 MEMB     76       QMPE     H12Y     HAL2     0.900000E-01   1.00800           0
      9522 MEMB     76       QMPE     C313     CTL2    -0.180000       12.0110           0
      9523 MEMB     76       QMPE     H13X     HAL2     0.900000E-01   1.00800           0
      9524 MEMB     76       QMPE     H13Y     HAL2     0.900000E-01   1.00800           0
      9525 MEMB     76       QMPE     C314     CTL2    -0.180000       12.0110           0
      9526 MEMB     76       QMPE     H14X     HAL2     0.900000E-01   1.00800           0
      9527 MEMB     76       QMPE     H14Y     HAL2     0.900000E-01   1.00800           0
      9528 MEMB     76       QMPE     C315     CTL3    -0.270000       12.0110           0
      9529 MEMB     76       QMPE     H15X     HAL3     0.900000E-01   1.00800           0
      9530 MEMB     76       QMPE     H15Y     HAL3     0.900000E-01   1.00800           0
      9531 MEMB     76       QMPE     H15Z     HAL3     0.900000E-01   1.00800           0
      9532 MEMB     77       PYPG     C13      CTL2     0.500000E-01   12.0110           0
      9533 MEMB     77       PYPG     H13A     HAL2     0.900000E-01   1.00800           0
      9534 MEMB     77       PYPG     H13B     HAL2     0.900000E-01   1.00800           0
      9535 MEMB     77       PYPG     OC3      OHL     -0.660000       15.9994           0
      9536 MEMB     77       PYPG     HO3      HOL      0.430000       1.00800           0
      9537 MEMB     77       PYPG     C12      CTL1     0.140000       12.0110           0
      9538 MEMB     77       PYPG     H12A     HAL1     0.900000E-01   1.00800           0
      9539 MEMB     77       PYPG     OC2      OHL     -0.660000       15.9994           0
      9540 MEMB     77       PYPG     HO2      HOL      0.430000       1.00800           0
      9541 MEMB     77       PYPG     C11      CTL2    -0.800000E-01   12.0110           0
      9542 MEMB     77       PYPG     H11A     HAL2     0.900000E-01   1.00800           0
      9543 MEMB     77       PYPG     H11B     HAL2     0.900000E-01   1.00800           0
      9544 MEMB     77       PYPG     P        PL        1.50000       30.9740           0
      9545 MEMB     77       PYPG     O13      O2L     -0.780000       15.9994           0
      9546 MEMB     77       PYPG     O14      O2L     -0.780000       15.9994           0
      9547 MEMB     77       PYPG     O11      OSLP    -0.570000       15.9994           0
      9548 MEMB     77       PYPG     O12      OSLP    -0.570000       15.9994           0
      9549 MEMB     77       PYPG     C1       CTL2    -0.800000E-01   12.0110           0
      9550 MEMB     77       PYPG     HA       HAL2     0.900000E-01   1.00800           0
      9551 MEMB     77       PYPG     HB       HAL2     0.900000E-01   1.00800           0
      9552 MEMB     77       PYPG     C2       CTL1     0.170000       12.0110           0
      9553 MEMB     77       PYPG     HS       HAL1     0.900000E-01   1.00800           0
      9554 MEMB     77       PYPG     O21      OSL     -0.490000       15.9994           0
      9555 MEMB     77       PYPG     C21      CL       0.900000       12.0110           0
      9556 MEMB     77       PYPG     O22      OBL     -0.630000       15.9994           0
      9557 MEMB     77       PYPG     C22      CTL2    -0.220000       12.0110           0
      9558 MEMB     77       PYPG     H2R      HAL2     0.900000E-01   1.00800           0
      9559 MEMB     77       PYPG     H2S      HAL2     0.900000E-01   1.00800           0
      9560 MEMB     77       PYPG     C3       CTL2     0.800000E-01   12.0110           0
      9561 MEMB     77       PYPG     HX       HAL2     0.900000E-01   1.00800           0
      9562 MEMB     77       PYPG     HY       HAL2     0.900000E-01   1.00800           0
      9563 MEMB     77       PYPG     O31      OSL     -0.490000       15.9994           0
      9564 MEMB     77       PYPG     C31      CL       0.900000       12.0110           0
      9565 MEMB     77       PYPG     O32      OBL     -0.630000       15.9994           0
      9566 MEMB     77       PYPG     C32      CTL2    -0.220000       12.0110           0
      9567 MEMB     77       PYPG     H2X      HAL2     0.900000E-01   1.00800           0
      9568 MEMB     77       PYPG     H2Y      HAL2     0.900000E-01   1.00800           0
      9569 MEMB     77       PYPG     C23      CTL2    -0.180000       12.0110           0
      9570 MEMB     77       PYPG     H3R      HAL2     0.900000E-01   1.00800           0
      9571 MEMB     77       PYPG     H3S      HAL2     0.900000E-01   1.00800           0
      9572 MEMB     77       PYPG     C24      CTL2    -0.180000       12.0110           0
      9573 MEMB     77       PYPG     H4R      HAL2     0.900000E-01   1.00800           0
      9574 MEMB     77       PYPG     H4S      HAL2     0.900000E-01   1.00800           0
      9575 MEMB     77       PYPG     C25      CTL2    -0.180000       12.0110           0
      9576 MEMB     77       PYPG     H5R      HAL2     0.900000E-01   1.00800           0
      9577 MEMB     77       PYPG     H5S      HAL2     0.900000E-01   1.00800           0
      9578 MEMB     77       PYPG     C26      CTL2    -0.180000       12.0110           0
      9579 MEMB     77       PYPG     H6R      HAL2     0.900000E-01   1.00800           0
      9580 MEMB     77       PYPG     H6S      HAL2     0.900000E-01   1.00800           0
      9581 MEMB     77       PYPG     C27      CTL2    -0.180000       12.0110           0
      9582 MEMB     77       PYPG     H7R      HAL2     0.900000E-01   1.00800           0
      9583 MEMB     77       PYPG     H7S      HAL2     0.900000E-01   1.00800           0
      9584 MEMB     77       PYPG     C28      CTL2    -0.180000       12.0110           0
      9585 MEMB     77       PYPG     H8R      HAL2     0.900000E-01   1.00800           0
      9586 MEMB     77       PYPG     H8S      HAL2     0.900000E-01   1.00800           0
      9587 MEMB     77       PYPG     C29      CEL1    -0.150000       12.0110           0
      9588 MEMB     77       PYPG     H9R      HEL1     0.150000       1.00800           0
      9589 MEMB     77       PYPG     C210     CEL1    -0.150000       12.0110           0
      9590 MEMB     77       PYPG     H10R     HEL1     0.150000       1.00800           0
      9591 MEMB     77       PYPG     C211     CTL2    -0.180000       12.0110           0
      9592 MEMB     77       PYPG     H11R     HAL2     0.900000E-01   1.00800           0
      9593 MEMB     77       PYPG     H11S     HAL2     0.900000E-01   1.00800           0
      9594 MEMB     77       PYPG     C212     CTL2    -0.180000       12.0110           0
      9595 MEMB     77       PYPG     H12R     HAL2     0.900000E-01   1.00800           0
      9596 MEMB     77       PYPG     H12S     HAL2     0.900000E-01   1.00800           0
      9597 MEMB     77       PYPG     C213     CTL2    -0.180000       12.0110           0
      9598 MEMB     77       PYPG     H13R     HAL2     0.900000E-01   1.00800           0
      9599 MEMB     77       PYPG     H13S     HAL2     0.900000E-01   1.00800           0
      9600 MEMB     77       PYPG     C214     CTL2    -0.180000       12.0110           0
      9601 MEMB     77       PYPG     H14R     HAL2     0.900000E-01   1.00800           0
      9602 MEMB     77       PYPG     H14S     HAL2     0.900000E-01   1.00800           0
      9603 MEMB     77       PYPG     C215     CTL2    -0.180000       12.0110           0
      9604 MEMB     77       PYPG     H15R     HAL2     0.900000E-01   1.00800           0
      9605 MEMB     77       PYPG     H15S     HAL2     0.900000E-01   1.00800           0
      9606 MEMB     77       PYPG     C216     CTL3    -0.270000       12.0110           0
      9607 MEMB     77       PYPG     H16R     HAL3     0.900000E-01   1.00800           0
      9608 MEMB     77       PYPG     H16S     HAL3     0.900000E-01   1.00800           0
      9609 MEMB     77       PYPG     H16T     HAL3     0.900000E-01   1.00800           0
      9610 MEMB     77       PYPG     C33      CTL2    -0.180000       12.0110           0
      9611 MEMB     77       PYPG     H3X      HAL2     0.900000E-01   1.00800           0
      9612 MEMB     77       PYPG     H3Y      HAL2     0.900000E-01   1.00800           0
      9613 MEMB     77       PYPG     C34      CTL2    -0.180000       12.0110           0
      9614 MEMB     77       PYPG     H4X      HAL2     0.900000E-01   1.00800           0
      9615 MEMB     77       PYPG     H4Y      HAL2     0.900000E-01   1.00800           0
      9616 MEMB     77       PYPG     C35      CTL2    -0.180000       12.0110           0
      9617 MEMB     77       PYPG     H5X      HAL2     0.900000E-01   1.00800           0
      9618 MEMB     77       PYPG     H5Y      HAL2     0.900000E-01   1.00800           0
      9619 MEMB     77       PYPG     C36      CTL2    -0.180000       12.0110           0
      9620 MEMB     77       PYPG     H6X      HAL2     0.900000E-01   1.00800           0
      9621 MEMB     77       PYPG     H6Y      HAL2     0.900000E-01   1.00800           0
      9622 MEMB     77       PYPG     C37      CTL2    -0.180000       12.0110           0
      9623 MEMB     77       PYPG     H7X      HAL2     0.900000E-01   1.00800           0
      9624 MEMB     77       PYPG     H7Y      HAL2     0.900000E-01   1.00800           0
      9625 MEMB     77       PYPG     C38      CTL2    -0.180000       12.0110           0
      9626 MEMB     77       PYPG     H8X      HAL2     0.900000E-01   1.00800           0
      9627 MEMB     77       PYPG     H8Y      HAL2     0.900000E-01   1.00800           0
      9628 MEMB     77       PYPG     C39      CTL2    -0.180000       12.0110           0
      9629 MEMB     77       PYPG     H9X      HAL2     0.900000E-01   1.00800           0
      9630 MEMB     77       PYPG     H9Y      HAL2     0.900000E-01   1.00800           0
      9631 MEMB     77       PYPG     C310     CTL2    -0.180000       12.0110           0
      9632 MEMB     77       PYPG     H10X     HAL2     0.900000E-01   1.00800           0
      9633 MEMB     77       PYPG     H10Y     HAL2     0.900000E-01   1.00800           0
      9634 MEMB     77       PYPG     C311     CTL2    -0.180000       12.0110           0
      9635 MEMB     77       PYPG     H11X     HAL2     0.900000E-01   1.00800           0
      9636 MEMB     77       PYPG     H11Y     HAL2     0.900000E-01   1.00800           0
      9637 MEMB     77       PYPG     C312     CTL2    -0.180000       12.0110           0
      9638 MEMB     77       PYPG     H12X     HAL2     0.900000E-01   1.00800           0
      9639 MEMB     77       PYPG     H12Y     HAL2     0.900000E-01   1.00800           0
      9640 MEMB     77       PYPG     C313     CTL2    -0.180000       12.0110           0
      9641 MEMB     77       PYPG     H13X     HAL2     0.900000E-01   1.00800           0
      9642 MEMB     77       PYPG     H13Y     HAL2     0.900000E-01   1.00800           0
      9643 MEMB     77       PYPG     C314     CTL2    -0.180000       12.0110           0
      9644 MEMB     77       PYPG     H14X     HAL2     0.900000E-01   1.00800           0
      9645 MEMB     77       PYPG     H14Y     HAL2     0.900000E-01   1.00800           0
      9646 MEMB     77       PYPG     C315     CTL2    -0.180000       12.0110           0
      9647 MEMB     77       PYPG     H15X     HAL2     0.900000E-01   1.00800           0
      9648 MEMB     77       PYPG     H15Y     HAL2     0.900000E-01   1.00800           0
      9649 MEMB     77       PYPG     C316     CTL3    -0.270000       12.0110           0
      9650 MEMB     77       PYPG     H16X     HAL3     0.900000E-01   1.00800           0
      9651 MEMB     77       PYPG     H16Y     HAL3     0.900000E-01   1.00800           0
      9652 MEMB     77       PYPG     H16Z     HAL3     0.900000E-01   1.00800           0
      9653 MEMB     78       PMPG     C13      CTL2     0.500000E-01   12.0110           0
      9654 MEMB     78       PMPG     H13A     HAL2     0.900000E-01   1.00800           0
      9655 MEMB     78       PMPG     H13B     HAL2     0.900000E-01   1.00800           0
      9656 MEMB     78       PMPG     OC3      OHL     -0.660000       15.9994           0
      9657 MEMB     78       PMPG     HO3      HOL      0.430000       1.00800           0
      9658 MEMB     78       PMPG     C12      CTL1     0.140000       12.0110           0
      9659 MEMB     78       PMPG     H12A     HAL1     0.900000E-01   1.00800           0
      9660 MEMB     78       PMPG     OC2      OHL     -0.660000       15.9994           0
      9661 MEMB     78       PMPG     HO2      HOL      0.430000       1.00800           0
      9662 MEMB     78       PMPG     C11      CTL2    -0.800000E-01   12.0110           0
      9663 MEMB     78       PMPG     H11A     HAL2     0.900000E-01   1.00800           0
      9664 MEMB     78       PMPG     H11B     HAL2     0.900000E-01   1.00800           0
      9665 MEMB     78       PMPG     P        PL        1.50000       30.9740           0
      9666 MEMB     78       PMPG     O13      O2L     -0.780000       15.9994           0
      9667 MEMB     78       PMPG     O14      O2L     -0.780000       15.9994           0
      9668 MEMB     78       PMPG     O11      OSLP    -0.570000       15.9994           0
      9669 MEMB     78       PMPG     O12      OSLP    -0.570000       15.9994           0
      9670 MEMB     78       PMPG     C1       CTL2    -0.800000E-01   12.0110           0
      9671 MEMB     78       PMPG     HA       HAL2     0.900000E-01   1.00800           0
      9672 MEMB     78       PMPG     HB       HAL2     0.900000E-01   1.00800           0
      9673 MEMB     78       PMPG     C2       CTL1     0.170000       12.0110           0
      9674 MEMB     78       PMPG     HS       HAL1     0.900000E-01   1.00800           0
      9675 MEMB     78       PMPG     O21      OSL     -0.490000       15.9994           0
      9676 MEMB     78       PMPG     C21      CL       0.900000       12.0110           0
      9677 MEMB     78       PMPG     O22      OBL     -0.630000       15.9994           0
      9678 MEMB     78       PMPG     C22      CTL2    -0.220000       12.0110           0
      9679 MEMB     78       PMPG     H2R      HAL2     0.900000E-01   1.00800           0
      9680 MEMB     78       PMPG     H2S      HAL2     0.900000E-01   1.00800           0
      9681 MEMB     78       PMPG     C3       CTL2     0.800000E-01   12.0110           0
      9682 MEMB     78       PMPG     HX       HAL2     0.900000E-01   1.00800           0
      9683 MEMB     78       PMPG     HY       HAL2     0.900000E-01   1.00800           0
      9684 MEMB     78       PMPG     O31      OSL     -0.490000       15.9994           0
      9685 MEMB     78       PMPG     C31      CL       0.900000       12.0110           0
      9686 MEMB     78       PMPG     O32      OBL     -0.630000       15.9994           0
      9687 MEMB     78       PMPG     C32      CTL2    -0.220000       12.0110           0
      9688 MEMB     78       PMPG     H2X      HAL2     0.900000E-01   1.00800           0
      9689 MEMB     78       PMPG     H2Y      HAL2     0.900000E-01   1.00800           0
      9690 MEMB     78       PMPG     C23      CTL2    -0.180000       12.0110           0
      9691 MEMB     78       PMPG     H3R      HAL2     0.900000E-01   1.00800           0
      9692 MEMB     78       PMPG     H3S      HAL2     0.900000E-01   1.00800           0
      9693 MEMB     78       PMPG     C24      CTL2    -0.180000       12.0110           0
      9694 MEMB     78       PMPG     H4R      HAL2     0.900000E-01   1.00800           0
      9695 MEMB     78       PMPG     H4S      HAL2     0.900000E-01   1.00800           0
      9696 MEMB     78       PMPG     C25      CTL2    -0.180000       12.0110           0
      9697 MEMB     78       PMPG     H5R      HAL2     0.900000E-01   1.00800           0
      9698 MEMB     78       PMPG     H5S      HAL2     0.900000E-01   1.00800           0
      9699 MEMB     78       PMPG     C26      CTL2    -0.180000       12.0110           0
      9700 MEMB     78       PMPG     H6R      HAL2     0.900000E-01   1.00800           0
      9701 MEMB     78       PMPG     H6S      HAL2     0.900000E-01   1.00800           0
      9702 MEMB     78       PMPG     C27      CTL2    -0.180000       12.0110           0
      9703 MEMB     78       PMPG     H7R      HAL2     0.900000E-01   1.00800           0
      9704 MEMB     78       PMPG     H7S      HAL2     0.900000E-01   1.00800           0
      9705 MEMB     78       PMPG     C28      CTL2    -0.180000       12.0110           0
      9706 MEMB     78       PMPG     H8R      HAL2     0.900000E-01   1.00800           0
      9707 MEMB     78       PMPG     H8S      HAL2     0.900000E-01   1.00800           0
      9708 MEMB     78       PMPG     C29      CG3RC1  -0.900000E-01   12.0110           0
      9709 MEMB     78       PMPG     H9R      HGA1     0.900000E-01   1.00800           0
      9710 MEMB     78       PMPG     C217     CG3C31  -0.180000       12.0110           0
      9711 MEMB     78       PMPG     H17R     HGA2     0.900000E-01   1.00800           0
      9712 MEMB     78       PMPG     H17S     HGA2     0.900000E-01   1.00800           0
      9713 MEMB     78       PMPG     C210     CG3RC1  -0.900000E-01   12.0110           0
      9714 MEMB     78       PMPG     H10R     HGA1     0.900000E-01   1.00800           0
      9715 MEMB     78       PMPG     C211     CTL2    -0.180000       12.0110           0
      9716 MEMB     78       PMPG     H11R     HAL2     0.900000E-01   1.00800           0
      9717 MEMB     78       PMPG     H11S     HAL2     0.900000E-01   1.00800           0
      9718 MEMB     78       PMPG     C212     CTL2    -0.180000       12.0110           0
      9719 MEMB     78       PMPG     H12R     HAL2     0.900000E-01   1.00800           0
      9720 MEMB     78       PMPG     H12S     HAL2     0.900000E-01   1.00800           0
      9721 MEMB     78       PMPG     C213     CTL2    -0.180000       12.0110           0
      9722 MEMB     78       PMPG     H13R     HAL2     0.900000E-01   1.00800           0
      9723 MEMB     78       PMPG     H13S     HAL2     0.900000E-01   1.00800           0
      9724 MEMB     78       PMPG     C214     CTL2    -0.180000       12.0110           0
      9725 MEMB     78       PMPG     H14R     HAL2     0.900000E-01   1.00800           0
      9726 MEMB     78       PMPG     H14S     HAL2     0.900000E-01   1.00800           0
      9727 MEMB     78       PMPG     C215     CTL2    -0.180000       12.0110           0
      9728 MEMB     78       PMPG     H15R     HAL2     0.900000E-01   1.00800           0
      9729 MEMB     78       PMPG     H15S     HAL2     0.900000E-01   1.00800           0
      9730 MEMB     78       PMPG     C216     CTL3    -0.270000       12.0110           0
      9731 MEMB     78       PMPG     H16R     HAL3     0.900000E-01   1.00800           0
      9732 MEMB     78       PMPG     H16S     HAL3     0.900000E-01   1.00800           0
      9733 MEMB     78       PMPG     H16T     HAL3     0.900000E-01   1.00800           0
      9734 MEMB     78       PMPG     C33      CTL2    -0.180000       12.0110           0
      9735 MEMB     78       PMPG     H3X      HAL2     0.900000E-01   1.00800           0
      9736 MEMB     78       PMPG     H3Y      HAL2     0.900000E-01   1.00800           0
      9737 MEMB     78       PMPG     C34      CTL2    -0.180000       12.0110           0
      9738 MEMB     78       PMPG     H4X      HAL2     0.900000E-01   1.00800           0
      9739 MEMB     78       PMPG     H4Y      HAL2     0.900000E-01   1.00800           0
      9740 MEMB     78       PMPG     C35      CTL2    -0.180000       12.0110           0
      9741 MEMB     78       PMPG     H5X      HAL2     0.900000E-01   1.00800           0
      9742 MEMB     78       PMPG     H5Y      HAL2     0.900000E-01   1.00800           0
      9743 MEMB     78       PMPG     C36      CTL2    -0.180000       12.0110           0
      9744 MEMB     78       PMPG     H6X      HAL2     0.900000E-01   1.00800           0
      9745 MEMB     78       PMPG     H6Y      HAL2     0.900000E-01   1.00800           0
      9746 MEMB     78       PMPG     C37      CTL2    -0.180000       12.0110           0
      9747 MEMB     78       PMPG     H7X      HAL2     0.900000E-01   1.00800           0
      9748 MEMB     78       PMPG     H7Y      HAL2     0.900000E-01   1.00800           0
      9749 MEMB     78       PMPG     C38      CTL2    -0.180000       12.0110           0
      9750 MEMB     78       PMPG     H8X      HAL2     0.900000E-01   1.00800           0
      9751 MEMB     78       PMPG     H8Y      HAL2     0.900000E-01   1.00800           0
      9752 MEMB     78       PMPG     C39      CTL2    -0.180000       12.0110           0
      9753 MEMB     78       PMPG     H9X      HAL2     0.900000E-01   1.00800           0
      9754 MEMB     78       PMPG     H9Y      HAL2     0.900000E-01   1.00800           0
      9755 MEMB     78       PMPG     C310     CTL2    -0.180000       12.0110           0
      9756 MEMB     78       PMPG     H10X     HAL2     0.900000E-01   1.00800           0
      9757 MEMB     78       PMPG     H10Y     HAL2     0.900000E-01   1.00800           0
      9758 MEMB     78       PMPG     C311     CTL2    -0.180000       12.0110           0
      9759 MEMB     78       PMPG     H11X     HAL2     0.900000E-01   1.00800           0
      9760 MEMB     78       PMPG     H11Y     HAL2     0.900000E-01   1.00800           0
      9761 MEMB     78       PMPG     C312     CTL2    -0.180000       12.0110           0
      9762 MEMB     78       PMPG     H12X     HAL2     0.900000E-01   1.00800           0
      9763 MEMB     78       PMPG     H12Y     HAL2     0.900000E-01   1.00800           0
      9764 MEMB     78       PMPG     C313     CTL2    -0.180000       12.0110           0
      9765 MEMB     78       PMPG     H13X     HAL2     0.900000E-01   1.00800           0
      9766 MEMB     78       PMPG     H13Y     HAL2     0.900000E-01   1.00800           0
      9767 MEMB     78       PMPG     C314     CTL2    -0.180000       12.0110           0
      9768 MEMB     78       PMPG     H14X     HAL2     0.900000E-01   1.00800           0
      9769 MEMB     78       PMPG     H14Y     HAL2     0.900000E-01   1.00800           0
      9770 MEMB     78       PMPG     C315     CTL2    -0.180000       12.0110           0
      9771 MEMB     78       PMPG     H15X     HAL2     0.900000E-01   1.00800           0
      9772 MEMB     78       PMPG     H15Y     HAL2     0.900000E-01   1.00800           0
      9773 MEMB     78       PMPG     C316     CTL3    -0.270000       12.0110           0
      9774 MEMB     78       PMPG     H16X     HAL3     0.900000E-01   1.00800           0
      9775 MEMB     78       PMPG     H16Y     HAL3     0.900000E-01   1.00800           0
      9776 MEMB     78       PMPG     H16Z     HAL3     0.900000E-01   1.00800           0
      9777 MEMB     79       PMPG     C13      CTL2     0.500000E-01   12.0110           0
      9778 MEMB     79       PMPG     H13A     HAL2     0.900000E-01   1.00800           0
      9779 MEMB     79       PMPG     H13B     HAL2     0.900000E-01   1.00800           0
      9780 MEMB     79       PMPG     OC3      OHL     -0.660000       15.9994           0
      9781 MEMB     79       PMPG     HO3      HOL      0.430000       1.00800           0
      9782 MEMB     79       PMPG     C12      CTL1     0.140000       12.0110           0
      9783 MEMB     79       PMPG     H12A     HAL1     0.900000E-01   1.00800           0
      9784 MEMB     79       PMPG     OC2      OHL     -0.660000       15.9994           0
      9785 MEMB     79       PMPG     HO2      HOL      0.430000       1.00800           0
      9786 MEMB     79       PMPG     C11      CTL2    -0.800000E-01   12.0110           0
      9787 MEMB     79       PMPG     H11A     HAL2     0.900000E-01   1.00800           0
      9788 MEMB     79       PMPG     H11B     HAL2     0.900000E-01   1.00800           0
      9789 MEMB     79       PMPG     P        PL        1.50000       30.9740           0
      9790 MEMB     79       PMPG     O13      O2L     -0.780000       15.9994           0
      9791 MEMB     79       PMPG     O14      O2L     -0.780000       15.9994           0
      9792 MEMB     79       PMPG     O11      OSLP    -0.570000       15.9994           0
      9793 MEMB     79       PMPG     O12      OSLP    -0.570000       15.9994           0
      9794 MEMB     79       PMPG     C1       CTL2    -0.800000E-01   12.0110           0
      9795 MEMB     79       PMPG     HA       HAL2     0.900000E-01   1.00800           0
      9796 MEMB     79       PMPG     HB       HAL2     0.900000E-01   1.00800           0
      9797 MEMB     79       PMPG     C2       CTL1     0.170000       12.0110           0
      9798 MEMB     79       PMPG     HS       HAL1     0.900000E-01   1.00800           0
      9799 MEMB     79       PMPG     O21      OSL     -0.490000       15.9994           0
      9800 MEMB     79       PMPG     C21      CL       0.900000       12.0110           0
      9801 MEMB     79       PMPG     O22      OBL     -0.630000       15.9994           0
      9802 MEMB     79       PMPG     C22      CTL2    -0.220000       12.0110           0
      9803 MEMB     79       PMPG     H2R      HAL2     0.900000E-01   1.00800           0
      9804 MEMB     79       PMPG     H2S      HAL2     0.900000E-01   1.00800           0
      9805 MEMB     79       PMPG     C3       CTL2     0.800000E-01   12.0110           0
      9806 MEMB     79       PMPG     HX       HAL2     0.900000E-01   1.00800           0
      9807 MEMB     79       PMPG     HY       HAL2     0.900000E-01   1.00800           0
      9808 MEMB     79       PMPG     O31      OSL     -0.490000       15.9994           0
      9809 MEMB     79       PMPG     C31      CL       0.900000       12.0110           0
      9810 MEMB     79       PMPG     O32      OBL     -0.630000       15.9994           0
      9811 MEMB     79       PMPG     C32      CTL2    -0.220000       12.0110           0
      9812 MEMB     79       PMPG     H2X      HAL2     0.900000E-01   1.00800           0
      9813 MEMB     79       PMPG     H2Y      HAL2     0.900000E-01   1.00800           0
      9814 MEMB     79       PMPG     C23      CTL2    -0.180000       12.0110           0
      9815 MEMB     79       PMPG     H3R      HAL2     0.900000E-01   1.00800           0
      9816 MEMB     79       PMPG     H3S      HAL2     0.900000E-01   1.00800           0
      9817 MEMB     79       PMPG     C24      CTL2    -0.180000       12.0110           0
      9818 MEMB     79       PMPG     H4R      HAL2     0.900000E-01   1.00800           0
      9819 MEMB     79       PMPG     H4S      HAL2     0.900000E-01   1.00800           0
      9820 MEMB     79       PMPG     C25      CTL2    -0.180000       12.0110           0
      9821 MEMB     79       PMPG     H5R      HAL2     0.900000E-01   1.00800           0
      9822 MEMB     79       PMPG     H5S      HAL2     0.900000E-01   1.00800           0
      9823 MEMB     79       PMPG     C26      CTL2    -0.180000       12.0110           0
      9824 MEMB     79       PMPG     H6R      HAL2     0.900000E-01   1.00800           0
      9825 MEMB     79       PMPG     H6S      HAL2     0.900000E-01   1.00800           0
      9826 MEMB     79       PMPG     C27      CTL2    -0.180000       12.0110           0
      9827 MEMB     79       PMPG     H7R      HAL2     0.900000E-01   1.00800           0
      9828 MEMB     79       PMPG     H7S      HAL2     0.900000E-01   1.00800           0
      9829 MEMB     79       PMPG     C28      CTL2    -0.180000       12.0110           0
      9830 MEMB     79       PMPG     H8R      HAL2     0.900000E-01   1.00800           0
      9831 MEMB     79       PMPG     H8S      HAL2     0.900000E-01   1.00800           0
      9832 MEMB     79       PMPG     C29      CG3RC1  -0.900000E-01   12.0110           0
      9833 MEMB     79       PMPG     H9R      HGA1     0.900000E-01   1.00800           0
      9834 MEMB     79       PMPG     C217     CG3C31  -0.180000       12.0110           0
      9835 MEMB     79       PMPG     H17R     HGA2     0.900000E-01   1.00800           0
      9836 MEMB     79       PMPG     H17S     HGA2     0.900000E-01   1.00800           0
      9837 MEMB     79       PMPG     C210     CG3RC1  -0.900000E-01   12.0110           0
      9838 MEMB     79       PMPG     H10R     HGA1     0.900000E-01   1.00800           0
      9839 MEMB     79       PMPG     C211     CTL2    -0.180000       12.0110           0
      9840 MEMB     79       PMPG     H11R     HAL2     0.900000E-01   1.00800           0
      9841 MEMB     79       PMPG     H11S     HAL2     0.900000E-01   1.00800           0
      9842 MEMB     79       PMPG     C212     CTL2    -0.180000       12.0110           0
      9843 MEMB     79       PMPG     H12R     HAL2     0.900000E-01   1.00800           0
      9844 MEMB     79       PMPG     H12S     HAL2     0.900000E-01   1.00800           0
      9845 MEMB     79       PMPG     C213     CTL2    -0.180000       12.0110           0
      9846 MEMB     79       PMPG     H13R     HAL2     0.900000E-01   1.00800           0
      9847 MEMB     79       PMPG     H13S     HAL2     0.900000E-01   1.00800           0
      9848 MEMB     79       PMPG     C214     CTL2    -0.180000       12.0110           0
      9849 MEMB     79       PMPG     H14R     HAL2     0.900000E-01   1.00800           0
      9850 MEMB     79       PMPG     H14S     HAL2     0.900000E-01   1.00800           0
      9851 MEMB     79       PMPG     C215     CTL2    -0.180000       12.0110           0
      9852 MEMB     79       PMPG     H15R     HAL2     0.900000E-01   1.00800           0
      9853 MEMB     79       PMPG     H15S     HAL2     0.900000E-01   1.00800           0
      9854 MEMB     79       PMPG     C216     CTL3    -0.270000       12.0110           0
      9855 MEMB     79       PMPG     H16R     HAL3     0.900000E-01   1.00800           0
      9856 MEMB     79       PMPG     H16S     HAL3     0.900000E-01   1.00800           0
      9857 MEMB     79       PMPG     H16T     HAL3     0.900000E-01   1.00800           0
      9858 MEMB     79       PMPG     C33      CTL2    -0.180000       12.0110           0
      9859 MEMB     79       PMPG     H3X      HAL2     0.900000E-01   1.00800           0
      9860 MEMB     79       PMPG     H3Y      HAL2     0.900000E-01   1.00800           0
      9861 MEMB     79       PMPG     C34      CTL2    -0.180000       12.0110           0
      9862 MEMB     79       PMPG     H4X      HAL2     0.900000E-01   1.00800           0
      9863 MEMB     79       PMPG     H4Y      HAL2     0.900000E-01   1.00800           0
      9864 MEMB     79       PMPG     C35      CTL2    -0.180000       12.0110           0
      9865 MEMB     79       PMPG     H5X      HAL2     0.900000E-01   1.00800           0
      9866 MEMB     79       PMPG     H5Y      HAL2     0.900000E-01   1.00800           0
      9867 MEMB     79       PMPG     C36      CTL2    -0.180000       12.0110           0
      9868 MEMB     79       PMPG     H6X      HAL2     0.900000E-01   1.00800           0
      9869 MEMB     79       PMPG     H6Y      HAL2     0.900000E-01   1.00800           0
      9870 MEMB     79       PMPG     C37      CTL2    -0.180000       12.0110           0
      9871 MEMB     79       PMPG     H7X      HAL2     0.900000E-01   1.00800           0
      9872 MEMB     79       PMPG     H7Y      HAL2     0.900000E-01   1.00800           0
      9873 MEMB     79       PMPG     C38      CTL2    -0.180000       12.0110           0
      9874 MEMB     79       PMPG     H8X      HAL2     0.900000E-01   1.00800           0
      9875 MEMB     79       PMPG     H8Y      HAL2     0.900000E-01   1.00800           0
      9876 MEMB     79       PMPG     C39      CTL2    -0.180000       12.0110           0
      9877 MEMB     79       PMPG     H9X      HAL2     0.900000E-01   1.00800           0
      9878 MEMB     79       PMPG     H9Y      HAL2     0.900000E-01   1.00800           0
      9879 MEMB     79       PMPG     C310     CTL2    -0.180000       12.0110           0
      9880 MEMB     79       PMPG     H10X     HAL2     0.900000E-01   1.00800           0
      9881 MEMB     79       PMPG     H10Y     HAL2     0.900000E-01   1.00800           0
      9882 MEMB     79       PMPG     C311     CTL2    -0.180000       12.0110           0
      9883 MEMB     79       PMPG     H11X     HAL2     0.900000E-01   1.00800           0
      9884 MEMB     79       PMPG     H11Y     HAL2     0.900000E-01   1.00800           0
      9885 MEMB     79       PMPG     C312     CTL2    -0.180000       12.0110           0
      9886 MEMB     79       PMPG     H12X     HAL2     0.900000E-01   1.00800           0
      9887 MEMB     79       PMPG     H12Y     HAL2     0.900000E-01   1.00800           0
      9888 MEMB     79       PMPG     C313     CTL2    -0.180000       12.0110           0
      9889 MEMB     79       PMPG     H13X     HAL2     0.900000E-01   1.00800           0
      9890 MEMB     79       PMPG     H13Y     HAL2     0.900000E-01   1.00800           0
      9891 MEMB     79       PMPG     C314     CTL2    -0.180000       12.0110           0
      9892 MEMB     79       PMPG     H14X     HAL2     0.900000E-01   1.00800           0
      9893 MEMB     79       PMPG     H14Y     HAL2     0.900000E-01   1.00800           0
      9894 MEMB     79       PMPG     C315     CTL2    -0.180000       12.0110           0
      9895 MEMB     79       PMPG     H15X     HAL2     0.900000E-01   1.00800           0
      9896 MEMB     79       PMPG     H15Y     HAL2     0.900000E-01   1.00800           0
      9897 MEMB     79       PMPG     C316     CTL3    -0.270000       12.0110           0
      9898 MEMB     79       PMPG     H16X     HAL3     0.900000E-01   1.00800           0
      9899 MEMB     79       PMPG     H16Y     HAL3     0.900000E-01   1.00800           0
      9900 MEMB     79       PMPG     H16Z     HAL3     0.900000E-01   1.00800           0
      9901 MEMB     80       PMPE     N        NH3L    -0.300000       14.0070           0
      9902 MEMB     80       PMPE     HN1      HCL      0.330000       1.00800           0
      9903 MEMB     80       PMPE     HN2      HCL      0.330000       1.00800           0
      9904 MEMB     80       PMPE     HN3      HCL      0.330000       1.00800           0
      9905 MEMB     80       PMPE     C12      CTL2     0.130000       12.0110           0
      9906 MEMB     80       PMPE     H12A     HAL2     0.900000E-01   1.00800           0
      9907 MEMB     80       PMPE     H12B     HAL2     0.900000E-01   1.00800           0
      9908 MEMB     80       PMPE     C11      CTL2    -0.800000E-01   12.0110           0
      9909 MEMB     80       PMPE     H11A     HAL2     0.900000E-01   1.00800           0
      9910 MEMB     80       PMPE     H11B     HAL2     0.900000E-01   1.00800           0
      9911 MEMB     80       PMPE     P        PL        1.50000       30.9740           0
      9912 MEMB     80       PMPE     O13      O2L     -0.780000       15.9994           0
      9913 MEMB     80       PMPE     O14      O2L     -0.780000       15.9994           0
      9914 MEMB     80       PMPE     O11      OSLP    -0.570000       15.9994           0
      9915 MEMB     80       PMPE     O12      OSLP    -0.570000       15.9994           0
      9916 MEMB     80       PMPE     C1       CTL2    -0.800000E-01   12.0110           0
      9917 MEMB     80       PMPE     HA       HAL2     0.900000E-01   1.00800           0
      9918 MEMB     80       PMPE     HB       HAL2     0.900000E-01   1.00800           0
      9919 MEMB     80       PMPE     C2       CTL1     0.170000       12.0110           0
      9920 MEMB     80       PMPE     HS       HAL1     0.900000E-01   1.00800           0
      9921 MEMB     80       PMPE     O21      OSL     -0.490000       15.9994           0
      9922 MEMB     80       PMPE     C21      CL       0.900000       12.0110           0
      9923 MEMB     80       PMPE     O22      OBL     -0.630000       15.9994           0
      9924 MEMB     80       PMPE     C22      CTL2    -0.220000       12.0110           0
      9925 MEMB     80       PMPE     H2R      HAL2     0.900000E-01   1.00800           0
      9926 MEMB     80       PMPE     H2S      HAL2     0.900000E-01   1.00800           0
      9927 MEMB     80       PMPE     C3       CTL2     0.800000E-01   12.0110           0
      9928 MEMB     80       PMPE     HX       HAL2     0.900000E-01   1.00800           0
      9929 MEMB     80       PMPE     HY       HAL2     0.900000E-01   1.00800           0
      9930 MEMB     80       PMPE     O31      OSL     -0.490000       15.9994           0
      9931 MEMB     80       PMPE     C31      CL       0.900000       12.0110           0
      9932 MEMB     80       PMPE     O32      OBL     -0.630000       15.9994           0
      9933 MEMB     80       PMPE     C32      CTL2    -0.220000       12.0110           0
      9934 MEMB     80       PMPE     H2X      HAL2     0.900000E-01   1.00800           0
      9935 MEMB     80       PMPE     H2Y      HAL2     0.900000E-01   1.00800           0
      9936 MEMB     80       PMPE     C23      CTL2    -0.180000       12.0110           0
      9937 MEMB     80       PMPE     H3R      HAL2     0.900000E-01   1.00800           0
      9938 MEMB     80       PMPE     H3S      HAL2     0.900000E-01   1.00800           0
      9939 MEMB     80       PMPE     C24      CTL2    -0.180000       12.0110           0
      9940 MEMB     80       PMPE     H4R      HAL2     0.900000E-01   1.00800           0
      9941 MEMB     80       PMPE     H4S      HAL2     0.900000E-01   1.00800           0
      9942 MEMB     80       PMPE     C25      CTL2    -0.180000       12.0110           0
      9943 MEMB     80       PMPE     H5R      HAL2     0.900000E-01   1.00800           0
      9944 MEMB     80       PMPE     H5S      HAL2     0.900000E-01   1.00800           0
      9945 MEMB     80       PMPE     C26      CTL2    -0.180000       12.0110           0
      9946 MEMB     80       PMPE     H6R      HAL2     0.900000E-01   1.00800           0
      9947 MEMB     80       PMPE     H6S      HAL2     0.900000E-01   1.00800           0
      9948 MEMB     80       PMPE     C27      CTL2    -0.180000       12.0110           0
      9949 MEMB     80       PMPE     H7R      HAL2     0.900000E-01   1.00800           0
      9950 MEMB     80       PMPE     H7S      HAL2     0.900000E-01   1.00800           0
      9951 MEMB     80       PMPE     C28      CTL2    -0.180000       12.0110           0
      9952 MEMB     80       PMPE     H8R      HAL2     0.900000E-01   1.00800           0
      9953 MEMB     80       PMPE     H8S      HAL2     0.900000E-01   1.00800           0
      9954 MEMB     80       PMPE     C29      CG3RC1  -0.900000E-01   12.0110           0
      9955 MEMB     80       PMPE     H9R      HGA1     0.900000E-01   1.00800           0
      9956 MEMB     80       PMPE     C217     CG3C31  -0.180000       12.0110           0
      9957 MEMB     80       PMPE     H17R     HGA2     0.900000E-01   1.00800           0
      9958 MEMB     80       PMPE     H17S     HGA2     0.900000E-01   1.00800           0
      9959 MEMB     80       PMPE     C210     CG3RC1  -0.900000E-01   12.0110           0
      9960 MEMB     80       PMPE     H10R     HGA1     0.900000E-01   1.00800           0
      9961 MEMB     80       PMPE     C211     CTL2    -0.180000       12.0110           0
      9962 MEMB     80       PMPE     H11R     HAL2     0.900000E-01   1.00800           0
      9963 MEMB     80       PMPE     H11S     HAL2     0.900000E-01   1.00800           0
      9964 MEMB     80       PMPE     C212     CTL2    -0.180000       12.0110           0
      9965 MEMB     80       PMPE     H12R     HAL2     0.900000E-01   1.00800           0
      9966 MEMB     80       PMPE     H12S     HAL2     0.900000E-01   1.00800           0
      9967 MEMB     80       PMPE     C213     CTL2    -0.180000       12.0110           0
      9968 MEMB     80       PMPE     H13R     HAL2     0.900000E-01   1.00800           0
      9969 MEMB     80       PMPE     H13S     HAL2     0.900000E-01   1.00800           0
      9970 MEMB     80       PMPE     C214     CTL2    -0.180000       12.0110           0
      9971 MEMB     80       PMPE     H14R     HAL2     0.900000E-01   1.00800           0
      9972 MEMB     80       PMPE     H14S     HAL2     0.900000E-01   1.00800           0
      9973 MEMB     80       PMPE     C215     CTL2    -0.180000       12.0110           0
      9974 MEMB     80       PMPE     H15R     HAL2     0.900000E-01   1.00800           0
      9975 MEMB     80       PMPE     H15S     HAL2     0.900000E-01   1.00800           0
      9976 MEMB     80       PMPE     C216     CTL3    -0.270000       12.0110           0
      9977 MEMB     80       PMPE     H16R     HAL3     0.900000E-01   1.00800           0
      9978 MEMB     80       PMPE     H16S     HAL3     0.900000E-01   1.00800           0
      9979 MEMB     80       PMPE     H16T     HAL3     0.900000E-01   1.00800           0
      9980 MEMB     80       PMPE     C33      CTL2    -0.180000       12.0110           0
      9981 MEMB     80       PMPE     H3X      HAL2     0.900000E-01   1.00800           0
      9982 MEMB     80       PMPE     H3Y      HAL2     0.900000E-01   1.00800           0
      9983 MEMB     80       PMPE     C34      CTL2    -0.180000       12.0110           0
      9984 MEMB     80       PMPE     H4X      HAL2     0.900000E-01   1.00800           0
      9985 MEMB     80       PMPE     H4Y      HAL2     0.900000E-01   1.00800           0
      9986 MEMB     80       PMPE     C35      CTL2    -0.180000       12.0110           0
      9987 MEMB     80       PMPE     H5X      HAL2     0.900000E-01   1.00800           0
      9988 MEMB     80       PMPE     H5Y      HAL2     0.900000E-01   1.00800           0
      9989 MEMB     80       PMPE     C36      CTL2    -0.180000       12.0110           0
      9990 MEMB     80       PMPE     H6X      HAL2     0.900000E-01   1.00800           0
      9991 MEMB     80       PMPE     H6Y      HAL2     0.900000E-01   1.00800           0
      9992 MEMB     80       PMPE     C37      CTL2    -0.180000       12.0110           0
      9993 MEMB     80       PMPE     H7X      HAL2     0.900000E-01   1.00800           0
      9994 MEMB     80       PMPE     H7Y      HAL2     0.900000E-01   1.00800           0
      9995 MEMB     80       PMPE     C38      CTL2    -0.180000       12.0110           0
      9996 MEMB     80       PMPE     H8X      HAL2     0.900000E-01   1.00800           0
      9997 MEMB     80       PMPE     H8Y      HAL2     0.900000E-01   1.00800           0
      9998 MEMB     80       PMPE     C39      CTL2    -0.180000       12.0110           0
      9999 MEMB     80       PMPE     H9X      HAL2     0.900000E-01   1.00800           0
     10000 MEMB     80       PMPE     H9Y      HAL2     0.900000E-01   1.00800           0
     10001 MEMB     80       PMPE     C310     CTL2    -0.180000       12.0110           0
     10002 MEMB     80       PMPE     H10X     HAL2     0.900000E-01   1.00800           0
     10003 MEMB     80       PMPE     H10Y     HAL2     0.900000E-01   1.00800           0
     10004 MEMB     80       PMPE     C311     CTL2    -0.180000       12.0110           0
     10005 MEMB     80       PMPE     H11X     HAL2     0.900000E-01   1.00800           0
     10006 MEMB     80       PMPE     H11Y     HAL2     0.900000E-01   1.00800           0
     10007 MEMB     80       PMPE     C312     CTL2    -0.180000       12.0110           0
     10008 MEMB     80       PMPE     H12X     HAL2     0.900000E-01   1.00800           0
     10009 MEMB     80       PMPE     H12Y     HAL2     0.900000E-01   1.00800           0
     10010 MEMB     80       PMPE     C313     CTL2    -0.180000       12.0110           0
     10011 MEMB     80       PMPE     H13X     HAL2     0.900000E-01   1.00800           0
     10012 MEMB     80       PMPE     H13Y     HAL2     0.900000E-01   1.00800           0
     10013 MEMB     80       PMPE     C314     CTL2    -0.180000       12.0110           0
     10014 MEMB     80       PMPE     H14X     HAL2     0.900000E-01   1.00800           0
     10015 MEMB     80       PMPE     H14Y     HAL2     0.900000E-01   1.00800           0
     10016 MEMB     80       PMPE     C315     CTL2    -0.180000       12.0110           0
     10017 MEMB     80       PMPE     H15X     HAL2     0.900000E-01   1.00800           0
     10018 MEMB     80       PMPE     H15Y     HAL2     0.900000E-01   1.00800           0
     10019 MEMB     80       PMPE     C316     CTL3    -0.270000       12.0110           0
     10020 MEMB     80       PMPE     H16X     HAL3     0.900000E-01   1.00800           0
     10021 MEMB     80       PMPE     H16Y     HAL3     0.900000E-01   1.00800           0
     10022 MEMB     80       PMPE     H16Z     HAL3     0.900000E-01   1.00800           0
     10023 MEMB     81       POPE     N        NH3L    -0.300000       14.0070           0
     10024 MEMB     81       POPE     HN1      HCL      0.330000       1.00800           0
     10025 MEMB     81       POPE     HN2      HCL      0.330000       1.00800           0
     10026 MEMB     81       POPE     HN3      HCL      0.330000       1.00800           0
     10027 MEMB     81       POPE     C12      CTL2     0.130000       12.0110           0
     10028 MEMB     81       POPE     H12A     HAL2     0.900000E-01   1.00800           0
     10029 MEMB     81       POPE     H12B     HAL2     0.900000E-01   1.00800           0
     10030 MEMB     81       POPE     C11      CTL2    -0.800000E-01   12.0110           0
     10031 MEMB     81       POPE     H11A     HAL2     0.900000E-01   1.00800           0
     10032 MEMB     81       POPE     H11B     HAL2     0.900000E-01   1.00800           0
     10033 MEMB     81       POPE     P        PL        1.50000       30.9740           0
     10034 MEMB     81       POPE     O13      O2L     -0.780000       15.9994           0
     10035 MEMB     81       POPE     O14      O2L     -0.780000       15.9994           0
     10036 MEMB     81       POPE     O11      OSLP    -0.570000       15.9994           0
     10037 MEMB     81       POPE     O12      OSLP    -0.570000       15.9994           0
     10038 MEMB     81       POPE     C1       CTL2    -0.800000E-01   12.0110           0
     10039 MEMB     81       POPE     HA       HAL2     0.900000E-01   1.00800           0
     10040 MEMB     81       POPE     HB       HAL2     0.900000E-01   1.00800           0
     10041 MEMB     81       POPE     C2       CTL1     0.170000       12.0110           0
     10042 MEMB     81       POPE     HS       HAL1     0.900000E-01   1.00800           0
     10043 MEMB     81       POPE     O21      OSL     -0.490000       15.9994           0
     10044 MEMB     81       POPE     C21      CL       0.900000       12.0110           0
     10045 MEMB     81       POPE     O22      OBL     -0.630000       15.9994           0
     10046 MEMB     81       POPE     C22      CTL2    -0.220000       12.0110           0
     10047 MEMB     81       POPE     H2R      HAL2     0.900000E-01   1.00800           0
     10048 MEMB     81       POPE     H2S      HAL2     0.900000E-01   1.00800           0
     10049 MEMB     81       POPE     C3       CTL2     0.800000E-01   12.0110           0
     10050 MEMB     81       POPE     HX       HAL2     0.900000E-01   1.00800           0
     10051 MEMB     81       POPE     HY       HAL2     0.900000E-01   1.00800           0
     10052 MEMB     81       POPE     O31      OSL     -0.490000       15.9994           0
     10053 MEMB     81       POPE     C31      CL       0.900000       12.0110           0
     10054 MEMB     81       POPE     O32      OBL     -0.630000       15.9994           0
     10055 MEMB     81       POPE     C32      CTL2    -0.220000       12.0110           0
     10056 MEMB     81       POPE     H2X      HAL2     0.900000E-01   1.00800           0
     10057 MEMB     81       POPE     H2Y      HAL2     0.900000E-01   1.00800           0
     10058 MEMB     81       POPE     C23      CTL2    -0.180000       12.0110           0
     10059 MEMB     81       POPE     H3R      HAL2     0.900000E-01   1.00800           0
     10060 MEMB     81       POPE     H3S      HAL2     0.900000E-01   1.00800           0
     10061 MEMB     81       POPE     C24      CTL2    -0.180000       12.0110           0
     10062 MEMB     81       POPE     H4R      HAL2     0.900000E-01   1.00800           0
     10063 MEMB     81       POPE     H4S      HAL2     0.900000E-01   1.00800           0
     10064 MEMB     81       POPE     C25      CTL2    -0.180000       12.0110           0
     10065 MEMB     81       POPE     H5R      HAL2     0.900000E-01   1.00800           0
     10066 MEMB     81       POPE     H5S      HAL2     0.900000E-01   1.00800           0
     10067 MEMB     81       POPE     C26      CTL2    -0.180000       12.0110           0
     10068 MEMB     81       POPE     H6R      HAL2     0.900000E-01   1.00800           0
     10069 MEMB     81       POPE     H6S      HAL2     0.900000E-01   1.00800           0
     10070 MEMB     81       POPE     C27      CTL2    -0.180000       12.0110           0
     10071 MEMB     81       POPE     H7R      HAL2     0.900000E-01   1.00800           0
     10072 MEMB     81       POPE     H7S      HAL2     0.900000E-01   1.00800           0
     10073 MEMB     81       POPE     C28      CTL2    -0.180000       12.0110           0
     10074 MEMB     81       POPE     H8R      HAL2     0.900000E-01   1.00800           0
     10075 MEMB     81       POPE     H8S      HAL2     0.900000E-01   1.00800           0
     10076 MEMB     81       POPE     C29      CEL1    -0.150000       12.0110           0
     10077 MEMB     81       POPE     H91      HEL1     0.150000       1.00800           0
     10078 MEMB     81       POPE     C210     CEL1    -0.150000       12.0110           0
     10079 MEMB     81       POPE     H101     HEL1     0.150000       1.00800           0
     10080 MEMB     81       POPE     C211     CTL2    -0.180000       12.0110           0
     10081 MEMB     81       POPE     H11R     HAL2     0.900000E-01   1.00800           0
     10082 MEMB     81       POPE     H11S     HAL2     0.900000E-01   1.00800           0
     10083 MEMB     81       POPE     C212     CTL2    -0.180000       12.0110           0
     10084 MEMB     81       POPE     H12R     HAL2     0.900000E-01   1.00800           0
     10085 MEMB     81       POPE     H12S     HAL2     0.900000E-01   1.00800           0
     10086 MEMB     81       POPE     C213     CTL2    -0.180000       12.0110           0
     10087 MEMB     81       POPE     H13R     HAL2     0.900000E-01   1.00800           0
     10088 MEMB     81       POPE     H13S     HAL2     0.900000E-01   1.00800           0
     10089 MEMB     81       POPE     C214     CTL2    -0.180000       12.0110           0
     10090 MEMB     81       POPE     H14R     HAL2     0.900000E-01   1.00800           0
     10091 MEMB     81       POPE     H14S     HAL2     0.900000E-01   1.00800           0
     10092 MEMB     81       POPE     C215     CTL2    -0.180000       12.0110           0
     10093 MEMB     81       POPE     H15R     HAL2     0.900000E-01   1.00800           0
     10094 MEMB     81       POPE     H15S     HAL2     0.900000E-01   1.00800           0
     10095 MEMB     81       POPE     C216     CTL2    -0.180000       12.0110           0
     10096 MEMB     81       POPE     H16R     HAL2     0.900000E-01   1.00800           0
     10097 MEMB     81       POPE     H16S     HAL2     0.900000E-01   1.00800           0
     10098 MEMB     81       POPE     C217     CTL2    -0.180000       12.0110           0
     10099 MEMB     81       POPE     H17R     HAL2     0.900000E-01   1.00800           0
     10100 MEMB     81       POPE     H17S     HAL2     0.900000E-01   1.00800           0
     10101 MEMB     81       POPE     C218     CTL3    -0.270000       12.0110           0
     10102 MEMB     81       POPE     H18R     HAL3     0.900000E-01   1.00800           0
     10103 MEMB     81       POPE     H18S     HAL3     0.900000E-01   1.00800           0
     10104 MEMB     81       POPE     H18T     HAL3     0.900000E-01   1.00800           0
     10105 MEMB     81       POPE     C33      CTL2    -0.180000       12.0110           0
     10106 MEMB     81       POPE     H3X      HAL2     0.900000E-01   1.00800           0
     10107 MEMB     81       POPE     H3Y      HAL2     0.900000E-01   1.00800           0
     10108 MEMB     81       POPE     C34      CTL2    -0.180000       12.0110           0
     10109 MEMB     81       POPE     H4X      HAL2     0.900000E-01   1.00800           0
     10110 MEMB     81       POPE     H4Y      HAL2     0.900000E-01   1.00800           0
     10111 MEMB     81       POPE     C35      CTL2    -0.180000       12.0110           0
     10112 MEMB     81       POPE     H5X      HAL2     0.900000E-01   1.00800           0
     10113 MEMB     81       POPE     H5Y      HAL2     0.900000E-01   1.00800           0
     10114 MEMB     81       POPE     C36      CTL2    -0.180000       12.0110           0
     10115 MEMB     81       POPE     H6X      HAL2     0.900000E-01   1.00800           0
     10116 MEMB     81       POPE     H6Y      HAL2     0.900000E-01   1.00800           0
     10117 MEMB     81       POPE     C37      CTL2    -0.180000       12.0110           0
     10118 MEMB     81       POPE     H7X      HAL2     0.900000E-01   1.00800           0
     10119 MEMB     81       POPE     H7Y      HAL2     0.900000E-01   1.00800           0
     10120 MEMB     81       POPE     C38      CTL2    -0.180000       12.0110           0
     10121 MEMB     81       POPE     H8X      HAL2     0.900000E-01   1.00800           0
     10122 MEMB     81       POPE     H8Y      HAL2     0.900000E-01   1.00800           0
     10123 MEMB     81       POPE     C39      CTL2    -0.180000       12.0110           0
     10124 MEMB     81       POPE     H9X      HAL2     0.900000E-01   1.00800           0
     10125 MEMB     81       POPE     H9Y      HAL2     0.900000E-01   1.00800           0
     10126 MEMB     81       POPE     C310     CTL2    -0.180000       12.0110           0
     10127 MEMB     81       POPE     H10X     HAL2     0.900000E-01   1.00800           0
     10128 MEMB     81       POPE     H10Y     HAL2     0.900000E-01   1.00800           0
     10129 MEMB     81       POPE     C311     CTL2    -0.180000       12.0110           0
     10130 MEMB     81       POPE     H11X     HAL2     0.900000E-01   1.00800           0
     10131 MEMB     81       POPE     H11Y     HAL2     0.900000E-01   1.00800           0
     10132 MEMB     81       POPE     C312     CTL2    -0.180000       12.0110           0
     10133 MEMB     81       POPE     H12X     HAL2     0.900000E-01   1.00800           0
     10134 MEMB     81       POPE     H12Y     HAL2     0.900000E-01   1.00800           0
     10135 MEMB     81       POPE     C313     CTL2    -0.180000       12.0110           0
     10136 MEMB     81       POPE     H13X     HAL2     0.900000E-01   1.00800           0
     10137 MEMB     81       POPE     H13Y     HAL2     0.900000E-01   1.00800           0
     10138 MEMB     81       POPE     C314     CTL2    -0.180000       12.0110           0
     10139 MEMB     81       POPE     H14X     HAL2     0.900000E-01   1.00800           0
     10140 MEMB     81       POPE     H14Y     HAL2     0.900000E-01   1.00800           0
     10141 MEMB     81       POPE     C315     CTL2    -0.180000       12.0110           0
     10142 MEMB     81       POPE     H15X     HAL2     0.900000E-01   1.00800           0
     10143 MEMB     81       POPE     H15Y     HAL2     0.900000E-01   1.00800           0
     10144 MEMB     81       POPE     C316     CTL3    -0.270000       12.0110           0
     10145 MEMB     81       POPE     H16X     HAL3     0.900000E-01   1.00800           0
     10146 MEMB     81       POPE     H16Y     HAL3     0.900000E-01   1.00800           0
     10147 MEMB     81       POPE     H16Z     HAL3     0.900000E-01   1.00800           0
     10148 MEMB     82       PMPE     N        NH3L    -0.300000       14.0070           0
     10149 MEMB     82       PMPE     HN1      HCL      0.330000       1.00800           0
     10150 MEMB     82       PMPE     HN2      HCL      0.330000       1.00800           0
     10151 MEMB     82       PMPE     HN3      HCL      0.330000       1.00800           0
     10152 MEMB     82       PMPE     C12      CTL2     0.130000       12.0110           0
     10153 MEMB     82       PMPE     H12A     HAL2     0.900000E-01   1.00800           0
     10154 MEMB     82       PMPE     H12B     HAL2     0.900000E-01   1.00800           0
     10155 MEMB     82       PMPE     C11      CTL2    -0.800000E-01   12.0110           0
     10156 MEMB     82       PMPE     H11A     HAL2     0.900000E-01   1.00800           0
     10157 MEMB     82       PMPE     H11B     HAL2     0.900000E-01   1.00800           0
     10158 MEMB     82       PMPE     P        PL        1.50000       30.9740           0
     10159 MEMB     82       PMPE     O13      O2L     -0.780000       15.9994           0
     10160 MEMB     82       PMPE     O14      O2L     -0.780000       15.9994           0
     10161 MEMB     82       PMPE     O11      OSLP    -0.570000       15.9994           0
     10162 MEMB     82       PMPE     O12      OSLP    -0.570000       15.9994           0
     10163 MEMB     82       PMPE     C1       CTL2    -0.800000E-01   12.0110           0
     10164 MEMB     82       PMPE     HA       HAL2     0.900000E-01   1.00800           0
     10165 MEMB     82       PMPE     HB       HAL2     0.900000E-01   1.00800           0
     10166 MEMB     82       PMPE     C2       CTL1     0.170000       12.0110           0
     10167 MEMB     82       PMPE     HS       HAL1     0.900000E-01   1.00800           0
     10168 MEMB     82       PMPE     O21      OSL     -0.490000       15.9994           0
     10169 MEMB     82       PMPE     C21      CL       0.900000       12.0110           0
     10170 MEMB     82       PMPE     O22      OBL     -0.630000       15.9994           0
     10171 MEMB     82       PMPE     C22      CTL2    -0.220000       12.0110           0
     10172 MEMB     82       PMPE     H2R      HAL2     0.900000E-01   1.00800           0
     10173 MEMB     82       PMPE     H2S      HAL2     0.900000E-01   1.00800           0
     10174 MEMB     82       PMPE     C3       CTL2     0.800000E-01   12.0110           0
     10175 MEMB     82       PMPE     HX       HAL2     0.900000E-01   1.00800           0
     10176 MEMB     82       PMPE     HY       HAL2     0.900000E-01   1.00800           0
     10177 MEMB     82       PMPE     O31      OSL     -0.490000       15.9994           0
     10178 MEMB     82       PMPE     C31      CL       0.900000       12.0110           0
     10179 MEMB     82       PMPE     O32      OBL     -0.630000       15.9994           0
     10180 MEMB     82       PMPE     C32      CTL2    -0.220000       12.0110           0
     10181 MEMB     82       PMPE     H2X      HAL2     0.900000E-01   1.00800           0
     10182 MEMB     82       PMPE     H2Y      HAL2     0.900000E-01   1.00800           0
     10183 MEMB     82       PMPE     C23      CTL2    -0.180000       12.0110           0
     10184 MEMB     82       PMPE     H3R      HAL2     0.900000E-01   1.00800           0
     10185 MEMB     82       PMPE     H3S      HAL2     0.900000E-01   1.00800           0
     10186 MEMB     82       PMPE     C24      CTL2    -0.180000       12.0110           0
     10187 MEMB     82       PMPE     H4R      HAL2     0.900000E-01   1.00800           0
     10188 MEMB     82       PMPE     H4S      HAL2     0.900000E-01   1.00800           0
     10189 MEMB     82       PMPE     C25      CTL2    -0.180000       12.0110           0
     10190 MEMB     82       PMPE     H5R      HAL2     0.900000E-01   1.00800           0
     10191 MEMB     82       PMPE     H5S      HAL2     0.900000E-01   1.00800           0
     10192 MEMB     82       PMPE     C26      CTL2    -0.180000       12.0110           0
     10193 MEMB     82       PMPE     H6R      HAL2     0.900000E-01   1.00800           0
     10194 MEMB     82       PMPE     H6S      HAL2     0.900000E-01   1.00800           0
     10195 MEMB     82       PMPE     C27      CTL2    -0.180000       12.0110           0
     10196 MEMB     82       PMPE     H7R      HAL2     0.900000E-01   1.00800           0
     10197 MEMB     82       PMPE     H7S      HAL2     0.900000E-01   1.00800           0
     10198 MEMB     82       PMPE     C28      CTL2    -0.180000       12.0110           0
     10199 MEMB     82       PMPE     H8R      HAL2     0.900000E-01   1.00800           0
     10200 MEMB     82       PMPE     H8S      HAL2     0.900000E-01   1.00800           0
     10201 MEMB     82       PMPE     C29      CG3RC1  -0.900000E-01   12.0110           0
     10202 MEMB     82       PMPE     H9R      HGA1     0.900000E-01   1.00800           0
     10203 MEMB     82       PMPE     C217     CG3C31  -0.180000       12.0110           0
     10204 MEMB     82       PMPE     H17R     HGA2     0.900000E-01   1.00800           0
     10205 MEMB     82       PMPE     H17S     HGA2     0.900000E-01   1.00800           0
     10206 MEMB     82       PMPE     C210     CG3RC1  -0.900000E-01   12.0110           0
     10207 MEMB     82       PMPE     H10R     HGA1     0.900000E-01   1.00800           0
     10208 MEMB     82       PMPE     C211     CTL2    -0.180000       12.0110           0
     10209 MEMB     82       PMPE     H11R     HAL2     0.900000E-01   1.00800           0
     10210 MEMB     82       PMPE     H11S     HAL2     0.900000E-01   1.00800           0
     10211 MEMB     82       PMPE     C212     CTL2    -0.180000       12.0110           0
     10212 MEMB     82       PMPE     H12R     HAL2     0.900000E-01   1.00800           0
     10213 MEMB     82       PMPE     H12S     HAL2     0.900000E-01   1.00800           0
     10214 MEMB     82       PMPE     C213     CTL2    -0.180000       12.0110           0
     10215 MEMB     82       PMPE     H13R     HAL2     0.900000E-01   1.00800           0
     10216 MEMB     82       PMPE     H13S     HAL2     0.900000E-01   1.00800           0
     10217 MEMB     82       PMPE     C214     CTL2    -0.180000       12.0110           0
     10218 MEMB     82       PMPE     H14R     HAL2     0.900000E-01   1.00800           0
     10219 MEMB     82       PMPE     H14S     HAL2     0.900000E-01   1.00800           0
     10220 MEMB     82       PMPE     C215     CTL2    -0.180000       12.0110           0
     10221 MEMB     82       PMPE     H15R     HAL2     0.900000E-01   1.00800           0
     10222 MEMB     82       PMPE     H15S     HAL2     0.900000E-01   1.00800           0
     10223 MEMB     82       PMPE     C216     CTL3    -0.270000       12.0110           0
     10224 MEMB     82       PMPE     H16R     HAL3     0.900000E-01   1.00800           0
     10225 MEMB     82       PMPE     H16S     HAL3     0.900000E-01   1.00800           0
     10226 MEMB     82       PMPE     H16T     HAL3     0.900000E-01   1.00800           0
     10227 MEMB     82       PMPE     C33      CTL2    -0.180000       12.0110           0
     10228 MEMB     82       PMPE     H3X      HAL2     0.900000E-01   1.00800           0
     10229 MEMB     82       PMPE     H3Y      HAL2     0.900000E-01   1.00800           0
     10230 MEMB     82       PMPE     C34      CTL2    -0.180000       12.0110           0
     10231 MEMB     82       PMPE     H4X      HAL2     0.900000E-01   1.00800           0
     10232 MEMB     82       PMPE     H4Y      HAL2     0.900000E-01   1.00800           0
     10233 MEMB     82       PMPE     C35      CTL2    -0.180000       12.0110           0
     10234 MEMB     82       PMPE     H5X      HAL2     0.900000E-01   1.00800           0
     10235 MEMB     82       PMPE     H5Y      HAL2     0.900000E-01   1.00800           0
     10236 MEMB     82       PMPE     C36      CTL2    -0.180000       12.0110           0
     10237 MEMB     82       PMPE     H6X      HAL2     0.900000E-01   1.00800           0
     10238 MEMB     82       PMPE     H6Y      HAL2     0.900000E-01   1.00800           0
     10239 MEMB     82       PMPE     C37      CTL2    -0.180000       12.0110           0
     10240 MEMB     82       PMPE     H7X      HAL2     0.900000E-01   1.00800           0
     10241 MEMB     82       PMPE     H7Y      HAL2     0.900000E-01   1.00800           0
     10242 MEMB     82       PMPE     C38      CTL2    -0.180000       12.0110           0
     10243 MEMB     82       PMPE     H8X      HAL2     0.900000E-01   1.00800           0
     10244 MEMB     82       PMPE     H8Y      HAL2     0.900000E-01   1.00800           0
     10245 MEMB     82       PMPE     C39      CTL2    -0.180000       12.0110           0
     10246 MEMB     82       PMPE     H9X      HAL2     0.900000E-01   1.00800           0
     10247 MEMB     82       PMPE     H9Y      HAL2     0.900000E-01   1.00800           0
     10248 MEMB     82       PMPE     C310     CTL2    -0.180000       12.0110           0
     10249 MEMB     82       PMPE     H10X     HAL2     0.900000E-01   1.00800           0
     10250 MEMB     82       PMPE     H10Y     HAL2     0.900000E-01   1.00800           0
     10251 MEMB     82       PMPE     C311     CTL2    -0.180000       12.0110           0
     10252 MEMB     82       PMPE     H11X     HAL2     0.900000E-01   1.00800           0
     10253 MEMB     82       PMPE     H11Y     HAL2     0.900000E-01   1.00800           0
     10254 MEMB     82       PMPE     C312     CTL2    -0.180000       12.0110           0
     10255 MEMB     82       PMPE     H12X     HAL2     0.900000E-01   1.00800           0
     10256 MEMB     82       PMPE     H12Y     HAL2     0.900000E-01   1.00800           0
     10257 MEMB     82       PMPE     C313     CTL2    -0.180000       12.0110           0
     10258 MEMB     82       PMPE     H13X     HAL2     0.900000E-01   1.00800           0
     10259 MEMB     82       PMPE     H13Y     HAL2     0.900000E-01   1.00800           0
     10260 MEMB     82       PMPE     C314     CTL2    -0.180000       12.0110           0
     10261 MEMB     82       PMPE     H14X     HAL2     0.900000E-01   1.00800           0
     10262 MEMB     82       PMPE     H14Y     HAL2     0.900000E-01   1.00800           0
     10263 MEMB     82       PMPE     C315     CTL2    -0.180000       12.0110           0
     10264 MEMB     82       PMPE     H15X     HAL2     0.900000E-01   1.00800           0
     10265 MEMB     82       PMPE     H15Y     HAL2     0.900000E-01   1.00800           0
     10266 MEMB     82       PMPE     C316     CTL3    -0.270000       12.0110           0
     10267 MEMB     82       PMPE     H16X     HAL3     0.900000E-01   1.00800           0
     10268 MEMB     82       PMPE     H16Y     HAL3     0.900000E-01   1.00800           0
     10269 MEMB     82       PMPE     H16Z     HAL3     0.900000E-01   1.00800           0
     10270 MEMB     83       PYPG     C13      CTL2     0.500000E-01   12.0110           0
     10271 MEMB     83       PYPG     H13A     HAL2     0.900000E-01   1.00800           0
     10272 MEMB     83       PYPG     H13B     HAL2     0.900000E-01   1.00800           0
     10273 MEMB     83       PYPG     OC3      OHL     -0.660000       15.9994           0
     10274 MEMB     83       PYPG     HO3      HOL      0.430000       1.00800           0
     10275 MEMB     83       PYPG     C12      CTL1     0.140000       12.0110           0
     10276 MEMB     83       PYPG     H12A     HAL1     0.900000E-01   1.00800           0
     10277 MEMB     83       PYPG     OC2      OHL     -0.660000       15.9994           0
     10278 MEMB     83       PYPG     HO2      HOL      0.430000       1.00800           0
     10279 MEMB     83       PYPG     C11      CTL2    -0.800000E-01   12.0110           0
     10280 MEMB     83       PYPG     H11A     HAL2     0.900000E-01   1.00800           0
     10281 MEMB     83       PYPG     H11B     HAL2     0.900000E-01   1.00800           0
     10282 MEMB     83       PYPG     P        PL        1.50000       30.9740           0
     10283 MEMB     83       PYPG     O13      O2L     -0.780000       15.9994           0
     10284 MEMB     83       PYPG     O14      O2L     -0.780000       15.9994           0
     10285 MEMB     83       PYPG     O11      OSLP    -0.570000       15.9994           0
     10286 MEMB     83       PYPG     O12      OSLP    -0.570000       15.9994           0
     10287 MEMB     83       PYPG     C1       CTL2    -0.800000E-01   12.0110           0
     10288 MEMB     83       PYPG     HA       HAL2     0.900000E-01   1.00800           0
     10289 MEMB     83       PYPG     HB       HAL2     0.900000E-01   1.00800           0
     10290 MEMB     83       PYPG     C2       CTL1     0.170000       12.0110           0
     10291 MEMB     83       PYPG     HS       HAL1     0.900000E-01   1.00800           0
     10292 MEMB     83       PYPG     O21      OSL     -0.490000       15.9994           0
     10293 MEMB     83       PYPG     C21      CL       0.900000       12.0110           0
     10294 MEMB     83       PYPG     O22      OBL     -0.630000       15.9994           0
     10295 MEMB     83       PYPG     C22      CTL2    -0.220000       12.0110           0
     10296 MEMB     83       PYPG     H2R      HAL2     0.900000E-01   1.00800           0
     10297 MEMB     83       PYPG     H2S      HAL2     0.900000E-01   1.00800           0
     10298 MEMB     83       PYPG     C3       CTL2     0.800000E-01   12.0110           0
     10299 MEMB     83       PYPG     HX       HAL2     0.900000E-01   1.00800           0
     10300 MEMB     83       PYPG     HY       HAL2     0.900000E-01   1.00800           0
     10301 MEMB     83       PYPG     O31      OSL     -0.490000       15.9994           0
     10302 MEMB     83       PYPG     C31      CL       0.900000       12.0110           0
     10303 MEMB     83       PYPG     O32      OBL     -0.630000       15.9994           0
     10304 MEMB     83       PYPG     C32      CTL2    -0.220000       12.0110           0
     10305 MEMB     83       PYPG     H2X      HAL2     0.900000E-01   1.00800           0
     10306 MEMB     83       PYPG     H2Y      HAL2     0.900000E-01   1.00800           0
     10307 MEMB     83       PYPG     C23      CTL2    -0.180000       12.0110           0
     10308 MEMB     83       PYPG     H3R      HAL2     0.900000E-01   1.00800           0
     10309 MEMB     83       PYPG     H3S      HAL2     0.900000E-01   1.00800           0
     10310 MEMB     83       PYPG     C24      CTL2    -0.180000       12.0110           0
     10311 MEMB     83       PYPG     H4R      HAL2     0.900000E-01   1.00800           0
     10312 MEMB     83       PYPG     H4S      HAL2     0.900000E-01   1.00800           0
     10313 MEMB     83       PYPG     C25      CTL2    -0.180000       12.0110           0
     10314 MEMB     83       PYPG     H5R      HAL2     0.900000E-01   1.00800           0
     10315 MEMB     83       PYPG     H5S      HAL2     0.900000E-01   1.00800           0
     10316 MEMB     83       PYPG     C26      CTL2    -0.180000       12.0110           0
     10317 MEMB     83       PYPG     H6R      HAL2     0.900000E-01   1.00800           0
     10318 MEMB     83       PYPG     H6S      HAL2     0.900000E-01   1.00800           0
     10319 MEMB     83       PYPG     C27      CTL2    -0.180000       12.0110           0
     10320 MEMB     83       PYPG     H7R      HAL2     0.900000E-01   1.00800           0
     10321 MEMB     83       PYPG     H7S      HAL2     0.900000E-01   1.00800           0
     10322 MEMB     83       PYPG     C28      CTL2    -0.180000       12.0110           0
     10323 MEMB     83       PYPG     H8R      HAL2     0.900000E-01   1.00800           0
     10324 MEMB     83       PYPG     H8S      HAL2     0.900000E-01   1.00800           0
     10325 MEMB     83       PYPG     C29      CEL1    -0.150000       12.0110           0
     10326 MEMB     83       PYPG     H9R      HEL1     0.150000       1.00800           0
     10327 MEMB     83       PYPG     C210     CEL1    -0.150000       12.0110           0
     10328 MEMB     83       PYPG     H10R     HEL1     0.150000       1.00800           0
     10329 MEMB     83       PYPG     C211     CTL2    -0.180000       12.0110           0
     10330 MEMB     83       PYPG     H11R     HAL2     0.900000E-01   1.00800           0
     10331 MEMB     83       PYPG     H11S     HAL2     0.900000E-01   1.00800           0
     10332 MEMB     83       PYPG     C212     CTL2    -0.180000       12.0110           0
     10333 MEMB     83       PYPG     H12R     HAL2     0.900000E-01   1.00800           0
     10334 MEMB     83       PYPG     H12S     HAL2     0.900000E-01   1.00800           0
     10335 MEMB     83       PYPG     C213     CTL2    -0.180000       12.0110           0
     10336 MEMB     83       PYPG     H13R     HAL2     0.900000E-01   1.00800           0
     10337 MEMB     83       PYPG     H13S     HAL2     0.900000E-01   1.00800           0
     10338 MEMB     83       PYPG     C214     CTL2    -0.180000       12.0110           0
     10339 MEMB     83       PYPG     H14R     HAL2     0.900000E-01   1.00800           0
     10340 MEMB     83       PYPG     H14S     HAL2     0.900000E-01   1.00800           0
     10341 MEMB     83       PYPG     C215     CTL2    -0.180000       12.0110           0
     10342 MEMB     83       PYPG     H15R     HAL2     0.900000E-01   1.00800           0
     10343 MEMB     83       PYPG     H15S     HAL2     0.900000E-01   1.00800           0
     10344 MEMB     83       PYPG     C216     CTL3    -0.270000       12.0110           0
     10345 MEMB     83       PYPG     H16R     HAL3     0.900000E-01   1.00800           0
     10346 MEMB     83       PYPG     H16S     HAL3     0.900000E-01   1.00800           0
     10347 MEMB     83       PYPG     H16T     HAL3     0.900000E-01   1.00800           0
     10348 MEMB     83       PYPG     C33      CTL2    -0.180000       12.0110           0
     10349 MEMB     83       PYPG     H3X      HAL2     0.900000E-01   1.00800           0
     10350 MEMB     83       PYPG     H3Y      HAL2     0.900000E-01   1.00800           0
     10351 MEMB     83       PYPG     C34      CTL2    -0.180000       12.0110           0
     10352 MEMB     83       PYPG     H4X      HAL2     0.900000E-01   1.00800           0
     10353 MEMB     83       PYPG     H4Y      HAL2     0.900000E-01   1.00800           0
     10354 MEMB     83       PYPG     C35      CTL2    -0.180000       12.0110           0
     10355 MEMB     83       PYPG     H5X      HAL2     0.900000E-01   1.00800           0
     10356 MEMB     83       PYPG     H5Y      HAL2     0.900000E-01   1.00800           0
     10357 MEMB     83       PYPG     C36      CTL2    -0.180000       12.0110           0
     10358 MEMB     83       PYPG     H6X      HAL2     0.900000E-01   1.00800           0
     10359 MEMB     83       PYPG     H6Y      HAL2     0.900000E-01   1.00800           0
     10360 MEMB     83       PYPG     C37      CTL2    -0.180000       12.0110           0
     10361 MEMB     83       PYPG     H7X      HAL2     0.900000E-01   1.00800           0
     10362 MEMB     83       PYPG     H7Y      HAL2     0.900000E-01   1.00800           0
     10363 MEMB     83       PYPG     C38      CTL2    -0.180000       12.0110           0
     10364 MEMB     83       PYPG     H8X      HAL2     0.900000E-01   1.00800           0
     10365 MEMB     83       PYPG     H8Y      HAL2     0.900000E-01   1.00800           0
     10366 MEMB     83       PYPG     C39      CTL2    -0.180000       12.0110           0
     10367 MEMB     83       PYPG     H9X      HAL2     0.900000E-01   1.00800           0
     10368 MEMB     83       PYPG     H9Y      HAL2     0.900000E-01   1.00800           0
     10369 MEMB     83       PYPG     C310     CTL2    -0.180000       12.0110           0
     10370 MEMB     83       PYPG     H10X     HAL2     0.900000E-01   1.00800           0
     10371 MEMB     83       PYPG     H10Y     HAL2     0.900000E-01   1.00800           0
     10372 MEMB     83       PYPG     C311     CTL2    -0.180000       12.0110           0
     10373 MEMB     83       PYPG     H11X     HAL2     0.900000E-01   1.00800           0
     10374 MEMB     83       PYPG     H11Y     HAL2     0.900000E-01   1.00800           0
     10375 MEMB     83       PYPG     C312     CTL2    -0.180000       12.0110           0
     10376 MEMB     83       PYPG     H12X     HAL2     0.900000E-01   1.00800           0
     10377 MEMB     83       PYPG     H12Y     HAL2     0.900000E-01   1.00800           0
     10378 MEMB     83       PYPG     C313     CTL2    -0.180000       12.0110           0
     10379 MEMB     83       PYPG     H13X     HAL2     0.900000E-01   1.00800           0
     10380 MEMB     83       PYPG     H13Y     HAL2     0.900000E-01   1.00800           0
     10381 MEMB     83       PYPG     C314     CTL2    -0.180000       12.0110           0
     10382 MEMB     83       PYPG     H14X     HAL2     0.900000E-01   1.00800           0
     10383 MEMB     83       PYPG     H14Y     HAL2     0.900000E-01   1.00800           0
     10384 MEMB     83       PYPG     C315     CTL2    -0.180000       12.0110           0
     10385 MEMB     83       PYPG     H15X     HAL2     0.900000E-01   1.00800           0
     10386 MEMB     83       PYPG     H15Y     HAL2     0.900000E-01   1.00800           0
     10387 MEMB     83       PYPG     C316     CTL3    -0.270000       12.0110           0
     10388 MEMB     83       PYPG     H16X     HAL3     0.900000E-01   1.00800           0
     10389 MEMB     83       PYPG     H16Y     HAL3     0.900000E-01   1.00800           0
     10390 MEMB     83       PYPG     H16Z     HAL3     0.900000E-01   1.00800           0
     10391 MEMB     84       PMPG     C13      CTL2     0.500000E-01   12.0110           0
     10392 MEMB     84       PMPG     H13A     HAL2     0.900000E-01   1.00800           0
     10393 MEMB     84       PMPG     H13B     HAL2     0.900000E-01   1.00800           0
     10394 MEMB     84       PMPG     OC3      OHL     -0.660000       15.9994           0
     10395 MEMB     84       PMPG     HO3      HOL      0.430000       1.00800           0
     10396 MEMB     84       PMPG     C12      CTL1     0.140000       12.0110           0
     10397 MEMB     84       PMPG     H12A     HAL1     0.900000E-01   1.00800           0
     10398 MEMB     84       PMPG     OC2      OHL     -0.660000       15.9994           0
     10399 MEMB     84       PMPG     HO2      HOL      0.430000       1.00800           0
     10400 MEMB     84       PMPG     C11      CTL2    -0.800000E-01   12.0110           0
     10401 MEMB     84       PMPG     H11A     HAL2     0.900000E-01   1.00800           0
     10402 MEMB     84       PMPG     H11B     HAL2     0.900000E-01   1.00800           0
     10403 MEMB     84       PMPG     P        PL        1.50000       30.9740           0
     10404 MEMB     84       PMPG     O13      O2L     -0.780000       15.9994           0
     10405 MEMB     84       PMPG     O14      O2L     -0.780000       15.9994           0
     10406 MEMB     84       PMPG     O11      OSLP    -0.570000       15.9994           0
     10407 MEMB     84       PMPG     O12      OSLP    -0.570000       15.9994           0
     10408 MEMB     84       PMPG     C1       CTL2    -0.800000E-01   12.0110           0
     10409 MEMB     84       PMPG     HA       HAL2     0.900000E-01   1.00800           0
     10410 MEMB     84       PMPG     HB       HAL2     0.900000E-01   1.00800           0
     10411 MEMB     84       PMPG     C2       CTL1     0.170000       12.0110           0
     10412 MEMB     84       PMPG     HS       HAL1     0.900000E-01   1.00800           0
     10413 MEMB     84       PMPG     O21      OSL     -0.490000       15.9994           0
     10414 MEMB     84       PMPG     C21      CL       0.900000       12.0110           0
     10415 MEMB     84       PMPG     O22      OBL     -0.630000       15.9994           0
     10416 MEMB     84       PMPG     C22      CTL2    -0.220000       12.0110           0
     10417 MEMB     84       PMPG     H2R      HAL2     0.900000E-01   1.00800           0
     10418 MEMB     84       PMPG     H2S      HAL2     0.900000E-01   1.00800           0
     10419 MEMB     84       PMPG     C3       CTL2     0.800000E-01   12.0110           0
     10420 MEMB     84       PMPG     HX       HAL2     0.900000E-01   1.00800           0
     10421 MEMB     84       PMPG     HY       HAL2     0.900000E-01   1.00800           0
     10422 MEMB     84       PMPG     O31      OSL     -0.490000       15.9994           0
     10423 MEMB     84       PMPG     C31      CL       0.900000       12.0110           0
     10424 MEMB     84       PMPG     O32      OBL     -0.630000       15.9994           0
     10425 MEMB     84       PMPG     C32      CTL2    -0.220000       12.0110           0
     10426 MEMB     84       PMPG     H2X      HAL2     0.900000E-01   1.00800           0
     10427 MEMB     84       PMPG     H2Y      HAL2     0.900000E-01   1.00800           0
     10428 MEMB     84       PMPG     C23      CTL2    -0.180000       12.0110           0
     10429 MEMB     84       PMPG     H3R      HAL2     0.900000E-01   1.00800           0
     10430 MEMB     84       PMPG     H3S      HAL2     0.900000E-01   1.00800           0
     10431 MEMB     84       PMPG     C24      CTL2    -0.180000       12.0110           0
     10432 MEMB     84       PMPG     H4R      HAL2     0.900000E-01   1.00800           0
     10433 MEMB     84       PMPG     H4S      HAL2     0.900000E-01   1.00800           0
     10434 MEMB     84       PMPG     C25      CTL2    -0.180000       12.0110           0
     10435 MEMB     84       PMPG     H5R      HAL2     0.900000E-01   1.00800           0
     10436 MEMB     84       PMPG     H5S      HAL2     0.900000E-01   1.00800           0
     10437 MEMB     84       PMPG     C26      CTL2    -0.180000       12.0110           0
     10438 MEMB     84       PMPG     H6R      HAL2     0.900000E-01   1.00800           0
     10439 MEMB     84       PMPG     H6S      HAL2     0.900000E-01   1.00800           0
     10440 MEMB     84       PMPG     C27      CTL2    -0.180000       12.0110           0
     10441 MEMB     84       PMPG     H7R      HAL2     0.900000E-01   1.00800           0
     10442 MEMB     84       PMPG     H7S      HAL2     0.900000E-01   1.00800           0
     10443 MEMB     84       PMPG     C28      CTL2    -0.180000       12.0110           0
     10444 MEMB     84       PMPG     H8R      HAL2     0.900000E-01   1.00800           0
     10445 MEMB     84       PMPG     H8S      HAL2     0.900000E-01   1.00800           0
     10446 MEMB     84       PMPG     C29      CG3RC1  -0.900000E-01   12.0110           0
     10447 MEMB     84       PMPG     H9R      HGA1     0.900000E-01   1.00800           0
     10448 MEMB     84       PMPG     C217     CG3C31  -0.180000       12.0110           0
     10449 MEMB     84       PMPG     H17R     HGA2     0.900000E-01   1.00800           0
     10450 MEMB     84       PMPG     H17S     HGA2     0.900000E-01   1.00800           0
     10451 MEMB     84       PMPG     C210     CG3RC1  -0.900000E-01   12.0110           0
     10452 MEMB     84       PMPG     H10R     HGA1     0.900000E-01   1.00800           0
     10453 MEMB     84       PMPG     C211     CTL2    -0.180000       12.0110           0
     10454 MEMB     84       PMPG     H11R     HAL2     0.900000E-01   1.00800           0
     10455 MEMB     84       PMPG     H11S     HAL2     0.900000E-01   1.00800           0
     10456 MEMB     84       PMPG     C212     CTL2    -0.180000       12.0110           0
     10457 MEMB     84       PMPG     H12R     HAL2     0.900000E-01   1.00800           0
     10458 MEMB     84       PMPG     H12S     HAL2     0.900000E-01   1.00800           0
     10459 MEMB     84       PMPG     C213     CTL2    -0.180000       12.0110           0
     10460 MEMB     84       PMPG     H13R     HAL2     0.900000E-01   1.00800           0
     10461 MEMB     84       PMPG     H13S     HAL2     0.900000E-01   1.00800           0
     10462 MEMB     84       PMPG     C214     CTL2    -0.180000       12.0110           0
     10463 MEMB     84       PMPG     H14R     HAL2     0.900000E-01   1.00800           0
     10464 MEMB     84       PMPG     H14S     HAL2     0.900000E-01   1.00800           0
     10465 MEMB     84       PMPG     C215     CTL2    -0.180000       12.0110           0
     10466 MEMB     84       PMPG     H15R     HAL2     0.900000E-01   1.00800           0
     10467 MEMB     84       PMPG     H15S     HAL2     0.900000E-01   1.00800           0
     10468 MEMB     84       PMPG     C216     CTL3    -0.270000       12.0110           0
     10469 MEMB     84       PMPG     H16R     HAL3     0.900000E-01   1.00800           0
     10470 MEMB     84       PMPG     H16S     HAL3     0.900000E-01   1.00800           0
     10471 MEMB     84       PMPG     H16T     HAL3     0.900000E-01   1.00800           0
     10472 MEMB     84       PMPG     C33      CTL2    -0.180000       12.0110           0
     10473 MEMB     84       PMPG     H3X      HAL2     0.900000E-01   1.00800           0
     10474 MEMB     84       PMPG     H3Y      HAL2     0.900000E-01   1.00800           0
     10475 MEMB     84       PMPG     C34      CTL2    -0.180000       12.0110           0
     10476 MEMB     84       PMPG     H4X      HAL2     0.900000E-01   1.00800           0
     10477 MEMB     84       PMPG     H4Y      HAL2     0.900000E-01   1.00800           0
     10478 MEMB     84       PMPG     C35      CTL2    -0.180000       12.0110           0
     10479 MEMB     84       PMPG     H5X      HAL2     0.900000E-01   1.00800           0
     10480 MEMB     84       PMPG     H5Y      HAL2     0.900000E-01   1.00800           0
     10481 MEMB     84       PMPG     C36      CTL2    -0.180000       12.0110           0
     10482 MEMB     84       PMPG     H6X      HAL2     0.900000E-01   1.00800           0
     10483 MEMB     84       PMPG     H6Y      HAL2     0.900000E-01   1.00800           0
     10484 MEMB     84       PMPG     C37      CTL2    -0.180000       12.0110           0
     10485 MEMB     84       PMPG     H7X      HAL2     0.900000E-01   1.00800           0
     10486 MEMB     84       PMPG     H7Y      HAL2     0.900000E-01   1.00800           0
     10487 MEMB     84       PMPG     C38      CTL2    -0.180000       12.0110           0
     10488 MEMB     84       PMPG     H8X      HAL2     0.900000E-01   1.00800           0
     10489 MEMB     84       PMPG     H8Y      HAL2     0.900000E-01   1.00800           0
     10490 MEMB     84       PMPG     C39      CTL2    -0.180000       12.0110           0
     10491 MEMB     84       PMPG     H9X      HAL2     0.900000E-01   1.00800           0
     10492 MEMB     84       PMPG     H9Y      HAL2     0.900000E-01   1.00800           0
     10493 MEMB     84       PMPG     C310     CTL2    -0.180000       12.0110           0
     10494 MEMB     84       PMPG     H10X     HAL2     0.900000E-01   1.00800           0
     10495 MEMB     84       PMPG     H10Y     HAL2     0.900000E-01   1.00800           0
     10496 MEMB     84       PMPG     C311     CTL2    -0.180000       12.0110           0
     10497 MEMB     84       PMPG     H11X     HAL2     0.900000E-01   1.00800           0
     10498 MEMB     84       PMPG     H11Y     HAL2     0.900000E-01   1.00800           0
     10499 MEMB     84       PMPG     C312     CTL2    -0.180000       12.0110           0
     10500 MEMB     84       PMPG     H12X     HAL2     0.900000E-01   1.00800           0
     10501 MEMB     84       PMPG     H12Y     HAL2     0.900000E-01   1.00800           0
     10502 MEMB     84       PMPG     C313     CTL2    -0.180000       12.0110           0
     10503 MEMB     84       PMPG     H13X     HAL2     0.900000E-01   1.00800           0
     10504 MEMB     84       PMPG     H13Y     HAL2     0.900000E-01   1.00800           0
     10505 MEMB     84       PMPG     C314     CTL2    -0.180000       12.0110           0
     10506 MEMB     84       PMPG     H14X     HAL2     0.900000E-01   1.00800           0
     10507 MEMB     84       PMPG     H14Y     HAL2     0.900000E-01   1.00800           0
     10508 MEMB     84       PMPG     C315     CTL2    -0.180000       12.0110           0
     10509 MEMB     84       PMPG     H15X     HAL2     0.900000E-01   1.00800           0
     10510 MEMB     84       PMPG     H15Y     HAL2     0.900000E-01   1.00800           0
     10511 MEMB     84       PMPG     C316     CTL3    -0.270000       12.0110           0
     10512 MEMB     84       PMPG     H16X     HAL3     0.900000E-01   1.00800           0
     10513 MEMB     84       PMPG     H16Y     HAL3     0.900000E-01   1.00800           0
     10514 MEMB     84       PMPG     H16Z     HAL3     0.900000E-01   1.00800           0
     10515 MEMB     85       PYPG     C13      CTL2     0.500000E-01   12.0110           0
     10516 MEMB     85       PYPG     H13A     HAL2     0.900000E-01   1.00800           0
     10517 MEMB     85       PYPG     H13B     HAL2     0.900000E-01   1.00800           0
     10518 MEMB     85       PYPG     OC3      OHL     -0.660000       15.9994           0
     10519 MEMB     85       PYPG     HO3      HOL      0.430000       1.00800           0
     10520 MEMB     85       PYPG     C12      CTL1     0.140000       12.0110           0
     10521 MEMB     85       PYPG     H12A     HAL1     0.900000E-01   1.00800           0
     10522 MEMB     85       PYPG     OC2      OHL     -0.660000       15.9994           0
     10523 MEMB     85       PYPG     HO2      HOL      0.430000       1.00800           0
     10524 MEMB     85       PYPG     C11      CTL2    -0.800000E-01   12.0110           0
     10525 MEMB     85       PYPG     H11A     HAL2     0.900000E-01   1.00800           0
     10526 MEMB     85       PYPG     H11B     HAL2     0.900000E-01   1.00800           0
     10527 MEMB     85       PYPG     P        PL        1.50000       30.9740           0
     10528 MEMB     85       PYPG     O13      O2L     -0.780000       15.9994           0
     10529 MEMB     85       PYPG     O14      O2L     -0.780000       15.9994           0
     10530 MEMB     85       PYPG     O11      OSLP    -0.570000       15.9994           0
     10531 MEMB     85       PYPG     O12      OSLP    -0.570000       15.9994           0
     10532 MEMB     85       PYPG     C1       CTL2    -0.800000E-01   12.0110           0
     10533 MEMB     85       PYPG     HA       HAL2     0.900000E-01   1.00800           0
     10534 MEMB     85       PYPG     HB       HAL2     0.900000E-01   1.00800           0
     10535 MEMB     85       PYPG     C2       CTL1     0.170000       12.0110           0
     10536 MEMB     85       PYPG     HS       HAL1     0.900000E-01   1.00800           0
     10537 MEMB     85       PYPG     O21      OSL     -0.490000       15.9994           0
     10538 MEMB     85       PYPG     C21      CL       0.900000       12.0110           0
     10539 MEMB     85       PYPG     O22      OBL     -0.630000       15.9994           0
     10540 MEMB     85       PYPG     C22      CTL2    -0.220000       12.0110           0
     10541 MEMB     85       PYPG     H2R      HAL2     0.900000E-01   1.00800           0
     10542 MEMB     85       PYPG     H2S      HAL2     0.900000E-01   1.00800           0
     10543 MEMB     85       PYPG     C3       CTL2     0.800000E-01   12.0110           0
     10544 MEMB     85       PYPG     HX       HAL2     0.900000E-01   1.00800           0
     10545 MEMB     85       PYPG     HY       HAL2     0.900000E-01   1.00800           0
     10546 MEMB     85       PYPG     O31      OSL     -0.490000       15.9994           0
     10547 MEMB     85       PYPG     C31      CL       0.900000       12.0110           0
     10548 MEMB     85       PYPG     O32      OBL     -0.630000       15.9994           0
     10549 MEMB     85       PYPG     C32      CTL2    -0.220000       12.0110           0
     10550 MEMB     85       PYPG     H2X      HAL2     0.900000E-01   1.00800           0
     10551 MEMB     85       PYPG     H2Y      HAL2     0.900000E-01   1.00800           0
     10552 MEMB     85       PYPG     C23      CTL2    -0.180000       12.0110           0
     10553 MEMB     85       PYPG     H3R      HAL2     0.900000E-01   1.00800           0
     10554 MEMB     85       PYPG     H3S      HAL2     0.900000E-01   1.00800           0
     10555 MEMB     85       PYPG     C24      CTL2    -0.180000       12.0110           0
     10556 MEMB     85       PYPG     H4R      HAL2     0.900000E-01   1.00800           0
     10557 MEMB     85       PYPG     H4S      HAL2     0.900000E-01   1.00800           0
     10558 MEMB     85       PYPG     C25      CTL2    -0.180000       12.0110           0
     10559 MEMB     85       PYPG     H5R      HAL2     0.900000E-01   1.00800           0
     10560 MEMB     85       PYPG     H5S      HAL2     0.900000E-01   1.00800           0
     10561 MEMB     85       PYPG     C26      CTL2    -0.180000       12.0110           0
     10562 MEMB     85       PYPG     H6R      HAL2     0.900000E-01   1.00800           0
     10563 MEMB     85       PYPG     H6S      HAL2     0.900000E-01   1.00800           0
     10564 MEMB     85       PYPG     C27      CTL2    -0.180000       12.0110           0
     10565 MEMB     85       PYPG     H7R      HAL2     0.900000E-01   1.00800           0
     10566 MEMB     85       PYPG     H7S      HAL2     0.900000E-01   1.00800           0
     10567 MEMB     85       PYPG     C28      CTL2    -0.180000       12.0110           0
     10568 MEMB     85       PYPG     H8R      HAL2     0.900000E-01   1.00800           0
     10569 MEMB     85       PYPG     H8S      HAL2     0.900000E-01   1.00800           0
     10570 MEMB     85       PYPG     C29      CEL1    -0.150000       12.0110           0
     10571 MEMB     85       PYPG     H9R      HEL1     0.150000       1.00800           0
     10572 MEMB     85       PYPG     C210     CEL1    -0.150000       12.0110           0
     10573 MEMB     85       PYPG     H10R     HEL1     0.150000       1.00800           0
     10574 MEMB     85       PYPG     C211     CTL2    -0.180000       12.0110           0
     10575 MEMB     85       PYPG     H11R     HAL2     0.900000E-01   1.00800           0
     10576 MEMB     85       PYPG     H11S     HAL2     0.900000E-01   1.00800           0
     10577 MEMB     85       PYPG     C212     CTL2    -0.180000       12.0110           0
     10578 MEMB     85       PYPG     H12R     HAL2     0.900000E-01   1.00800           0
     10579 MEMB     85       PYPG     H12S     HAL2     0.900000E-01   1.00800           0
     10580 MEMB     85       PYPG     C213     CTL2    -0.180000       12.0110           0
     10581 MEMB     85       PYPG     H13R     HAL2     0.900000E-01   1.00800           0
     10582 MEMB     85       PYPG     H13S     HAL2     0.900000E-01   1.00800           0
     10583 MEMB     85       PYPG     C214     CTL2    -0.180000       12.0110           0
     10584 MEMB     85       PYPG     H14R     HAL2     0.900000E-01   1.00800           0
     10585 MEMB     85       PYPG     H14S     HAL2     0.900000E-01   1.00800           0
     10586 MEMB     85       PYPG     C215     CTL2    -0.180000       12.0110           0
     10587 MEMB     85       PYPG     H15R     HAL2     0.900000E-01   1.00800           0
     10588 MEMB     85       PYPG     H15S     HAL2     0.900000E-01   1.00800           0
     10589 MEMB     85       PYPG     C216     CTL3    -0.270000       12.0110           0
     10590 MEMB     85       PYPG     H16R     HAL3     0.900000E-01   1.00800           0
     10591 MEMB     85       PYPG     H16S     HAL3     0.900000E-01   1.00800           0
     10592 MEMB     85       PYPG     H16T     HAL3     0.900000E-01   1.00800           0
     10593 MEMB     85       PYPG     C33      CTL2    -0.180000       12.0110           0
     10594 MEMB     85       PYPG     H3X      HAL2     0.900000E-01   1.00800           0
     10595 MEMB     85       PYPG     H3Y      HAL2     0.900000E-01   1.00800           0
     10596 MEMB     85       PYPG     C34      CTL2    -0.180000       12.0110           0
     10597 MEMB     85       PYPG     H4X      HAL2     0.900000E-01   1.00800           0
     10598 MEMB     85       PYPG     H4Y      HAL2     0.900000E-01   1.00800           0
     10599 MEMB     85       PYPG     C35      CTL2    -0.180000       12.0110           0
     10600 MEMB     85       PYPG     H5X      HAL2     0.900000E-01   1.00800           0
     10601 MEMB     85       PYPG     H5Y      HAL2     0.900000E-01   1.00800           0
     10602 MEMB     85       PYPG     C36      CTL2    -0.180000       12.0110           0
     10603 MEMB     85       PYPG     H6X      HAL2     0.900000E-01   1.00800           0
     10604 MEMB     85       PYPG     H6Y      HAL2     0.900000E-01   1.00800           0
     10605 MEMB     85       PYPG     C37      CTL2    -0.180000       12.0110           0
     10606 MEMB     85       PYPG     H7X      HAL2     0.900000E-01   1.00800           0
     10607 MEMB     85       PYPG     H7Y      HAL2     0.900000E-01   1.00800           0
     10608 MEMB     85       PYPG     C38      CTL2    -0.180000       12.0110           0
     10609 MEMB     85       PYPG     H8X      HAL2     0.900000E-01   1.00800           0
     10610 MEMB     85       PYPG     H8Y      HAL2     0.900000E-01   1.00800           0
     10611 MEMB     85       PYPG     C39      CTL2    -0.180000       12.0110           0
     10612 MEMB     85       PYPG     H9X      HAL2     0.900000E-01   1.00800           0
     10613 MEMB     85       PYPG     H9Y      HAL2     0.900000E-01   1.00800           0
     10614 MEMB     85       PYPG     C310     CTL2    -0.180000       12.0110           0
     10615 MEMB     85       PYPG     H10X     HAL2     0.900000E-01   1.00800           0
     10616 MEMB     85       PYPG     H10Y     HAL2     0.900000E-01   1.00800           0
     10617 MEMB     85       PYPG     C311     CTL2    -0.180000       12.0110           0
     10618 MEMB     85       PYPG     H11X     HAL2     0.900000E-01   1.00800           0
     10619 MEMB     85       PYPG     H11Y     HAL2     0.900000E-01   1.00800           0
     10620 MEMB     85       PYPG     C312     CTL2    -0.180000       12.0110           0
     10621 MEMB     85       PYPG     H12X     HAL2     0.900000E-01   1.00800           0
     10622 MEMB     85       PYPG     H12Y     HAL2     0.900000E-01   1.00800           0
     10623 MEMB     85       PYPG     C313     CTL2    -0.180000       12.0110           0
     10624 MEMB     85       PYPG     H13X     HAL2     0.900000E-01   1.00800           0
     10625 MEMB     85       PYPG     H13Y     HAL2     0.900000E-01   1.00800           0
     10626 MEMB     85       PYPG     C314     CTL2    -0.180000       12.0110           0
     10627 MEMB     85       PYPG     H14X     HAL2     0.900000E-01   1.00800           0
     10628 MEMB     85       PYPG     H14Y     HAL2     0.900000E-01   1.00800           0
     10629 MEMB     85       PYPG     C315     CTL2    -0.180000       12.0110           0
     10630 MEMB     85       PYPG     H15X     HAL2     0.900000E-01   1.00800           0
     10631 MEMB     85       PYPG     H15Y     HAL2     0.900000E-01   1.00800           0
     10632 MEMB     85       PYPG     C316     CTL3    -0.270000       12.0110           0
     10633 MEMB     85       PYPG     H16X     HAL3     0.900000E-01   1.00800           0
     10634 MEMB     85       PYPG     H16Y     HAL3     0.900000E-01   1.00800           0
     10635 MEMB     85       PYPG     H16Z     HAL3     0.900000E-01   1.00800           0
     10636 MEMB     86       PMPE     N        NH3L    -0.300000       14.0070           0
     10637 MEMB     86       PMPE     HN1      HCL      0.330000       1.00800           0
     10638 MEMB     86       PMPE     HN2      HCL      0.330000       1.00800           0
     10639 MEMB     86       PMPE     HN3      HCL      0.330000       1.00800           0
     10640 MEMB     86       PMPE     C12      CTL2     0.130000       12.0110           0
     10641 MEMB     86       PMPE     H12A     HAL2     0.900000E-01   1.00800           0
     10642 MEMB     86       PMPE     H12B     HAL2     0.900000E-01   1.00800           0
     10643 MEMB     86       PMPE     C11      CTL2    -0.800000E-01   12.0110           0
     10644 MEMB     86       PMPE     H11A     HAL2     0.900000E-01   1.00800           0
     10645 MEMB     86       PMPE     H11B     HAL2     0.900000E-01   1.00800           0
     10646 MEMB     86       PMPE     P        PL        1.50000       30.9740           0
     10647 MEMB     86       PMPE     O13      O2L     -0.780000       15.9994           0
     10648 MEMB     86       PMPE     O14      O2L     -0.780000       15.9994           0
     10649 MEMB     86       PMPE     O11      OSLP    -0.570000       15.9994           0
     10650 MEMB     86       PMPE     O12      OSLP    -0.570000       15.9994           0
     10651 MEMB     86       PMPE     C1       CTL2    -0.800000E-01   12.0110           0
     10652 MEMB     86       PMPE     HA       HAL2     0.900000E-01   1.00800           0
     10653 MEMB     86       PMPE     HB       HAL2     0.900000E-01   1.00800           0
     10654 MEMB     86       PMPE     C2       CTL1     0.170000       12.0110           0
     10655 MEMB     86       PMPE     HS       HAL1     0.900000E-01   1.00800           0
     10656 MEMB     86       PMPE     O21      OSL     -0.490000       15.9994           0
     10657 MEMB     86       PMPE     C21      CL       0.900000       12.0110           0
     10658 MEMB     86       PMPE     O22      OBL     -0.630000       15.9994           0
     10659 MEMB     86       PMPE     C22      CTL2    -0.220000       12.0110           0
     10660 MEMB     86       PMPE     H2R      HAL2     0.900000E-01   1.00800           0
     10661 MEMB     86       PMPE     H2S      HAL2     0.900000E-01   1.00800           0
     10662 MEMB     86       PMPE     C3       CTL2     0.800000E-01   12.0110           0
     10663 MEMB     86       PMPE     HX       HAL2     0.900000E-01   1.00800           0
     10664 MEMB     86       PMPE     HY       HAL2     0.900000E-01   1.00800           0
     10665 MEMB     86       PMPE     O31      OSL     -0.490000       15.9994           0
     10666 MEMB     86       PMPE     C31      CL       0.900000       12.0110           0
     10667 MEMB     86       PMPE     O32      OBL     -0.630000       15.9994           0
     10668 MEMB     86       PMPE     C32      CTL2    -0.220000       12.0110           0
     10669 MEMB     86       PMPE     H2X      HAL2     0.900000E-01   1.00800           0
     10670 MEMB     86       PMPE     H2Y      HAL2     0.900000E-01   1.00800           0
     10671 MEMB     86       PMPE     C23      CTL2    -0.180000       12.0110           0
     10672 MEMB     86       PMPE     H3R      HAL2     0.900000E-01   1.00800           0
     10673 MEMB     86       PMPE     H3S      HAL2     0.900000E-01   1.00800           0
     10674 MEMB     86       PMPE     C24      CTL2    -0.180000       12.0110           0
     10675 MEMB     86       PMPE     H4R      HAL2     0.900000E-01   1.00800           0
     10676 MEMB     86       PMPE     H4S      HAL2     0.900000E-01   1.00800           0
     10677 MEMB     86       PMPE     C25      CTL2    -0.180000       12.0110           0
     10678 MEMB     86       PMPE     H5R      HAL2     0.900000E-01   1.00800           0
     10679 MEMB     86       PMPE     H5S      HAL2     0.900000E-01   1.00800           0
     10680 MEMB     86       PMPE     C26      CTL2    -0.180000       12.0110           0
     10681 MEMB     86       PMPE     H6R      HAL2     0.900000E-01   1.00800           0
     10682 MEMB     86       PMPE     H6S      HAL2     0.900000E-01   1.00800           0
     10683 MEMB     86       PMPE     C27      CTL2    -0.180000       12.0110           0
     10684 MEMB     86       PMPE     H7R      HAL2     0.900000E-01   1.00800           0
     10685 MEMB     86       PMPE     H7S      HAL2     0.900000E-01   1.00800           0
     10686 MEMB     86       PMPE     C28      CTL2    -0.180000       12.0110           0
     10687 MEMB     86       PMPE     H8R      HAL2     0.900000E-01   1.00800           0
     10688 MEMB     86       PMPE     H8S      HAL2     0.900000E-01   1.00800           0
     10689 MEMB     86       PMPE     C29      CG3RC1  -0.900000E-01   12.0110           0
     10690 MEMB     86       PMPE     H9R      HGA1     0.900000E-01   1.00800           0
     10691 MEMB     86       PMPE     C217     CG3C31  -0.180000       12.0110           0
     10692 MEMB     86       PMPE     H17R     HGA2     0.900000E-01   1.00800           0
     10693 MEMB     86       PMPE     H17S     HGA2     0.900000E-01   1.00800           0
     10694 MEMB     86       PMPE     C210     CG3RC1  -0.900000E-01   12.0110           0
     10695 MEMB     86       PMPE     H10R     HGA1     0.900000E-01   1.00800           0
     10696 MEMB     86       PMPE     C211     CTL2    -0.180000       12.0110           0
     10697 MEMB     86       PMPE     H11R     HAL2     0.900000E-01   1.00800           0
     10698 MEMB     86       PMPE     H11S     HAL2     0.900000E-01   1.00800           0
     10699 MEMB     86       PMPE     C212     CTL2    -0.180000       12.0110           0
     10700 MEMB     86       PMPE     H12R     HAL2     0.900000E-01   1.00800           0
     10701 MEMB     86       PMPE     H12S     HAL2     0.900000E-01   1.00800           0
     10702 MEMB     86       PMPE     C213     CTL2    -0.180000       12.0110           0
     10703 MEMB     86       PMPE     H13R     HAL2     0.900000E-01   1.00800           0
     10704 MEMB     86       PMPE     H13S     HAL2     0.900000E-01   1.00800           0
     10705 MEMB     86       PMPE     C214     CTL2    -0.180000       12.0110           0
     10706 MEMB     86       PMPE     H14R     HAL2     0.900000E-01   1.00800           0
     10707 MEMB     86       PMPE     H14S     HAL2     0.900000E-01   1.00800           0
     10708 MEMB     86       PMPE     C215     CTL2    -0.180000       12.0110           0
     10709 MEMB     86       PMPE     H15R     HAL2     0.900000E-01   1.00800           0
     10710 MEMB     86       PMPE     H15S     HAL2     0.900000E-01   1.00800           0
     10711 MEMB     86       PMPE     C216     CTL3    -0.270000       12.0110           0
     10712 MEMB     86       PMPE     H16R     HAL3     0.900000E-01   1.00800           0
     10713 MEMB     86       PMPE     H16S     HAL3     0.900000E-01   1.00800           0
     10714 MEMB     86       PMPE     H16T     HAL3     0.900000E-01   1.00800           0
     10715 MEMB     86       PMPE     C33      CTL2    -0.180000       12.0110           0
     10716 MEMB     86       PMPE     H3X      HAL2     0.900000E-01   1.00800           0
     10717 MEMB     86       PMPE     H3Y      HAL2     0.900000E-01   1.00800           0
     10718 MEMB     86       PMPE     C34      CTL2    -0.180000       12.0110           0
     10719 MEMB     86       PMPE     H4X      HAL2     0.900000E-01   1.00800           0
     10720 MEMB     86       PMPE     H4Y      HAL2     0.900000E-01   1.00800           0
     10721 MEMB     86       PMPE     C35      CTL2    -0.180000       12.0110           0
     10722 MEMB     86       PMPE     H5X      HAL2     0.900000E-01   1.00800           0
     10723 MEMB     86       PMPE     H5Y      HAL2     0.900000E-01   1.00800           0
     10724 MEMB     86       PMPE     C36      CTL2    -0.180000       12.0110           0
     10725 MEMB     86       PMPE     H6X      HAL2     0.900000E-01   1.00800           0
     10726 MEMB     86       PMPE     H6Y      HAL2     0.900000E-01   1.00800           0
     10727 MEMB     86       PMPE     C37      CTL2    -0.180000       12.0110           0
     10728 MEMB     86       PMPE     H7X      HAL2     0.900000E-01   1.00800           0
     10729 MEMB     86       PMPE     H7Y      HAL2     0.900000E-01   1.00800           0
     10730 MEMB     86       PMPE     C38      CTL2    -0.180000       12.0110           0
     10731 MEMB     86       PMPE     H8X      HAL2     0.900000E-01   1.00800           0
     10732 MEMB     86       PMPE     H8Y      HAL2     0.900000E-01   1.00800           0
     10733 MEMB     86       PMPE     C39      CTL2    -0.180000       12.0110           0
     10734 MEMB     86       PMPE     H9X      HAL2     0.900000E-01   1.00800           0
     10735 MEMB     86       PMPE     H9Y      HAL2     0.900000E-01   1.00800           0
     10736 MEMB     86       PMPE     C310     CTL2    -0.180000       12.0110           0
     10737 MEMB     86       PMPE     H10X     HAL2     0.900000E-01   1.00800           0
     10738 MEMB     86       PMPE     H10Y     HAL2     0.900000E-01   1.00800           0
     10739 MEMB     86       PMPE     C311     CTL2    -0.180000       12.0110           0
     10740 MEMB     86       PMPE     H11X     HAL2     0.900000E-01   1.00800           0
     10741 MEMB     86       PMPE     H11Y     HAL2     0.900000E-01   1.00800           0
     10742 MEMB     86       PMPE     C312     CTL2    -0.180000       12.0110           0
     10743 MEMB     86       PMPE     H12X     HAL2     0.900000E-01   1.00800           0
     10744 MEMB     86       PMPE     H12Y     HAL2     0.900000E-01   1.00800           0
     10745 MEMB     86       PMPE     C313     CTL2    -0.180000       12.0110           0
     10746 MEMB     86       PMPE     H13X     HAL2     0.900000E-01   1.00800           0
     10747 MEMB     86       PMPE     H13Y     HAL2     0.900000E-01   1.00800           0
     10748 MEMB     86       PMPE     C314     CTL2    -0.180000       12.0110           0
     10749 MEMB     86       PMPE     H14X     HAL2     0.900000E-01   1.00800           0
     10750 MEMB     86       PMPE     H14Y     HAL2     0.900000E-01   1.00800           0
     10751 MEMB     86       PMPE     C315     CTL2    -0.180000       12.0110           0
     10752 MEMB     86       PMPE     H15X     HAL2     0.900000E-01   1.00800           0
     10753 MEMB     86       PMPE     H15Y     HAL2     0.900000E-01   1.00800           0
     10754 MEMB     86       PMPE     C316     CTL3    -0.270000       12.0110           0
     10755 MEMB     86       PMPE     H16X     HAL3     0.900000E-01   1.00800           0
     10756 MEMB     86       PMPE     H16Y     HAL3     0.900000E-01   1.00800           0
     10757 MEMB     86       PMPE     H16Z     HAL3     0.900000E-01   1.00800           0
     10758 MEMB     87       PMPE     N        NH3L    -0.300000       14.0070           0
     10759 MEMB     87       PMPE     HN1      HCL      0.330000       1.00800           0
     10760 MEMB     87       PMPE     HN2      HCL      0.330000       1.00800           0
     10761 MEMB     87       PMPE     HN3      HCL      0.330000       1.00800           0
     10762 MEMB     87       PMPE     C12      CTL2     0.130000       12.0110           0
     10763 MEMB     87       PMPE     H12A     HAL2     0.900000E-01   1.00800           0
     10764 MEMB     87       PMPE     H12B     HAL2     0.900000E-01   1.00800           0
     10765 MEMB     87       PMPE     C11      CTL2    -0.800000E-01   12.0110           0
     10766 MEMB     87       PMPE     H11A     HAL2     0.900000E-01   1.00800           0
     10767 MEMB     87       PMPE     H11B     HAL2     0.900000E-01   1.00800           0
     10768 MEMB     87       PMPE     P        PL        1.50000       30.9740           0
     10769 MEMB     87       PMPE     O13      O2L     -0.780000       15.9994           0
     10770 MEMB     87       PMPE     O14      O2L     -0.780000       15.9994           0
     10771 MEMB     87       PMPE     O11      OSLP    -0.570000       15.9994           0
     10772 MEMB     87       PMPE     O12      OSLP    -0.570000       15.9994           0
     10773 MEMB     87       PMPE     C1       CTL2    -0.800000E-01   12.0110           0
     10774 MEMB     87       PMPE     HA       HAL2     0.900000E-01   1.00800           0
     10775 MEMB     87       PMPE     HB       HAL2     0.900000E-01   1.00800           0
     10776 MEMB     87       PMPE     C2       CTL1     0.170000       12.0110           0
     10777 MEMB     87       PMPE     HS       HAL1     0.900000E-01   1.00800           0
     10778 MEMB     87       PMPE     O21      OSL     -0.490000       15.9994           0
     10779 MEMB     87       PMPE     C21      CL       0.900000       12.0110           0
     10780 MEMB     87       PMPE     O22      OBL     -0.630000       15.9994           0
     10781 MEMB     87       PMPE     C22      CTL2    -0.220000       12.0110           0
     10782 MEMB     87       PMPE     H2R      HAL2     0.900000E-01   1.00800           0
     10783 MEMB     87       PMPE     H2S      HAL2     0.900000E-01   1.00800           0
     10784 MEMB     87       PMPE     C3       CTL2     0.800000E-01   12.0110           0
     10785 MEMB     87       PMPE     HX       HAL2     0.900000E-01   1.00800           0
     10786 MEMB     87       PMPE     HY       HAL2     0.900000E-01   1.00800           0
     10787 MEMB     87       PMPE     O31      OSL     -0.490000       15.9994           0
     10788 MEMB     87       PMPE     C31      CL       0.900000       12.0110           0
     10789 MEMB     87       PMPE     O32      OBL     -0.630000       15.9994           0
     10790 MEMB     87       PMPE     C32      CTL2    -0.220000       12.0110           0
     10791 MEMB     87       PMPE     H2X      HAL2     0.900000E-01   1.00800           0
     10792 MEMB     87       PMPE     H2Y      HAL2     0.900000E-01   1.00800           0
     10793 MEMB     87       PMPE     C23      CTL2    -0.180000       12.0110           0
     10794 MEMB     87       PMPE     H3R      HAL2     0.900000E-01   1.00800           0
     10795 MEMB     87       PMPE     H3S      HAL2     0.900000E-01   1.00800           0
     10796 MEMB     87       PMPE     C24      CTL2    -0.180000       12.0110           0
     10797 MEMB     87       PMPE     H4R      HAL2     0.900000E-01   1.00800           0
     10798 MEMB     87       PMPE     H4S      HAL2     0.900000E-01   1.00800           0
     10799 MEMB     87       PMPE     C25      CTL2    -0.180000       12.0110           0
     10800 MEMB     87       PMPE     H5R      HAL2     0.900000E-01   1.00800           0
     10801 MEMB     87       PMPE     H5S      HAL2     0.900000E-01   1.00800           0
     10802 MEMB     87       PMPE     C26      CTL2    -0.180000       12.0110           0
     10803 MEMB     87       PMPE     H6R      HAL2     0.900000E-01   1.00800           0
     10804 MEMB     87       PMPE     H6S      HAL2     0.900000E-01   1.00800           0
     10805 MEMB     87       PMPE     C27      CTL2    -0.180000       12.0110           0
     10806 MEMB     87       PMPE     H7R      HAL2     0.900000E-01   1.00800           0
     10807 MEMB     87       PMPE     H7S      HAL2     0.900000E-01   1.00800           0
     10808 MEMB     87       PMPE     C28      CTL2    -0.180000       12.0110           0
     10809 MEMB     87       PMPE     H8R      HAL2     0.900000E-01   1.00800           0
     10810 MEMB     87       PMPE     H8S      HAL2     0.900000E-01   1.00800           0
     10811 MEMB     87       PMPE     C29      CG3RC1  -0.900000E-01   12.0110           0
     10812 MEMB     87       PMPE     H9R      HGA1     0.900000E-01   1.00800           0
     10813 MEMB     87       PMPE     C217     CG3C31  -0.180000       12.0110           0
     10814 MEMB     87       PMPE     H17R     HGA2     0.900000E-01   1.00800           0
     10815 MEMB     87       PMPE     H17S     HGA2     0.900000E-01   1.00800           0
     10816 MEMB     87       PMPE     C210     CG3RC1  -0.900000E-01   12.0110           0
     10817 MEMB     87       PMPE     H10R     HGA1     0.900000E-01   1.00800           0
     10818 MEMB     87       PMPE     C211     CTL2    -0.180000       12.0110           0
     10819 MEMB     87       PMPE     H11R     HAL2     0.900000E-01   1.00800           0
     10820 MEMB     87       PMPE     H11S     HAL2     0.900000E-01   1.00800           0
     10821 MEMB     87       PMPE     C212     CTL2    -0.180000       12.0110           0
     10822 MEMB     87       PMPE     H12R     HAL2     0.900000E-01   1.00800           0
     10823 MEMB     87       PMPE     H12S     HAL2     0.900000E-01   1.00800           0
     10824 MEMB     87       PMPE     C213     CTL2    -0.180000       12.0110           0
     10825 MEMB     87       PMPE     H13R     HAL2     0.900000E-01   1.00800           0
     10826 MEMB     87       PMPE     H13S     HAL2     0.900000E-01   1.00800           0
     10827 MEMB     87       PMPE     C214     CTL2    -0.180000       12.0110           0
     10828 MEMB     87       PMPE     H14R     HAL2     0.900000E-01   1.00800           0
     10829 MEMB     87       PMPE     H14S     HAL2     0.900000E-01   1.00800           0
     10830 MEMB     87       PMPE     C215     CTL2    -0.180000       12.0110           0
     10831 MEMB     87       PMPE     H15R     HAL2     0.900000E-01   1.00800           0
     10832 MEMB     87       PMPE     H15S     HAL2     0.900000E-01   1.00800           0
     10833 MEMB     87       PMPE     C216     CTL3    -0.270000       12.0110           0
     10834 MEMB     87       PMPE     H16R     HAL3     0.900000E-01   1.00800           0
     10835 MEMB     87       PMPE     H16S     HAL3     0.900000E-01   1.00800           0
     10836 MEMB     87       PMPE     H16T     HAL3     0.900000E-01   1.00800           0
     10837 MEMB     87       PMPE     C33      CTL2    -0.180000       12.0110           0
     10838 MEMB     87       PMPE     H3X      HAL2     0.900000E-01   1.00800           0
     10839 MEMB     87       PMPE     H3Y      HAL2     0.900000E-01   1.00800           0
     10840 MEMB     87       PMPE     C34      CTL2    -0.180000       12.0110           0
     10841 MEMB     87       PMPE     H4X      HAL2     0.900000E-01   1.00800           0
     10842 MEMB     87       PMPE     H4Y      HAL2     0.900000E-01   1.00800           0
     10843 MEMB     87       PMPE     C35      CTL2    -0.180000       12.0110           0
     10844 MEMB     87       PMPE     H5X      HAL2     0.900000E-01   1.00800           0
     10845 MEMB     87       PMPE     H5Y      HAL2     0.900000E-01   1.00800           0
     10846 MEMB     87       PMPE     C36      CTL2    -0.180000       12.0110           0
     10847 MEMB     87       PMPE     H6X      HAL2     0.900000E-01   1.00800           0
     10848 MEMB     87       PMPE     H6Y      HAL2     0.900000E-01   1.00800           0
     10849 MEMB     87       PMPE     C37      CTL2    -0.180000       12.0110           0
     10850 MEMB     87       PMPE     H7X      HAL2     0.900000E-01   1.00800           0
     10851 MEMB     87       PMPE     H7Y      HAL2     0.900000E-01   1.00800           0
     10852 MEMB     87       PMPE     C38      CTL2    -0.180000       12.0110           0
     10853 MEMB     87       PMPE     H8X      HAL2     0.900000E-01   1.00800           0
     10854 MEMB     87       PMPE     H8Y      HAL2     0.900000E-01   1.00800           0
     10855 MEMB     87       PMPE     C39      CTL2    -0.180000       12.0110           0
     10856 MEMB     87       PMPE     H9X      HAL2     0.900000E-01   1.00800           0
     10857 MEMB     87       PMPE     H9Y      HAL2     0.900000E-01   1.00800           0
     10858 MEMB     87       PMPE     C310     CTL2    -0.180000       12.0110           0
     10859 MEMB     87       PMPE     H10X     HAL2     0.900000E-01   1.00800           0
     10860 MEMB     87       PMPE     H10Y     HAL2     0.900000E-01   1.00800           0
     10861 MEMB     87       PMPE     C311     CTL2    -0.180000       12.0110           0
     10862 MEMB     87       PMPE     H11X     HAL2     0.900000E-01   1.00800           0
     10863 MEMB     87       PMPE     H11Y     HAL2     0.900000E-01   1.00800           0
     10864 MEMB     87       PMPE     C312     CTL2    -0.180000       12.0110           0
     10865 MEMB     87       PMPE     H12X     HAL2     0.900000E-01   1.00800           0
     10866 MEMB     87       PMPE     H12Y     HAL2     0.900000E-01   1.00800           0
     10867 MEMB     87       PMPE     C313     CTL2    -0.180000       12.0110           0
     10868 MEMB     87       PMPE     H13X     HAL2     0.900000E-01   1.00800           0
     10869 MEMB     87       PMPE     H13Y     HAL2     0.900000E-01   1.00800           0
     10870 MEMB     87       PMPE     C314     CTL2    -0.180000       12.0110           0
     10871 MEMB     87       PMPE     H14X     HAL2     0.900000E-01   1.00800           0
     10872 MEMB     87       PMPE     H14Y     HAL2     0.900000E-01   1.00800           0
     10873 MEMB     87       PMPE     C315     CTL2    -0.180000       12.0110           0
     10874 MEMB     87       PMPE     H15X     HAL2     0.900000E-01   1.00800           0
     10875 MEMB     87       PMPE     H15Y     HAL2     0.900000E-01   1.00800           0
     10876 MEMB     87       PMPE     C316     CTL3    -0.270000       12.0110           0
     10877 MEMB     87       PMPE     H16X     HAL3     0.900000E-01   1.00800           0
     10878 MEMB     87       PMPE     H16Y     HAL3     0.900000E-01   1.00800           0
     10879 MEMB     87       PMPE     H16Z     HAL3     0.900000E-01   1.00800           0
     10880 MEMB     88       PYPG     C13      CTL2     0.500000E-01   12.0110           0
     10881 MEMB     88       PYPG     H13A     HAL2     0.900000E-01   1.00800           0
     10882 MEMB     88       PYPG     H13B     HAL2     0.900000E-01   1.00800           0
     10883 MEMB     88       PYPG     OC3      OHL     -0.660000       15.9994           0
     10884 MEMB     88       PYPG     HO3      HOL      0.430000       1.00800           0
     10885 MEMB     88       PYPG     C12      CTL1     0.140000       12.0110           0
     10886 MEMB     88       PYPG     H12A     HAL1     0.900000E-01   1.00800           0
     10887 MEMB     88       PYPG     OC2      OHL     -0.660000       15.9994           0
     10888 MEMB     88       PYPG     HO2      HOL      0.430000       1.00800           0
     10889 MEMB     88       PYPG     C11      CTL2    -0.800000E-01   12.0110           0
     10890 MEMB     88       PYPG     H11A     HAL2     0.900000E-01   1.00800           0
     10891 MEMB     88       PYPG     H11B     HAL2     0.900000E-01   1.00800           0
     10892 MEMB     88       PYPG     P        PL        1.50000       30.9740           0
     10893 MEMB     88       PYPG     O13      O2L     -0.780000       15.9994           0
     10894 MEMB     88       PYPG     O14      O2L     -0.780000       15.9994           0
     10895 MEMB     88       PYPG     O11      OSLP    -0.570000       15.9994           0
     10896 MEMB     88       PYPG     O12      OSLP    -0.570000       15.9994           0
     10897 MEMB     88       PYPG     C1       CTL2    -0.800000E-01   12.0110           0
     10898 MEMB     88       PYPG     HA       HAL2     0.900000E-01   1.00800           0
     10899 MEMB     88       PYPG     HB       HAL2     0.900000E-01   1.00800           0
     10900 MEMB     88       PYPG     C2       CTL1     0.170000       12.0110           0
     10901 MEMB     88       PYPG     HS       HAL1     0.900000E-01   1.00800           0
     10902 MEMB     88       PYPG     O21      OSL     -0.490000       15.9994           0
     10903 MEMB     88       PYPG     C21      CL       0.900000       12.0110           0
     10904 MEMB     88       PYPG     O22      OBL     -0.630000       15.9994           0
     10905 MEMB     88       PYPG     C22      CTL2    -0.220000       12.0110           0
     10906 MEMB     88       PYPG     H2R      HAL2     0.900000E-01   1.00800           0
     10907 MEMB     88       PYPG     H2S      HAL2     0.900000E-01   1.00800           0
     10908 MEMB     88       PYPG     C3       CTL2     0.800000E-01   12.0110           0
     10909 MEMB     88       PYPG     HX       HAL2     0.900000E-01   1.00800           0
     10910 MEMB     88       PYPG     HY       HAL2     0.900000E-01   1.00800           0
     10911 MEMB     88       PYPG     O31      OSL     -0.490000       15.9994           0
     10912 MEMB     88       PYPG     C31      CL       0.900000       12.0110           0
     10913 MEMB     88       PYPG     O32      OBL     -0.630000       15.9994           0
     10914 MEMB     88       PYPG     C32      CTL2    -0.220000       12.0110           0
     10915 MEMB     88       PYPG     H2X      HAL2     0.900000E-01   1.00800           0
     10916 MEMB     88       PYPG     H2Y      HAL2     0.900000E-01   1.00800           0
     10917 MEMB     88       PYPG     C23      CTL2    -0.180000       12.0110           0
     10918 MEMB     88       PYPG     H3R      HAL2     0.900000E-01   1.00800           0
     10919 MEMB     88       PYPG     H3S      HAL2     0.900000E-01   1.00800           0
     10920 MEMB     88       PYPG     C24      CTL2    -0.180000       12.0110           0
     10921 MEMB     88       PYPG     H4R      HAL2     0.900000E-01   1.00800           0
     10922 MEMB     88       PYPG     H4S      HAL2     0.900000E-01   1.00800           0
     10923 MEMB     88       PYPG     C25      CTL2    -0.180000       12.0110           0
     10924 MEMB     88       PYPG     H5R      HAL2     0.900000E-01   1.00800           0
     10925 MEMB     88       PYPG     H5S      HAL2     0.900000E-01   1.00800           0
     10926 MEMB     88       PYPG     C26      CTL2    -0.180000       12.0110           0
     10927 MEMB     88       PYPG     H6R      HAL2     0.900000E-01   1.00800           0
     10928 MEMB     88       PYPG     H6S      HAL2     0.900000E-01   1.00800           0
     10929 MEMB     88       PYPG     C27      CTL2    -0.180000       12.0110           0
     10930 MEMB     88       PYPG     H7R      HAL2     0.900000E-01   1.00800           0
     10931 MEMB     88       PYPG     H7S      HAL2     0.900000E-01   1.00800           0
     10932 MEMB     88       PYPG     C28      CTL2    -0.180000       12.0110           0
     10933 MEMB     88       PYPG     H8R      HAL2     0.900000E-01   1.00800           0
     10934 MEMB     88       PYPG     H8S      HAL2     0.900000E-01   1.00800           0
     10935 MEMB     88       PYPG     C29      CEL1    -0.150000       12.0110           0
     10936 MEMB     88       PYPG     H9R      HEL1     0.150000       1.00800           0
     10937 MEMB     88       PYPG     C210     CEL1    -0.150000       12.0110           0
     10938 MEMB     88       PYPG     H10R     HEL1     0.150000       1.00800           0
     10939 MEMB     88       PYPG     C211     CTL2    -0.180000       12.0110           0
     10940 MEMB     88       PYPG     H11R     HAL2     0.900000E-01   1.00800           0
     10941 MEMB     88       PYPG     H11S     HAL2     0.900000E-01   1.00800           0
     10942 MEMB     88       PYPG     C212     CTL2    -0.180000       12.0110           0
     10943 MEMB     88       PYPG     H12R     HAL2     0.900000E-01   1.00800           0
     10944 MEMB     88       PYPG     H12S     HAL2     0.900000E-01   1.00800           0
     10945 MEMB     88       PYPG     C213     CTL2    -0.180000       12.0110           0
     10946 MEMB     88       PYPG     H13R     HAL2     0.900000E-01   1.00800           0
     10947 MEMB     88       PYPG     H13S     HAL2     0.900000E-01   1.00800           0
     10948 MEMB     88       PYPG     C214     CTL2    -0.180000       12.0110           0
     10949 MEMB     88       PYPG     H14R     HAL2     0.900000E-01   1.00800           0
     10950 MEMB     88       PYPG     H14S     HAL2     0.900000E-01   1.00800           0
     10951 MEMB     88       PYPG     C215     CTL2    -0.180000       12.0110           0
     10952 MEMB     88       PYPG     H15R     HAL2     0.900000E-01   1.00800           0
     10953 MEMB     88       PYPG     H15S     HAL2     0.900000E-01   1.00800           0
     10954 MEMB     88       PYPG     C216     CTL3    -0.270000       12.0110           0
     10955 MEMB     88       PYPG     H16R     HAL3     0.900000E-01   1.00800           0
     10956 MEMB     88       PYPG     H16S     HAL3     0.900000E-01   1.00800           0
     10957 MEMB     88       PYPG     H16T     HAL3     0.900000E-01   1.00800           0
     10958 MEMB     88       PYPG     C33      CTL2    -0.180000       12.0110           0
     10959 MEMB     88       PYPG     H3X      HAL2     0.900000E-01   1.00800           0
     10960 MEMB     88       PYPG     H3Y      HAL2     0.900000E-01   1.00800           0
     10961 MEMB     88       PYPG     C34      CTL2    -0.180000       12.0110           0
     10962 MEMB     88       PYPG     H4X      HAL2     0.900000E-01   1.00800           0
     10963 MEMB     88       PYPG     H4Y      HAL2     0.900000E-01   1.00800           0
     10964 MEMB     88       PYPG     C35      CTL2    -0.180000       12.0110           0
     10965 MEMB     88       PYPG     H5X      HAL2     0.900000E-01   1.00800           0
     10966 MEMB     88       PYPG     H5Y      HAL2     0.900000E-01   1.00800           0
     10967 MEMB     88       PYPG     C36      CTL2    -0.180000       12.0110           0
     10968 MEMB     88       PYPG     H6X      HAL2     0.900000E-01   1.00800           0
     10969 MEMB     88       PYPG     H6Y      HAL2     0.900000E-01   1.00800           0
     10970 MEMB     88       PYPG     C37      CTL2    -0.180000       12.0110           0
     10971 MEMB     88       PYPG     H7X      HAL2     0.900000E-01   1.00800           0
     10972 MEMB     88       PYPG     H7Y      HAL2     0.900000E-01   1.00800           0
     10973 MEMB     88       PYPG     C38      CTL2    -0.180000       12.0110           0
     10974 MEMB     88       PYPG     H8X      HAL2     0.900000E-01   1.00800           0
     10975 MEMB     88       PYPG     H8Y      HAL2     0.900000E-01   1.00800           0
     10976 MEMB     88       PYPG     C39      CTL2    -0.180000       12.0110           0
     10977 MEMB     88       PYPG     H9X      HAL2     0.900000E-01   1.00800           0
     10978 MEMB     88       PYPG     H9Y      HAL2     0.900000E-01   1.00800           0
     10979 MEMB     88       PYPG     C310     CTL2    -0.180000       12.0110           0
     10980 MEMB     88       PYPG     H10X     HAL2     0.900000E-01   1.00800           0
     10981 MEMB     88       PYPG     H10Y     HAL2     0.900000E-01   1.00800           0
     10982 MEMB     88       PYPG     C311     CTL2    -0.180000       12.0110           0
     10983 MEMB     88       PYPG     H11X     HAL2     0.900000E-01   1.00800           0
     10984 MEMB     88       PYPG     H11Y     HAL2     0.900000E-01   1.00800           0
     10985 MEMB     88       PYPG     C312     CTL2    -0.180000       12.0110           0
     10986 MEMB     88       PYPG     H12X     HAL2     0.900000E-01   1.00800           0
     10987 MEMB     88       PYPG     H12Y     HAL2     0.900000E-01   1.00800           0
     10988 MEMB     88       PYPG     C313     CTL2    -0.180000       12.0110           0
     10989 MEMB     88       PYPG     H13X     HAL2     0.900000E-01   1.00800           0
     10990 MEMB     88       PYPG     H13Y     HAL2     0.900000E-01   1.00800           0
     10991 MEMB     88       PYPG     C314     CTL2    -0.180000       12.0110           0
     10992 MEMB     88       PYPG     H14X     HAL2     0.900000E-01   1.00800           0
     10993 MEMB     88       PYPG     H14Y     HAL2     0.900000E-01   1.00800           0
     10994 MEMB     88       PYPG     C315     CTL2    -0.180000       12.0110           0
     10995 MEMB     88       PYPG     H15X     HAL2     0.900000E-01   1.00800           0
     10996 MEMB     88       PYPG     H15Y     HAL2     0.900000E-01   1.00800           0
     10997 MEMB     88       PYPG     C316     CTL3    -0.270000       12.0110           0
     10998 MEMB     88       PYPG     H16X     HAL3     0.900000E-01   1.00800           0
     10999 MEMB     88       PYPG     H16Y     HAL3     0.900000E-01   1.00800           0
     11000 MEMB     88       PYPG     H16Z     HAL3     0.900000E-01   1.00800           0
     11001 MEMB     89       PMPG     C13      CTL2     0.500000E-01   12.0110           0
     11002 MEMB     89       PMPG     H13A     HAL2     0.900000E-01   1.00800           0
     11003 MEMB     89       PMPG     H13B     HAL2     0.900000E-01   1.00800           0
     11004 MEMB     89       PMPG     OC3      OHL     -0.660000       15.9994           0
     11005 MEMB     89       PMPG     HO3      HOL      0.430000       1.00800           0
     11006 MEMB     89       PMPG     C12      CTL1     0.140000       12.0110           0
     11007 MEMB     89       PMPG     H12A     HAL1     0.900000E-01   1.00800           0
     11008 MEMB     89       PMPG     OC2      OHL     -0.660000       15.9994           0
     11009 MEMB     89       PMPG     HO2      HOL      0.430000       1.00800           0
     11010 MEMB     89       PMPG     C11      CTL2    -0.800000E-01   12.0110           0
     11011 MEMB     89       PMPG     H11A     HAL2     0.900000E-01   1.00800           0
     11012 MEMB     89       PMPG     H11B     HAL2     0.900000E-01   1.00800           0
     11013 MEMB     89       PMPG     P        PL        1.50000       30.9740           0
     11014 MEMB     89       PMPG     O13      O2L     -0.780000       15.9994           0
     11015 MEMB     89       PMPG     O14      O2L     -0.780000       15.9994           0
     11016 MEMB     89       PMPG     O11      OSLP    -0.570000       15.9994           0
     11017 MEMB     89       PMPG     O12      OSLP    -0.570000       15.9994           0
     11018 MEMB     89       PMPG     C1       CTL2    -0.800000E-01   12.0110           0
     11019 MEMB     89       PMPG     HA       HAL2     0.900000E-01   1.00800           0
     11020 MEMB     89       PMPG     HB       HAL2     0.900000E-01   1.00800           0
     11021 MEMB     89       PMPG     C2       CTL1     0.170000       12.0110           0
     11022 MEMB     89       PMPG     HS       HAL1     0.900000E-01   1.00800           0
     11023 MEMB     89       PMPG     O21      OSL     -0.490000       15.9994           0
     11024 MEMB     89       PMPG     C21      CL       0.900000       12.0110           0
     11025 MEMB     89       PMPG     O22      OBL     -0.630000       15.9994           0
     11026 MEMB     89       PMPG     C22      CTL2    -0.220000       12.0110           0
     11027 MEMB     89       PMPG     H2R      HAL2     0.900000E-01   1.00800           0
     11028 MEMB     89       PMPG     H2S      HAL2     0.900000E-01   1.00800           0
     11029 MEMB     89       PMPG     C3       CTL2     0.800000E-01   12.0110           0
     11030 MEMB     89       PMPG     HX       HAL2     0.900000E-01   1.00800           0
     11031 MEMB     89       PMPG     HY       HAL2     0.900000E-01   1.00800           0
     11032 MEMB     89       PMPG     O31      OSL     -0.490000       15.9994           0
     11033 MEMB     89       PMPG     C31      CL       0.900000       12.0110           0
     11034 MEMB     89       PMPG     O32      OBL     -0.630000       15.9994           0
     11035 MEMB     89       PMPG     C32      CTL2    -0.220000       12.0110           0
     11036 MEMB     89       PMPG     H2X      HAL2     0.900000E-01   1.00800           0
     11037 MEMB     89       PMPG     H2Y      HAL2     0.900000E-01   1.00800           0
     11038 MEMB     89       PMPG     C23      CTL2    -0.180000       12.0110           0
     11039 MEMB     89       PMPG     H3R      HAL2     0.900000E-01   1.00800           0
     11040 MEMB     89       PMPG     H3S      HAL2     0.900000E-01   1.00800           0
     11041 MEMB     89       PMPG     C24      CTL2    -0.180000       12.0110           0
     11042 MEMB     89       PMPG     H4R      HAL2     0.900000E-01   1.00800           0
     11043 MEMB     89       PMPG     H4S      HAL2     0.900000E-01   1.00800           0
     11044 MEMB     89       PMPG     C25      CTL2    -0.180000       12.0110           0
     11045 MEMB     89       PMPG     H5R      HAL2     0.900000E-01   1.00800           0
     11046 MEMB     89       PMPG     H5S      HAL2     0.900000E-01   1.00800           0
     11047 MEMB     89       PMPG     C26      CTL2    -0.180000       12.0110           0
     11048 MEMB     89       PMPG     H6R      HAL2     0.900000E-01   1.00800           0
     11049 MEMB     89       PMPG     H6S      HAL2     0.900000E-01   1.00800           0
     11050 MEMB     89       PMPG     C27      CTL2    -0.180000       12.0110           0
     11051 MEMB     89       PMPG     H7R      HAL2     0.900000E-01   1.00800           0
     11052 MEMB     89       PMPG     H7S      HAL2     0.900000E-01   1.00800           0
     11053 MEMB     89       PMPG     C28      CTL2    -0.180000       12.0110           0
     11054 MEMB     89       PMPG     H8R      HAL2     0.900000E-01   1.00800           0
     11055 MEMB     89       PMPG     H8S      HAL2     0.900000E-01   1.00800           0
     11056 MEMB     89       PMPG     C29      CG3RC1  -0.900000E-01   12.0110           0
     11057 MEMB     89       PMPG     H9R      HGA1     0.900000E-01   1.00800           0
     11058 MEMB     89       PMPG     C217     CG3C31  -0.180000       12.0110           0
     11059 MEMB     89       PMPG     H17R     HGA2     0.900000E-01   1.00800           0
     11060 MEMB     89       PMPG     H17S     HGA2     0.900000E-01   1.00800           0
     11061 MEMB     89       PMPG     C210     CG3RC1  -0.900000E-01   12.0110           0
     11062 MEMB     89       PMPG     H10R     HGA1     0.900000E-01   1.00800           0
     11063 MEMB     89       PMPG     C211     CTL2    -0.180000       12.0110           0
     11064 MEMB     89       PMPG     H11R     HAL2     0.900000E-01   1.00800           0
     11065 MEMB     89       PMPG     H11S     HAL2     0.900000E-01   1.00800           0
     11066 MEMB     89       PMPG     C212     CTL2    -0.180000       12.0110           0
     11067 MEMB     89       PMPG     H12R     HAL2     0.900000E-01   1.00800           0
     11068 MEMB     89       PMPG     H12S     HAL2     0.900000E-01   1.00800           0
     11069 MEMB     89       PMPG     C213     CTL2    -0.180000       12.0110           0
     11070 MEMB     89       PMPG     H13R     HAL2     0.900000E-01   1.00800           0
     11071 MEMB     89       PMPG     H13S     HAL2     0.900000E-01   1.00800           0
     11072 MEMB     89       PMPG     C214     CTL2    -0.180000       12.0110           0
     11073 MEMB     89       PMPG     H14R     HAL2     0.900000E-01   1.00800           0
     11074 MEMB     89       PMPG     H14S     HAL2     0.900000E-01   1.00800           0
     11075 MEMB     89       PMPG     C215     CTL2    -0.180000       12.0110           0
     11076 MEMB     89       PMPG     H15R     HAL2     0.900000E-01   1.00800           0
     11077 MEMB     89       PMPG     H15S     HAL2     0.900000E-01   1.00800           0
     11078 MEMB     89       PMPG     C216     CTL3    -0.270000       12.0110           0
     11079 MEMB     89       PMPG     H16R     HAL3     0.900000E-01   1.00800           0
     11080 MEMB     89       PMPG     H16S     HAL3     0.900000E-01   1.00800           0
     11081 MEMB     89       PMPG     H16T     HAL3     0.900000E-01   1.00800           0
     11082 MEMB     89       PMPG     C33      CTL2    -0.180000       12.0110           0
     11083 MEMB     89       PMPG     H3X      HAL2     0.900000E-01   1.00800           0
     11084 MEMB     89       PMPG     H3Y      HAL2     0.900000E-01   1.00800           0
     11085 MEMB     89       PMPG     C34      CTL2    -0.180000       12.0110           0
     11086 MEMB     89       PMPG     H4X      HAL2     0.900000E-01   1.00800           0
     11087 MEMB     89       PMPG     H4Y      HAL2     0.900000E-01   1.00800           0
     11088 MEMB     89       PMPG     C35      CTL2    -0.180000       12.0110           0
     11089 MEMB     89       PMPG     H5X      HAL2     0.900000E-01   1.00800           0
     11090 MEMB     89       PMPG     H5Y      HAL2     0.900000E-01   1.00800           0
     11091 MEMB     89       PMPG     C36      CTL2    -0.180000       12.0110           0
     11092 MEMB     89       PMPG     H6X      HAL2     0.900000E-01   1.00800           0
     11093 MEMB     89       PMPG     H6Y      HAL2     0.900000E-01   1.00800           0
     11094 MEMB     89       PMPG     C37      CTL2    -0.180000       12.0110           0
     11095 MEMB     89       PMPG     H7X      HAL2     0.900000E-01   1.00800           0
     11096 MEMB     89       PMPG     H7Y      HAL2     0.900000E-01   1.00800           0
     11097 MEMB     89       PMPG     C38      CTL2    -0.180000       12.0110           0
     11098 MEMB     89       PMPG     H8X      HAL2     0.900000E-01   1.00800           0
     11099 MEMB     89       PMPG     H8Y      HAL2     0.900000E-01   1.00800           0
     11100 MEMB     89       PMPG     C39      CTL2    -0.180000       12.0110           0
     11101 MEMB     89       PMPG     H9X      HAL2     0.900000E-01   1.00800           0
     11102 MEMB     89       PMPG     H9Y      HAL2     0.900000E-01   1.00800           0
     11103 MEMB     89       PMPG     C310     CTL2    -0.180000       12.0110           0
     11104 MEMB     89       PMPG     H10X     HAL2     0.900000E-01   1.00800           0
     11105 MEMB     89       PMPG     H10Y     HAL2     0.900000E-01   1.00800           0
     11106 MEMB     89       PMPG     C311     CTL2    -0.180000       12.0110           0
     11107 MEMB     89       PMPG     H11X     HAL2     0.900000E-01   1.00800           0
     11108 MEMB     89       PMPG     H11Y     HAL2     0.900000E-01   1.00800           0
     11109 MEMB     89       PMPG     C312     CTL2    -0.180000       12.0110           0
     11110 MEMB     89       PMPG     H12X     HAL2     0.900000E-01   1.00800           0
     11111 MEMB     89       PMPG     H12Y     HAL2     0.900000E-01   1.00800           0
     11112 MEMB     89       PMPG     C313     CTL2    -0.180000       12.0110           0
     11113 MEMB     89       PMPG     H13X     HAL2     0.900000E-01   1.00800           0
     11114 MEMB     89       PMPG     H13Y     HAL2     0.900000E-01   1.00800           0
     11115 MEMB     89       PMPG     C314     CTL2    -0.180000       12.0110           0
     11116 MEMB     89       PMPG     H14X     HAL2     0.900000E-01   1.00800           0
     11117 MEMB     89       PMPG     H14Y     HAL2     0.900000E-01   1.00800           0
     11118 MEMB     89       PMPG     C315     CTL2    -0.180000       12.0110           0
     11119 MEMB     89       PMPG     H15X     HAL2     0.900000E-01   1.00800           0
     11120 MEMB     89       PMPG     H15Y     HAL2     0.900000E-01   1.00800           0
     11121 MEMB     89       PMPG     C316     CTL3    -0.270000       12.0110           0
     11122 MEMB     89       PMPG     H16X     HAL3     0.900000E-01   1.00800           0
     11123 MEMB     89       PMPG     H16Y     HAL3     0.900000E-01   1.00800           0
     11124 MEMB     89       PMPG     H16Z     HAL3     0.900000E-01   1.00800           0
     11125 MEMB     90       PMPE     N        NH3L    -0.300000       14.0070           0
     11126 MEMB     90       PMPE     HN1      HCL      0.330000       1.00800           0
     11127 MEMB     90       PMPE     HN2      HCL      0.330000       1.00800           0
     11128 MEMB     90       PMPE     HN3      HCL      0.330000       1.00800           0
     11129 MEMB     90       PMPE     C12      CTL2     0.130000       12.0110           0
     11130 MEMB     90       PMPE     H12A     HAL2     0.900000E-01   1.00800           0
     11131 MEMB     90       PMPE     H12B     HAL2     0.900000E-01   1.00800           0
     11132 MEMB     90       PMPE     C11      CTL2    -0.800000E-01   12.0110           0
     11133 MEMB     90       PMPE     H11A     HAL2     0.900000E-01   1.00800           0
     11134 MEMB     90       PMPE     H11B     HAL2     0.900000E-01   1.00800           0
     11135 MEMB     90       PMPE     P        PL        1.50000       30.9740           0
     11136 MEMB     90       PMPE     O13      O2L     -0.780000       15.9994           0
     11137 MEMB     90       PMPE     O14      O2L     -0.780000       15.9994           0
     11138 MEMB     90       PMPE     O11      OSLP    -0.570000       15.9994           0
     11139 MEMB     90       PMPE     O12      OSLP    -0.570000       15.9994           0
     11140 MEMB     90       PMPE     C1       CTL2    -0.800000E-01   12.0110           0
     11141 MEMB     90       PMPE     HA       HAL2     0.900000E-01   1.00800           0
     11142 MEMB     90       PMPE     HB       HAL2     0.900000E-01   1.00800           0
     11143 MEMB     90       PMPE     C2       CTL1     0.170000       12.0110           0
     11144 MEMB     90       PMPE     HS       HAL1     0.900000E-01   1.00800           0
     11145 MEMB     90       PMPE     O21      OSL     -0.490000       15.9994           0
     11146 MEMB     90       PMPE     C21      CL       0.900000       12.0110           0
     11147 MEMB     90       PMPE     O22      OBL     -0.630000       15.9994           0
     11148 MEMB     90       PMPE     C22      CTL2    -0.220000       12.0110           0
     11149 MEMB     90       PMPE     H2R      HAL2     0.900000E-01   1.00800           0
     11150 MEMB     90       PMPE     H2S      HAL2     0.900000E-01   1.00800           0
     11151 MEMB     90       PMPE     C3       CTL2     0.800000E-01   12.0110           0
     11152 MEMB     90       PMPE     HX       HAL2     0.900000E-01   1.00800           0
     11153 MEMB     90       PMPE     HY       HAL2     0.900000E-01   1.00800           0
     11154 MEMB     90       PMPE     O31      OSL     -0.490000       15.9994           0
     11155 MEMB     90       PMPE     C31      CL       0.900000       12.0110           0
     11156 MEMB     90       PMPE     O32      OBL     -0.630000       15.9994           0
     11157 MEMB     90       PMPE     C32      CTL2    -0.220000       12.0110           0
     11158 MEMB     90       PMPE     H2X      HAL2     0.900000E-01   1.00800           0
     11159 MEMB     90       PMPE     H2Y      HAL2     0.900000E-01   1.00800           0
     11160 MEMB     90       PMPE     C23      CTL2    -0.180000       12.0110           0
     11161 MEMB     90       PMPE     H3R      HAL2     0.900000E-01   1.00800           0
     11162 MEMB     90       PMPE     H3S      HAL2     0.900000E-01   1.00800           0
     11163 MEMB     90       PMPE     C24      CTL2    -0.180000       12.0110           0
     11164 MEMB     90       PMPE     H4R      HAL2     0.900000E-01   1.00800           0
     11165 MEMB     90       PMPE     H4S      HAL2     0.900000E-01   1.00800           0
     11166 MEMB     90       PMPE     C25      CTL2    -0.180000       12.0110           0
     11167 MEMB     90       PMPE     H5R      HAL2     0.900000E-01   1.00800           0
     11168 MEMB     90       PMPE     H5S      HAL2     0.900000E-01   1.00800           0
     11169 MEMB     90       PMPE     C26      CTL2    -0.180000       12.0110           0
     11170 MEMB     90       PMPE     H6R      HAL2     0.900000E-01   1.00800           0
     11171 MEMB     90       PMPE     H6S      HAL2     0.900000E-01   1.00800           0
     11172 MEMB     90       PMPE     C27      CTL2    -0.180000       12.0110           0
     11173 MEMB     90       PMPE     H7R      HAL2     0.900000E-01   1.00800           0
     11174 MEMB     90       PMPE     H7S      HAL2     0.900000E-01   1.00800           0
     11175 MEMB     90       PMPE     C28      CTL2    -0.180000       12.0110           0
     11176 MEMB     90       PMPE     H8R      HAL2     0.900000E-01   1.00800           0
     11177 MEMB     90       PMPE     H8S      HAL2     0.900000E-01   1.00800           0
     11178 MEMB     90       PMPE     C29      CG3RC1  -0.900000E-01   12.0110           0
     11179 MEMB     90       PMPE     H9R      HGA1     0.900000E-01   1.00800           0
     11180 MEMB     90       PMPE     C217     CG3C31  -0.180000       12.0110           0
     11181 MEMB     90       PMPE     H17R     HGA2     0.900000E-01   1.00800           0
     11182 MEMB     90       PMPE     H17S     HGA2     0.900000E-01   1.00800           0
     11183 MEMB     90       PMPE     C210     CG3RC1  -0.900000E-01   12.0110           0
     11184 MEMB     90       PMPE     H10R     HGA1     0.900000E-01   1.00800           0
     11185 MEMB     90       PMPE     C211     CTL2    -0.180000       12.0110           0
     11186 MEMB     90       PMPE     H11R     HAL2     0.900000E-01   1.00800           0
     11187 MEMB     90       PMPE     H11S     HAL2     0.900000E-01   1.00800           0
     11188 MEMB     90       PMPE     C212     CTL2    -0.180000       12.0110           0
     11189 MEMB     90       PMPE     H12R     HAL2     0.900000E-01   1.00800           0
     11190 MEMB     90       PMPE     H12S     HAL2     0.900000E-01   1.00800           0
     11191 MEMB     90       PMPE     C213     CTL2    -0.180000       12.0110           0
     11192 MEMB     90       PMPE     H13R     HAL2     0.900000E-01   1.00800           0
     11193 MEMB     90       PMPE     H13S     HAL2     0.900000E-01   1.00800           0
     11194 MEMB     90       PMPE     C214     CTL2    -0.180000       12.0110           0
     11195 MEMB     90       PMPE     H14R     HAL2     0.900000E-01   1.00800           0
     11196 MEMB     90       PMPE     H14S     HAL2     0.900000E-01   1.00800           0
     11197 MEMB     90       PMPE     C215     CTL2    -0.180000       12.0110           0
     11198 MEMB     90       PMPE     H15R     HAL2     0.900000E-01   1.00800           0
     11199 MEMB     90       PMPE     H15S     HAL2     0.900000E-01   1.00800           0
     11200 MEMB     90       PMPE     C216     CTL3    -0.270000       12.0110           0
     11201 MEMB     90       PMPE     H16R     HAL3     0.900000E-01   1.00800           0
     11202 MEMB     90       PMPE     H16S     HAL3     0.900000E-01   1.00800           0
     11203 MEMB     90       PMPE     H16T     HAL3     0.900000E-01   1.00800           0
     11204 MEMB     90       PMPE     C33      CTL2    -0.180000       12.0110           0
     11205 MEMB     90       PMPE     H3X      HAL2     0.900000E-01   1.00800           0
     11206 MEMB     90       PMPE     H3Y      HAL2     0.900000E-01   1.00800           0
     11207 MEMB     90       PMPE     C34      CTL2    -0.180000       12.0110           0
     11208 MEMB     90       PMPE     H4X      HAL2     0.900000E-01   1.00800           0
     11209 MEMB     90       PMPE     H4Y      HAL2     0.900000E-01   1.00800           0
     11210 MEMB     90       PMPE     C35      CTL2    -0.180000       12.0110           0
     11211 MEMB     90       PMPE     H5X      HAL2     0.900000E-01   1.00800           0
     11212 MEMB     90       PMPE     H5Y      HAL2     0.900000E-01   1.00800           0
     11213 MEMB     90       PMPE     C36      CTL2    -0.180000       12.0110           0
     11214 MEMB     90       PMPE     H6X      HAL2     0.900000E-01   1.00800           0
     11215 MEMB     90       PMPE     H6Y      HAL2     0.900000E-01   1.00800           0
     11216 MEMB     90       PMPE     C37      CTL2    -0.180000       12.0110           0
     11217 MEMB     90       PMPE     H7X      HAL2     0.900000E-01   1.00800           0
     11218 MEMB     90       PMPE     H7Y      HAL2     0.900000E-01   1.00800           0
     11219 MEMB     90       PMPE     C38      CTL2    -0.180000       12.0110           0
     11220 MEMB     90       PMPE     H8X      HAL2     0.900000E-01   1.00800           0
     11221 MEMB     90       PMPE     H8Y      HAL2     0.900000E-01   1.00800           0
     11222 MEMB     90       PMPE     C39      CTL2    -0.180000       12.0110           0
     11223 MEMB     90       PMPE     H9X      HAL2     0.900000E-01   1.00800           0
     11224 MEMB     90       PMPE     H9Y      HAL2     0.900000E-01   1.00800           0
     11225 MEMB     90       PMPE     C310     CTL2    -0.180000       12.0110           0
     11226 MEMB     90       PMPE     H10X     HAL2     0.900000E-01   1.00800           0
     11227 MEMB     90       PMPE     H10Y     HAL2     0.900000E-01   1.00800           0
     11228 MEMB     90       PMPE     C311     CTL2    -0.180000       12.0110           0
     11229 MEMB     90       PMPE     H11X     HAL2     0.900000E-01   1.00800           0
     11230 MEMB     90       PMPE     H11Y     HAL2     0.900000E-01   1.00800           0
     11231 MEMB     90       PMPE     C312     CTL2    -0.180000       12.0110           0
     11232 MEMB     90       PMPE     H12X     HAL2     0.900000E-01   1.00800           0
     11233 MEMB     90       PMPE     H12Y     HAL2     0.900000E-01   1.00800           0
     11234 MEMB     90       PMPE     C313     CTL2    -0.180000       12.0110           0
     11235 MEMB     90       PMPE     H13X     HAL2     0.900000E-01   1.00800           0
     11236 MEMB     90       PMPE     H13Y     HAL2     0.900000E-01   1.00800           0
     11237 MEMB     90       PMPE     C314     CTL2    -0.180000       12.0110           0
     11238 MEMB     90       PMPE     H14X     HAL2     0.900000E-01   1.00800           0
     11239 MEMB     90       PMPE     H14Y     HAL2     0.900000E-01   1.00800           0
     11240 MEMB     90       PMPE     C315     CTL2    -0.180000       12.0110           0
     11241 MEMB     90       PMPE     H15X     HAL2     0.900000E-01   1.00800           0
     11242 MEMB     90       PMPE     H15Y     HAL2     0.900000E-01   1.00800           0
     11243 MEMB     90       PMPE     C316     CTL3    -0.270000       12.0110           0
     11244 MEMB     90       PMPE     H16X     HAL3     0.900000E-01   1.00800           0
     11245 MEMB     90       PMPE     H16Y     HAL3     0.900000E-01   1.00800           0
     11246 MEMB     90       PMPE     H16Z     HAL3     0.900000E-01   1.00800           0
     11247 MEMB     91       OYPE     N        NH3L    -0.300000       14.0070           0
     11248 MEMB     91       OYPE     HN1      HCL      0.330000       1.00800           0
     11249 MEMB     91       OYPE     HN2      HCL      0.330000       1.00800           0
     11250 MEMB     91       OYPE     HN3      HCL      0.330000       1.00800           0
     11251 MEMB     91       OYPE     C12      CTL2     0.130000       12.0110           0
     11252 MEMB     91       OYPE     H12A     HAL2     0.900000E-01   1.00800           0
     11253 MEMB     91       OYPE     H12B     HAL2     0.900000E-01   1.00800           0
     11254 MEMB     91       OYPE     C11      CTL2    -0.800000E-01   12.0110           0
     11255 MEMB     91       OYPE     H11A     HAL2     0.900000E-01   1.00800           0
     11256 MEMB     91       OYPE     H11B     HAL2     0.900000E-01   1.00800           0
     11257 MEMB     91       OYPE     P        PL        1.50000       30.9740           0
     11258 MEMB     91       OYPE     O13      O2L     -0.780000       15.9994           0
     11259 MEMB     91       OYPE     O14      O2L     -0.780000       15.9994           0
     11260 MEMB     91       OYPE     O11      OSLP    -0.570000       15.9994           0
     11261 MEMB     91       OYPE     O12      OSLP    -0.570000       15.9994           0
     11262 MEMB     91       OYPE     C1       CTL2    -0.800000E-01   12.0110           0
     11263 MEMB     91       OYPE     HA       HAL2     0.900000E-01   1.00800           0
     11264 MEMB     91       OYPE     HB       HAL2     0.900000E-01   1.00800           0
     11265 MEMB     91       OYPE     C2       CTL1     0.170000       12.0110           0
     11266 MEMB     91       OYPE     HS       HAL1     0.900000E-01   1.00800           0
     11267 MEMB     91       OYPE     O21      OSL     -0.490000       15.9994           0
     11268 MEMB     91       OYPE     C21      CL       0.900000       12.0110           0
     11269 MEMB     91       OYPE     O22      OBL     -0.630000       15.9994           0
     11270 MEMB     91       OYPE     C22      CTL2    -0.220000       12.0110           0
     11271 MEMB     91       OYPE     H2R      HAL2     0.900000E-01   1.00800           0
     11272 MEMB     91       OYPE     H2S      HAL2     0.900000E-01   1.00800           0
     11273 MEMB     91       OYPE     C3       CTL2     0.800000E-01   12.0110           0
     11274 MEMB     91       OYPE     HX       HAL2     0.900000E-01   1.00800           0
     11275 MEMB     91       OYPE     HY       HAL2     0.900000E-01   1.00800           0
     11276 MEMB     91       OYPE     O31      OSL     -0.490000       15.9994           0
     11277 MEMB     91       OYPE     C31      CL       0.900000       12.0110           0
     11278 MEMB     91       OYPE     O32      OBL     -0.630000       15.9994           0
     11279 MEMB     91       OYPE     C32      CTL2    -0.220000       12.0110           0
     11280 MEMB     91       OYPE     H2X      HAL2     0.900000E-01   1.00800           0
     11281 MEMB     91       OYPE     H2Y      HAL2     0.900000E-01   1.00800           0
     11282 MEMB     91       OYPE     C23      CTL2    -0.180000       12.0110           0
     11283 MEMB     91       OYPE     H3R      HAL2     0.900000E-01   1.00800           0
     11284 MEMB     91       OYPE     H3S      HAL2     0.900000E-01   1.00800           0
     11285 MEMB     91       OYPE     C24      CTL2    -0.180000       12.0110           0
     11286 MEMB     91       OYPE     H4R      HAL2     0.900000E-01   1.00800           0
     11287 MEMB     91       OYPE     H4S      HAL2     0.900000E-01   1.00800           0
     11288 MEMB     91       OYPE     C25      CTL2    -0.180000       12.0110           0
     11289 MEMB     91       OYPE     H5R      HAL2     0.900000E-01   1.00800           0
     11290 MEMB     91       OYPE     H5S      HAL2     0.900000E-01   1.00800           0
     11291 MEMB     91       OYPE     C26      CTL2    -0.180000       12.0110           0
     11292 MEMB     91       OYPE     H6R      HAL2     0.900000E-01   1.00800           0
     11293 MEMB     91       OYPE     H6S      HAL2     0.900000E-01   1.00800           0
     11294 MEMB     91       OYPE     C27      CTL2    -0.180000       12.0110           0
     11295 MEMB     91       OYPE     H7R      HAL2     0.900000E-01   1.00800           0
     11296 MEMB     91       OYPE     H7S      HAL2     0.900000E-01   1.00800           0
     11297 MEMB     91       OYPE     C28      CTL2    -0.180000       12.0110           0
     11298 MEMB     91       OYPE     H8R      HAL2     0.900000E-01   1.00800           0
     11299 MEMB     91       OYPE     H8S      HAL2     0.900000E-01   1.00800           0
     11300 MEMB     91       OYPE     C29      CEL1    -0.150000       12.0110           0
     11301 MEMB     91       OYPE     H9R      HEL1     0.150000       1.00800           0
     11302 MEMB     91       OYPE     C210     CEL1    -0.150000       12.0110           0
     11303 MEMB     91       OYPE     H10R     HEL1     0.150000       1.00800           0
     11304 MEMB     91       OYPE     C211     CTL2    -0.180000       12.0110           0
     11305 MEMB     91       OYPE     H11R     HAL2     0.900000E-01   1.00800           0
     11306 MEMB     91       OYPE     H11S     HAL2     0.900000E-01   1.00800           0
     11307 MEMB     91       OYPE     C212     CTL2    -0.180000       12.0110           0
     11308 MEMB     91       OYPE     H12R     HAL2     0.900000E-01   1.00800           0
     11309 MEMB     91       OYPE     H12S     HAL2     0.900000E-01   1.00800           0
     11310 MEMB     91       OYPE     C213     CTL2    -0.180000       12.0110           0
     11311 MEMB     91       OYPE     H13R     HAL2     0.900000E-01   1.00800           0
     11312 MEMB     91       OYPE     H13S     HAL2     0.900000E-01   1.00800           0
     11313 MEMB     91       OYPE     C214     CTL2    -0.180000       12.0110           0
     11314 MEMB     91       OYPE     H14R     HAL2     0.900000E-01   1.00800           0
     11315 MEMB     91       OYPE     H14S     HAL2     0.900000E-01   1.00800           0
     11316 MEMB     91       OYPE     C215     CTL2    -0.180000       12.0110           0
     11317 MEMB     91       OYPE     H15R     HAL2     0.900000E-01   1.00800           0
     11318 MEMB     91       OYPE     H15S     HAL2     0.900000E-01   1.00800           0
     11319 MEMB     91       OYPE     C216     CTL3    -0.270000       12.0110           0
     11320 MEMB     91       OYPE     H16R     HAL3     0.900000E-01   1.00800           0
     11321 MEMB     91       OYPE     H16S     HAL3     0.900000E-01   1.00800           0
     11322 MEMB     91       OYPE     H16T     HAL3     0.900000E-01   1.00800           0
     11323 MEMB     91       OYPE     C33      CTL2    -0.180000       12.0110           0
     11324 MEMB     91       OYPE     H3X      HAL2     0.900000E-01   1.00800           0
     11325 MEMB     91       OYPE     H3Y      HAL2     0.900000E-01   1.00800           0
     11326 MEMB     91       OYPE     C34      CTL2    -0.180000       12.0110           0
     11327 MEMB     91       OYPE     H4X      HAL2     0.900000E-01   1.00800           0
     11328 MEMB     91       OYPE     H4Y      HAL2     0.900000E-01   1.00800           0
     11329 MEMB     91       OYPE     C35      CTL2    -0.180000       12.0110           0
     11330 MEMB     91       OYPE     H5X      HAL2     0.900000E-01   1.00800           0
     11331 MEMB     91       OYPE     H5Y      HAL2     0.900000E-01   1.00800           0
     11332 MEMB     91       OYPE     C36      CTL2    -0.180000       12.0110           0
     11333 MEMB     91       OYPE     H6X      HAL2     0.900000E-01   1.00800           0
     11334 MEMB     91       OYPE     H6Y      HAL2     0.900000E-01   1.00800           0
     11335 MEMB     91       OYPE     C37      CTL2    -0.180000       12.0110           0
     11336 MEMB     91       OYPE     H7X      HAL2     0.900000E-01   1.00800           0
     11337 MEMB     91       OYPE     H7Y      HAL2     0.900000E-01   1.00800           0
     11338 MEMB     91       OYPE     C38      CTL2    -0.180000       12.0110           0
     11339 MEMB     91       OYPE     H8X      HAL2     0.900000E-01   1.00800           0
     11340 MEMB     91       OYPE     H8Y      HAL2     0.900000E-01   1.00800           0
     11341 MEMB     91       OYPE     C39      CEL1    -0.150000       12.0110           0
     11342 MEMB     91       OYPE     H9X      HEL1     0.150000       1.00800           0
     11343 MEMB     91       OYPE     C310     CEL1    -0.150000       12.0110           0
     11344 MEMB     91       OYPE     H10X     HEL1     0.150000       1.00800           0
     11345 MEMB     91       OYPE     C311     CTL2    -0.180000       12.0110           0
     11346 MEMB     91       OYPE     H11X     HAL2     0.900000E-01   1.00800           0
     11347 MEMB     91       OYPE     H11Y     HAL2     0.900000E-01   1.00800           0
     11348 MEMB     91       OYPE     C312     CTL2    -0.180000       12.0110           0
     11349 MEMB     91       OYPE     H12X     HAL2     0.900000E-01   1.00800           0
     11350 MEMB     91       OYPE     H12Y     HAL2     0.900000E-01   1.00800           0
     11351 MEMB     91       OYPE     C313     CTL2    -0.180000       12.0110           0
     11352 MEMB     91       OYPE     H13X     HAL2     0.900000E-01   1.00800           0
     11353 MEMB     91       OYPE     H13Y     HAL2     0.900000E-01   1.00800           0
     11354 MEMB     91       OYPE     C314     CTL2    -0.180000       12.0110           0
     11355 MEMB     91       OYPE     H14X     HAL2     0.900000E-01   1.00800           0
     11356 MEMB     91       OYPE     H14Y     HAL2     0.900000E-01   1.00800           0
     11357 MEMB     91       OYPE     C315     CTL2    -0.180000       12.0110           0
     11358 MEMB     91       OYPE     H15X     HAL2     0.900000E-01   1.00800           0
     11359 MEMB     91       OYPE     H15Y     HAL2     0.900000E-01   1.00800           0
     11360 MEMB     91       OYPE     C316     CTL2    -0.180000       12.0110           0
     11361 MEMB     91       OYPE     H16X     HAL2     0.900000E-01   1.00800           0
     11362 MEMB     91       OYPE     H16Y     HAL2     0.900000E-01   1.00800           0
     11363 MEMB     91       OYPE     C317     CTL2    -0.180000       12.0110           0
     11364 MEMB     91       OYPE     H17X     HAL2     0.900000E-01   1.00800           0
     11365 MEMB     91       OYPE     H17Y     HAL2     0.900000E-01   1.00800           0
     11366 MEMB     91       OYPE     C318     CTL3    -0.270000       12.0110           0
     11367 MEMB     91       OYPE     H18X     HAL3     0.900000E-01   1.00800           0
     11368 MEMB     91       OYPE     H18Y     HAL3     0.900000E-01   1.00800           0
     11369 MEMB     91       OYPE     H18Z     HAL3     0.900000E-01   1.00800           0
     11370 MEMB     92       PYPG     C13      CTL2     0.500000E-01   12.0110           0
     11371 MEMB     92       PYPG     H13A     HAL2     0.900000E-01   1.00800           0
     11372 MEMB     92       PYPG     H13B     HAL2     0.900000E-01   1.00800           0
     11373 MEMB     92       PYPG     OC3      OHL     -0.660000       15.9994           0
     11374 MEMB     92       PYPG     HO3      HOL      0.430000       1.00800           0
     11375 MEMB     92       PYPG     C12      CTL1     0.140000       12.0110           0
     11376 MEMB     92       PYPG     H12A     HAL1     0.900000E-01   1.00800           0
     11377 MEMB     92       PYPG     OC2      OHL     -0.660000       15.9994           0
     11378 MEMB     92       PYPG     HO2      HOL      0.430000       1.00800           0
     11379 MEMB     92       PYPG     C11      CTL2    -0.800000E-01   12.0110           0
     11380 MEMB     92       PYPG     H11A     HAL2     0.900000E-01   1.00800           0
     11381 MEMB     92       PYPG     H11B     HAL2     0.900000E-01   1.00800           0
     11382 MEMB     92       PYPG     P        PL        1.50000       30.9740           0
     11383 MEMB     92       PYPG     O13      O2L     -0.780000       15.9994           0
     11384 MEMB     92       PYPG     O14      O2L     -0.780000       15.9994           0
     11385 MEMB     92       PYPG     O11      OSLP    -0.570000       15.9994           0
     11386 MEMB     92       PYPG     O12      OSLP    -0.570000       15.9994           0
     11387 MEMB     92       PYPG     C1       CTL2    -0.800000E-01   12.0110           0
     11388 MEMB     92       PYPG     HA       HAL2     0.900000E-01   1.00800           0
     11389 MEMB     92       PYPG     HB       HAL2     0.900000E-01   1.00800           0
     11390 MEMB     92       PYPG     C2       CTL1     0.170000       12.0110           0
     11391 MEMB     92       PYPG     HS       HAL1     0.900000E-01   1.00800           0
     11392 MEMB     92       PYPG     O21      OSL     -0.490000       15.9994           0
     11393 MEMB     92       PYPG     C21      CL       0.900000       12.0110           0
     11394 MEMB     92       PYPG     O22      OBL     -0.630000       15.9994           0
     11395 MEMB     92       PYPG     C22      CTL2    -0.220000       12.0110           0
     11396 MEMB     92       PYPG     H2R      HAL2     0.900000E-01   1.00800           0
     11397 MEMB     92       PYPG     H2S      HAL2     0.900000E-01   1.00800           0
     11398 MEMB     92       PYPG     C3       CTL2     0.800000E-01   12.0110           0
     11399 MEMB     92       PYPG     HX       HAL2     0.900000E-01   1.00800           0
     11400 MEMB     92       PYPG     HY       HAL2     0.900000E-01   1.00800           0
     11401 MEMB     92       PYPG     O31      OSL     -0.490000       15.9994           0
     11402 MEMB     92       PYPG     C31      CL       0.900000       12.0110           0
     11403 MEMB     92       PYPG     O32      OBL     -0.630000       15.9994           0
     11404 MEMB     92       PYPG     C32      CTL2    -0.220000       12.0110           0
     11405 MEMB     92       PYPG     H2X      HAL2     0.900000E-01   1.00800           0
     11406 MEMB     92       PYPG     H2Y      HAL2     0.900000E-01   1.00800           0
     11407 MEMB     92       PYPG     C23      CTL2    -0.180000       12.0110           0
     11408 MEMB     92       PYPG     H3R      HAL2     0.900000E-01   1.00800           0
     11409 MEMB     92       PYPG     H3S      HAL2     0.900000E-01   1.00800           0
     11410 MEMB     92       PYPG     C24      CTL2    -0.180000       12.0110           0
     11411 MEMB     92       PYPG     H4R      HAL2     0.900000E-01   1.00800           0
     11412 MEMB     92       PYPG     H4S      HAL2     0.900000E-01   1.00800           0
     11413 MEMB     92       PYPG     C25      CTL2    -0.180000       12.0110           0
     11414 MEMB     92       PYPG     H5R      HAL2     0.900000E-01   1.00800           0
     11415 MEMB     92       PYPG     H5S      HAL2     0.900000E-01   1.00800           0
     11416 MEMB     92       PYPG     C26      CTL2    -0.180000       12.0110           0
     11417 MEMB     92       PYPG     H6R      HAL2     0.900000E-01   1.00800           0
     11418 MEMB     92       PYPG     H6S      HAL2     0.900000E-01   1.00800           0
     11419 MEMB     92       PYPG     C27      CTL2    -0.180000       12.0110           0
     11420 MEMB     92       PYPG     H7R      HAL2     0.900000E-01   1.00800           0
     11421 MEMB     92       PYPG     H7S      HAL2     0.900000E-01   1.00800           0
     11422 MEMB     92       PYPG     C28      CTL2    -0.180000       12.0110           0
     11423 MEMB     92       PYPG     H8R      HAL2     0.900000E-01   1.00800           0
     11424 MEMB     92       PYPG     H8S      HAL2     0.900000E-01   1.00800           0
     11425 MEMB     92       PYPG     C29      CEL1    -0.150000       12.0110           0
     11426 MEMB     92       PYPG     H9R      HEL1     0.150000       1.00800           0
     11427 MEMB     92       PYPG     C210     CEL1    -0.150000       12.0110           0
     11428 MEMB     92       PYPG     H10R     HEL1     0.150000       1.00800           0
     11429 MEMB     92       PYPG     C211     CTL2    -0.180000       12.0110           0
     11430 MEMB     92       PYPG     H11R     HAL2     0.900000E-01   1.00800           0
     11431 MEMB     92       PYPG     H11S     HAL2     0.900000E-01   1.00800           0
     11432 MEMB     92       PYPG     C212     CTL2    -0.180000       12.0110           0
     11433 MEMB     92       PYPG     H12R     HAL2     0.900000E-01   1.00800           0
     11434 MEMB     92       PYPG     H12S     HAL2     0.900000E-01   1.00800           0
     11435 MEMB     92       PYPG     C213     CTL2    -0.180000       12.0110           0
     11436 MEMB     92       PYPG     H13R     HAL2     0.900000E-01   1.00800           0
     11437 MEMB     92       PYPG     H13S     HAL2     0.900000E-01   1.00800           0
     11438 MEMB     92       PYPG     C214     CTL2    -0.180000       12.0110           0
     11439 MEMB     92       PYPG     H14R     HAL2     0.900000E-01   1.00800           0
     11440 MEMB     92       PYPG     H14S     HAL2     0.900000E-01   1.00800           0
     11441 MEMB     92       PYPG     C215     CTL2    -0.180000       12.0110           0
     11442 MEMB     92       PYPG     H15R     HAL2     0.900000E-01   1.00800           0
     11443 MEMB     92       PYPG     H15S     HAL2     0.900000E-01   1.00800           0
     11444 MEMB     92       PYPG     C216     CTL3    -0.270000       12.0110           0
     11445 MEMB     92       PYPG     H16R     HAL3     0.900000E-01   1.00800           0
     11446 MEMB     92       PYPG     H16S     HAL3     0.900000E-01   1.00800           0
     11447 MEMB     92       PYPG     H16T     HAL3     0.900000E-01   1.00800           0
     11448 MEMB     92       PYPG     C33      CTL2    -0.180000       12.0110           0
     11449 MEMB     92       PYPG     H3X      HAL2     0.900000E-01   1.00800           0
     11450 MEMB     92       PYPG     H3Y      HAL2     0.900000E-01   1.00800           0
     11451 MEMB     92       PYPG     C34      CTL2    -0.180000       12.0110           0
     11452 MEMB     92       PYPG     H4X      HAL2     0.900000E-01   1.00800           0
     11453 MEMB     92       PYPG     H4Y      HAL2     0.900000E-01   1.00800           0
     11454 MEMB     92       PYPG     C35      CTL2    -0.180000       12.0110           0
     11455 MEMB     92       PYPG     H5X      HAL2     0.900000E-01   1.00800           0
     11456 MEMB     92       PYPG     H5Y      HAL2     0.900000E-01   1.00800           0
     11457 MEMB     92       PYPG     C36      CTL2    -0.180000       12.0110           0
     11458 MEMB     92       PYPG     H6X      HAL2     0.900000E-01   1.00800           0
     11459 MEMB     92       PYPG     H6Y      HAL2     0.900000E-01   1.00800           0
     11460 MEMB     92       PYPG     C37      CTL2    -0.180000       12.0110           0
     11461 MEMB     92       PYPG     H7X      HAL2     0.900000E-01   1.00800           0
     11462 MEMB     92       PYPG     H7Y      HAL2     0.900000E-01   1.00800           0
     11463 MEMB     92       PYPG     C38      CTL2    -0.180000       12.0110           0
     11464 MEMB     92       PYPG     H8X      HAL2     0.900000E-01   1.00800           0
     11465 MEMB     92       PYPG     H8Y      HAL2     0.900000E-01   1.00800           0
     11466 MEMB     92       PYPG     C39      CTL2    -0.180000       12.0110           0
     11467 MEMB     92       PYPG     H9X      HAL2     0.900000E-01   1.00800           0
     11468 MEMB     92       PYPG     H9Y      HAL2     0.900000E-01   1.00800           0
     11469 MEMB     92       PYPG     C310     CTL2    -0.180000       12.0110           0
     11470 MEMB     92       PYPG     H10X     HAL2     0.900000E-01   1.00800           0
     11471 MEMB     92       PYPG     H10Y     HAL2     0.900000E-01   1.00800           0
     11472 MEMB     92       PYPG     C311     CTL2    -0.180000       12.0110           0
     11473 MEMB     92       PYPG     H11X     HAL2     0.900000E-01   1.00800           0
     11474 MEMB     92       PYPG     H11Y     HAL2     0.900000E-01   1.00800           0
     11475 MEMB     92       PYPG     C312     CTL2    -0.180000       12.0110           0
     11476 MEMB     92       PYPG     H12X     HAL2     0.900000E-01   1.00800           0
     11477 MEMB     92       PYPG     H12Y     HAL2     0.900000E-01   1.00800           0
     11478 MEMB     92       PYPG     C313     CTL2    -0.180000       12.0110           0
     11479 MEMB     92       PYPG     H13X     HAL2     0.900000E-01   1.00800           0
     11480 MEMB     92       PYPG     H13Y     HAL2     0.900000E-01   1.00800           0
     11481 MEMB     92       PYPG     C314     CTL2    -0.180000       12.0110           0
     11482 MEMB     92       PYPG     H14X     HAL2     0.900000E-01   1.00800           0
     11483 MEMB     92       PYPG     H14Y     HAL2     0.900000E-01   1.00800           0
     11484 MEMB     92       PYPG     C315     CTL2    -0.180000       12.0110           0
     11485 MEMB     92       PYPG     H15X     HAL2     0.900000E-01   1.00800           0
     11486 MEMB     92       PYPG     H15Y     HAL2     0.900000E-01   1.00800           0
     11487 MEMB     92       PYPG     C316     CTL3    -0.270000       12.0110           0
     11488 MEMB     92       PYPG     H16X     HAL3     0.900000E-01   1.00800           0
     11489 MEMB     92       PYPG     H16Y     HAL3     0.900000E-01   1.00800           0
     11490 MEMB     92       PYPG     H16Z     HAL3     0.900000E-01   1.00800           0
     11491 MEMB     93       PMPE     N        NH3L    -0.300000       14.0070           0
     11492 MEMB     93       PMPE     HN1      HCL      0.330000       1.00800           0
     11493 MEMB     93       PMPE     HN2      HCL      0.330000       1.00800           0
     11494 MEMB     93       PMPE     HN3      HCL      0.330000       1.00800           0
     11495 MEMB     93       PMPE     C12      CTL2     0.130000       12.0110           0
     11496 MEMB     93       PMPE     H12A     HAL2     0.900000E-01   1.00800           0
     11497 MEMB     93       PMPE     H12B     HAL2     0.900000E-01   1.00800           0
     11498 MEMB     93       PMPE     C11      CTL2    -0.800000E-01   12.0110           0
     11499 MEMB     93       PMPE     H11A     HAL2     0.900000E-01   1.00800           0
     11500 MEMB     93       PMPE     H11B     HAL2     0.900000E-01   1.00800           0
     11501 MEMB     93       PMPE     P        PL        1.50000       30.9740           0
     11502 MEMB     93       PMPE     O13      O2L     -0.780000       15.9994           0
     11503 MEMB     93       PMPE     O14      O2L     -0.780000       15.9994           0
     11504 MEMB     93       PMPE     O11      OSLP    -0.570000       15.9994           0
     11505 MEMB     93       PMPE     O12      OSLP    -0.570000       15.9994           0
     11506 MEMB     93       PMPE     C1       CTL2    -0.800000E-01   12.0110           0
     11507 MEMB     93       PMPE     HA       HAL2     0.900000E-01   1.00800           0
     11508 MEMB     93       PMPE     HB       HAL2     0.900000E-01   1.00800           0
     11509 MEMB     93       PMPE     C2       CTL1     0.170000       12.0110           0
     11510 MEMB     93       PMPE     HS       HAL1     0.900000E-01   1.00800           0
     11511 MEMB     93       PMPE     O21      OSL     -0.490000       15.9994           0
     11512 MEMB     93       PMPE     C21      CL       0.900000       12.0110           0
     11513 MEMB     93       PMPE     O22      OBL     -0.630000       15.9994           0
     11514 MEMB     93       PMPE     C22      CTL2    -0.220000       12.0110           0
     11515 MEMB     93       PMPE     H2R      HAL2     0.900000E-01   1.00800           0
     11516 MEMB     93       PMPE     H2S      HAL2     0.900000E-01   1.00800           0
     11517 MEMB     93       PMPE     C3       CTL2     0.800000E-01   12.0110           0
     11518 MEMB     93       PMPE     HX       HAL2     0.900000E-01   1.00800           0
     11519 MEMB     93       PMPE     HY       HAL2     0.900000E-01   1.00800           0
     11520 MEMB     93       PMPE     O31      OSL     -0.490000       15.9994           0
     11521 MEMB     93       PMPE     C31      CL       0.900000       12.0110           0
     11522 MEMB     93       PMPE     O32      OBL     -0.630000       15.9994           0
     11523 MEMB     93       PMPE     C32      CTL2    -0.220000       12.0110           0
     11524 MEMB     93       PMPE     H2X      HAL2     0.900000E-01   1.00800           0
     11525 MEMB     93       PMPE     H2Y      HAL2     0.900000E-01   1.00800           0
     11526 MEMB     93       PMPE     C23      CTL2    -0.180000       12.0110           0
     11527 MEMB     93       PMPE     H3R      HAL2     0.900000E-01   1.00800           0
     11528 MEMB     93       PMPE     H3S      HAL2     0.900000E-01   1.00800           0
     11529 MEMB     93       PMPE     C24      CTL2    -0.180000       12.0110           0
     11530 MEMB     93       PMPE     H4R      HAL2     0.900000E-01   1.00800           0
     11531 MEMB     93       PMPE     H4S      HAL2     0.900000E-01   1.00800           0
     11532 MEMB     93       PMPE     C25      CTL2    -0.180000       12.0110           0
     11533 MEMB     93       PMPE     H5R      HAL2     0.900000E-01   1.00800           0
     11534 MEMB     93       PMPE     H5S      HAL2     0.900000E-01   1.00800           0
     11535 MEMB     93       PMPE     C26      CTL2    -0.180000       12.0110           0
     11536 MEMB     93       PMPE     H6R      HAL2     0.900000E-01   1.00800           0
     11537 MEMB     93       PMPE     H6S      HAL2     0.900000E-01   1.00800           0
     11538 MEMB     93       PMPE     C27      CTL2    -0.180000       12.0110           0
     11539 MEMB     93       PMPE     H7R      HAL2     0.900000E-01   1.00800           0
     11540 MEMB     93       PMPE     H7S      HAL2     0.900000E-01   1.00800           0
     11541 MEMB     93       PMPE     C28      CTL2    -0.180000       12.0110           0
     11542 MEMB     93       PMPE     H8R      HAL2     0.900000E-01   1.00800           0
     11543 MEMB     93       PMPE     H8S      HAL2     0.900000E-01   1.00800           0
     11544 MEMB     93       PMPE     C29      CG3RC1  -0.900000E-01   12.0110           0
     11545 MEMB     93       PMPE     H9R      HGA1     0.900000E-01   1.00800           0
     11546 MEMB     93       PMPE     C217     CG3C31  -0.180000       12.0110           0
     11547 MEMB     93       PMPE     H17R     HGA2     0.900000E-01   1.00800           0
     11548 MEMB     93       PMPE     H17S     HGA2     0.900000E-01   1.00800           0
     11549 MEMB     93       PMPE     C210     CG3RC1  -0.900000E-01   12.0110           0
     11550 MEMB     93       PMPE     H10R     HGA1     0.900000E-01   1.00800           0
     11551 MEMB     93       PMPE     C211     CTL2    -0.180000       12.0110           0
     11552 MEMB     93       PMPE     H11R     HAL2     0.900000E-01   1.00800           0
     11553 MEMB     93       PMPE     H11S     HAL2     0.900000E-01   1.00800           0
     11554 MEMB     93       PMPE     C212     CTL2    -0.180000       12.0110           0
     11555 MEMB     93       PMPE     H12R     HAL2     0.900000E-01   1.00800           0
     11556 MEMB     93       PMPE     H12S     HAL2     0.900000E-01   1.00800           0
     11557 MEMB     93       PMPE     C213     CTL2    -0.180000       12.0110           0
     11558 MEMB     93       PMPE     H13R     HAL2     0.900000E-01   1.00800           0
     11559 MEMB     93       PMPE     H13S     HAL2     0.900000E-01   1.00800           0
     11560 MEMB     93       PMPE     C214     CTL2    -0.180000       12.0110           0
     11561 MEMB     93       PMPE     H14R     HAL2     0.900000E-01   1.00800           0
     11562 MEMB     93       PMPE     H14S     HAL2     0.900000E-01   1.00800           0
     11563 MEMB     93       PMPE     C215     CTL2    -0.180000       12.0110           0
     11564 MEMB     93       PMPE     H15R     HAL2     0.900000E-01   1.00800           0
     11565 MEMB     93       PMPE     H15S     HAL2     0.900000E-01   1.00800           0
     11566 MEMB     93       PMPE     C216     CTL3    -0.270000       12.0110           0
     11567 MEMB     93       PMPE     H16R     HAL3     0.900000E-01   1.00800           0
     11568 MEMB     93       PMPE     H16S     HAL3     0.900000E-01   1.00800           0
     11569 MEMB     93       PMPE     H16T     HAL3     0.900000E-01   1.00800           0
     11570 MEMB     93       PMPE     C33      CTL2    -0.180000       12.0110           0
     11571 MEMB     93       PMPE     H3X      HAL2     0.900000E-01   1.00800           0
     11572 MEMB     93       PMPE     H3Y      HAL2     0.900000E-01   1.00800           0
     11573 MEMB     93       PMPE     C34      CTL2    -0.180000       12.0110           0
     11574 MEMB     93       PMPE     H4X      HAL2     0.900000E-01   1.00800           0
     11575 MEMB     93       PMPE     H4Y      HAL2     0.900000E-01   1.00800           0
     11576 MEMB     93       PMPE     C35      CTL2    -0.180000       12.0110           0
     11577 MEMB     93       PMPE     H5X      HAL2     0.900000E-01   1.00800           0
     11578 MEMB     93       PMPE     H5Y      HAL2     0.900000E-01   1.00800           0
     11579 MEMB     93       PMPE     C36      CTL2    -0.180000       12.0110           0
     11580 MEMB     93       PMPE     H6X      HAL2     0.900000E-01   1.00800           0
     11581 MEMB     93       PMPE     H6Y      HAL2     0.900000E-01   1.00800           0
     11582 MEMB     93       PMPE     C37      CTL2    -0.180000       12.0110           0
     11583 MEMB     93       PMPE     H7X      HAL2     0.900000E-01   1.00800           0
     11584 MEMB     93       PMPE     H7Y      HAL2     0.900000E-01   1.00800           0
     11585 MEMB     93       PMPE     C38      CTL2    -0.180000       12.0110           0
     11586 MEMB     93       PMPE     H8X      HAL2     0.900000E-01   1.00800           0
     11587 MEMB     93       PMPE     H8Y      HAL2     0.900000E-01   1.00800           0
     11588 MEMB     93       PMPE     C39      CTL2    -0.180000       12.0110           0
     11589 MEMB     93       PMPE     H9X      HAL2     0.900000E-01   1.00800           0
     11590 MEMB     93       PMPE     H9Y      HAL2     0.900000E-01   1.00800           0
     11591 MEMB     93       PMPE     C310     CTL2    -0.180000       12.0110           0
     11592 MEMB     93       PMPE     H10X     HAL2     0.900000E-01   1.00800           0
     11593 MEMB     93       PMPE     H10Y     HAL2     0.900000E-01   1.00800           0
     11594 MEMB     93       PMPE     C311     CTL2    -0.180000       12.0110           0
     11595 MEMB     93       PMPE     H11X     HAL2     0.900000E-01   1.00800           0
     11596 MEMB     93       PMPE     H11Y     HAL2     0.900000E-01   1.00800           0
     11597 MEMB     93       PMPE     C312     CTL2    -0.180000       12.0110           0
     11598 MEMB     93       PMPE     H12X     HAL2     0.900000E-01   1.00800           0
     11599 MEMB     93       PMPE     H12Y     HAL2     0.900000E-01   1.00800           0
     11600 MEMB     93       PMPE     C313     CTL2    -0.180000       12.0110           0
     11601 MEMB     93       PMPE     H13X     HAL2     0.900000E-01   1.00800           0
     11602 MEMB     93       PMPE     H13Y     HAL2     0.900000E-01   1.00800           0
     11603 MEMB     93       PMPE     C314     CTL2    -0.180000       12.0110           0
     11604 MEMB     93       PMPE     H14X     HAL2     0.900000E-01   1.00800           0
     11605 MEMB     93       PMPE     H14Y     HAL2     0.900000E-01   1.00800           0
     11606 MEMB     93       PMPE     C315     CTL2    -0.180000       12.0110           0
     11607 MEMB     93       PMPE     H15X     HAL2     0.900000E-01   1.00800           0
     11608 MEMB     93       PMPE     H15Y     HAL2     0.900000E-01   1.00800           0
     11609 MEMB     93       PMPE     C316     CTL3    -0.270000       12.0110           0
     11610 MEMB     93       PMPE     H16X     HAL3     0.900000E-01   1.00800           0
     11611 MEMB     93       PMPE     H16Y     HAL3     0.900000E-01   1.00800           0
     11612 MEMB     93       PMPE     H16Z     HAL3     0.900000E-01   1.00800           0
     11613 MEMB     94       PMPE     N        NH3L    -0.300000       14.0070           0
     11614 MEMB     94       PMPE     HN1      HCL      0.330000       1.00800           0
     11615 MEMB     94       PMPE     HN2      HCL      0.330000       1.00800           0
     11616 MEMB     94       PMPE     HN3      HCL      0.330000       1.00800           0
     11617 MEMB     94       PMPE     C12      CTL2     0.130000       12.0110           0
     11618 MEMB     94       PMPE     H12A     HAL2     0.900000E-01   1.00800           0
     11619 MEMB     94       PMPE     H12B     HAL2     0.900000E-01   1.00800           0
     11620 MEMB     94       PMPE     C11      CTL2    -0.800000E-01   12.0110           0
     11621 MEMB     94       PMPE     H11A     HAL2     0.900000E-01   1.00800           0
     11622 MEMB     94       PMPE     H11B     HAL2     0.900000E-01   1.00800           0
     11623 MEMB     94       PMPE     P        PL        1.50000       30.9740           0
     11624 MEMB     94       PMPE     O13      O2L     -0.780000       15.9994           0
     11625 MEMB     94       PMPE     O14      O2L     -0.780000       15.9994           0
     11626 MEMB     94       PMPE     O11      OSLP    -0.570000       15.9994           0
     11627 MEMB     94       PMPE     O12      OSLP    -0.570000       15.9994           0
     11628 MEMB     94       PMPE     C1       CTL2    -0.800000E-01   12.0110           0
     11629 MEMB     94       PMPE     HA       HAL2     0.900000E-01   1.00800           0
     11630 MEMB     94       PMPE     HB       HAL2     0.900000E-01   1.00800           0
     11631 MEMB     94       PMPE     C2       CTL1     0.170000       12.0110           0
     11632 MEMB     94       PMPE     HS       HAL1     0.900000E-01   1.00800           0
     11633 MEMB     94       PMPE     O21      OSL     -0.490000       15.9994           0
     11634 MEMB     94       PMPE     C21      CL       0.900000       12.0110           0
     11635 MEMB     94       PMPE     O22      OBL     -0.630000       15.9994           0
     11636 MEMB     94       PMPE     C22      CTL2    -0.220000       12.0110           0
     11637 MEMB     94       PMPE     H2R      HAL2     0.900000E-01   1.00800           0
     11638 MEMB     94       PMPE     H2S      HAL2     0.900000E-01   1.00800           0
     11639 MEMB     94       PMPE     C3       CTL2     0.800000E-01   12.0110           0
     11640 MEMB     94       PMPE     HX       HAL2     0.900000E-01   1.00800           0
     11641 MEMB     94       PMPE     HY       HAL2     0.900000E-01   1.00800           0
     11642 MEMB     94       PMPE     O31      OSL     -0.490000       15.9994           0
     11643 MEMB     94       PMPE     C31      CL       0.900000       12.0110           0
     11644 MEMB     94       PMPE     O32      OBL     -0.630000       15.9994           0
     11645 MEMB     94       PMPE     C32      CTL2    -0.220000       12.0110           0
     11646 MEMB     94       PMPE     H2X      HAL2     0.900000E-01   1.00800           0
     11647 MEMB     94       PMPE     H2Y      HAL2     0.900000E-01   1.00800           0
     11648 MEMB     94       PMPE     C23      CTL2    -0.180000       12.0110           0
     11649 MEMB     94       PMPE     H3R      HAL2     0.900000E-01   1.00800           0
     11650 MEMB     94       PMPE     H3S      HAL2     0.900000E-01   1.00800           0
     11651 MEMB     94       PMPE     C24      CTL2    -0.180000       12.0110           0
     11652 MEMB     94       PMPE     H4R      HAL2     0.900000E-01   1.00800           0
     11653 MEMB     94       PMPE     H4S      HAL2     0.900000E-01   1.00800           0
     11654 MEMB     94       PMPE     C25      CTL2    -0.180000       12.0110           0
     11655 MEMB     94       PMPE     H5R      HAL2     0.900000E-01   1.00800           0
     11656 MEMB     94       PMPE     H5S      HAL2     0.900000E-01   1.00800           0
     11657 MEMB     94       PMPE     C26      CTL2    -0.180000       12.0110           0
     11658 MEMB     94       PMPE     H6R      HAL2     0.900000E-01   1.00800           0
     11659 MEMB     94       PMPE     H6S      HAL2     0.900000E-01   1.00800           0
     11660 MEMB     94       PMPE     C27      CTL2    -0.180000       12.0110           0
     11661 MEMB     94       PMPE     H7R      HAL2     0.900000E-01   1.00800           0
     11662 MEMB     94       PMPE     H7S      HAL2     0.900000E-01   1.00800           0
     11663 MEMB     94       PMPE     C28      CTL2    -0.180000       12.0110           0
     11664 MEMB     94       PMPE     H8R      HAL2     0.900000E-01   1.00800           0
     11665 MEMB     94       PMPE     H8S      HAL2     0.900000E-01   1.00800           0
     11666 MEMB     94       PMPE     C29      CG3RC1  -0.900000E-01   12.0110           0
     11667 MEMB     94       PMPE     H9R      HGA1     0.900000E-01   1.00800           0
     11668 MEMB     94       PMPE     C217     CG3C31  -0.180000       12.0110           0
     11669 MEMB     94       PMPE     H17R     HGA2     0.900000E-01   1.00800           0
     11670 MEMB     94       PMPE     H17S     HGA2     0.900000E-01   1.00800           0
     11671 MEMB     94       PMPE     C210     CG3RC1  -0.900000E-01   12.0110           0
     11672 MEMB     94       PMPE     H10R     HGA1     0.900000E-01   1.00800           0
     11673 MEMB     94       PMPE     C211     CTL2    -0.180000       12.0110           0
     11674 MEMB     94       PMPE     H11R     HAL2     0.900000E-01   1.00800           0
     11675 MEMB     94       PMPE     H11S     HAL2     0.900000E-01   1.00800           0
     11676 MEMB     94       PMPE     C212     CTL2    -0.180000       12.0110           0
     11677 MEMB     94       PMPE     H12R     HAL2     0.900000E-01   1.00800           0
     11678 MEMB     94       PMPE     H12S     HAL2     0.900000E-01   1.00800           0
     11679 MEMB     94       PMPE     C213     CTL2    -0.180000       12.0110           0
     11680 MEMB     94       PMPE     H13R     HAL2     0.900000E-01   1.00800           0
     11681 MEMB     94       PMPE     H13S     HAL2     0.900000E-01   1.00800           0
     11682 MEMB     94       PMPE     C214     CTL2    -0.180000       12.0110           0
     11683 MEMB     94       PMPE     H14R     HAL2     0.900000E-01   1.00800           0
     11684 MEMB     94       PMPE     H14S     HAL2     0.900000E-01   1.00800           0
     11685 MEMB     94       PMPE     C215     CTL2    -0.180000       12.0110           0
     11686 MEMB     94       PMPE     H15R     HAL2     0.900000E-01   1.00800           0
     11687 MEMB     94       PMPE     H15S     HAL2     0.900000E-01   1.00800           0
     11688 MEMB     94       PMPE     C216     CTL3    -0.270000       12.0110           0
     11689 MEMB     94       PMPE     H16R     HAL3     0.900000E-01   1.00800           0
     11690 MEMB     94       PMPE     H16S     HAL3     0.900000E-01   1.00800           0
     11691 MEMB     94       PMPE     H16T     HAL3     0.900000E-01   1.00800           0
     11692 MEMB     94       PMPE     C33      CTL2    -0.180000       12.0110           0
     11693 MEMB     94       PMPE     H3X      HAL2     0.900000E-01   1.00800           0
     11694 MEMB     94       PMPE     H3Y      HAL2     0.900000E-01   1.00800           0
     11695 MEMB     94       PMPE     C34      CTL2    -0.180000       12.0110           0
     11696 MEMB     94       PMPE     H4X      HAL2     0.900000E-01   1.00800           0
     11697 MEMB     94       PMPE     H4Y      HAL2     0.900000E-01   1.00800           0
     11698 MEMB     94       PMPE     C35      CTL2    -0.180000       12.0110           0
     11699 MEMB     94       PMPE     H5X      HAL2     0.900000E-01   1.00800           0
     11700 MEMB     94       PMPE     H5Y      HAL2     0.900000E-01   1.00800           0
     11701 MEMB     94       PMPE     C36      CTL2    -0.180000       12.0110           0
     11702 MEMB     94       PMPE     H6X      HAL2     0.900000E-01   1.00800           0
     11703 MEMB     94       PMPE     H6Y      HAL2     0.900000E-01   1.00800           0
     11704 MEMB     94       PMPE     C37      CTL2    -0.180000       12.0110           0
     11705 MEMB     94       PMPE     H7X      HAL2     0.900000E-01   1.00800           0
     11706 MEMB     94       PMPE     H7Y      HAL2     0.900000E-01   1.00800           0
     11707 MEMB     94       PMPE     C38      CTL2    -0.180000       12.0110           0
     11708 MEMB     94       PMPE     H8X      HAL2     0.900000E-01   1.00800           0
     11709 MEMB     94       PMPE     H8Y      HAL2     0.900000E-01   1.00800           0
     11710 MEMB     94       PMPE     C39      CTL2    -0.180000       12.0110           0
     11711 MEMB     94       PMPE     H9X      HAL2     0.900000E-01   1.00800           0
     11712 MEMB     94       PMPE     H9Y      HAL2     0.900000E-01   1.00800           0
     11713 MEMB     94       PMPE     C310     CTL2    -0.180000       12.0110           0
     11714 MEMB     94       PMPE     H10X     HAL2     0.900000E-01   1.00800           0
     11715 MEMB     94       PMPE     H10Y     HAL2     0.900000E-01   1.00800           0
     11716 MEMB     94       PMPE     C311     CTL2    -0.180000       12.0110           0
     11717 MEMB     94       PMPE     H11X     HAL2     0.900000E-01   1.00800           0
     11718 MEMB     94       PMPE     H11Y     HAL2     0.900000E-01   1.00800           0
     11719 MEMB     94       PMPE     C312     CTL2    -0.180000       12.0110           0
     11720 MEMB     94       PMPE     H12X     HAL2     0.900000E-01   1.00800           0
     11721 MEMB     94       PMPE     H12Y     HAL2     0.900000E-01   1.00800           0
     11722 MEMB     94       PMPE     C313     CTL2    -0.180000       12.0110           0
     11723 MEMB     94       PMPE     H13X     HAL2     0.900000E-01   1.00800           0
     11724 MEMB     94       PMPE     H13Y     HAL2     0.900000E-01   1.00800           0
     11725 MEMB     94       PMPE     C314     CTL2    -0.180000       12.0110           0
     11726 MEMB     94       PMPE     H14X     HAL2     0.900000E-01   1.00800           0
     11727 MEMB     94       PMPE     H14Y     HAL2     0.900000E-01   1.00800           0
     11728 MEMB     94       PMPE     C315     CTL2    -0.180000       12.0110           0
     11729 MEMB     94       PMPE     H15X     HAL2     0.900000E-01   1.00800           0
     11730 MEMB     94       PMPE     H15Y     HAL2     0.900000E-01   1.00800           0
     11731 MEMB     94       PMPE     C316     CTL3    -0.270000       12.0110           0
     11732 MEMB     94       PMPE     H16X     HAL3     0.900000E-01   1.00800           0
     11733 MEMB     94       PMPE     H16Y     HAL3     0.900000E-01   1.00800           0
     11734 MEMB     94       PMPE     H16Z     HAL3     0.900000E-01   1.00800           0
     11735 MEMB     95       PMPE     N        NH3L    -0.300000       14.0070           0
     11736 MEMB     95       PMPE     HN1      HCL      0.330000       1.00800           0
     11737 MEMB     95       PMPE     HN2      HCL      0.330000       1.00800           0
     11738 MEMB     95       PMPE     HN3      HCL      0.330000       1.00800           0
     11739 MEMB     95       PMPE     C12      CTL2     0.130000       12.0110           0
     11740 MEMB     95       PMPE     H12A     HAL2     0.900000E-01   1.00800           0
     11741 MEMB     95       PMPE     H12B     HAL2     0.900000E-01   1.00800           0
     11742 MEMB     95       PMPE     C11      CTL2    -0.800000E-01   12.0110           0
     11743 MEMB     95       PMPE     H11A     HAL2     0.900000E-01   1.00800           0
     11744 MEMB     95       PMPE     H11B     HAL2     0.900000E-01   1.00800           0
     11745 MEMB     95       PMPE     P        PL        1.50000       30.9740           0
     11746 MEMB     95       PMPE     O13      O2L     -0.780000       15.9994           0
     11747 MEMB     95       PMPE     O14      O2L     -0.780000       15.9994           0
     11748 MEMB     95       PMPE     O11      OSLP    -0.570000       15.9994           0
     11749 MEMB     95       PMPE     O12      OSLP    -0.570000       15.9994           0
     11750 MEMB     95       PMPE     C1       CTL2    -0.800000E-01   12.0110           0
     11751 MEMB     95       PMPE     HA       HAL2     0.900000E-01   1.00800           0
     11752 MEMB     95       PMPE     HB       HAL2     0.900000E-01   1.00800           0
     11753 MEMB     95       PMPE     C2       CTL1     0.170000       12.0110           0
     11754 MEMB     95       PMPE     HS       HAL1     0.900000E-01   1.00800           0
     11755 MEMB     95       PMPE     O21      OSL     -0.490000       15.9994           0
     11756 MEMB     95       PMPE     C21      CL       0.900000       12.0110           0
     11757 MEMB     95       PMPE     O22      OBL     -0.630000       15.9994           0
     11758 MEMB     95       PMPE     C22      CTL2    -0.220000       12.0110           0
     11759 MEMB     95       PMPE     H2R      HAL2     0.900000E-01   1.00800           0
     11760 MEMB     95       PMPE     H2S      HAL2     0.900000E-01   1.00800           0
     11761 MEMB     95       PMPE     C3       CTL2     0.800000E-01   12.0110           0
     11762 MEMB     95       PMPE     HX       HAL2     0.900000E-01   1.00800           0
     11763 MEMB     95       PMPE     HY       HAL2     0.900000E-01   1.00800           0
     11764 MEMB     95       PMPE     O31      OSL     -0.490000       15.9994           0
     11765 MEMB     95       PMPE     C31      CL       0.900000       12.0110           0
     11766 MEMB     95       PMPE     O32      OBL     -0.630000       15.9994           0
     11767 MEMB     95       PMPE     C32      CTL2    -0.220000       12.0110           0
     11768 MEMB     95       PMPE     H2X      HAL2     0.900000E-01   1.00800           0
     11769 MEMB     95       PMPE     H2Y      HAL2     0.900000E-01   1.00800           0
     11770 MEMB     95       PMPE     C23      CTL2    -0.180000       12.0110           0
     11771 MEMB     95       PMPE     H3R      HAL2     0.900000E-01   1.00800           0
     11772 MEMB     95       PMPE     H3S      HAL2     0.900000E-01   1.00800           0
     11773 MEMB     95       PMPE     C24      CTL2    -0.180000       12.0110           0
     11774 MEMB     95       PMPE     H4R      HAL2     0.900000E-01   1.00800           0
     11775 MEMB     95       PMPE     H4S      HAL2     0.900000E-01   1.00800           0
     11776 MEMB     95       PMPE     C25      CTL2    -0.180000       12.0110           0
     11777 MEMB     95       PMPE     H5R      HAL2     0.900000E-01   1.00800           0
     11778 MEMB     95       PMPE     H5S      HAL2     0.900000E-01   1.00800           0
     11779 MEMB     95       PMPE     C26      CTL2    -0.180000       12.0110           0
     11780 MEMB     95       PMPE     H6R      HAL2     0.900000E-01   1.00800           0
     11781 MEMB     95       PMPE     H6S      HAL2     0.900000E-01   1.00800           0
     11782 MEMB     95       PMPE     C27      CTL2    -0.180000       12.0110           0
     11783 MEMB     95       PMPE     H7R      HAL2     0.900000E-01   1.00800           0
     11784 MEMB     95       PMPE     H7S      HAL2     0.900000E-01   1.00800           0
     11785 MEMB     95       PMPE     C28      CTL2    -0.180000       12.0110           0
     11786 MEMB     95       PMPE     H8R      HAL2     0.900000E-01   1.00800           0
     11787 MEMB     95       PMPE     H8S      HAL2     0.900000E-01   1.00800           0
     11788 MEMB     95       PMPE     C29      CG3RC1  -0.900000E-01   12.0110           0
     11789 MEMB     95       PMPE     H9R      HGA1     0.900000E-01   1.00800           0
     11790 MEMB     95       PMPE     C217     CG3C31  -0.180000       12.0110           0
     11791 MEMB     95       PMPE     H17R     HGA2     0.900000E-01   1.00800           0
     11792 MEMB     95       PMPE     H17S     HGA2     0.900000E-01   1.00800           0
     11793 MEMB     95       PMPE     C210     CG3RC1  -0.900000E-01   12.0110           0
     11794 MEMB     95       PMPE     H10R     HGA1     0.900000E-01   1.00800           0
     11795 MEMB     95       PMPE     C211     CTL2    -0.180000       12.0110           0
     11796 MEMB     95       PMPE     H11R     HAL2     0.900000E-01   1.00800           0
     11797 MEMB     95       PMPE     H11S     HAL2     0.900000E-01   1.00800           0
     11798 MEMB     95       PMPE     C212     CTL2    -0.180000       12.0110           0
     11799 MEMB     95       PMPE     H12R     HAL2     0.900000E-01   1.00800           0
     11800 MEMB     95       PMPE     H12S     HAL2     0.900000E-01   1.00800           0
     11801 MEMB     95       PMPE     C213     CTL2    -0.180000       12.0110           0
     11802 MEMB     95       PMPE     H13R     HAL2     0.900000E-01   1.00800           0
     11803 MEMB     95       PMPE     H13S     HAL2     0.900000E-01   1.00800           0
     11804 MEMB     95       PMPE     C214     CTL2    -0.180000       12.0110           0
     11805 MEMB     95       PMPE     H14R     HAL2     0.900000E-01   1.00800           0
     11806 MEMB     95       PMPE     H14S     HAL2     0.900000E-01   1.00800           0
     11807 MEMB     95       PMPE     C215     CTL2    -0.180000       12.0110           0
     11808 MEMB     95       PMPE     H15R     HAL2     0.900000E-01   1.00800           0
     11809 MEMB     95       PMPE     H15S     HAL2     0.900000E-01   1.00800           0
     11810 MEMB     95       PMPE     C216     CTL3    -0.270000       12.0110           0
     11811 MEMB     95       PMPE     H16R     HAL3     0.900000E-01   1.00800           0
     11812 MEMB     95       PMPE     H16S     HAL3     0.900000E-01   1.00800           0
     11813 MEMB     95       PMPE     H16T     HAL3     0.900000E-01   1.00800           0
     11814 MEMB     95       PMPE     C33      CTL2    -0.180000       12.0110           0
     11815 MEMB     95       PMPE     H3X      HAL2     0.900000E-01   1.00800           0
     11816 MEMB     95       PMPE     H3Y      HAL2     0.900000E-01   1.00800           0
     11817 MEMB     95       PMPE     C34      CTL2    -0.180000       12.0110           0
     11818 MEMB     95       PMPE     H4X      HAL2     0.900000E-01   1.00800           0
     11819 MEMB     95       PMPE     H4Y      HAL2     0.900000E-01   1.00800           0
     11820 MEMB     95       PMPE     C35      CTL2    -0.180000       12.0110           0
     11821 MEMB     95       PMPE     H5X      HAL2     0.900000E-01   1.00800           0
     11822 MEMB     95       PMPE     H5Y      HAL2     0.900000E-01   1.00800           0
     11823 MEMB     95       PMPE     C36      CTL2    -0.180000       12.0110           0
     11824 MEMB     95       PMPE     H6X      HAL2     0.900000E-01   1.00800           0
     11825 MEMB     95       PMPE     H6Y      HAL2     0.900000E-01   1.00800           0
     11826 MEMB     95       PMPE     C37      CTL2    -0.180000       12.0110           0
     11827 MEMB     95       PMPE     H7X      HAL2     0.900000E-01   1.00800           0
     11828 MEMB     95       PMPE     H7Y      HAL2     0.900000E-01   1.00800           0
     11829 MEMB     95       PMPE     C38      CTL2    -0.180000       12.0110           0
     11830 MEMB     95       PMPE     H8X      HAL2     0.900000E-01   1.00800           0
     11831 MEMB     95       PMPE     H8Y      HAL2     0.900000E-01   1.00800           0
     11832 MEMB     95       PMPE     C39      CTL2    -0.180000       12.0110           0
     11833 MEMB     95       PMPE     H9X      HAL2     0.900000E-01   1.00800           0
     11834 MEMB     95       PMPE     H9Y      HAL2     0.900000E-01   1.00800           0
     11835 MEMB     95       PMPE     C310     CTL2    -0.180000       12.0110           0
     11836 MEMB     95       PMPE     H10X     HAL2     0.900000E-01   1.00800           0
     11837 MEMB     95       PMPE     H10Y     HAL2     0.900000E-01   1.00800           0
     11838 MEMB     95       PMPE     C311     CTL2    -0.180000       12.0110           0
     11839 MEMB     95       PMPE     H11X     HAL2     0.900000E-01   1.00800           0
     11840 MEMB     95       PMPE     H11Y     HAL2     0.900000E-01   1.00800           0
     11841 MEMB     95       PMPE     C312     CTL2    -0.180000       12.0110           0
     11842 MEMB     95       PMPE     H12X     HAL2     0.900000E-01   1.00800           0
     11843 MEMB     95       PMPE     H12Y     HAL2     0.900000E-01   1.00800           0
     11844 MEMB     95       PMPE     C313     CTL2    -0.180000       12.0110           0
     11845 MEMB     95       PMPE     H13X     HAL2     0.900000E-01   1.00800           0
     11846 MEMB     95       PMPE     H13Y     HAL2     0.900000E-01   1.00800           0
     11847 MEMB     95       PMPE     C314     CTL2    -0.180000       12.0110           0
     11848 MEMB     95       PMPE     H14X     HAL2     0.900000E-01   1.00800           0
     11849 MEMB     95       PMPE     H14Y     HAL2     0.900000E-01   1.00800           0
     11850 MEMB     95       PMPE     C315     CTL2    -0.180000       12.0110           0
     11851 MEMB     95       PMPE     H15X     HAL2     0.900000E-01   1.00800           0
     11852 MEMB     95       PMPE     H15Y     HAL2     0.900000E-01   1.00800           0
     11853 MEMB     95       PMPE     C316     CTL3    -0.270000       12.0110           0
     11854 MEMB     95       PMPE     H16X     HAL3     0.900000E-01   1.00800           0
     11855 MEMB     95       PMPE     H16Y     HAL3     0.900000E-01   1.00800           0
     11856 MEMB     95       PMPE     H16Z     HAL3     0.900000E-01   1.00800           0
     11857 MEMB     96       PMPE     N        NH3L    -0.300000       14.0070           0
     11858 MEMB     96       PMPE     HN1      HCL      0.330000       1.00800           0
     11859 MEMB     96       PMPE     HN2      HCL      0.330000       1.00800           0
     11860 MEMB     96       PMPE     HN3      HCL      0.330000       1.00800           0
     11861 MEMB     96       PMPE     C12      CTL2     0.130000       12.0110           0
     11862 MEMB     96       PMPE     H12A     HAL2     0.900000E-01   1.00800           0
     11863 MEMB     96       PMPE     H12B     HAL2     0.900000E-01   1.00800           0
     11864 MEMB     96       PMPE     C11      CTL2    -0.800000E-01   12.0110           0
     11865 MEMB     96       PMPE     H11A     HAL2     0.900000E-01   1.00800           0
     11866 MEMB     96       PMPE     H11B     HAL2     0.900000E-01   1.00800           0
     11867 MEMB     96       PMPE     P        PL        1.50000       30.9740           0
     11868 MEMB     96       PMPE     O13      O2L     -0.780000       15.9994           0
     11869 MEMB     96       PMPE     O14      O2L     -0.780000       15.9994           0
     11870 MEMB     96       PMPE     O11      OSLP    -0.570000       15.9994           0
     11871 MEMB     96       PMPE     O12      OSLP    -0.570000       15.9994           0
     11872 MEMB     96       PMPE     C1       CTL2    -0.800000E-01   12.0110           0
     11873 MEMB     96       PMPE     HA       HAL2     0.900000E-01   1.00800           0
     11874 MEMB     96       PMPE     HB       HAL2     0.900000E-01   1.00800           0
     11875 MEMB     96       PMPE     C2       CTL1     0.170000       12.0110           0
     11876 MEMB     96       PMPE     HS       HAL1     0.900000E-01   1.00800           0
     11877 MEMB     96       PMPE     O21      OSL     -0.490000       15.9994           0
     11878 MEMB     96       PMPE     C21      CL       0.900000       12.0110           0
     11879 MEMB     96       PMPE     O22      OBL     -0.630000       15.9994           0
     11880 MEMB     96       PMPE     C22      CTL2    -0.220000       12.0110           0
     11881 MEMB     96       PMPE     H2R      HAL2     0.900000E-01   1.00800           0
     11882 MEMB     96       PMPE     H2S      HAL2     0.900000E-01   1.00800           0
     11883 MEMB     96       PMPE     C3       CTL2     0.800000E-01   12.0110           0
     11884 MEMB     96       PMPE     HX       HAL2     0.900000E-01   1.00800           0
     11885 MEMB     96       PMPE     HY       HAL2     0.900000E-01   1.00800           0
     11886 MEMB     96       PMPE     O31      OSL     -0.490000       15.9994           0
     11887 MEMB     96       PMPE     C31      CL       0.900000       12.0110           0
     11888 MEMB     96       PMPE     O32      OBL     -0.630000       15.9994           0
     11889 MEMB     96       PMPE     C32      CTL2    -0.220000       12.0110           0
     11890 MEMB     96       PMPE     H2X      HAL2     0.900000E-01   1.00800           0
     11891 MEMB     96       PMPE     H2Y      HAL2     0.900000E-01   1.00800           0
     11892 MEMB     96       PMPE     C23      CTL2    -0.180000       12.0110           0
     11893 MEMB     96       PMPE     H3R      HAL2     0.900000E-01   1.00800           0
     11894 MEMB     96       PMPE     H3S      HAL2     0.900000E-01   1.00800           0
     11895 MEMB     96       PMPE     C24      CTL2    -0.180000       12.0110           0
     11896 MEMB     96       PMPE     H4R      HAL2     0.900000E-01   1.00800           0
     11897 MEMB     96       PMPE     H4S      HAL2     0.900000E-01   1.00800           0
     11898 MEMB     96       PMPE     C25      CTL2    -0.180000       12.0110           0
     11899 MEMB     96       PMPE     H5R      HAL2     0.900000E-01   1.00800           0
     11900 MEMB     96       PMPE     H5S      HAL2     0.900000E-01   1.00800           0
     11901 MEMB     96       PMPE     C26      CTL2    -0.180000       12.0110           0
     11902 MEMB     96       PMPE     H6R      HAL2     0.900000E-01   1.00800           0
     11903 MEMB     96       PMPE     H6S      HAL2     0.900000E-01   1.00800           0
     11904 MEMB     96       PMPE     C27      CTL2    -0.180000       12.0110           0
     11905 MEMB     96       PMPE     H7R      HAL2     0.900000E-01   1.00800           0
     11906 MEMB     96       PMPE     H7S      HAL2     0.900000E-01   1.00800           0
     11907 MEMB     96       PMPE     C28      CTL2    -0.180000       12.0110           0
     11908 MEMB     96       PMPE     H8R      HAL2     0.900000E-01   1.00800           0
     11909 MEMB     96       PMPE     H8S      HAL2     0.900000E-01   1.00800           0
     11910 MEMB     96       PMPE     C29      CG3RC1  -0.900000E-01   12.0110           0
     11911 MEMB     96       PMPE     H9R      HGA1     0.900000E-01   1.00800           0
     11912 MEMB     96       PMPE     C217     CG3C31  -0.180000       12.0110           0
     11913 MEMB     96       PMPE     H17R     HGA2     0.900000E-01   1.00800           0
     11914 MEMB     96       PMPE     H17S     HGA2     0.900000E-01   1.00800           0
     11915 MEMB     96       PMPE     C210     CG3RC1  -0.900000E-01   12.0110           0
     11916 MEMB     96       PMPE     H10R     HGA1     0.900000E-01   1.00800           0
     11917 MEMB     96       PMPE     C211     CTL2    -0.180000       12.0110           0
     11918 MEMB     96       PMPE     H11R     HAL2     0.900000E-01   1.00800           0
     11919 MEMB     96       PMPE     H11S     HAL2     0.900000E-01   1.00800           0
     11920 MEMB     96       PMPE     C212     CTL2    -0.180000       12.0110           0
     11921 MEMB     96       PMPE     H12R     HAL2     0.900000E-01   1.00800           0
     11922 MEMB     96       PMPE     H12S     HAL2     0.900000E-01   1.00800           0
     11923 MEMB     96       PMPE     C213     CTL2    -0.180000       12.0110           0
     11924 MEMB     96       PMPE     H13R     HAL2     0.900000E-01   1.00800           0
     11925 MEMB     96       PMPE     H13S     HAL2     0.900000E-01   1.00800           0
     11926 MEMB     96       PMPE     C214     CTL2    -0.180000       12.0110           0
     11927 MEMB     96       PMPE     H14R     HAL2     0.900000E-01   1.00800           0
     11928 MEMB     96       PMPE     H14S     HAL2     0.900000E-01   1.00800           0
     11929 MEMB     96       PMPE     C215     CTL2    -0.180000       12.0110           0
     11930 MEMB     96       PMPE     H15R     HAL2     0.900000E-01   1.00800           0
     11931 MEMB     96       PMPE     H15S     HAL2     0.900000E-01   1.00800           0
     11932 MEMB     96       PMPE     C216     CTL3    -0.270000       12.0110           0
     11933 MEMB     96       PMPE     H16R     HAL3     0.900000E-01   1.00800           0
     11934 MEMB     96       PMPE     H16S     HAL3     0.900000E-01   1.00800           0
     11935 MEMB     96       PMPE     H16T     HAL3     0.900000E-01   1.00800           0
     11936 MEMB     96       PMPE     C33      CTL2    -0.180000       12.0110           0
     11937 MEMB     96       PMPE     H3X      HAL2     0.900000E-01   1.00800           0
     11938 MEMB     96       PMPE     H3Y      HAL2     0.900000E-01   1.00800           0
     11939 MEMB     96       PMPE     C34      CTL2    -0.180000       12.0110           0
     11940 MEMB     96       PMPE     H4X      HAL2     0.900000E-01   1.00800           0
     11941 MEMB     96       PMPE     H4Y      HAL2     0.900000E-01   1.00800           0
     11942 MEMB     96       PMPE     C35      CTL2    -0.180000       12.0110           0
     11943 MEMB     96       PMPE     H5X      HAL2     0.900000E-01   1.00800           0
     11944 MEMB     96       PMPE     H5Y      HAL2     0.900000E-01   1.00800           0
     11945 MEMB     96       PMPE     C36      CTL2    -0.180000       12.0110           0
     11946 MEMB     96       PMPE     H6X      HAL2     0.900000E-01   1.00800           0
     11947 MEMB     96       PMPE     H6Y      HAL2     0.900000E-01   1.00800           0
     11948 MEMB     96       PMPE     C37      CTL2    -0.180000       12.0110           0
     11949 MEMB     96       PMPE     H7X      HAL2     0.900000E-01   1.00800           0
     11950 MEMB     96       PMPE     H7Y      HAL2     0.900000E-01   1.00800           0
     11951 MEMB     96       PMPE     C38      CTL2    -0.180000       12.0110           0
     11952 MEMB     96       PMPE     H8X      HAL2     0.900000E-01   1.00800           0
     11953 MEMB     96       PMPE     H8Y      HAL2     0.900000E-01   1.00800           0
     11954 MEMB     96       PMPE     C39      CTL2    -0.180000       12.0110           0
     11955 MEMB     96       PMPE     H9X      HAL2     0.900000E-01   1.00800           0
     11956 MEMB     96       PMPE     H9Y      HAL2     0.900000E-01   1.00800           0
     11957 MEMB     96       PMPE     C310     CTL2    -0.180000       12.0110           0
     11958 MEMB     96       PMPE     H10X     HAL2     0.900000E-01   1.00800           0
     11959 MEMB     96       PMPE     H10Y     HAL2     0.900000E-01   1.00800           0
     11960 MEMB     96       PMPE     C311     CTL2    -0.180000       12.0110           0
     11961 MEMB     96       PMPE     H11X     HAL2     0.900000E-01   1.00800           0
     11962 MEMB     96       PMPE     H11Y     HAL2     0.900000E-01   1.00800           0
     11963 MEMB     96       PMPE     C312     CTL2    -0.180000       12.0110           0
     11964 MEMB     96       PMPE     H12X     HAL2     0.900000E-01   1.00800           0
     11965 MEMB     96       PMPE     H12Y     HAL2     0.900000E-01   1.00800           0
     11966 MEMB     96       PMPE     C313     CTL2    -0.180000       12.0110           0
     11967 MEMB     96       PMPE     H13X     HAL2     0.900000E-01   1.00800           0
     11968 MEMB     96       PMPE     H13Y     HAL2     0.900000E-01   1.00800           0
     11969 MEMB     96       PMPE     C314     CTL2    -0.180000       12.0110           0
     11970 MEMB     96       PMPE     H14X     HAL2     0.900000E-01   1.00800           0
     11971 MEMB     96       PMPE     H14Y     HAL2     0.900000E-01   1.00800           0
     11972 MEMB     96       PMPE     C315     CTL2    -0.180000       12.0110           0
     11973 MEMB     96       PMPE     H15X     HAL2     0.900000E-01   1.00800           0
     11974 MEMB     96       PMPE     H15Y     HAL2     0.900000E-01   1.00800           0
     11975 MEMB     96       PMPE     C316     CTL3    -0.270000       12.0110           0
     11976 MEMB     96       PMPE     H16X     HAL3     0.900000E-01   1.00800           0
     11977 MEMB     96       PMPE     H16Y     HAL3     0.900000E-01   1.00800           0
     11978 MEMB     96       PMPE     H16Z     HAL3     0.900000E-01   1.00800           0
     11979 MEMB     97       QMPE     N        NH3L    -0.300000       14.0070           0
     11980 MEMB     97       QMPE     HN1      HCL      0.330000       1.00800           0
     11981 MEMB     97       QMPE     HN2      HCL      0.330000       1.00800           0
     11982 MEMB     97       QMPE     HN3      HCL      0.330000       1.00800           0
     11983 MEMB     97       QMPE     C12      CTL2     0.130000       12.0110           0
     11984 MEMB     97       QMPE     H12A     HAL2     0.900000E-01   1.00800           0
     11985 MEMB     97       QMPE     H12B     HAL2     0.900000E-01   1.00800           0
     11986 MEMB     97       QMPE     C11      CTL2    -0.800000E-01   12.0110           0
     11987 MEMB     97       QMPE     H11A     HAL2     0.900000E-01   1.00800           0
     11988 MEMB     97       QMPE     H11B     HAL2     0.900000E-01   1.00800           0
     11989 MEMB     97       QMPE     P        PL        1.50000       30.9740           0
     11990 MEMB     97       QMPE     O13      O2L     -0.780000       15.9994           0
     11991 MEMB     97       QMPE     O14      O2L     -0.780000       15.9994           0
     11992 MEMB     97       QMPE     O11      OSLP    -0.570000       15.9994           0
     11993 MEMB     97       QMPE     O12      OSLP    -0.570000       15.9994           0
     11994 MEMB     97       QMPE     C1       CTL2    -0.800000E-01   12.0110           0
     11995 MEMB     97       QMPE     HA       HAL2     0.900000E-01   1.00800           0
     11996 MEMB     97       QMPE     HB       HAL2     0.900000E-01   1.00800           0
     11997 MEMB     97       QMPE     C2       CTL1     0.170000       12.0110           0
     11998 MEMB     97       QMPE     HS       HAL1     0.900000E-01   1.00800           0
     11999 MEMB     97       QMPE     O21      OSL     -0.490000       15.9994           0
     12000 MEMB     97       QMPE     C21      CL       0.900000       12.0110           0
     12001 MEMB     97       QMPE     O22      OBL     -0.630000       15.9994           0
     12002 MEMB     97       QMPE     C22      CTL2    -0.220000       12.0110           0
     12003 MEMB     97       QMPE     H2R      HAL2     0.900000E-01   1.00800           0
     12004 MEMB     97       QMPE     H2S      HAL2     0.900000E-01   1.00800           0
     12005 MEMB     97       QMPE     C3       CTL2     0.800000E-01   12.0110           0
     12006 MEMB     97       QMPE     HX       HAL2     0.900000E-01   1.00800           0
     12007 MEMB     97       QMPE     HY       HAL2     0.900000E-01   1.00800           0
     12008 MEMB     97       QMPE     O31      OSL     -0.490000       15.9994           0
     12009 MEMB     97       QMPE     C31      CL       0.900000       12.0110           0
     12010 MEMB     97       QMPE     O32      OBL     -0.630000       15.9994           0
     12011 MEMB     97       QMPE     C32      CTL2    -0.220000       12.0110           0
     12012 MEMB     97       QMPE     H2X      HAL2     0.900000E-01   1.00800           0
     12013 MEMB     97       QMPE     H2Y      HAL2     0.900000E-01   1.00800           0
     12014 MEMB     97       QMPE     C23      CTL2    -0.180000       12.0110           0
     12015 MEMB     97       QMPE     H3R      HAL2     0.900000E-01   1.00800           0
     12016 MEMB     97       QMPE     H3S      HAL2     0.900000E-01   1.00800           0
     12017 MEMB     97       QMPE     C24      CTL2    -0.180000       12.0110           0
     12018 MEMB     97       QMPE     H4R      HAL2     0.900000E-01   1.00800           0
     12019 MEMB     97       QMPE     H4S      HAL2     0.900000E-01   1.00800           0
     12020 MEMB     97       QMPE     C25      CTL2    -0.180000       12.0110           0
     12021 MEMB     97       QMPE     H5R      HAL2     0.900000E-01   1.00800           0
     12022 MEMB     97       QMPE     H5S      HAL2     0.900000E-01   1.00800           0
     12023 MEMB     97       QMPE     C26      CTL2    -0.180000       12.0110           0
     12024 MEMB     97       QMPE     H6R      HAL2     0.900000E-01   1.00800           0
     12025 MEMB     97       QMPE     H6S      HAL2     0.900000E-01   1.00800           0
     12026 MEMB     97       QMPE     C27      CTL2    -0.180000       12.0110           0
     12027 MEMB     97       QMPE     H7R      HAL2     0.900000E-01   1.00800           0
     12028 MEMB     97       QMPE     H7S      HAL2     0.900000E-01   1.00800           0
     12029 MEMB     97       QMPE     C28      CTL2    -0.180000       12.0110           0
     12030 MEMB     97       QMPE     H8R      HAL2     0.900000E-01   1.00800           0
     12031 MEMB     97       QMPE     H8S      HAL2     0.900000E-01   1.00800           0
     12032 MEMB     97       QMPE     C29      CG3RC1  -0.900000E-01   12.0110           0
     12033 MEMB     97       QMPE     H9R      HGA1     0.900000E-01   1.00800           0
     12034 MEMB     97       QMPE     C217     CG3C31  -0.180000       12.0110           0
     12035 MEMB     97       QMPE     H17R     HGA2     0.900000E-01   1.00800           0
     12036 MEMB     97       QMPE     H17S     HGA2     0.900000E-01   1.00800           0
     12037 MEMB     97       QMPE     C210     CG3RC1  -0.900000E-01   12.0110           0
     12038 MEMB     97       QMPE     H10R     HGA1     0.900000E-01   1.00800           0
     12039 MEMB     97       QMPE     C211     CTL2    -0.180000       12.0110           0
     12040 MEMB     97       QMPE     H11R     HAL2     0.900000E-01   1.00800           0
     12041 MEMB     97       QMPE     H11S     HAL2     0.900000E-01   1.00800           0
     12042 MEMB     97       QMPE     C212     CTL2    -0.180000       12.0110           0
     12043 MEMB     97       QMPE     H12R     HAL2     0.900000E-01   1.00800           0
     12044 MEMB     97       QMPE     H12S     HAL2     0.900000E-01   1.00800           0
     12045 MEMB     97       QMPE     C213     CTL2    -0.180000       12.0110           0
     12046 MEMB     97       QMPE     H13R     HAL2     0.900000E-01   1.00800           0
     12047 MEMB     97       QMPE     H13S     HAL2     0.900000E-01   1.00800           0
     12048 MEMB     97       QMPE     C214     CTL2    -0.180000       12.0110           0
     12049 MEMB     97       QMPE     H14R     HAL2     0.900000E-01   1.00800           0
     12050 MEMB     97       QMPE     H14S     HAL2     0.900000E-01   1.00800           0
     12051 MEMB     97       QMPE     C215     CTL2    -0.180000       12.0110           0
     12052 MEMB     97       QMPE     H15R     HAL2     0.900000E-01   1.00800           0
     12053 MEMB     97       QMPE     H15S     HAL2     0.900000E-01   1.00800           0
     12054 MEMB     97       QMPE     C216     CTL3    -0.270000       12.0110           0
     12055 MEMB     97       QMPE     H16R     HAL3     0.900000E-01   1.00800           0
     12056 MEMB     97       QMPE     H16S     HAL3     0.900000E-01   1.00800           0
     12057 MEMB     97       QMPE     H16T     HAL3     0.900000E-01   1.00800           0
     12058 MEMB     97       QMPE     C33      CTL2    -0.180000       12.0110           0
     12059 MEMB     97       QMPE     H3X      HAL2     0.900000E-01   1.00800           0
     12060 MEMB     97       QMPE     H3Y      HAL2     0.900000E-01   1.00800           0
     12061 MEMB     97       QMPE     C34      CTL2    -0.180000       12.0110           0
     12062 MEMB     97       QMPE     H4X      HAL2     0.900000E-01   1.00800           0
     12063 MEMB     97       QMPE     H4Y      HAL2     0.900000E-01   1.00800           0
     12064 MEMB     97       QMPE     C35      CTL2    -0.180000       12.0110           0
     12065 MEMB     97       QMPE     H5X      HAL2     0.900000E-01   1.00800           0
     12066 MEMB     97       QMPE     H5Y      HAL2     0.900000E-01   1.00800           0
     12067 MEMB     97       QMPE     C36      CTL2    -0.180000       12.0110           0
     12068 MEMB     97       QMPE     H6X      HAL2     0.900000E-01   1.00800           0
     12069 MEMB     97       QMPE     H6Y      HAL2     0.900000E-01   1.00800           0
     12070 MEMB     97       QMPE     C37      CTL2    -0.180000       12.0110           0
     12071 MEMB     97       QMPE     H7X      HAL2     0.900000E-01   1.00800           0
     12072 MEMB     97       QMPE     H7Y      HAL2     0.900000E-01   1.00800           0
     12073 MEMB     97       QMPE     C38      CTL2    -0.180000       12.0110           0
     12074 MEMB     97       QMPE     H8X      HAL2     0.900000E-01   1.00800           0
     12075 MEMB     97       QMPE     H8Y      HAL2     0.900000E-01   1.00800           0
     12076 MEMB     97       QMPE     C39      CTL2    -0.180000       12.0110           0
     12077 MEMB     97       QMPE     H9X      HAL2     0.900000E-01   1.00800           0
     12078 MEMB     97       QMPE     H9Y      HAL2     0.900000E-01   1.00800           0
     12079 MEMB     97       QMPE     C310     CTL2    -0.180000       12.0110           0
     12080 MEMB     97       QMPE     H10X     HAL2     0.900000E-01   1.00800           0
     12081 MEMB     97       QMPE     H10Y     HAL2     0.900000E-01   1.00800           0
     12082 MEMB     97       QMPE     C311     CTL2    -0.180000       12.0110           0
     12083 MEMB     97       QMPE     H11X     HAL2     0.900000E-01   1.00800           0
     12084 MEMB     97       QMPE     H11Y     HAL2     0.900000E-01   1.00800           0
     12085 MEMB     97       QMPE     C312     CTL2    -0.180000       12.0110           0
     12086 MEMB     97       QMPE     H12X     HAL2     0.900000E-01   1.00800           0
     12087 MEMB     97       QMPE     H12Y     HAL2     0.900000E-01   1.00800           0
     12088 MEMB     97       QMPE     C313     CTL2    -0.180000       12.0110           0
     12089 MEMB     97       QMPE     H13X     HAL2     0.900000E-01   1.00800           0
     12090 MEMB     97       QMPE     H13Y     HAL2     0.900000E-01   1.00800           0
     12091 MEMB     97       QMPE     C314     CTL2    -0.180000       12.0110           0
     12092 MEMB     97       QMPE     H14X     HAL2     0.900000E-01   1.00800           0
     12093 MEMB     97       QMPE     H14Y     HAL2     0.900000E-01   1.00800           0
     12094 MEMB     97       QMPE     C315     CTL3    -0.270000       12.0110           0
     12095 MEMB     97       QMPE     H15X     HAL3     0.900000E-01   1.00800           0
     12096 MEMB     97       QMPE     H15Y     HAL3     0.900000E-01   1.00800           0
     12097 MEMB     97       QMPE     H15Z     HAL3     0.900000E-01   1.00800           0
     12098 MEMB     98       PMPG     C13      CTL2     0.500000E-01   12.0110           0
     12099 MEMB     98       PMPG     H13A     HAL2     0.900000E-01   1.00800           0
     12100 MEMB     98       PMPG     H13B     HAL2     0.900000E-01   1.00800           0
     12101 MEMB     98       PMPG     OC3      OHL     -0.660000       15.9994           0
     12102 MEMB     98       PMPG     HO3      HOL      0.430000       1.00800           0
     12103 MEMB     98       PMPG     C12      CTL1     0.140000       12.0110           0
     12104 MEMB     98       PMPG     H12A     HAL1     0.900000E-01   1.00800           0
     12105 MEMB     98       PMPG     OC2      OHL     -0.660000       15.9994           0
     12106 MEMB     98       PMPG     HO2      HOL      0.430000       1.00800           0
     12107 MEMB     98       PMPG     C11      CTL2    -0.800000E-01   12.0110           0
     12108 MEMB     98       PMPG     H11A     HAL2     0.900000E-01   1.00800           0
     12109 MEMB     98       PMPG     H11B     HAL2     0.900000E-01   1.00800           0
     12110 MEMB     98       PMPG     P        PL        1.50000       30.9740           0
     12111 MEMB     98       PMPG     O13      O2L     -0.780000       15.9994           0
     12112 MEMB     98       PMPG     O14      O2L     -0.780000       15.9994           0
     12113 MEMB     98       PMPG     O11      OSLP    -0.570000       15.9994           0
     12114 MEMB     98       PMPG     O12      OSLP    -0.570000       15.9994           0
     12115 MEMB     98       PMPG     C1       CTL2    -0.800000E-01   12.0110           0
     12116 MEMB     98       PMPG     HA       HAL2     0.900000E-01   1.00800           0
     12117 MEMB     98       PMPG     HB       HAL2     0.900000E-01   1.00800           0
     12118 MEMB     98       PMPG     C2       CTL1     0.170000       12.0110           0
     12119 MEMB     98       PMPG     HS       HAL1     0.900000E-01   1.00800           0
     12120 MEMB     98       PMPG     O21      OSL     -0.490000       15.9994           0
     12121 MEMB     98       PMPG     C21      CL       0.900000       12.0110           0
     12122 MEMB     98       PMPG     O22      OBL     -0.630000       15.9994           0
     12123 MEMB     98       PMPG     C22      CTL2    -0.220000       12.0110           0
     12124 MEMB     98       PMPG     H2R      HAL2     0.900000E-01   1.00800           0
     12125 MEMB     98       PMPG     H2S      HAL2     0.900000E-01   1.00800           0
     12126 MEMB     98       PMPG     C3       CTL2     0.800000E-01   12.0110           0
     12127 MEMB     98       PMPG     HX       HAL2     0.900000E-01   1.00800           0
     12128 MEMB     98       PMPG     HY       HAL2     0.900000E-01   1.00800           0
     12129 MEMB     98       PMPG     O31      OSL     -0.490000       15.9994           0
     12130 MEMB     98       PMPG     C31      CL       0.900000       12.0110           0
     12131 MEMB     98       PMPG     O32      OBL     -0.630000       15.9994           0
     12132 MEMB     98       PMPG     C32      CTL2    -0.220000       12.0110           0
     12133 MEMB     98       PMPG     H2X      HAL2     0.900000E-01   1.00800           0
     12134 MEMB     98       PMPG     H2Y      HAL2     0.900000E-01   1.00800           0
     12135 MEMB     98       PMPG     C23      CTL2    -0.180000       12.0110           0
     12136 MEMB     98       PMPG     H3R      HAL2     0.900000E-01   1.00800           0
     12137 MEMB     98       PMPG     H3S      HAL2     0.900000E-01   1.00800           0
     12138 MEMB     98       PMPG     C24      CTL2    -0.180000       12.0110           0
     12139 MEMB     98       PMPG     H4R      HAL2     0.900000E-01   1.00800           0
     12140 MEMB     98       PMPG     H4S      HAL2     0.900000E-01   1.00800           0
     12141 MEMB     98       PMPG     C25      CTL2    -0.180000       12.0110           0
     12142 MEMB     98       PMPG     H5R      HAL2     0.900000E-01   1.00800           0
     12143 MEMB     98       PMPG     H5S      HAL2     0.900000E-01   1.00800           0
     12144 MEMB     98       PMPG     C26      CTL2    -0.180000       12.0110           0
     12145 MEMB     98       PMPG     H6R      HAL2     0.900000E-01   1.00800           0
     12146 MEMB     98       PMPG     H6S      HAL2     0.900000E-01   1.00800           0
     12147 MEMB     98       PMPG     C27      CTL2    -0.180000       12.0110           0
     12148 MEMB     98       PMPG     H7R      HAL2     0.900000E-01   1.00800           0
     12149 MEMB     98       PMPG     H7S      HAL2     0.900000E-01   1.00800           0
     12150 MEMB     98       PMPG     C28      CTL2    -0.180000       12.0110           0
     12151 MEMB     98       PMPG     H8R      HAL2     0.900000E-01   1.00800           0
     12152 MEMB     98       PMPG     H8S      HAL2     0.900000E-01   1.00800           0
     12153 MEMB     98       PMPG     C29      CG3RC1  -0.900000E-01   12.0110           0
     12154 MEMB     98       PMPG     H9R      HGA1     0.900000E-01   1.00800           0
     12155 MEMB     98       PMPG     C217     CG3C31  -0.180000       12.0110           0
     12156 MEMB     98       PMPG     H17R     HGA2     0.900000E-01   1.00800           0
     12157 MEMB     98       PMPG     H17S     HGA2     0.900000E-01   1.00800           0
     12158 MEMB     98       PMPG     C210     CG3RC1  -0.900000E-01   12.0110           0
     12159 MEMB     98       PMPG     H10R     HGA1     0.900000E-01   1.00800           0
     12160 MEMB     98       PMPG     C211     CTL2    -0.180000       12.0110           0
     12161 MEMB     98       PMPG     H11R     HAL2     0.900000E-01   1.00800           0
     12162 MEMB     98       PMPG     H11S     HAL2     0.900000E-01   1.00800           0
     12163 MEMB     98       PMPG     C212     CTL2    -0.180000       12.0110           0
     12164 MEMB     98       PMPG     H12R     HAL2     0.900000E-01   1.00800           0
     12165 MEMB     98       PMPG     H12S     HAL2     0.900000E-01   1.00800           0
     12166 MEMB     98       PMPG     C213     CTL2    -0.180000       12.0110           0
     12167 MEMB     98       PMPG     H13R     HAL2     0.900000E-01   1.00800           0
     12168 MEMB     98       PMPG     H13S     HAL2     0.900000E-01   1.00800           0
     12169 MEMB     98       PMPG     C214     CTL2    -0.180000       12.0110           0
     12170 MEMB     98       PMPG     H14R     HAL2     0.900000E-01   1.00800           0
     12171 MEMB     98       PMPG     H14S     HAL2     0.900000E-01   1.00800           0
     12172 MEMB     98       PMPG     C215     CTL2    -0.180000       12.0110           0
     12173 MEMB     98       PMPG     H15R     HAL2     0.900000E-01   1.00800           0
     12174 MEMB     98       PMPG     H15S     HAL2     0.900000E-01   1.00800           0
     12175 MEMB     98       PMPG     C216     CTL3    -0.270000       12.0110           0
     12176 MEMB     98       PMPG     H16R     HAL3     0.900000E-01   1.00800           0
     12177 MEMB     98       PMPG     H16S     HAL3     0.900000E-01   1.00800           0
     12178 MEMB     98       PMPG     H16T     HAL3     0.900000E-01   1.00800           0
     12179 MEMB     98       PMPG     C33      CTL2    -0.180000       12.0110           0
     12180 MEMB     98       PMPG     H3X      HAL2     0.900000E-01   1.00800           0
     12181 MEMB     98       PMPG     H3Y      HAL2     0.900000E-01   1.00800           0
     12182 MEMB     98       PMPG     C34      CTL2    -0.180000       12.0110           0
     12183 MEMB     98       PMPG     H4X      HAL2     0.900000E-01   1.00800           0
     12184 MEMB     98       PMPG     H4Y      HAL2     0.900000E-01   1.00800           0
     12185 MEMB     98       PMPG     C35      CTL2    -0.180000       12.0110           0
     12186 MEMB     98       PMPG     H5X      HAL2     0.900000E-01   1.00800           0
     12187 MEMB     98       PMPG     H5Y      HAL2     0.900000E-01   1.00800           0
     12188 MEMB     98       PMPG     C36      CTL2    -0.180000       12.0110           0
     12189 MEMB     98       PMPG     H6X      HAL2     0.900000E-01   1.00800           0
     12190 MEMB     98       PMPG     H6Y      HAL2     0.900000E-01   1.00800           0
     12191 MEMB     98       PMPG     C37      CTL2    -0.180000       12.0110           0
     12192 MEMB     98       PMPG     H7X      HAL2     0.900000E-01   1.00800           0
     12193 MEMB     98       PMPG     H7Y      HAL2     0.900000E-01   1.00800           0
     12194 MEMB     98       PMPG     C38      CTL2    -0.180000       12.0110           0
     12195 MEMB     98       PMPG     H8X      HAL2     0.900000E-01   1.00800           0
     12196 MEMB     98       PMPG     H8Y      HAL2     0.900000E-01   1.00800           0
     12197 MEMB     98       PMPG     C39      CTL2    -0.180000       12.0110           0
     12198 MEMB     98       PMPG     H9X      HAL2     0.900000E-01   1.00800           0
     12199 MEMB     98       PMPG     H9Y      HAL2     0.900000E-01   1.00800           0
     12200 MEMB     98       PMPG     C310     CTL2    -0.180000       12.0110           0
     12201 MEMB     98       PMPG     H10X     HAL2     0.900000E-01   1.00800           0
     12202 MEMB     98       PMPG     H10Y     HAL2     0.900000E-01   1.00800           0
     12203 MEMB     98       PMPG     C311     CTL2    -0.180000       12.0110           0
     12204 MEMB     98       PMPG     H11X     HAL2     0.900000E-01   1.00800           0
     12205 MEMB     98       PMPG     H11Y     HAL2     0.900000E-01   1.00800           0
     12206 MEMB     98       PMPG     C312     CTL2    -0.180000       12.0110           0
     12207 MEMB     98       PMPG     H12X     HAL2     0.900000E-01   1.00800           0
     12208 MEMB     98       PMPG     H12Y     HAL2     0.900000E-01   1.00800           0
     12209 MEMB     98       PMPG     C313     CTL2    -0.180000       12.0110           0
     12210 MEMB     98       PMPG     H13X     HAL2     0.900000E-01   1.00800           0
     12211 MEMB     98       PMPG     H13Y     HAL2     0.900000E-01   1.00800           0
     12212 MEMB     98       PMPG     C314     CTL2    -0.180000       12.0110           0
     12213 MEMB     98       PMPG     H14X     HAL2     0.900000E-01   1.00800           0
     12214 MEMB     98       PMPG     H14Y     HAL2     0.900000E-01   1.00800           0
     12215 MEMB     98       PMPG     C315     CTL2    -0.180000       12.0110           0
     12216 MEMB     98       PMPG     H15X     HAL2     0.900000E-01   1.00800           0
     12217 MEMB     98       PMPG     H15Y     HAL2     0.900000E-01   1.00800           0
     12218 MEMB     98       PMPG     C316     CTL3    -0.270000       12.0110           0
     12219 MEMB     98       PMPG     H16X     HAL3     0.900000E-01   1.00800           0
     12220 MEMB     98       PMPG     H16Y     HAL3     0.900000E-01   1.00800           0
     12221 MEMB     98       PMPG     H16Z     HAL3     0.900000E-01   1.00800           0
     12222 MEMB     99       PMPE     N        NH3L    -0.300000       14.0070           0
     12223 MEMB     99       PMPE     HN1      HCL      0.330000       1.00800           0
     12224 MEMB     99       PMPE     HN2      HCL      0.330000       1.00800           0
     12225 MEMB     99       PMPE     HN3      HCL      0.330000       1.00800           0
     12226 MEMB     99       PMPE     C12      CTL2     0.130000       12.0110           0
     12227 MEMB     99       PMPE     H12A     HAL2     0.900000E-01   1.00800           0
     12228 MEMB     99       PMPE     H12B     HAL2     0.900000E-01   1.00800           0
     12229 MEMB     99       PMPE     C11      CTL2    -0.800000E-01   12.0110           0
     12230 MEMB     99       PMPE     H11A     HAL2     0.900000E-01   1.00800           0
     12231 MEMB     99       PMPE     H11B     HAL2     0.900000E-01   1.00800           0
     12232 MEMB     99       PMPE     P        PL        1.50000       30.9740           0
     12233 MEMB     99       PMPE     O13      O2L     -0.780000       15.9994           0
     12234 MEMB     99       PMPE     O14      O2L     -0.780000       15.9994           0
     12235 MEMB     99       PMPE     O11      OSLP    -0.570000       15.9994           0
     12236 MEMB     99       PMPE     O12      OSLP    -0.570000       15.9994           0
     12237 MEMB     99       PMPE     C1       CTL2    -0.800000E-01   12.0110           0
     12238 MEMB     99       PMPE     HA       HAL2     0.900000E-01   1.00800           0
     12239 MEMB     99       PMPE     HB       HAL2     0.900000E-01   1.00800           0
     12240 MEMB     99       PMPE     C2       CTL1     0.170000       12.0110           0
     12241 MEMB     99       PMPE     HS       HAL1     0.900000E-01   1.00800           0
     12242 MEMB     99       PMPE     O21      OSL     -0.490000       15.9994           0
     12243 MEMB     99       PMPE     C21      CL       0.900000       12.0110           0
     12244 MEMB     99       PMPE     O22      OBL     -0.630000       15.9994           0
     12245 MEMB     99       PMPE     C22      CTL2    -0.220000       12.0110           0
     12246 MEMB     99       PMPE     H2R      HAL2     0.900000E-01   1.00800           0
     12247 MEMB     99       PMPE     H2S      HAL2     0.900000E-01   1.00800           0
     12248 MEMB     99       PMPE     C3       CTL2     0.800000E-01   12.0110           0
     12249 MEMB     99       PMPE     HX       HAL2     0.900000E-01   1.00800           0
     12250 MEMB     99       PMPE     HY       HAL2     0.900000E-01   1.00800           0
     12251 MEMB     99       PMPE     O31      OSL     -0.490000       15.9994           0
     12252 MEMB     99       PMPE     C31      CL       0.900000       12.0110           0
     12253 MEMB     99       PMPE     O32      OBL     -0.630000       15.9994           0
     12254 MEMB     99       PMPE     C32      CTL2    -0.220000       12.0110           0
     12255 MEMB     99       PMPE     H2X      HAL2     0.900000E-01   1.00800           0
     12256 MEMB     99       PMPE     H2Y      HAL2     0.900000E-01   1.00800           0
     12257 MEMB     99       PMPE     C23      CTL2    -0.180000       12.0110           0
     12258 MEMB     99       PMPE     H3R      HAL2     0.900000E-01   1.00800           0
     12259 MEMB     99       PMPE     H3S      HAL2     0.900000E-01   1.00800           0
     12260 MEMB     99       PMPE     C24      CTL2    -0.180000       12.0110           0
     12261 MEMB     99       PMPE     H4R      HAL2     0.900000E-01   1.00800           0
     12262 MEMB     99       PMPE     H4S      HAL2     0.900000E-01   1.00800           0
     12263 MEMB     99       PMPE     C25      CTL2    -0.180000       12.0110           0
     12264 MEMB     99       PMPE     H5R      HAL2     0.900000E-01   1.00800           0
     12265 MEMB     99       PMPE     H5S      HAL2     0.900000E-01   1.00800           0
     12266 MEMB     99       PMPE     C26      CTL2    -0.180000       12.0110           0
     12267 MEMB     99       PMPE     H6R      HAL2     0.900000E-01   1.00800           0
     12268 MEMB     99       PMPE     H6S      HAL2     0.900000E-01   1.00800           0
     12269 MEMB     99       PMPE     C27      CTL2    -0.180000       12.0110           0
     12270 MEMB     99       PMPE     H7R      HAL2     0.900000E-01   1.00800           0
     12271 MEMB     99       PMPE     H7S      HAL2     0.900000E-01   1.00800           0
     12272 MEMB     99       PMPE     C28      CTL2    -0.180000       12.0110           0
     12273 MEMB     99       PMPE     H8R      HAL2     0.900000E-01   1.00800           0
     12274 MEMB     99       PMPE     H8S      HAL2     0.900000E-01   1.00800           0
     12275 MEMB     99       PMPE     C29      CG3RC1  -0.900000E-01   12.0110           0
     12276 MEMB     99       PMPE     H9R      HGA1     0.900000E-01   1.00800           0
     12277 MEMB     99       PMPE     C217     CG3C31  -0.180000       12.0110           0
     12278 MEMB     99       PMPE     H17R     HGA2     0.900000E-01   1.00800           0
     12279 MEMB     99       PMPE     H17S     HGA2     0.900000E-01   1.00800           0
     12280 MEMB     99       PMPE     C210     CG3RC1  -0.900000E-01   12.0110           0
     12281 MEMB     99       PMPE     H10R     HGA1     0.900000E-01   1.00800           0
     12282 MEMB     99       PMPE     C211     CTL2    -0.180000       12.0110           0
     12283 MEMB     99       PMPE     H11R     HAL2     0.900000E-01   1.00800           0
     12284 MEMB     99       PMPE     H11S     HAL2     0.900000E-01   1.00800           0
     12285 MEMB     99       PMPE     C212     CTL2    -0.180000       12.0110           0
     12286 MEMB     99       PMPE     H12R     HAL2     0.900000E-01   1.00800           0
     12287 MEMB     99       PMPE     H12S     HAL2     0.900000E-01   1.00800           0
     12288 MEMB     99       PMPE     C213     CTL2    -0.180000       12.0110           0
     12289 MEMB     99       PMPE     H13R     HAL2     0.900000E-01   1.00800           0
     12290 MEMB     99       PMPE     H13S     HAL2     0.900000E-01   1.00800           0
     12291 MEMB     99       PMPE     C214     CTL2    -0.180000       12.0110           0
     12292 MEMB     99       PMPE     H14R     HAL2     0.900000E-01   1.00800           0
     12293 MEMB     99       PMPE     H14S     HAL2     0.900000E-01   1.00800           0
     12294 MEMB     99       PMPE     C215     CTL2    -0.180000       12.0110           0
     12295 MEMB     99       PMPE     H15R     HAL2     0.900000E-01   1.00800           0
     12296 MEMB     99       PMPE     H15S     HAL2     0.900000E-01   1.00800           0
     12297 MEMB     99       PMPE     C216     CTL3    -0.270000       12.0110           0
     12298 MEMB     99       PMPE     H16R     HAL3     0.900000E-01   1.00800           0
     12299 MEMB     99       PMPE     H16S     HAL3     0.900000E-01   1.00800           0
     12300 MEMB     99       PMPE     H16T     HAL3     0.900000E-01   1.00800           0
     12301 MEMB     99       PMPE     C33      CTL2    -0.180000       12.0110           0
     12302 MEMB     99       PMPE     H3X      HAL2     0.900000E-01   1.00800           0
     12303 MEMB     99       PMPE     H3Y      HAL2     0.900000E-01   1.00800           0
     12304 MEMB     99       PMPE     C34      CTL2    -0.180000       12.0110           0
     12305 MEMB     99       PMPE     H4X      HAL2     0.900000E-01   1.00800           0
     12306 MEMB     99       PMPE     H4Y      HAL2     0.900000E-01   1.00800           0
     12307 MEMB     99       PMPE     C35      CTL2    -0.180000       12.0110           0
     12308 MEMB     99       PMPE     H5X      HAL2     0.900000E-01   1.00800           0
     12309 MEMB     99       PMPE     H5Y      HAL2     0.900000E-01   1.00800           0
     12310 MEMB     99       PMPE     C36      CTL2    -0.180000       12.0110           0
     12311 MEMB     99       PMPE     H6X      HAL2     0.900000E-01   1.00800           0
     12312 MEMB     99       PMPE     H6Y      HAL2     0.900000E-01   1.00800           0
     12313 MEMB     99       PMPE     C37      CTL2    -0.180000       12.0110           0
     12314 MEMB     99       PMPE     H7X      HAL2     0.900000E-01   1.00800           0
     12315 MEMB     99       PMPE     H7Y      HAL2     0.900000E-01   1.00800           0
     12316 MEMB     99       PMPE     C38      CTL2    -0.180000       12.0110           0
     12317 MEMB     99       PMPE     H8X      HAL2     0.900000E-01   1.00800           0
     12318 MEMB     99       PMPE     H8Y      HAL2     0.900000E-01   1.00800           0
     12319 MEMB     99       PMPE     C39      CTL2    -0.180000       12.0110           0
     12320 MEMB     99       PMPE     H9X      HAL2     0.900000E-01   1.00800           0
     12321 MEMB     99       PMPE     H9Y      HAL2     0.900000E-01   1.00800           0
     12322 MEMB     99       PMPE     C310     CTL2    -0.180000       12.0110           0
     12323 MEMB     99       PMPE     H10X     HAL2     0.900000E-01   1.00800           0
     12324 MEMB     99       PMPE     H10Y     HAL2     0.900000E-01   1.00800           0
     12325 MEMB     99       PMPE     C311     CTL2    -0.180000       12.0110           0
     12326 MEMB     99       PMPE     H11X     HAL2     0.900000E-01   1.00800           0
     12327 MEMB     99       PMPE     H11Y     HAL2     0.900000E-01   1.00800           0
     12328 MEMB     99       PMPE     C312     CTL2    -0.180000       12.0110           0
     12329 MEMB     99       PMPE     H12X     HAL2     0.900000E-01   1.00800           0
     12330 MEMB     99       PMPE     H12Y     HAL2     0.900000E-01   1.00800           0
     12331 MEMB     99       PMPE     C313     CTL2    -0.180000       12.0110           0
     12332 MEMB     99       PMPE     H13X     HAL2     0.900000E-01   1.00800           0
     12333 MEMB     99       PMPE     H13Y     HAL2     0.900000E-01   1.00800           0
     12334 MEMB     99       PMPE     C314     CTL2    -0.180000       12.0110           0
     12335 MEMB     99       PMPE     H14X     HAL2     0.900000E-01   1.00800           0
     12336 MEMB     99       PMPE     H14Y     HAL2     0.900000E-01   1.00800           0
     12337 MEMB     99       PMPE     C315     CTL2    -0.180000       12.0110           0
     12338 MEMB     99       PMPE     H15X     HAL2     0.900000E-01   1.00800           0
     12339 MEMB     99       PMPE     H15Y     HAL2     0.900000E-01   1.00800           0
     12340 MEMB     99       PMPE     C316     CTL3    -0.270000       12.0110           0
     12341 MEMB     99       PMPE     H16X     HAL3     0.900000E-01   1.00800           0
     12342 MEMB     99       PMPE     H16Y     HAL3     0.900000E-01   1.00800           0
     12343 MEMB     99       PMPE     H16Z     HAL3     0.900000E-01   1.00800           0
     12344 MEMB     100      OYPE     N        NH3L    -0.300000       14.0070           0
     12345 MEMB     100      OYPE     HN1      HCL      0.330000       1.00800           0
     12346 MEMB     100      OYPE     HN2      HCL      0.330000       1.00800           0
     12347 MEMB     100      OYPE     HN3      HCL      0.330000       1.00800           0
     12348 MEMB     100      OYPE     C12      CTL2     0.130000       12.0110           0
     12349 MEMB     100      OYPE     H12A     HAL2     0.900000E-01   1.00800           0
     12350 MEMB     100      OYPE     H12B     HAL2     0.900000E-01   1.00800           0
     12351 MEMB     100      OYPE     C11      CTL2    -0.800000E-01   12.0110           0
     12352 MEMB     100      OYPE     H11A     HAL2     0.900000E-01   1.00800           0
     12353 MEMB     100      OYPE     H11B     HAL2     0.900000E-01   1.00800           0
     12354 MEMB     100      OYPE     P        PL        1.50000       30.9740           0
     12355 MEMB     100      OYPE     O13      O2L     -0.780000       15.9994           0
     12356 MEMB     100      OYPE     O14      O2L     -0.780000       15.9994           0
     12357 MEMB     100      OYPE     O11      OSLP    -0.570000       15.9994           0
     12358 MEMB     100      OYPE     O12      OSLP    -0.570000       15.9994           0
     12359 MEMB     100      OYPE     C1       CTL2    -0.800000E-01   12.0110           0
     12360 MEMB     100      OYPE     HA       HAL2     0.900000E-01   1.00800           0
     12361 MEMB     100      OYPE     HB       HAL2     0.900000E-01   1.00800           0
     12362 MEMB     100      OYPE     C2       CTL1     0.170000       12.0110           0
     12363 MEMB     100      OYPE     HS       HAL1     0.900000E-01   1.00800           0
     12364 MEMB     100      OYPE     O21      OSL     -0.490000       15.9994           0
     12365 MEMB     100      OYPE     C21      CL       0.900000       12.0110           0
     12366 MEMB     100      OYPE     O22      OBL     -0.630000       15.9994           0
     12367 MEMB     100      OYPE     C22      CTL2    -0.220000       12.0110           0
     12368 MEMB     100      OYPE     H2R      HAL2     0.900000E-01   1.00800           0
     12369 MEMB     100      OYPE     H2S      HAL2     0.900000E-01   1.00800           0
     12370 MEMB     100      OYPE     C3       CTL2     0.800000E-01   12.0110           0
     12371 MEMB     100      OYPE     HX       HAL2     0.900000E-01   1.00800           0
     12372 MEMB     100      OYPE     HY       HAL2     0.900000E-01   1.00800           0
     12373 MEMB     100      OYPE     O31      OSL     -0.490000       15.9994           0
     12374 MEMB     100      OYPE     C31      CL       0.900000       12.0110           0
     12375 MEMB     100      OYPE     O32      OBL     -0.630000       15.9994           0
     12376 MEMB     100      OYPE     C32      CTL2    -0.220000       12.0110           0
     12377 MEMB     100      OYPE     H2X      HAL2     0.900000E-01   1.00800           0
     12378 MEMB     100      OYPE     H2Y      HAL2     0.900000E-01   1.00800           0
     12379 MEMB     100      OYPE     C23      CTL2    -0.180000       12.0110           0
     12380 MEMB     100      OYPE     H3R      HAL2     0.900000E-01   1.00800           0
     12381 MEMB     100      OYPE     H3S      HAL2     0.900000E-01   1.00800           0
     12382 MEMB     100      OYPE     C24      CTL2    -0.180000       12.0110           0
     12383 MEMB     100      OYPE     H4R      HAL2     0.900000E-01   1.00800           0
     12384 MEMB     100      OYPE     H4S      HAL2     0.900000E-01   1.00800           0
     12385 MEMB     100      OYPE     C25      CTL2    -0.180000       12.0110           0
     12386 MEMB     100      OYPE     H5R      HAL2     0.900000E-01   1.00800           0
     12387 MEMB     100      OYPE     H5S      HAL2     0.900000E-01   1.00800           0
     12388 MEMB     100      OYPE     C26      CTL2    -0.180000       12.0110           0
     12389 MEMB     100      OYPE     H6R      HAL2     0.900000E-01   1.00800           0
     12390 MEMB     100      OYPE     H6S      HAL2     0.900000E-01   1.00800           0
     12391 MEMB     100      OYPE     C27      CTL2    -0.180000       12.0110           0
     12392 MEMB     100      OYPE     H7R      HAL2     0.900000E-01   1.00800           0
     12393 MEMB     100      OYPE     H7S      HAL2     0.900000E-01   1.00800           0
     12394 MEMB     100      OYPE     C28      CTL2    -0.180000       12.0110           0
     12395 MEMB     100      OYPE     H8R      HAL2     0.900000E-01   1.00800           0
     12396 MEMB     100      OYPE     H8S      HAL2     0.900000E-01   1.00800           0
     12397 MEMB     100      OYPE     C29      CEL1    -0.150000       12.0110           0
     12398 MEMB     100      OYPE     H9R      HEL1     0.150000       1.00800           0
     12399 MEMB     100      OYPE     C210     CEL1    -0.150000       12.0110           0
     12400 MEMB     100      OYPE     H10R     HEL1     0.150000       1.00800           0
     12401 MEMB     100      OYPE     C211     CTL2    -0.180000       12.0110           0
     12402 MEMB     100      OYPE     H11R     HAL2     0.900000E-01   1.00800           0
     12403 MEMB     100      OYPE     H11S     HAL2     0.900000E-01   1.00800           0
     12404 MEMB     100      OYPE     C212     CTL2    -0.180000       12.0110           0
     12405 MEMB     100      OYPE     H12R     HAL2     0.900000E-01   1.00800           0
     12406 MEMB     100      OYPE     H12S     HAL2     0.900000E-01   1.00800           0
     12407 MEMB     100      OYPE     C213     CTL2    -0.180000       12.0110           0
     12408 MEMB     100      OYPE     H13R     HAL2     0.900000E-01   1.00800           0
     12409 MEMB     100      OYPE     H13S     HAL2     0.900000E-01   1.00800           0
     12410 MEMB     100      OYPE     C214     CTL2    -0.180000       12.0110           0
     12411 MEMB     100      OYPE     H14R     HAL2     0.900000E-01   1.00800           0
     12412 MEMB     100      OYPE     H14S     HAL2     0.900000E-01   1.00800           0
     12413 MEMB     100      OYPE     C215     CTL2    -0.180000       12.0110           0
     12414 MEMB     100      OYPE     H15R     HAL2     0.900000E-01   1.00800           0
     12415 MEMB     100      OYPE     H15S     HAL2     0.900000E-01   1.00800           0
     12416 MEMB     100      OYPE     C216     CTL3    -0.270000       12.0110           0
     12417 MEMB     100      OYPE     H16R     HAL3     0.900000E-01   1.00800           0
     12418 MEMB     100      OYPE     H16S     HAL3     0.900000E-01   1.00800           0
     12419 MEMB     100      OYPE     H16T     HAL3     0.900000E-01   1.00800           0
     12420 MEMB     100      OYPE     C33      CTL2    -0.180000       12.0110           0
     12421 MEMB     100      OYPE     H3X      HAL2     0.900000E-01   1.00800           0
     12422 MEMB     100      OYPE     H3Y      HAL2     0.900000E-01   1.00800           0
     12423 MEMB     100      OYPE     C34      CTL2    -0.180000       12.0110           0
     12424 MEMB     100      OYPE     H4X      HAL2     0.900000E-01   1.00800           0
     12425 MEMB     100      OYPE     H4Y      HAL2     0.900000E-01   1.00800           0
     12426 MEMB     100      OYPE     C35      CTL2    -0.180000       12.0110           0
     12427 MEMB     100      OYPE     H5X      HAL2     0.900000E-01   1.00800           0
     12428 MEMB     100      OYPE     H5Y      HAL2     0.900000E-01   1.00800           0
     12429 MEMB     100      OYPE     C36      CTL2    -0.180000       12.0110           0
     12430 MEMB     100      OYPE     H6X      HAL2     0.900000E-01   1.00800           0
     12431 MEMB     100      OYPE     H6Y      HAL2     0.900000E-01   1.00800           0
     12432 MEMB     100      OYPE     C37      CTL2    -0.180000       12.0110           0
     12433 MEMB     100      OYPE     H7X      HAL2     0.900000E-01   1.00800           0
     12434 MEMB     100      OYPE     H7Y      HAL2     0.900000E-01   1.00800           0
     12435 MEMB     100      OYPE     C38      CTL2    -0.180000       12.0110           0
     12436 MEMB     100      OYPE     H8X      HAL2     0.900000E-01   1.00800           0
     12437 MEMB     100      OYPE     H8Y      HAL2     0.900000E-01   1.00800           0
     12438 MEMB     100      OYPE     C39      CEL1    -0.150000       12.0110           0
     12439 MEMB     100      OYPE     H9X      HEL1     0.150000       1.00800           0
     12440 MEMB     100      OYPE     C310     CEL1    -0.150000       12.0110           0
     12441 MEMB     100      OYPE     H10X     HEL1     0.150000       1.00800           0
     12442 MEMB     100      OYPE     C311     CTL2    -0.180000       12.0110           0
     12443 MEMB     100      OYPE     H11X     HAL2     0.900000E-01   1.00800           0
     12444 MEMB     100      OYPE     H11Y     HAL2     0.900000E-01   1.00800           0
     12445 MEMB     100      OYPE     C312     CTL2    -0.180000       12.0110           0
     12446 MEMB     100      OYPE     H12X     HAL2     0.900000E-01   1.00800           0
     12447 MEMB     100      OYPE     H12Y     HAL2     0.900000E-01   1.00800           0
     12448 MEMB     100      OYPE     C313     CTL2    -0.180000       12.0110           0
     12449 MEMB     100      OYPE     H13X     HAL2     0.900000E-01   1.00800           0
     12450 MEMB     100      OYPE     H13Y     HAL2     0.900000E-01   1.00800           0
     12451 MEMB     100      OYPE     C314     CTL2    -0.180000       12.0110           0
     12452 MEMB     100      OYPE     H14X     HAL2     0.900000E-01   1.00800           0
     12453 MEMB     100      OYPE     H14Y     HAL2     0.900000E-01   1.00800           0
     12454 MEMB     100      OYPE     C315     CTL2    -0.180000       12.0110           0
     12455 MEMB     100      OYPE     H15X     HAL2     0.900000E-01   1.00800           0
     12456 MEMB     100      OYPE     H15Y     HAL2     0.900000E-01   1.00800           0
     12457 MEMB     100      OYPE     C316     CTL2    -0.180000       12.0110           0
     12458 MEMB     100      OYPE     H16X     HAL2     0.900000E-01   1.00800           0
     12459 MEMB     100      OYPE     H16Y     HAL2     0.900000E-01   1.00800           0
     12460 MEMB     100      OYPE     C317     CTL2    -0.180000       12.0110           0
     12461 MEMB     100      OYPE     H17X     HAL2     0.900000E-01   1.00800           0
     12462 MEMB     100      OYPE     H17Y     HAL2     0.900000E-01   1.00800           0
     12463 MEMB     100      OYPE     C318     CTL3    -0.270000       12.0110           0
     12464 MEMB     100      OYPE     H18X     HAL3     0.900000E-01   1.00800           0
     12465 MEMB     100      OYPE     H18Y     HAL3     0.900000E-01   1.00800           0
     12466 MEMB     100      OYPE     H18Z     HAL3     0.900000E-01   1.00800           0
     12467 MEMB     101      PMPE     N        NH3L    -0.300000       14.0070           0
     12468 MEMB     101      PMPE     HN1      HCL      0.330000       1.00800           0
     12469 MEMB     101      PMPE     HN2      HCL      0.330000       1.00800           0
     12470 MEMB     101      PMPE     HN3      HCL      0.330000       1.00800           0
     12471 MEMB     101      PMPE     C12      CTL2     0.130000       12.0110           0
     12472 MEMB     101      PMPE     H12A     HAL2     0.900000E-01   1.00800           0
     12473 MEMB     101      PMPE     H12B     HAL2     0.900000E-01   1.00800           0
     12474 MEMB     101      PMPE     C11      CTL2    -0.800000E-01   12.0110           0
     12475 MEMB     101      PMPE     H11A     HAL2     0.900000E-01   1.00800           0
     12476 MEMB     101      PMPE     H11B     HAL2     0.900000E-01   1.00800           0
     12477 MEMB     101      PMPE     P        PL        1.50000       30.9740           0
     12478 MEMB     101      PMPE     O13      O2L     -0.780000       15.9994           0
     12479 MEMB     101      PMPE     O14      O2L     -0.780000       15.9994           0
     12480 MEMB     101      PMPE     O11      OSLP    -0.570000       15.9994           0
     12481 MEMB     101      PMPE     O12      OSLP    -0.570000       15.9994           0
     12482 MEMB     101      PMPE     C1       CTL2    -0.800000E-01   12.0110           0
     12483 MEMB     101      PMPE     HA       HAL2     0.900000E-01   1.00800           0
     12484 MEMB     101      PMPE     HB       HAL2     0.900000E-01   1.00800           0
     12485 MEMB     101      PMPE     C2       CTL1     0.170000       12.0110           0
     12486 MEMB     101      PMPE     HS       HAL1     0.900000E-01   1.00800           0
     12487 MEMB     101      PMPE     O21      OSL     -0.490000       15.9994           0
     12488 MEMB     101      PMPE     C21      CL       0.900000       12.0110           0
     12489 MEMB     101      PMPE     O22      OBL     -0.630000       15.9994           0
     12490 MEMB     101      PMPE     C22      CTL2    -0.220000       12.0110           0
     12491 MEMB     101      PMPE     H2R      HAL2     0.900000E-01   1.00800           0
     12492 MEMB     101      PMPE     H2S      HAL2     0.900000E-01   1.00800           0
     12493 MEMB     101      PMPE     C3       CTL2     0.800000E-01   12.0110           0
     12494 MEMB     101      PMPE     HX       HAL2     0.900000E-01   1.00800           0
     12495 MEMB     101      PMPE     HY       HAL2     0.900000E-01   1.00800           0
     12496 MEMB     101      PMPE     O31      OSL     -0.490000       15.9994           0
     12497 MEMB     101      PMPE     C31      CL       0.900000       12.0110           0
     12498 MEMB     101      PMPE     O32      OBL     -0.630000       15.9994           0
     12499 MEMB     101      PMPE     C32      CTL2    -0.220000       12.0110           0
     12500 MEMB     101      PMPE     H2X      HAL2     0.900000E-01   1.00800           0
     12501 MEMB     101      PMPE     H2Y      HAL2     0.900000E-01   1.00800           0
     12502 MEMB     101      PMPE     C23      CTL2    -0.180000       12.0110           0
     12503 MEMB     101      PMPE     H3R      HAL2     0.900000E-01   1.00800           0
     12504 MEMB     101      PMPE     H3S      HAL2     0.900000E-01   1.00800           0
     12505 MEMB     101      PMPE     C24      CTL2    -0.180000       12.0110           0
     12506 MEMB     101      PMPE     H4R      HAL2     0.900000E-01   1.00800           0
     12507 MEMB     101      PMPE     H4S      HAL2     0.900000E-01   1.00800           0
     12508 MEMB     101      PMPE     C25      CTL2    -0.180000       12.0110           0
     12509 MEMB     101      PMPE     H5R      HAL2     0.900000E-01   1.00800           0
     12510 MEMB     101      PMPE     H5S      HAL2     0.900000E-01   1.00800           0
     12511 MEMB     101      PMPE     C26      CTL2    -0.180000       12.0110           0
     12512 MEMB     101      PMPE     H6R      HAL2     0.900000E-01   1.00800           0
     12513 MEMB     101      PMPE     H6S      HAL2     0.900000E-01   1.00800           0
     12514 MEMB     101      PMPE     C27      CTL2    -0.180000       12.0110           0
     12515 MEMB     101      PMPE     H7R      HAL2     0.900000E-01   1.00800           0
     12516 MEMB     101      PMPE     H7S      HAL2     0.900000E-01   1.00800           0
     12517 MEMB     101      PMPE     C28      CTL2    -0.180000       12.0110           0
     12518 MEMB     101      PMPE     H8R      HAL2     0.900000E-01   1.00800           0
     12519 MEMB     101      PMPE     H8S      HAL2     0.900000E-01   1.00800           0
     12520 MEMB     101      PMPE     C29      CG3RC1  -0.900000E-01   12.0110           0
     12521 MEMB     101      PMPE     H9R      HGA1     0.900000E-01   1.00800           0
     12522 MEMB     101      PMPE     C217     CG3C31  -0.180000       12.0110           0
     12523 MEMB     101      PMPE     H17R     HGA2     0.900000E-01   1.00800           0
     12524 MEMB     101      PMPE     H17S     HGA2     0.900000E-01   1.00800           0
     12525 MEMB     101      PMPE     C210     CG3RC1  -0.900000E-01   12.0110           0
     12526 MEMB     101      PMPE     H10R     HGA1     0.900000E-01   1.00800           0
     12527 MEMB     101      PMPE     C211     CTL2    -0.180000       12.0110           0
     12528 MEMB     101      PMPE     H11R     HAL2     0.900000E-01   1.00800           0
     12529 MEMB     101      PMPE     H11S     HAL2     0.900000E-01   1.00800           0
     12530 MEMB     101      PMPE     C212     CTL2    -0.180000       12.0110           0
     12531 MEMB     101      PMPE     H12R     HAL2     0.900000E-01   1.00800           0
     12532 MEMB     101      PMPE     H12S     HAL2     0.900000E-01   1.00800           0
     12533 MEMB     101      PMPE     C213     CTL2    -0.180000       12.0110           0
     12534 MEMB     101      PMPE     H13R     HAL2     0.900000E-01   1.00800           0
     12535 MEMB     101      PMPE     H13S     HAL2     0.900000E-01   1.00800           0
     12536 MEMB     101      PMPE     C214     CTL2    -0.180000       12.0110           0
     12537 MEMB     101      PMPE     H14R     HAL2     0.900000E-01   1.00800           0
     12538 MEMB     101      PMPE     H14S     HAL2     0.900000E-01   1.00800           0
     12539 MEMB     101      PMPE     C215     CTL2    -0.180000       12.0110           0
     12540 MEMB     101      PMPE     H15R     HAL2     0.900000E-01   1.00800           0
     12541 MEMB     101      PMPE     H15S     HAL2     0.900000E-01   1.00800           0
     12542 MEMB     101      PMPE     C216     CTL3    -0.270000       12.0110           0
     12543 MEMB     101      PMPE     H16R     HAL3     0.900000E-01   1.00800           0
     12544 MEMB     101      PMPE     H16S     HAL3     0.900000E-01   1.00800           0
     12545 MEMB     101      PMPE     H16T     HAL3     0.900000E-01   1.00800           0
     12546 MEMB     101      PMPE     C33      CTL2    -0.180000       12.0110           0
     12547 MEMB     101      PMPE     H3X      HAL2     0.900000E-01   1.00800           0
     12548 MEMB     101      PMPE     H3Y      HAL2     0.900000E-01   1.00800           0
     12549 MEMB     101      PMPE     C34      CTL2    -0.180000       12.0110           0
     12550 MEMB     101      PMPE     H4X      HAL2     0.900000E-01   1.00800           0
     12551 MEMB     101      PMPE     H4Y      HAL2     0.900000E-01   1.00800           0
     12552 MEMB     101      PMPE     C35      CTL2    -0.180000       12.0110           0
     12553 MEMB     101      PMPE     H5X      HAL2     0.900000E-01   1.00800           0
     12554 MEMB     101      PMPE     H5Y      HAL2     0.900000E-01   1.00800           0
     12555 MEMB     101      PMPE     C36      CTL2    -0.180000       12.0110           0
     12556 MEMB     101      PMPE     H6X      HAL2     0.900000E-01   1.00800           0
     12557 MEMB     101      PMPE     H6Y      HAL2     0.900000E-01   1.00800           0
     12558 MEMB     101      PMPE     C37      CTL2    -0.180000       12.0110           0
     12559 MEMB     101      PMPE     H7X      HAL2     0.900000E-01   1.00800           0
     12560 MEMB     101      PMPE     H7Y      HAL2     0.900000E-01   1.00800           0
     12561 MEMB     101      PMPE     C38      CTL2    -0.180000       12.0110           0
     12562 MEMB     101      PMPE     H8X      HAL2     0.900000E-01   1.00800           0
     12563 MEMB     101      PMPE     H8Y      HAL2     0.900000E-01   1.00800           0
     12564 MEMB     101      PMPE     C39      CTL2    -0.180000       12.0110           0
     12565 MEMB     101      PMPE     H9X      HAL2     0.900000E-01   1.00800           0
     12566 MEMB     101      PMPE     H9Y      HAL2     0.900000E-01   1.00800           0
     12567 MEMB     101      PMPE     C310     CTL2    -0.180000       12.0110           0
     12568 MEMB     101      PMPE     H10X     HAL2     0.900000E-01   1.00800           0
     12569 MEMB     101      PMPE     H10Y     HAL2     0.900000E-01   1.00800           0
     12570 MEMB     101      PMPE     C311     CTL2    -0.180000       12.0110           0
     12571 MEMB     101      PMPE     H11X     HAL2     0.900000E-01   1.00800           0
     12572 MEMB     101      PMPE     H11Y     HAL2     0.900000E-01   1.00800           0
     12573 MEMB     101      PMPE     C312     CTL2    -0.180000       12.0110           0
     12574 MEMB     101      PMPE     H12X     HAL2     0.900000E-01   1.00800           0
     12575 MEMB     101      PMPE     H12Y     HAL2     0.900000E-01   1.00800           0
     12576 MEMB     101      PMPE     C313     CTL2    -0.180000       12.0110           0
     12577 MEMB     101      PMPE     H13X     HAL2     0.900000E-01   1.00800           0
     12578 MEMB     101      PMPE     H13Y     HAL2     0.900000E-01   1.00800           0
     12579 MEMB     101      PMPE     C314     CTL2    -0.180000       12.0110           0
     12580 MEMB     101      PMPE     H14X     HAL2     0.900000E-01   1.00800           0
     12581 MEMB     101      PMPE     H14Y     HAL2     0.900000E-01   1.00800           0
     12582 MEMB     101      PMPE     C315     CTL2    -0.180000       12.0110           0
     12583 MEMB     101      PMPE     H15X     HAL2     0.900000E-01   1.00800           0
     12584 MEMB     101      PMPE     H15Y     HAL2     0.900000E-01   1.00800           0
     12585 MEMB     101      PMPE     C316     CTL3    -0.270000       12.0110           0
     12586 MEMB     101      PMPE     H16X     HAL3     0.900000E-01   1.00800           0
     12587 MEMB     101      PMPE     H16Y     HAL3     0.900000E-01   1.00800           0
     12588 MEMB     101      PMPE     H16Z     HAL3     0.900000E-01   1.00800           0
     12589 MEMB     102      PMPE     N        NH3L    -0.300000       14.0070           0
     12590 MEMB     102      PMPE     HN1      HCL      0.330000       1.00800           0
     12591 MEMB     102      PMPE     HN2      HCL      0.330000       1.00800           0
     12592 MEMB     102      PMPE     HN3      HCL      0.330000       1.00800           0
     12593 MEMB     102      PMPE     C12      CTL2     0.130000       12.0110           0
     12594 MEMB     102      PMPE     H12A     HAL2     0.900000E-01   1.00800           0
     12595 MEMB     102      PMPE     H12B     HAL2     0.900000E-01   1.00800           0
     12596 MEMB     102      PMPE     C11      CTL2    -0.800000E-01   12.0110           0
     12597 MEMB     102      PMPE     H11A     HAL2     0.900000E-01   1.00800           0
     12598 MEMB     102      PMPE     H11B     HAL2     0.900000E-01   1.00800           0
     12599 MEMB     102      PMPE     P        PL        1.50000       30.9740           0
     12600 MEMB     102      PMPE     O13      O2L     -0.780000       15.9994           0
     12601 MEMB     102      PMPE     O14      O2L     -0.780000       15.9994           0
     12602 MEMB     102      PMPE     O11      OSLP    -0.570000       15.9994           0
     12603 MEMB     102      PMPE     O12      OSLP    -0.570000       15.9994           0
     12604 MEMB     102      PMPE     C1       CTL2    -0.800000E-01   12.0110           0
     12605 MEMB     102      PMPE     HA       HAL2     0.900000E-01   1.00800           0
     12606 MEMB     102      PMPE     HB       HAL2     0.900000E-01   1.00800           0
     12607 MEMB     102      PMPE     C2       CTL1     0.170000       12.0110           0
     12608 MEMB     102      PMPE     HS       HAL1     0.900000E-01   1.00800           0
     12609 MEMB     102      PMPE     O21      OSL     -0.490000       15.9994           0
     12610 MEMB     102      PMPE     C21      CL       0.900000       12.0110           0
     12611 MEMB     102      PMPE     O22      OBL     -0.630000       15.9994           0
     12612 MEMB     102      PMPE     C22      CTL2    -0.220000       12.0110           0
     12613 MEMB     102      PMPE     H2R      HAL2     0.900000E-01   1.00800           0
     12614 MEMB     102      PMPE     H2S      HAL2     0.900000E-01   1.00800           0
     12615 MEMB     102      PMPE     C3       CTL2     0.800000E-01   12.0110           0
     12616 MEMB     102      PMPE     HX       HAL2     0.900000E-01   1.00800           0
     12617 MEMB     102      PMPE     HY       HAL2     0.900000E-01   1.00800           0
     12618 MEMB     102      PMPE     O31      OSL     -0.490000       15.9994           0
     12619 MEMB     102      PMPE     C31      CL       0.900000       12.0110           0
     12620 MEMB     102      PMPE     O32      OBL     -0.630000       15.9994           0
     12621 MEMB     102      PMPE     C32      CTL2    -0.220000       12.0110           0
     12622 MEMB     102      PMPE     H2X      HAL2     0.900000E-01   1.00800           0
     12623 MEMB     102      PMPE     H2Y      HAL2     0.900000E-01   1.00800           0
     12624 MEMB     102      PMPE     C23      CTL2    -0.180000       12.0110           0
     12625 MEMB     102      PMPE     H3R      HAL2     0.900000E-01   1.00800           0
     12626 MEMB     102      PMPE     H3S      HAL2     0.900000E-01   1.00800           0
     12627 MEMB     102      PMPE     C24      CTL2    -0.180000       12.0110           0
     12628 MEMB     102      PMPE     H4R      HAL2     0.900000E-01   1.00800           0
     12629 MEMB     102      PMPE     H4S      HAL2     0.900000E-01   1.00800           0
     12630 MEMB     102      PMPE     C25      CTL2    -0.180000       12.0110           0
     12631 MEMB     102      PMPE     H5R      HAL2     0.900000E-01   1.00800           0
     12632 MEMB     102      PMPE     H5S      HAL2     0.900000E-01   1.00800           0
     12633 MEMB     102      PMPE     C26      CTL2    -0.180000       12.0110           0
     12634 MEMB     102      PMPE     H6R      HAL2     0.900000E-01   1.00800           0
     12635 MEMB     102      PMPE     H6S      HAL2     0.900000E-01   1.00800           0
     12636 MEMB     102      PMPE     C27      CTL2    -0.180000       12.0110           0
     12637 MEMB     102      PMPE     H7R      HAL2     0.900000E-01   1.00800           0
     12638 MEMB     102      PMPE     H7S      HAL2     0.900000E-01   1.00800           0
     12639 MEMB     102      PMPE     C28      CTL2    -0.180000       12.0110           0
     12640 MEMB     102      PMPE     H8R      HAL2     0.900000E-01   1.00800           0
     12641 MEMB     102      PMPE     H8S      HAL2     0.900000E-01   1.00800           0
     12642 MEMB     102      PMPE     C29      CG3RC1  -0.900000E-01   12.0110           0
     12643 MEMB     102      PMPE     H9R      HGA1     0.900000E-01   1.00800           0
     12644 MEMB     102      PMPE     C217     CG3C31  -0.180000       12.0110           0
     12645 MEMB     102      PMPE     H17R     HGA2     0.900000E-01   1.00800           0
     12646 MEMB     102      PMPE     H17S     HGA2     0.900000E-01   1.00800           0
     12647 MEMB     102      PMPE     C210     CG3RC1  -0.900000E-01   12.0110           0
     12648 MEMB     102      PMPE     H10R     HGA1     0.900000E-01   1.00800           0
     12649 MEMB     102      PMPE     C211     CTL2    -0.180000       12.0110           0
     12650 MEMB     102      PMPE     H11R     HAL2     0.900000E-01   1.00800           0
     12651 MEMB     102      PMPE     H11S     HAL2     0.900000E-01   1.00800           0
     12652 MEMB     102      PMPE     C212     CTL2    -0.180000       12.0110           0
     12653 MEMB     102      PMPE     H12R     HAL2     0.900000E-01   1.00800           0
     12654 MEMB     102      PMPE     H12S     HAL2     0.900000E-01   1.00800           0
     12655 MEMB     102      PMPE     C213     CTL2    -0.180000       12.0110           0
     12656 MEMB     102      PMPE     H13R     HAL2     0.900000E-01   1.00800           0
     12657 MEMB     102      PMPE     H13S     HAL2     0.900000E-01   1.00800           0
     12658 MEMB     102      PMPE     C214     CTL2    -0.180000       12.0110           0
     12659 MEMB     102      PMPE     H14R     HAL2     0.900000E-01   1.00800           0
     12660 MEMB     102      PMPE     H14S     HAL2     0.900000E-01   1.00800           0
     12661 MEMB     102      PMPE     C215     CTL2    -0.180000       12.0110           0
     12662 MEMB     102      PMPE     H15R     HAL2     0.900000E-01   1.00800           0
     12663 MEMB     102      PMPE     H15S     HAL2     0.900000E-01   1.00800           0
     12664 MEMB     102      PMPE     C216     CTL3    -0.270000       12.0110           0
     12665 MEMB     102      PMPE     H16R     HAL3     0.900000E-01   1.00800           0
     12666 MEMB     102      PMPE     H16S     HAL3     0.900000E-01   1.00800           0
     12667 MEMB     102      PMPE     H16T     HAL3     0.900000E-01   1.00800           0
     12668 MEMB     102      PMPE     C33      CTL2    -0.180000       12.0110           0
     12669 MEMB     102      PMPE     H3X      HAL2     0.900000E-01   1.00800           0
     12670 MEMB     102      PMPE     H3Y      HAL2     0.900000E-01   1.00800           0
     12671 MEMB     102      PMPE     C34      CTL2    -0.180000       12.0110           0
     12672 MEMB     102      PMPE     H4X      HAL2     0.900000E-01   1.00800           0
     12673 MEMB     102      PMPE     H4Y      HAL2     0.900000E-01   1.00800           0
     12674 MEMB     102      PMPE     C35      CTL2    -0.180000       12.0110           0
     12675 MEMB     102      PMPE     H5X      HAL2     0.900000E-01   1.00800           0
     12676 MEMB     102      PMPE     H5Y      HAL2     0.900000E-01   1.00800           0
     12677 MEMB     102      PMPE     C36      CTL2    -0.180000       12.0110           0
     12678 MEMB     102      PMPE     H6X      HAL2     0.900000E-01   1.00800           0
     12679 MEMB     102      PMPE     H6Y      HAL2     0.900000E-01   1.00800           0
     12680 MEMB     102      PMPE     C37      CTL2    -0.180000       12.0110           0
     12681 MEMB     102      PMPE     H7X      HAL2     0.900000E-01   1.00800           0
     12682 MEMB     102      PMPE     H7Y      HAL2     0.900000E-01   1.00800           0
     12683 MEMB     102      PMPE     C38      CTL2    -0.180000       12.0110           0
     12684 MEMB     102      PMPE     H8X      HAL2     0.900000E-01   1.00800           0
     12685 MEMB     102      PMPE     H8Y      HAL2     0.900000E-01   1.00800           0
     12686 MEMB     102      PMPE     C39      CTL2    -0.180000       12.0110           0
     12687 MEMB     102      PMPE     H9X      HAL2     0.900000E-01   1.00800           0
     12688 MEMB     102      PMPE     H9Y      HAL2     0.900000E-01   1.00800           0
     12689 MEMB     102      PMPE     C310     CTL2    -0.180000       12.0110           0
     12690 MEMB     102      PMPE     H10X     HAL2     0.900000E-01   1.00800           0
     12691 MEMB     102      PMPE     H10Y     HAL2     0.900000E-01   1.00800           0
     12692 MEMB     102      PMPE     C311     CTL2    -0.180000       12.0110           0
     12693 MEMB     102      PMPE     H11X     HAL2     0.900000E-01   1.00800           0
     12694 MEMB     102      PMPE     H11Y     HAL2     0.900000E-01   1.00800           0
     12695 MEMB     102      PMPE     C312     CTL2    -0.180000       12.0110           0
     12696 MEMB     102      PMPE     H12X     HAL2     0.900000E-01   1.00800           0
     12697 MEMB     102      PMPE     H12Y     HAL2     0.900000E-01   1.00800           0
     12698 MEMB     102      PMPE     C313     CTL2    -0.180000       12.0110           0
     12699 MEMB     102      PMPE     H13X     HAL2     0.900000E-01   1.00800           0
     12700 MEMB     102      PMPE     H13Y     HAL2     0.900000E-01   1.00800           0
     12701 MEMB     102      PMPE     C314     CTL2    -0.180000       12.0110           0
     12702 MEMB     102      PMPE     H14X     HAL2     0.900000E-01   1.00800           0
     12703 MEMB     102      PMPE     H14Y     HAL2     0.900000E-01   1.00800           0
     12704 MEMB     102      PMPE     C315     CTL2    -0.180000       12.0110           0
     12705 MEMB     102      PMPE     H15X     HAL2     0.900000E-01   1.00800           0
     12706 MEMB     102      PMPE     H15Y     HAL2     0.900000E-01   1.00800           0
     12707 MEMB     102      PMPE     C316     CTL3    -0.270000       12.0110           0
     12708 MEMB     102      PMPE     H16X     HAL3     0.900000E-01   1.00800           0
     12709 MEMB     102      PMPE     H16Y     HAL3     0.900000E-01   1.00800           0
     12710 MEMB     102      PMPE     H16Z     HAL3     0.900000E-01   1.00800           0
     12711 MEMB     103      PMPG     C13      CTL2     0.500000E-01   12.0110           0
     12712 MEMB     103      PMPG     H13A     HAL2     0.900000E-01   1.00800           0
     12713 MEMB     103      PMPG     H13B     HAL2     0.900000E-01   1.00800           0
     12714 MEMB     103      PMPG     OC3      OHL     -0.660000       15.9994           0
     12715 MEMB     103      PMPG     HO3      HOL      0.430000       1.00800           0
     12716 MEMB     103      PMPG     C12      CTL1     0.140000       12.0110           0
     12717 MEMB     103      PMPG     H12A     HAL1     0.900000E-01   1.00800           0
     12718 MEMB     103      PMPG     OC2      OHL     -0.660000       15.9994           0
     12719 MEMB     103      PMPG     HO2      HOL      0.430000       1.00800           0
     12720 MEMB     103      PMPG     C11      CTL2    -0.800000E-01   12.0110           0
     12721 MEMB     103      PMPG     H11A     HAL2     0.900000E-01   1.00800           0
     12722 MEMB     103      PMPG     H11B     HAL2     0.900000E-01   1.00800           0
     12723 MEMB     103      PMPG     P        PL        1.50000       30.9740           0
     12724 MEMB     103      PMPG     O13      O2L     -0.780000       15.9994           0
     12725 MEMB     103      PMPG     O14      O2L     -0.780000       15.9994           0
     12726 MEMB     103      PMPG     O11      OSLP    -0.570000       15.9994           0
     12727 MEMB     103      PMPG     O12      OSLP    -0.570000       15.9994           0
     12728 MEMB     103      PMPG     C1       CTL2    -0.800000E-01   12.0110           0
     12729 MEMB     103      PMPG     HA       HAL2     0.900000E-01   1.00800           0
     12730 MEMB     103      PMPG     HB       HAL2     0.900000E-01   1.00800           0
     12731 MEMB     103      PMPG     C2       CTL1     0.170000       12.0110           0
     12732 MEMB     103      PMPG     HS       HAL1     0.900000E-01   1.00800           0
     12733 MEMB     103      PMPG     O21      OSL     -0.490000       15.9994           0
     12734 MEMB     103      PMPG     C21      CL       0.900000       12.0110           0
     12735 MEMB     103      PMPG     O22      OBL     -0.630000       15.9994           0
     12736 MEMB     103      PMPG     C22      CTL2    -0.220000       12.0110           0
     12737 MEMB     103      PMPG     H2R      HAL2     0.900000E-01   1.00800           0
     12738 MEMB     103      PMPG     H2S      HAL2     0.900000E-01   1.00800           0
     12739 MEMB     103      PMPG     C3       CTL2     0.800000E-01   12.0110           0
     12740 MEMB     103      PMPG     HX       HAL2     0.900000E-01   1.00800           0
     12741 MEMB     103      PMPG     HY       HAL2     0.900000E-01   1.00800           0
     12742 MEMB     103      PMPG     O31      OSL     -0.490000       15.9994           0
     12743 MEMB     103      PMPG     C31      CL       0.900000       12.0110           0
     12744 MEMB     103      PMPG     O32      OBL     -0.630000       15.9994           0
     12745 MEMB     103      PMPG     C32      CTL2    -0.220000       12.0110           0
     12746 MEMB     103      PMPG     H2X      HAL2     0.900000E-01   1.00800           0
     12747 MEMB     103      PMPG     H2Y      HAL2     0.900000E-01   1.00800           0
     12748 MEMB     103      PMPG     C23      CTL2    -0.180000       12.0110           0
     12749 MEMB     103      PMPG     H3R      HAL2     0.900000E-01   1.00800           0
     12750 MEMB     103      PMPG     H3S      HAL2     0.900000E-01   1.00800           0
     12751 MEMB     103      PMPG     C24      CTL2    -0.180000       12.0110           0
     12752 MEMB     103      PMPG     H4R      HAL2     0.900000E-01   1.00800           0
     12753 MEMB     103      PMPG     H4S      HAL2     0.900000E-01   1.00800           0
     12754 MEMB     103      PMPG     C25      CTL2    -0.180000       12.0110           0
     12755 MEMB     103      PMPG     H5R      HAL2     0.900000E-01   1.00800           0
     12756 MEMB     103      PMPG     H5S      HAL2     0.900000E-01   1.00800           0
     12757 MEMB     103      PMPG     C26      CTL2    -0.180000       12.0110           0
     12758 MEMB     103      PMPG     H6R      HAL2     0.900000E-01   1.00800           0
     12759 MEMB     103      PMPG     H6S      HAL2     0.900000E-01   1.00800           0
     12760 MEMB     103      PMPG     C27      CTL2    -0.180000       12.0110           0
     12761 MEMB     103      PMPG     H7R      HAL2     0.900000E-01   1.00800           0
     12762 MEMB     103      PMPG     H7S      HAL2     0.900000E-01   1.00800           0
     12763 MEMB     103      PMPG     C28      CTL2    -0.180000       12.0110           0
     12764 MEMB     103      PMPG     H8R      HAL2     0.900000E-01   1.00800           0
     12765 MEMB     103      PMPG     H8S      HAL2     0.900000E-01   1.00800           0
     12766 MEMB     103      PMPG     C29      CG3RC1  -0.900000E-01   12.0110           0
     12767 MEMB     103      PMPG     H9R      HGA1     0.900000E-01   1.00800           0
     12768 MEMB     103      PMPG     C217     CG3C31  -0.180000       12.0110           0
     12769 MEMB     103      PMPG     H17R     HGA2     0.900000E-01   1.00800           0
     12770 MEMB     103      PMPG     H17S     HGA2     0.900000E-01   1.00800           0
     12771 MEMB     103      PMPG     C210     CG3RC1  -0.900000E-01   12.0110           0
     12772 MEMB     103      PMPG     H10R     HGA1     0.900000E-01   1.00800           0
     12773 MEMB     103      PMPG     C211     CTL2    -0.180000       12.0110           0
     12774 MEMB     103      PMPG     H11R     HAL2     0.900000E-01   1.00800           0
     12775 MEMB     103      PMPG     H11S     HAL2     0.900000E-01   1.00800           0
     12776 MEMB     103      PMPG     C212     CTL2    -0.180000       12.0110           0
     12777 MEMB     103      PMPG     H12R     HAL2     0.900000E-01   1.00800           0
     12778 MEMB     103      PMPG     H12S     HAL2     0.900000E-01   1.00800           0
     12779 MEMB     103      PMPG     C213     CTL2    -0.180000       12.0110           0
     12780 MEMB     103      PMPG     H13R     HAL2     0.900000E-01   1.00800           0
     12781 MEMB     103      PMPG     H13S     HAL2     0.900000E-01   1.00800           0
     12782 MEMB     103      PMPG     C214     CTL2    -0.180000       12.0110           0
     12783 MEMB     103      PMPG     H14R     HAL2     0.900000E-01   1.00800           0
     12784 MEMB     103      PMPG     H14S     HAL2     0.900000E-01   1.00800           0
     12785 MEMB     103      PMPG     C215     CTL2    -0.180000       12.0110           0
     12786 MEMB     103      PMPG     H15R     HAL2     0.900000E-01   1.00800           0
     12787 MEMB     103      PMPG     H15S     HAL2     0.900000E-01   1.00800           0
     12788 MEMB     103      PMPG     C216     CTL3    -0.270000       12.0110           0
     12789 MEMB     103      PMPG     H16R     HAL3     0.900000E-01   1.00800           0
     12790 MEMB     103      PMPG     H16S     HAL3     0.900000E-01   1.00800           0
     12791 MEMB     103      PMPG     H16T     HAL3     0.900000E-01   1.00800           0
     12792 MEMB     103      PMPG     C33      CTL2    -0.180000       12.0110           0
     12793 MEMB     103      PMPG     H3X      HAL2     0.900000E-01   1.00800           0
     12794 MEMB     103      PMPG     H3Y      HAL2     0.900000E-01   1.00800           0
     12795 MEMB     103      PMPG     C34      CTL2    -0.180000       12.0110           0
     12796 MEMB     103      PMPG     H4X      HAL2     0.900000E-01   1.00800           0
     12797 MEMB     103      PMPG     H4Y      HAL2     0.900000E-01   1.00800           0
     12798 MEMB     103      PMPG     C35      CTL2    -0.180000       12.0110           0
     12799 MEMB     103      PMPG     H5X      HAL2     0.900000E-01   1.00800           0
     12800 MEMB     103      PMPG     H5Y      HAL2     0.900000E-01   1.00800           0
     12801 MEMB     103      PMPG     C36      CTL2    -0.180000       12.0110           0
     12802 MEMB     103      PMPG     H6X      HAL2     0.900000E-01   1.00800           0
     12803 MEMB     103      PMPG     H6Y      HAL2     0.900000E-01   1.00800           0
     12804 MEMB     103      PMPG     C37      CTL2    -0.180000       12.0110           0
     12805 MEMB     103      PMPG     H7X      HAL2     0.900000E-01   1.00800           0
     12806 MEMB     103      PMPG     H7Y      HAL2     0.900000E-01   1.00800           0
     12807 MEMB     103      PMPG     C38      CTL2    -0.180000       12.0110           0
     12808 MEMB     103      PMPG     H8X      HAL2     0.900000E-01   1.00800           0
     12809 MEMB     103      PMPG     H8Y      HAL2     0.900000E-01   1.00800           0
     12810 MEMB     103      PMPG     C39      CTL2    -0.180000       12.0110           0
     12811 MEMB     103      PMPG     H9X      HAL2     0.900000E-01   1.00800           0
     12812 MEMB     103      PMPG     H9Y      HAL2     0.900000E-01   1.00800           0
     12813 MEMB     103      PMPG     C310     CTL2    -0.180000       12.0110           0
     12814 MEMB     103      PMPG     H10X     HAL2     0.900000E-01   1.00800           0
     12815 MEMB     103      PMPG     H10Y     HAL2     0.900000E-01   1.00800           0
     12816 MEMB     103      PMPG     C311     CTL2    -0.180000       12.0110           0
     12817 MEMB     103      PMPG     H11X     HAL2     0.900000E-01   1.00800           0
     12818 MEMB     103      PMPG     H11Y     HAL2     0.900000E-01   1.00800           0
     12819 MEMB     103      PMPG     C312     CTL2    -0.180000       12.0110           0
     12820 MEMB     103      PMPG     H12X     HAL2     0.900000E-01   1.00800           0
     12821 MEMB     103      PMPG     H12Y     HAL2     0.900000E-01   1.00800           0
     12822 MEMB     103      PMPG     C313     CTL2    -0.180000       12.0110           0
     12823 MEMB     103      PMPG     H13X     HAL2     0.900000E-01   1.00800           0
     12824 MEMB     103      PMPG     H13Y     HAL2     0.900000E-01   1.00800           0
     12825 MEMB     103      PMPG     C314     CTL2    -0.180000       12.0110           0
     12826 MEMB     103      PMPG     H14X     HAL2     0.900000E-01   1.00800           0
     12827 MEMB     103      PMPG     H14Y     HAL2     0.900000E-01   1.00800           0
     12828 MEMB     103      PMPG     C315     CTL2    -0.180000       12.0110           0
     12829 MEMB     103      PMPG     H15X     HAL2     0.900000E-01   1.00800           0
     12830 MEMB     103      PMPG     H15Y     HAL2     0.900000E-01   1.00800           0
     12831 MEMB     103      PMPG     C316     CTL3    -0.270000       12.0110           0
     12832 MEMB     103      PMPG     H16X     HAL3     0.900000E-01   1.00800           0
     12833 MEMB     103      PMPG     H16Y     HAL3     0.900000E-01   1.00800           0
     12834 MEMB     103      PMPG     H16Z     HAL3     0.900000E-01   1.00800           0
     12835 MEMB     104      PMPE     N        NH3L    -0.300000       14.0070           0
     12836 MEMB     104      PMPE     HN1      HCL      0.330000       1.00800           0
     12837 MEMB     104      PMPE     HN2      HCL      0.330000       1.00800           0
     12838 MEMB     104      PMPE     HN3      HCL      0.330000       1.00800           0
     12839 MEMB     104      PMPE     C12      CTL2     0.130000       12.0110           0
     12840 MEMB     104      PMPE     H12A     HAL2     0.900000E-01   1.00800           0
     12841 MEMB     104      PMPE     H12B     HAL2     0.900000E-01   1.00800           0
     12842 MEMB     104      PMPE     C11      CTL2    -0.800000E-01   12.0110           0
     12843 MEMB     104      PMPE     H11A     HAL2     0.900000E-01   1.00800           0
     12844 MEMB     104      PMPE     H11B     HAL2     0.900000E-01   1.00800           0
     12845 MEMB     104      PMPE     P        PL        1.50000       30.9740           0
     12846 MEMB     104      PMPE     O13      O2L     -0.780000       15.9994           0
     12847 MEMB     104      PMPE     O14      O2L     -0.780000       15.9994           0
     12848 MEMB     104      PMPE     O11      OSLP    -0.570000       15.9994           0
     12849 MEMB     104      PMPE     O12      OSLP    -0.570000       15.9994           0
     12850 MEMB     104      PMPE     C1       CTL2    -0.800000E-01   12.0110           0
     12851 MEMB     104      PMPE     HA       HAL2     0.900000E-01   1.00800           0
     12852 MEMB     104      PMPE     HB       HAL2     0.900000E-01   1.00800           0
     12853 MEMB     104      PMPE     C2       CTL1     0.170000       12.0110           0
     12854 MEMB     104      PMPE     HS       HAL1     0.900000E-01   1.00800           0
     12855 MEMB     104      PMPE     O21      OSL     -0.490000       15.9994           0
     12856 MEMB     104      PMPE     C21      CL       0.900000       12.0110           0
     12857 MEMB     104      PMPE     O22      OBL     -0.630000       15.9994           0
     12858 MEMB     104      PMPE     C22      CTL2    -0.220000       12.0110           0
     12859 MEMB     104      PMPE     H2R      HAL2     0.900000E-01   1.00800           0
     12860 MEMB     104      PMPE     H2S      HAL2     0.900000E-01   1.00800           0
     12861 MEMB     104      PMPE     C3       CTL2     0.800000E-01   12.0110           0
     12862 MEMB     104      PMPE     HX       HAL2     0.900000E-01   1.00800           0
     12863 MEMB     104      PMPE     HY       HAL2     0.900000E-01   1.00800           0
     12864 MEMB     104      PMPE     O31      OSL     -0.490000       15.9994           0
     12865 MEMB     104      PMPE     C31      CL       0.900000       12.0110           0
     12866 MEMB     104      PMPE     O32      OBL     -0.630000       15.9994           0
     12867 MEMB     104      PMPE     C32      CTL2    -0.220000       12.0110           0
     12868 MEMB     104      PMPE     H2X      HAL2     0.900000E-01   1.00800           0
     12869 MEMB     104      PMPE     H2Y      HAL2     0.900000E-01   1.00800           0
     12870 MEMB     104      PMPE     C23      CTL2    -0.180000       12.0110           0
     12871 MEMB     104      PMPE     H3R      HAL2     0.900000E-01   1.00800           0
     12872 MEMB     104      PMPE     H3S      HAL2     0.900000E-01   1.00800           0
     12873 MEMB     104      PMPE     C24      CTL2    -0.180000       12.0110           0
     12874 MEMB     104      PMPE     H4R      HAL2     0.900000E-01   1.00800           0
     12875 MEMB     104      PMPE     H4S      HAL2     0.900000E-01   1.00800           0
     12876 MEMB     104      PMPE     C25      CTL2    -0.180000       12.0110           0
     12877 MEMB     104      PMPE     H5R      HAL2     0.900000E-01   1.00800           0
     12878 MEMB     104      PMPE     H5S      HAL2     0.900000E-01   1.00800           0
     12879 MEMB     104      PMPE     C26      CTL2    -0.180000       12.0110           0
     12880 MEMB     104      PMPE     H6R      HAL2     0.900000E-01   1.00800           0
     12881 MEMB     104      PMPE     H6S      HAL2     0.900000E-01   1.00800           0
     12882 MEMB     104      PMPE     C27      CTL2    -0.180000       12.0110           0
     12883 MEMB     104      PMPE     H7R      HAL2     0.900000E-01   1.00800           0
     12884 MEMB     104      PMPE     H7S      HAL2     0.900000E-01   1.00800           0
     12885 MEMB     104      PMPE     C28      CTL2    -0.180000       12.0110           0
     12886 MEMB     104      PMPE     H8R      HAL2     0.900000E-01   1.00800           0
     12887 MEMB     104      PMPE     H8S      HAL2     0.900000E-01   1.00800           0
     12888 MEMB     104      PMPE     C29      CG3RC1  -0.900000E-01   12.0110           0
     12889 MEMB     104      PMPE     H9R      HGA1     0.900000E-01   1.00800           0
     12890 MEMB     104      PMPE     C217     CG3C31  -0.180000       12.0110           0
     12891 MEMB     104      PMPE     H17R     HGA2     0.900000E-01   1.00800           0
     12892 MEMB     104      PMPE     H17S     HGA2     0.900000E-01   1.00800           0
     12893 MEMB     104      PMPE     C210     CG3RC1  -0.900000E-01   12.0110           0
     12894 MEMB     104      PMPE     H10R     HGA1     0.900000E-01   1.00800           0
     12895 MEMB     104      PMPE     C211     CTL2    -0.180000       12.0110           0
     12896 MEMB     104      PMPE     H11R     HAL2     0.900000E-01   1.00800           0
     12897 MEMB     104      PMPE     H11S     HAL2     0.900000E-01   1.00800           0
     12898 MEMB     104      PMPE     C212     CTL2    -0.180000       12.0110           0
     12899 MEMB     104      PMPE     H12R     HAL2     0.900000E-01   1.00800           0
     12900 MEMB     104      PMPE     H12S     HAL2     0.900000E-01   1.00800           0
     12901 MEMB     104      PMPE     C213     CTL2    -0.180000       12.0110           0
     12902 MEMB     104      PMPE     H13R     HAL2     0.900000E-01   1.00800           0
     12903 MEMB     104      PMPE     H13S     HAL2     0.900000E-01   1.00800           0
     12904 MEMB     104      PMPE     C214     CTL2    -0.180000       12.0110           0
     12905 MEMB     104      PMPE     H14R     HAL2     0.900000E-01   1.00800           0
     12906 MEMB     104      PMPE     H14S     HAL2     0.900000E-01   1.00800           0
     12907 MEMB     104      PMPE     C215     CTL2    -0.180000       12.0110           0
     12908 MEMB     104      PMPE     H15R     HAL2     0.900000E-01   1.00800           0
     12909 MEMB     104      PMPE     H15S     HAL2     0.900000E-01   1.00800           0
     12910 MEMB     104      PMPE     C216     CTL3    -0.270000       12.0110           0
     12911 MEMB     104      PMPE     H16R     HAL3     0.900000E-01   1.00800           0
     12912 MEMB     104      PMPE     H16S     HAL3     0.900000E-01   1.00800           0
     12913 MEMB     104      PMPE     H16T     HAL3     0.900000E-01   1.00800           0
     12914 MEMB     104      PMPE     C33      CTL2    -0.180000       12.0110           0
     12915 MEMB     104      PMPE     H3X      HAL2     0.900000E-01   1.00800           0
     12916 MEMB     104      PMPE     H3Y      HAL2     0.900000E-01   1.00800           0
     12917 MEMB     104      PMPE     C34      CTL2    -0.180000       12.0110           0
     12918 MEMB     104      PMPE     H4X      HAL2     0.900000E-01   1.00800           0
     12919 MEMB     104      PMPE     H4Y      HAL2     0.900000E-01   1.00800           0
     12920 MEMB     104      PMPE     C35      CTL2    -0.180000       12.0110           0
     12921 MEMB     104      PMPE     H5X      HAL2     0.900000E-01   1.00800           0
     12922 MEMB     104      PMPE     H5Y      HAL2     0.900000E-01   1.00800           0
     12923 MEMB     104      PMPE     C36      CTL2    -0.180000       12.0110           0
     12924 MEMB     104      PMPE     H6X      HAL2     0.900000E-01   1.00800           0
     12925 MEMB     104      PMPE     H6Y      HAL2     0.900000E-01   1.00800           0
     12926 MEMB     104      PMPE     C37      CTL2    -0.180000       12.0110           0
     12927 MEMB     104      PMPE     H7X      HAL2     0.900000E-01   1.00800           0
     12928 MEMB     104      PMPE     H7Y      HAL2     0.900000E-01   1.00800           0
     12929 MEMB     104      PMPE     C38      CTL2    -0.180000       12.0110           0
     12930 MEMB     104      PMPE     H8X      HAL2     0.900000E-01   1.00800           0
     12931 MEMB     104      PMPE     H8Y      HAL2     0.900000E-01   1.00800           0
     12932 MEMB     104      PMPE     C39      CTL2    -0.180000       12.0110           0
     12933 MEMB     104      PMPE     H9X      HAL2     0.900000E-01   1.00800           0
     12934 MEMB     104      PMPE     H9Y      HAL2     0.900000E-01   1.00800           0
     12935 MEMB     104      PMPE     C310     CTL2    -0.180000       12.0110           0
     12936 MEMB     104      PMPE     H10X     HAL2     0.900000E-01   1.00800           0
     12937 MEMB     104      PMPE     H10Y     HAL2     0.900000E-01   1.00800           0
     12938 MEMB     104      PMPE     C311     CTL2    -0.180000       12.0110           0
     12939 MEMB     104      PMPE     H11X     HAL2     0.900000E-01   1.00800           0
     12940 MEMB     104      PMPE     H11Y     HAL2     0.900000E-01   1.00800           0
     12941 MEMB     104      PMPE     C312     CTL2    -0.180000       12.0110           0
     12942 MEMB     104      PMPE     H12X     HAL2     0.900000E-01   1.00800           0
     12943 MEMB     104      PMPE     H12Y     HAL2     0.900000E-01   1.00800           0
     12944 MEMB     104      PMPE     C313     CTL2    -0.180000       12.0110           0
     12945 MEMB     104      PMPE     H13X     HAL2     0.900000E-01   1.00800           0
     12946 MEMB     104      PMPE     H13Y     HAL2     0.900000E-01   1.00800           0
     12947 MEMB     104      PMPE     C314     CTL2    -0.180000       12.0110           0
     12948 MEMB     104      PMPE     H14X     HAL2     0.900000E-01   1.00800           0
     12949 MEMB     104      PMPE     H14Y     HAL2     0.900000E-01   1.00800           0
     12950 MEMB     104      PMPE     C315     CTL2    -0.180000       12.0110           0
     12951 MEMB     104      PMPE     H15X     HAL2     0.900000E-01   1.00800           0
     12952 MEMB     104      PMPE     H15Y     HAL2     0.900000E-01   1.00800           0
     12953 MEMB     104      PMPE     C316     CTL3    -0.270000       12.0110           0
     12954 MEMB     104      PMPE     H16X     HAL3     0.900000E-01   1.00800           0
     12955 MEMB     104      PMPE     H16Y     HAL3     0.900000E-01   1.00800           0
     12956 MEMB     104      PMPE     H16Z     HAL3     0.900000E-01   1.00800           0
     12957 MEMB     105      PMPE     N        NH3L    -0.300000       14.0070           0
     12958 MEMB     105      PMPE     HN1      HCL      0.330000       1.00800           0
     12959 MEMB     105      PMPE     HN2      HCL      0.330000       1.00800           0
     12960 MEMB     105      PMPE     HN3      HCL      0.330000       1.00800           0
     12961 MEMB     105      PMPE     C12      CTL2     0.130000       12.0110           0
     12962 MEMB     105      PMPE     H12A     HAL2     0.900000E-01   1.00800           0
     12963 MEMB     105      PMPE     H12B     HAL2     0.900000E-01   1.00800           0
     12964 MEMB     105      PMPE     C11      CTL2    -0.800000E-01   12.0110           0
     12965 MEMB     105      PMPE     H11A     HAL2     0.900000E-01   1.00800           0
     12966 MEMB     105      PMPE     H11B     HAL2     0.900000E-01   1.00800           0
     12967 MEMB     105      PMPE     P        PL        1.50000       30.9740           0
     12968 MEMB     105      PMPE     O13      O2L     -0.780000       15.9994           0
     12969 MEMB     105      PMPE     O14      O2L     -0.780000       15.9994           0
     12970 MEMB     105      PMPE     O11      OSLP    -0.570000       15.9994           0
     12971 MEMB     105      PMPE     O12      OSLP    -0.570000       15.9994           0
     12972 MEMB     105      PMPE     C1       CTL2    -0.800000E-01   12.0110           0
     12973 MEMB     105      PMPE     HA       HAL2     0.900000E-01   1.00800           0
     12974 MEMB     105      PMPE     HB       HAL2     0.900000E-01   1.00800           0
     12975 MEMB     105      PMPE     C2       CTL1     0.170000       12.0110           0
     12976 MEMB     105      PMPE     HS       HAL1     0.900000E-01   1.00800           0
     12977 MEMB     105      PMPE     O21      OSL     -0.490000       15.9994           0
     12978 MEMB     105      PMPE     C21      CL       0.900000       12.0110           0
     12979 MEMB     105      PMPE     O22      OBL     -0.630000       15.9994           0
     12980 MEMB     105      PMPE     C22      CTL2    -0.220000       12.0110           0
     12981 MEMB     105      PMPE     H2R      HAL2     0.900000E-01   1.00800           0
     12982 MEMB     105      PMPE     H2S      HAL2     0.900000E-01   1.00800           0
     12983 MEMB     105      PMPE     C3       CTL2     0.800000E-01   12.0110           0
     12984 MEMB     105      PMPE     HX       HAL2     0.900000E-01   1.00800           0
     12985 MEMB     105      PMPE     HY       HAL2     0.900000E-01   1.00800           0
     12986 MEMB     105      PMPE     O31      OSL     -0.490000       15.9994           0
     12987 MEMB     105      PMPE     C31      CL       0.900000       12.0110           0
     12988 MEMB     105      PMPE     O32      OBL     -0.630000       15.9994           0
     12989 MEMB     105      PMPE     C32      CTL2    -0.220000       12.0110           0
     12990 MEMB     105      PMPE     H2X      HAL2     0.900000E-01   1.00800           0
     12991 MEMB     105      PMPE     H2Y      HAL2     0.900000E-01   1.00800           0
     12992 MEMB     105      PMPE     C23      CTL2    -0.180000       12.0110           0
     12993 MEMB     105      PMPE     H3R      HAL2     0.900000E-01   1.00800           0
     12994 MEMB     105      PMPE     H3S      HAL2     0.900000E-01   1.00800           0
     12995 MEMB     105      PMPE     C24      CTL2    -0.180000       12.0110           0
     12996 MEMB     105      PMPE     H4R      HAL2     0.900000E-01   1.00800           0
     12997 MEMB     105      PMPE     H4S      HAL2     0.900000E-01   1.00800           0
     12998 MEMB     105      PMPE     C25      CTL2    -0.180000       12.0110           0
     12999 MEMB     105      PMPE     H5R      HAL2     0.900000E-01   1.00800           0
     13000 MEMB     105      PMPE     H5S      HAL2     0.900000E-01   1.00800           0
     13001 MEMB     105      PMPE     C26      CTL2    -0.180000       12.0110           0
     13002 MEMB     105      PMPE     H6R      HAL2     0.900000E-01   1.00800           0
     13003 MEMB     105      PMPE     H6S      HAL2     0.900000E-01   1.00800           0
     13004 MEMB     105      PMPE     C27      CTL2    -0.180000       12.0110           0
     13005 MEMB     105      PMPE     H7R      HAL2     0.900000E-01   1.00800           0
     13006 MEMB     105      PMPE     H7S      HAL2     0.900000E-01   1.00800           0
     13007 MEMB     105      PMPE     C28      CTL2    -0.180000       12.0110           0
     13008 MEMB     105      PMPE     H8R      HAL2     0.900000E-01   1.00800           0
     13009 MEMB     105      PMPE     H8S      HAL2     0.900000E-01   1.00800           0
     13010 MEMB     105      PMPE     C29      CG3RC1  -0.900000E-01   12.0110           0
     13011 MEMB     105      PMPE     H9R      HGA1     0.900000E-01   1.00800           0
     13012 MEMB     105      PMPE     C217     CG3C31  -0.180000       12.0110           0
     13013 MEMB     105      PMPE     H17R     HGA2     0.900000E-01   1.00800           0
     13014 MEMB     105      PMPE     H17S     HGA2     0.900000E-01   1.00800           0
     13015 MEMB     105      PMPE     C210     CG3RC1  -0.900000E-01   12.0110           0
     13016 MEMB     105      PMPE     H10R     HGA1     0.900000E-01   1.00800           0
     13017 MEMB     105      PMPE     C211     CTL2    -0.180000       12.0110           0
     13018 MEMB     105      PMPE     H11R     HAL2     0.900000E-01   1.00800           0
     13019 MEMB     105      PMPE     H11S     HAL2     0.900000E-01   1.00800           0
     13020 MEMB     105      PMPE     C212     CTL2    -0.180000       12.0110           0
     13021 MEMB     105      PMPE     H12R     HAL2     0.900000E-01   1.00800           0
     13022 MEMB     105      PMPE     H12S     HAL2     0.900000E-01   1.00800           0
     13023 MEMB     105      PMPE     C213     CTL2    -0.180000       12.0110           0
     13024 MEMB     105      PMPE     H13R     HAL2     0.900000E-01   1.00800           0
     13025 MEMB     105      PMPE     H13S     HAL2     0.900000E-01   1.00800           0
     13026 MEMB     105      PMPE     C214     CTL2    -0.180000       12.0110           0
     13027 MEMB     105      PMPE     H14R     HAL2     0.900000E-01   1.00800           0
     13028 MEMB     105      PMPE     H14S     HAL2     0.900000E-01   1.00800           0
     13029 MEMB     105      PMPE     C215     CTL2    -0.180000       12.0110           0
     13030 MEMB     105      PMPE     H15R     HAL2     0.900000E-01   1.00800           0
     13031 MEMB     105      PMPE     H15S     HAL2     0.900000E-01   1.00800           0
     13032 MEMB     105      PMPE     C216     CTL3    -0.270000       12.0110           0
     13033 MEMB     105      PMPE     H16R     HAL3     0.900000E-01   1.00800           0
     13034 MEMB     105      PMPE     H16S     HAL3     0.900000E-01   1.00800           0
     13035 MEMB     105      PMPE     H16T     HAL3     0.900000E-01   1.00800           0
     13036 MEMB     105      PMPE     C33      CTL2    -0.180000       12.0110           0
     13037 MEMB     105      PMPE     H3X      HAL2     0.900000E-01   1.00800           0
     13038 MEMB     105      PMPE     H3Y      HAL2     0.900000E-01   1.00800           0
     13039 MEMB     105      PMPE     C34      CTL2    -0.180000       12.0110           0
     13040 MEMB     105      PMPE     H4X      HAL2     0.900000E-01   1.00800           0
     13041 MEMB     105      PMPE     H4Y      HAL2     0.900000E-01   1.00800           0
     13042 MEMB     105      PMPE     C35      CTL2    -0.180000       12.0110           0
     13043 MEMB     105      PMPE     H5X      HAL2     0.900000E-01   1.00800           0
     13044 MEMB     105      PMPE     H5Y      HAL2     0.900000E-01   1.00800           0
     13045 MEMB     105      PMPE     C36      CTL2    -0.180000       12.0110           0
     13046 MEMB     105      PMPE     H6X      HAL2     0.900000E-01   1.00800           0
     13047 MEMB     105      PMPE     H6Y      HAL2     0.900000E-01   1.00800           0
     13048 MEMB     105      PMPE     C37      CTL2    -0.180000       12.0110           0
     13049 MEMB     105      PMPE     H7X      HAL2     0.900000E-01   1.00800           0
     13050 MEMB     105      PMPE     H7Y      HAL2     0.900000E-01   1.00800           0
     13051 MEMB     105      PMPE     C38      CTL2    -0.180000       12.0110           0
     13052 MEMB     105      PMPE     H8X      HAL2     0.900000E-01   1.00800           0
     13053 MEMB     105      PMPE     H8Y      HAL2     0.900000E-01   1.00800           0
     13054 MEMB     105      PMPE     C39      CTL2    -0.180000       12.0110           0
     13055 MEMB     105      PMPE     H9X      HAL2     0.900000E-01   1.00800           0
     13056 MEMB     105      PMPE     H9Y      HAL2     0.900000E-01   1.00800           0
     13057 MEMB     105      PMPE     C310     CTL2    -0.180000       12.0110           0
     13058 MEMB     105      PMPE     H10X     HAL2     0.900000E-01   1.00800           0
     13059 MEMB     105      PMPE     H10Y     HAL2     0.900000E-01   1.00800           0
     13060 MEMB     105      PMPE     C311     CTL2    -0.180000       12.0110           0
     13061 MEMB     105      PMPE     H11X     HAL2     0.900000E-01   1.00800           0
     13062 MEMB     105      PMPE     H11Y     HAL2     0.900000E-01   1.00800           0
     13063 MEMB     105      PMPE     C312     CTL2    -0.180000       12.0110           0
     13064 MEMB     105      PMPE     H12X     HAL2     0.900000E-01   1.00800           0
     13065 MEMB     105      PMPE     H12Y     HAL2     0.900000E-01   1.00800           0
     13066 MEMB     105      PMPE     C313     CTL2    -0.180000       12.0110           0
     13067 MEMB     105      PMPE     H13X     HAL2     0.900000E-01   1.00800           0
     13068 MEMB     105      PMPE     H13Y     HAL2     0.900000E-01   1.00800           0
     13069 MEMB     105      PMPE     C314     CTL2    -0.180000       12.0110           0
     13070 MEMB     105      PMPE     H14X     HAL2     0.900000E-01   1.00800           0
     13071 MEMB     105      PMPE     H14Y     HAL2     0.900000E-01   1.00800           0
     13072 MEMB     105      PMPE     C315     CTL2    -0.180000       12.0110           0
     13073 MEMB     105      PMPE     H15X     HAL2     0.900000E-01   1.00800           0
     13074 MEMB     105      PMPE     H15Y     HAL2     0.900000E-01   1.00800           0
     13075 MEMB     105      PMPE     C316     CTL3    -0.270000       12.0110           0
     13076 MEMB     105      PMPE     H16X     HAL3     0.900000E-01   1.00800           0
     13077 MEMB     105      PMPE     H16Y     HAL3     0.900000E-01   1.00800           0
     13078 MEMB     105      PMPE     H16Z     HAL3     0.900000E-01   1.00800           0
     13079 MEMB     106      PMPG     C13      CTL2     0.500000E-01   12.0110           0
     13080 MEMB     106      PMPG     H13A     HAL2     0.900000E-01   1.00800           0
     13081 MEMB     106      PMPG     H13B     HAL2     0.900000E-01   1.00800           0
     13082 MEMB     106      PMPG     OC3      OHL     -0.660000       15.9994           0
     13083 MEMB     106      PMPG     HO3      HOL      0.430000       1.00800           0
     13084 MEMB     106      PMPG     C12      CTL1     0.140000       12.0110           0
     13085 MEMB     106      PMPG     H12A     HAL1     0.900000E-01   1.00800           0
     13086 MEMB     106      PMPG     OC2      OHL     -0.660000       15.9994           0
     13087 MEMB     106      PMPG     HO2      HOL      0.430000       1.00800           0
     13088 MEMB     106      PMPG     C11      CTL2    -0.800000E-01   12.0110           0
     13089 MEMB     106      PMPG     H11A     HAL2     0.900000E-01   1.00800           0
     13090 MEMB     106      PMPG     H11B     HAL2     0.900000E-01   1.00800           0
     13091 MEMB     106      PMPG     P        PL        1.50000       30.9740           0
     13092 MEMB     106      PMPG     O13      O2L     -0.780000       15.9994           0
     13093 MEMB     106      PMPG     O14      O2L     -0.780000       15.9994           0
     13094 MEMB     106      PMPG     O11      OSLP    -0.570000       15.9994           0
     13095 MEMB     106      PMPG     O12      OSLP    -0.570000       15.9994           0
     13096 MEMB     106      PMPG     C1       CTL2    -0.800000E-01   12.0110           0
     13097 MEMB     106      PMPG     HA       HAL2     0.900000E-01   1.00800           0
     13098 MEMB     106      PMPG     HB       HAL2     0.900000E-01   1.00800           0
     13099 MEMB     106      PMPG     C2       CTL1     0.170000       12.0110           0
     13100 MEMB     106      PMPG     HS       HAL1     0.900000E-01   1.00800           0
     13101 MEMB     106      PMPG     O21      OSL     -0.490000       15.9994           0
     13102 MEMB     106      PMPG     C21      CL       0.900000       12.0110           0
     13103 MEMB     106      PMPG     O22      OBL     -0.630000       15.9994           0
     13104 MEMB     106      PMPG     C22      CTL2    -0.220000       12.0110           0
     13105 MEMB     106      PMPG     H2R      HAL2     0.900000E-01   1.00800           0
     13106 MEMB     106      PMPG     H2S      HAL2     0.900000E-01   1.00800           0
     13107 MEMB     106      PMPG     C3       CTL2     0.800000E-01   12.0110           0
     13108 MEMB     106      PMPG     HX       HAL2     0.900000E-01   1.00800           0
     13109 MEMB     106      PMPG     HY       HAL2     0.900000E-01   1.00800           0
     13110 MEMB     106      PMPG     O31      OSL     -0.490000       15.9994           0
     13111 MEMB     106      PMPG     C31      CL       0.900000       12.0110           0
     13112 MEMB     106      PMPG     O32      OBL     -0.630000       15.9994           0
     13113 MEMB     106      PMPG     C32      CTL2    -0.220000       12.0110           0
     13114 MEMB     106      PMPG     H2X      HAL2     0.900000E-01   1.00800           0
     13115 MEMB     106      PMPG     H2Y      HAL2     0.900000E-01   1.00800           0
     13116 MEMB     106      PMPG     C23      CTL2    -0.180000       12.0110           0
     13117 MEMB     106      PMPG     H3R      HAL2     0.900000E-01   1.00800           0
     13118 MEMB     106      PMPG     H3S      HAL2     0.900000E-01   1.00800           0
     13119 MEMB     106      PMPG     C24      CTL2    -0.180000       12.0110           0
     13120 MEMB     106      PMPG     H4R      HAL2     0.900000E-01   1.00800           0
     13121 MEMB     106      PMPG     H4S      HAL2     0.900000E-01   1.00800           0
     13122 MEMB     106      PMPG     C25      CTL2    -0.180000       12.0110           0
     13123 MEMB     106      PMPG     H5R      HAL2     0.900000E-01   1.00800           0
     13124 MEMB     106      PMPG     H5S      HAL2     0.900000E-01   1.00800           0
     13125 MEMB     106      PMPG     C26      CTL2    -0.180000       12.0110           0
     13126 MEMB     106      PMPG     H6R      HAL2     0.900000E-01   1.00800           0
     13127 MEMB     106      PMPG     H6S      HAL2     0.900000E-01   1.00800           0
     13128 MEMB     106      PMPG     C27      CTL2    -0.180000       12.0110           0
     13129 MEMB     106      PMPG     H7R      HAL2     0.900000E-01   1.00800           0
     13130 MEMB     106      PMPG     H7S      HAL2     0.900000E-01   1.00800           0
     13131 MEMB     106      PMPG     C28      CTL2    -0.180000       12.0110           0
     13132 MEMB     106      PMPG     H8R      HAL2     0.900000E-01   1.00800           0
     13133 MEMB     106      PMPG     H8S      HAL2     0.900000E-01   1.00800           0
     13134 MEMB     106      PMPG     C29      CG3RC1  -0.900000E-01   12.0110           0
     13135 MEMB     106      PMPG     H9R      HGA1     0.900000E-01   1.00800           0
     13136 MEMB     106      PMPG     C217     CG3C31  -0.180000       12.0110           0
     13137 MEMB     106      PMPG     H17R     HGA2     0.900000E-01   1.00800           0
     13138 MEMB     106      PMPG     H17S     HGA2     0.900000E-01   1.00800           0
     13139 MEMB     106      PMPG     C210     CG3RC1  -0.900000E-01   12.0110           0
     13140 MEMB     106      PMPG     H10R     HGA1     0.900000E-01   1.00800           0
     13141 MEMB     106      PMPG     C211     CTL2    -0.180000       12.0110           0
     13142 MEMB     106      PMPG     H11R     HAL2     0.900000E-01   1.00800           0
     13143 MEMB     106      PMPG     H11S     HAL2     0.900000E-01   1.00800           0
     13144 MEMB     106      PMPG     C212     CTL2    -0.180000       12.0110           0
     13145 MEMB     106      PMPG     H12R     HAL2     0.900000E-01   1.00800           0
     13146 MEMB     106      PMPG     H12S     HAL2     0.900000E-01   1.00800           0
     13147 MEMB     106      PMPG     C213     CTL2    -0.180000       12.0110           0
     13148 MEMB     106      PMPG     H13R     HAL2     0.900000E-01   1.00800           0
     13149 MEMB     106      PMPG     H13S     HAL2     0.900000E-01   1.00800           0
     13150 MEMB     106      PMPG     C214     CTL2    -0.180000       12.0110           0
     13151 MEMB     106      PMPG     H14R     HAL2     0.900000E-01   1.00800           0
     13152 MEMB     106      PMPG     H14S     HAL2     0.900000E-01   1.00800           0
     13153 MEMB     106      PMPG     C215     CTL2    -0.180000       12.0110           0
     13154 MEMB     106      PMPG     H15R     HAL2     0.900000E-01   1.00800           0
     13155 MEMB     106      PMPG     H15S     HAL2     0.900000E-01   1.00800           0
     13156 MEMB     106      PMPG     C216     CTL3    -0.270000       12.0110           0
     13157 MEMB     106      PMPG     H16R     HAL3     0.900000E-01   1.00800           0
     13158 MEMB     106      PMPG     H16S     HAL3     0.900000E-01   1.00800           0
     13159 MEMB     106      PMPG     H16T     HAL3     0.900000E-01   1.00800           0
     13160 MEMB     106      PMPG     C33      CTL2    -0.180000       12.0110           0
     13161 MEMB     106      PMPG     H3X      HAL2     0.900000E-01   1.00800           0
     13162 MEMB     106      PMPG     H3Y      HAL2     0.900000E-01   1.00800           0
     13163 MEMB     106      PMPG     C34      CTL2    -0.180000       12.0110           0
     13164 MEMB     106      PMPG     H4X      HAL2     0.900000E-01   1.00800           0
     13165 MEMB     106      PMPG     H4Y      HAL2     0.900000E-01   1.00800           0
     13166 MEMB     106      PMPG     C35      CTL2    -0.180000       12.0110           0
     13167 MEMB     106      PMPG     H5X      HAL2     0.900000E-01   1.00800           0
     13168 MEMB     106      PMPG     H5Y      HAL2     0.900000E-01   1.00800           0
     13169 MEMB     106      PMPG     C36      CTL2    -0.180000       12.0110           0
     13170 MEMB     106      PMPG     H6X      HAL2     0.900000E-01   1.00800           0
     13171 MEMB     106      PMPG     H6Y      HAL2     0.900000E-01   1.00800           0
     13172 MEMB     106      PMPG     C37      CTL2    -0.180000       12.0110           0
     13173 MEMB     106      PMPG     H7X      HAL2     0.900000E-01   1.00800           0
     13174 MEMB     106      PMPG     H7Y      HAL2     0.900000E-01   1.00800           0
     13175 MEMB     106      PMPG     C38      CTL2    -0.180000       12.0110           0
     13176 MEMB     106      PMPG     H8X      HAL2     0.900000E-01   1.00800           0
     13177 MEMB     106      PMPG     H8Y      HAL2     0.900000E-01   1.00800           0
     13178 MEMB     106      PMPG     C39      CTL2    -0.180000       12.0110           0
     13179 MEMB     106      PMPG     H9X      HAL2     0.900000E-01   1.00800           0
     13180 MEMB     106      PMPG     H9Y      HAL2     0.900000E-01   1.00800           0
     13181 MEMB     106      PMPG     C310     CTL2    -0.180000       12.0110           0
     13182 MEMB     106      PMPG     H10X     HAL2     0.900000E-01   1.00800           0
     13183 MEMB     106      PMPG     H10Y     HAL2     0.900000E-01   1.00800           0
     13184 MEMB     106      PMPG     C311     CTL2    -0.180000       12.0110           0
     13185 MEMB     106      PMPG     H11X     HAL2     0.900000E-01   1.00800           0
     13186 MEMB     106      PMPG     H11Y     HAL2     0.900000E-01   1.00800           0
     13187 MEMB     106      PMPG     C312     CTL2    -0.180000       12.0110           0
     13188 MEMB     106      PMPG     H12X     HAL2     0.900000E-01   1.00800           0
     13189 MEMB     106      PMPG     H12Y     HAL2     0.900000E-01   1.00800           0
     13190 MEMB     106      PMPG     C313     CTL2    -0.180000       12.0110           0
     13191 MEMB     106      PMPG     H13X     HAL2     0.900000E-01   1.00800           0
     13192 MEMB     106      PMPG     H13Y     HAL2     0.900000E-01   1.00800           0
     13193 MEMB     106      PMPG     C314     CTL2    -0.180000       12.0110           0
     13194 MEMB     106      PMPG     H14X     HAL2     0.900000E-01   1.00800           0
     13195 MEMB     106      PMPG     H14Y     HAL2     0.900000E-01   1.00800           0
     13196 MEMB     106      PMPG     C315     CTL2    -0.180000       12.0110           0
     13197 MEMB     106      PMPG     H15X     HAL2     0.900000E-01   1.00800           0
     13198 MEMB     106      PMPG     H15Y     HAL2     0.900000E-01   1.00800           0
     13199 MEMB     106      PMPG     C316     CTL3    -0.270000       12.0110           0
     13200 MEMB     106      PMPG     H16X     HAL3     0.900000E-01   1.00800           0
     13201 MEMB     106      PMPG     H16Y     HAL3     0.900000E-01   1.00800           0
     13202 MEMB     106      PMPG     H16Z     HAL3     0.900000E-01   1.00800           0
     13203 MEMB     107      QMPE     N        NH3L    -0.300000       14.0070           0
     13204 MEMB     107      QMPE     HN1      HCL      0.330000       1.00800           0
     13205 MEMB     107      QMPE     HN2      HCL      0.330000       1.00800           0
     13206 MEMB     107      QMPE     HN3      HCL      0.330000       1.00800           0
     13207 MEMB     107      QMPE     C12      CTL2     0.130000       12.0110           0
     13208 MEMB     107      QMPE     H12A     HAL2     0.900000E-01   1.00800           0
     13209 MEMB     107      QMPE     H12B     HAL2     0.900000E-01   1.00800           0
     13210 MEMB     107      QMPE     C11      CTL2    -0.800000E-01   12.0110           0
     13211 MEMB     107      QMPE     H11A     HAL2     0.900000E-01   1.00800           0
     13212 MEMB     107      QMPE     H11B     HAL2     0.900000E-01   1.00800           0
     13213 MEMB     107      QMPE     P        PL        1.50000       30.9740           0
     13214 MEMB     107      QMPE     O13      O2L     -0.780000       15.9994           0
     13215 MEMB     107      QMPE     O14      O2L     -0.780000       15.9994           0
     13216 MEMB     107      QMPE     O11      OSLP    -0.570000       15.9994           0
     13217 MEMB     107      QMPE     O12      OSLP    -0.570000       15.9994           0
     13218 MEMB     107      QMPE     C1       CTL2    -0.800000E-01   12.0110           0
     13219 MEMB     107      QMPE     HA       HAL2     0.900000E-01   1.00800           0
     13220 MEMB     107      QMPE     HB       HAL2     0.900000E-01   1.00800           0
     13221 MEMB     107      QMPE     C2       CTL1     0.170000       12.0110           0
     13222 MEMB     107      QMPE     HS       HAL1     0.900000E-01   1.00800           0
     13223 MEMB     107      QMPE     O21      OSL     -0.490000       15.9994           0
     13224 MEMB     107      QMPE     C21      CL       0.900000       12.0110           0
     13225 MEMB     107      QMPE     O22      OBL     -0.630000       15.9994           0
     13226 MEMB     107      QMPE     C22      CTL2    -0.220000       12.0110           0
     13227 MEMB     107      QMPE     H2R      HAL2     0.900000E-01   1.00800           0
     13228 MEMB     107      QMPE     H2S      HAL2     0.900000E-01   1.00800           0
     13229 MEMB     107      QMPE     C3       CTL2     0.800000E-01   12.0110           0
     13230 MEMB     107      QMPE     HX       HAL2     0.900000E-01   1.00800           0
     13231 MEMB     107      QMPE     HY       HAL2     0.900000E-01   1.00800           0
     13232 MEMB     107      QMPE     O31      OSL     -0.490000       15.9994           0
     13233 MEMB     107      QMPE     C31      CL       0.900000       12.0110           0
     13234 MEMB     107      QMPE     O32      OBL     -0.630000       15.9994           0
     13235 MEMB     107      QMPE     C32      CTL2    -0.220000       12.0110           0
     13236 MEMB     107      QMPE     H2X      HAL2     0.900000E-01   1.00800           0
     13237 MEMB     107      QMPE     H2Y      HAL2     0.900000E-01   1.00800           0
     13238 MEMB     107      QMPE     C23      CTL2    -0.180000       12.0110           0
     13239 MEMB     107      QMPE     H3R      HAL2     0.900000E-01   1.00800           0
     13240 MEMB     107      QMPE     H3S      HAL2     0.900000E-01   1.00800           0
     13241 MEMB     107      QMPE     C24      CTL2    -0.180000       12.0110           0
     13242 MEMB     107      QMPE     H4R      HAL2     0.900000E-01   1.00800           0
     13243 MEMB     107      QMPE     H4S      HAL2     0.900000E-01   1.00800           0
     13244 MEMB     107      QMPE     C25      CTL2    -0.180000       12.0110           0
     13245 MEMB     107      QMPE     H5R      HAL2     0.900000E-01   1.00800           0
     13246 MEMB     107      QMPE     H5S      HAL2     0.900000E-01   1.00800           0
     13247 MEMB     107      QMPE     C26      CTL2    -0.180000       12.0110           0
     13248 MEMB     107      QMPE     H6R      HAL2     0.900000E-01   1.00800           0
     13249 MEMB     107      QMPE     H6S      HAL2     0.900000E-01   1.00800           0
     13250 MEMB     107      QMPE     C27      CTL2    -0.180000       12.0110           0
     13251 MEMB     107      QMPE     H7R      HAL2     0.900000E-01   1.00800           0
     13252 MEMB     107      QMPE     H7S      HAL2     0.900000E-01   1.00800           0
     13253 MEMB     107      QMPE     C28      CTL2    -0.180000       12.0110           0
     13254 MEMB     107      QMPE     H8R      HAL2     0.900000E-01   1.00800           0
     13255 MEMB     107      QMPE     H8S      HAL2     0.900000E-01   1.00800           0
     13256 MEMB     107      QMPE     C29      CG3RC1  -0.900000E-01   12.0110           0
     13257 MEMB     107      QMPE     H9R      HGA1     0.900000E-01   1.00800           0
     13258 MEMB     107      QMPE     C217     CG3C31  -0.180000       12.0110           0
     13259 MEMB     107      QMPE     H17R     HGA2     0.900000E-01   1.00800           0
     13260 MEMB     107      QMPE     H17S     HGA2     0.900000E-01   1.00800           0
     13261 MEMB     107      QMPE     C210     CG3RC1  -0.900000E-01   12.0110           0
     13262 MEMB     107      QMPE     H10R     HGA1     0.900000E-01   1.00800           0
     13263 MEMB     107      QMPE     C211     CTL2    -0.180000       12.0110           0
     13264 MEMB     107      QMPE     H11R     HAL2     0.900000E-01   1.00800           0
     13265 MEMB     107      QMPE     H11S     HAL2     0.900000E-01   1.00800           0
     13266 MEMB     107      QMPE     C212     CTL2    -0.180000       12.0110           0
     13267 MEMB     107      QMPE     H12R     HAL2     0.900000E-01   1.00800           0
     13268 MEMB     107      QMPE     H12S     HAL2     0.900000E-01   1.00800           0
     13269 MEMB     107      QMPE     C213     CTL2    -0.180000       12.0110           0
     13270 MEMB     107      QMPE     H13R     HAL2     0.900000E-01   1.00800           0
     13271 MEMB     107      QMPE     H13S     HAL2     0.900000E-01   1.00800           0
     13272 MEMB     107      QMPE     C214     CTL2    -0.180000       12.0110           0
     13273 MEMB     107      QMPE     H14R     HAL2     0.900000E-01   1.00800           0
     13274 MEMB     107      QMPE     H14S     HAL2     0.900000E-01   1.00800           0
     13275 MEMB     107      QMPE     C215     CTL2    -0.180000       12.0110           0
     13276 MEMB     107      QMPE     H15R     HAL2     0.900000E-01   1.00800           0
     13277 MEMB     107      QMPE     H15S     HAL2     0.900000E-01   1.00800           0
     13278 MEMB     107      QMPE     C216     CTL3    -0.270000       12.0110           0
     13279 MEMB     107      QMPE     H16R     HAL3     0.900000E-01   1.00800           0
     13280 MEMB     107      QMPE     H16S     HAL3     0.900000E-01   1.00800           0
     13281 MEMB     107      QMPE     H16T     HAL3     0.900000E-01   1.00800           0
     13282 MEMB     107      QMPE     C33      CTL2    -0.180000       12.0110           0
     13283 MEMB     107      QMPE     H3X      HAL2     0.900000E-01   1.00800           0
     13284 MEMB     107      QMPE     H3Y      HAL2     0.900000E-01   1.00800           0
     13285 MEMB     107      QMPE     C34      CTL2    -0.180000       12.0110           0
     13286 MEMB     107      QMPE     H4X      HAL2     0.900000E-01   1.00800           0
     13287 MEMB     107      QMPE     H4Y      HAL2     0.900000E-01   1.00800           0
     13288 MEMB     107      QMPE     C35      CTL2    -0.180000       12.0110           0
     13289 MEMB     107      QMPE     H5X      HAL2     0.900000E-01   1.00800           0
     13290 MEMB     107      QMPE     H5Y      HAL2     0.900000E-01   1.00800           0
     13291 MEMB     107      QMPE     C36      CTL2    -0.180000       12.0110           0
     13292 MEMB     107      QMPE     H6X      HAL2     0.900000E-01   1.00800           0
     13293 MEMB     107      QMPE     H6Y      HAL2     0.900000E-01   1.00800           0
     13294 MEMB     107      QMPE     C37      CTL2    -0.180000       12.0110           0
     13295 MEMB     107      QMPE     H7X      HAL2     0.900000E-01   1.00800           0
     13296 MEMB     107      QMPE     H7Y      HAL2     0.900000E-01   1.00800           0
     13297 MEMB     107      QMPE     C38      CTL2    -0.180000       12.0110           0
     13298 MEMB     107      QMPE     H8X      HAL2     0.900000E-01   1.00800           0
     13299 MEMB     107      QMPE     H8Y      HAL2     0.900000E-01   1.00800           0
     13300 MEMB     107      QMPE     C39      CTL2    -0.180000       12.0110           0
     13301 MEMB     107      QMPE     H9X      HAL2     0.900000E-01   1.00800           0
     13302 MEMB     107      QMPE     H9Y      HAL2     0.900000E-01   1.00800           0
     13303 MEMB     107      QMPE     C310     CTL2    -0.180000       12.0110           0
     13304 MEMB     107      QMPE     H10X     HAL2     0.900000E-01   1.00800           0
     13305 MEMB     107      QMPE     H10Y     HAL2     0.900000E-01   1.00800           0
     13306 MEMB     107      QMPE     C311     CTL2    -0.180000       12.0110           0
     13307 MEMB     107      QMPE     H11X     HAL2     0.900000E-01   1.00800           0
     13308 MEMB     107      QMPE     H11Y     HAL2     0.900000E-01   1.00800           0
     13309 MEMB     107      QMPE     C312     CTL2    -0.180000       12.0110           0
     13310 MEMB     107      QMPE     H12X     HAL2     0.900000E-01   1.00800           0
     13311 MEMB     107      QMPE     H12Y     HAL2     0.900000E-01   1.00800           0
     13312 MEMB     107      QMPE     C313     CTL2    -0.180000       12.0110           0
     13313 MEMB     107      QMPE     H13X     HAL2     0.900000E-01   1.00800           0
     13314 MEMB     107      QMPE     H13Y     HAL2     0.900000E-01   1.00800           0
     13315 MEMB     107      QMPE     C314     CTL2    -0.180000       12.0110           0
     13316 MEMB     107      QMPE     H14X     HAL2     0.900000E-01   1.00800           0
     13317 MEMB     107      QMPE     H14Y     HAL2     0.900000E-01   1.00800           0
     13318 MEMB     107      QMPE     C315     CTL3    -0.270000       12.0110           0
     13319 MEMB     107      QMPE     H15X     HAL3     0.900000E-01   1.00800           0
     13320 MEMB     107      QMPE     H15Y     HAL3     0.900000E-01   1.00800           0
     13321 MEMB     107      QMPE     H15Z     HAL3     0.900000E-01   1.00800           0
     13322 MEMB     108      PMPE     N        NH3L    -0.300000       14.0070           0
     13323 MEMB     108      PMPE     HN1      HCL      0.330000       1.00800           0
     13324 MEMB     108      PMPE     HN2      HCL      0.330000       1.00800           0
     13325 MEMB     108      PMPE     HN3      HCL      0.330000       1.00800           0
     13326 MEMB     108      PMPE     C12      CTL2     0.130000       12.0110           0
     13327 MEMB     108      PMPE     H12A     HAL2     0.900000E-01   1.00800           0
     13328 MEMB     108      PMPE     H12B     HAL2     0.900000E-01   1.00800           0
     13329 MEMB     108      PMPE     C11      CTL2    -0.800000E-01   12.0110           0
     13330 MEMB     108      PMPE     H11A     HAL2     0.900000E-01   1.00800           0
     13331 MEMB     108      PMPE     H11B     HAL2     0.900000E-01   1.00800           0
     13332 MEMB     108      PMPE     P        PL        1.50000       30.9740           0
     13333 MEMB     108      PMPE     O13      O2L     -0.780000       15.9994           0
     13334 MEMB     108      PMPE     O14      O2L     -0.780000       15.9994           0
     13335 MEMB     108      PMPE     O11      OSLP    -0.570000       15.9994           0
     13336 MEMB     108      PMPE     O12      OSLP    -0.570000       15.9994           0
     13337 MEMB     108      PMPE     C1       CTL2    -0.800000E-01   12.0110           0
     13338 MEMB     108      PMPE     HA       HAL2     0.900000E-01   1.00800           0
     13339 MEMB     108      PMPE     HB       HAL2     0.900000E-01   1.00800           0
     13340 MEMB     108      PMPE     C2       CTL1     0.170000       12.0110           0
     13341 MEMB     108      PMPE     HS       HAL1     0.900000E-01   1.00800           0
     13342 MEMB     108      PMPE     O21      OSL     -0.490000       15.9994           0
     13343 MEMB     108      PMPE     C21      CL       0.900000       12.0110           0
     13344 MEMB     108      PMPE     O22      OBL     -0.630000       15.9994           0
     13345 MEMB     108      PMPE     C22      CTL2    -0.220000       12.0110           0
     13346 MEMB     108      PMPE     H2R      HAL2     0.900000E-01   1.00800           0
     13347 MEMB     108      PMPE     H2S      HAL2     0.900000E-01   1.00800           0
     13348 MEMB     108      PMPE     C3       CTL2     0.800000E-01   12.0110           0
     13349 MEMB     108      PMPE     HX       HAL2     0.900000E-01   1.00800           0
     13350 MEMB     108      PMPE     HY       HAL2     0.900000E-01   1.00800           0
     13351 MEMB     108      PMPE     O31      OSL     -0.490000       15.9994           0
     13352 MEMB     108      PMPE     C31      CL       0.900000       12.0110           0
     13353 MEMB     108      PMPE     O32      OBL     -0.630000       15.9994           0
     13354 MEMB     108      PMPE     C32      CTL2    -0.220000       12.0110           0
     13355 MEMB     108      PMPE     H2X      HAL2     0.900000E-01   1.00800           0
     13356 MEMB     108      PMPE     H2Y      HAL2     0.900000E-01   1.00800           0
     13357 MEMB     108      PMPE     C23      CTL2    -0.180000       12.0110           0
     13358 MEMB     108      PMPE     H3R      HAL2     0.900000E-01   1.00800           0
     13359 MEMB     108      PMPE     H3S      HAL2     0.900000E-01   1.00800           0
     13360 MEMB     108      PMPE     C24      CTL2    -0.180000       12.0110           0
     13361 MEMB     108      PMPE     H4R      HAL2     0.900000E-01   1.00800           0
     13362 MEMB     108      PMPE     H4S      HAL2     0.900000E-01   1.00800           0
     13363 MEMB     108      PMPE     C25      CTL2    -0.180000       12.0110           0
     13364 MEMB     108      PMPE     H5R      HAL2     0.900000E-01   1.00800           0
     13365 MEMB     108      PMPE     H5S      HAL2     0.900000E-01   1.00800           0
     13366 MEMB     108      PMPE     C26      CTL2    -0.180000       12.0110           0
     13367 MEMB     108      PMPE     H6R      HAL2     0.900000E-01   1.00800           0
     13368 MEMB     108      PMPE     H6S      HAL2     0.900000E-01   1.00800           0
     13369 MEMB     108      PMPE     C27      CTL2    -0.180000       12.0110           0
     13370 MEMB     108      PMPE     H7R      HAL2     0.900000E-01   1.00800           0
     13371 MEMB     108      PMPE     H7S      HAL2     0.900000E-01   1.00800           0
     13372 MEMB     108      PMPE     C28      CTL2    -0.180000       12.0110           0
     13373 MEMB     108      PMPE     H8R      HAL2     0.900000E-01   1.00800           0
     13374 MEMB     108      PMPE     H8S      HAL2     0.900000E-01   1.00800           0
     13375 MEMB     108      PMPE     C29      CG3RC1  -0.900000E-01   12.0110           0
     13376 MEMB     108      PMPE     H9R      HGA1     0.900000E-01   1.00800           0
     13377 MEMB     108      PMPE     C217     CG3C31  -0.180000       12.0110           0
     13378 MEMB     108      PMPE     H17R     HGA2     0.900000E-01   1.00800           0
     13379 MEMB     108      PMPE     H17S     HGA2     0.900000E-01   1.00800           0
     13380 MEMB     108      PMPE     C210     CG3RC1  -0.900000E-01   12.0110           0
     13381 MEMB     108      PMPE     H10R     HGA1     0.900000E-01   1.00800           0
     13382 MEMB     108      PMPE     C211     CTL2    -0.180000       12.0110           0
     13383 MEMB     108      PMPE     H11R     HAL2     0.900000E-01   1.00800           0
     13384 MEMB     108      PMPE     H11S     HAL2     0.900000E-01   1.00800           0
     13385 MEMB     108      PMPE     C212     CTL2    -0.180000       12.0110           0
     13386 MEMB     108      PMPE     H12R     HAL2     0.900000E-01   1.00800           0
     13387 MEMB     108      PMPE     H12S     HAL2     0.900000E-01   1.00800           0
     13388 MEMB     108      PMPE     C213     CTL2    -0.180000       12.0110           0
     13389 MEMB     108      PMPE     H13R     HAL2     0.900000E-01   1.00800           0
     13390 MEMB     108      PMPE     H13S     HAL2     0.900000E-01   1.00800           0
     13391 MEMB     108      PMPE     C214     CTL2    -0.180000       12.0110           0
     13392 MEMB     108      PMPE     H14R     HAL2     0.900000E-01   1.00800           0
     13393 MEMB     108      PMPE     H14S     HAL2     0.900000E-01   1.00800           0
     13394 MEMB     108      PMPE     C215     CTL2    -0.180000       12.0110           0
     13395 MEMB     108      PMPE     H15R     HAL2     0.900000E-01   1.00800           0
     13396 MEMB     108      PMPE     H15S     HAL2     0.900000E-01   1.00800           0
     13397 MEMB     108      PMPE     C216     CTL3    -0.270000       12.0110           0
     13398 MEMB     108      PMPE     H16R     HAL3     0.900000E-01   1.00800           0
     13399 MEMB     108      PMPE     H16S     HAL3     0.900000E-01   1.00800           0
     13400 MEMB     108      PMPE     H16T     HAL3     0.900000E-01   1.00800           0
     13401 MEMB     108      PMPE     C33      CTL2    -0.180000       12.0110           0
     13402 MEMB     108      PMPE     H3X      HAL2     0.900000E-01   1.00800           0
     13403 MEMB     108      PMPE     H3Y      HAL2     0.900000E-01   1.00800           0
     13404 MEMB     108      PMPE     C34      CTL2    -0.180000       12.0110           0
     13405 MEMB     108      PMPE     H4X      HAL2     0.900000E-01   1.00800           0
     13406 MEMB     108      PMPE     H4Y      HAL2     0.900000E-01   1.00800           0
     13407 MEMB     108      PMPE     C35      CTL2    -0.180000       12.0110           0
     13408 MEMB     108      PMPE     H5X      HAL2     0.900000E-01   1.00800           0
     13409 MEMB     108      PMPE     H5Y      HAL2     0.900000E-01   1.00800           0
     13410 MEMB     108      PMPE     C36      CTL2    -0.180000       12.0110           0
     13411 MEMB     108      PMPE     H6X      HAL2     0.900000E-01   1.00800           0
     13412 MEMB     108      PMPE     H6Y      HAL2     0.900000E-01   1.00800           0
     13413 MEMB     108      PMPE     C37      CTL2    -0.180000       12.0110           0
     13414 MEMB     108      PMPE     H7X      HAL2     0.900000E-01   1.00800           0
     13415 MEMB     108      PMPE     H7Y      HAL2     0.900000E-01   1.00800           0
     13416 MEMB     108      PMPE     C38      CTL2    -0.180000       12.0110           0
     13417 MEMB     108      PMPE     H8X      HAL2     0.900000E-01   1.00800           0
     13418 MEMB     108      PMPE     H8Y      HAL2     0.900000E-01   1.00800           0
     13419 MEMB     108      PMPE     C39      CTL2    -0.180000       12.0110           0
     13420 MEMB     108      PMPE     H9X      HAL2     0.900000E-01   1.00800           0
     13421 MEMB     108      PMPE     H9Y      HAL2     0.900000E-01   1.00800           0
     13422 MEMB     108      PMPE     C310     CTL2    -0.180000       12.0110           0
     13423 MEMB     108      PMPE     H10X     HAL2     0.900000E-01   1.00800           0
     13424 MEMB     108      PMPE     H10Y     HAL2     0.900000E-01   1.00800           0
     13425 MEMB     108      PMPE     C311     CTL2    -0.180000       12.0110           0
     13426 MEMB     108      PMPE     H11X     HAL2     0.900000E-01   1.00800           0
     13427 MEMB     108      PMPE     H11Y     HAL2     0.900000E-01   1.00800           0
     13428 MEMB     108      PMPE     C312     CTL2    -0.180000       12.0110           0
     13429 MEMB     108      PMPE     H12X     HAL2     0.900000E-01   1.00800           0
     13430 MEMB     108      PMPE     H12Y     HAL2     0.900000E-01   1.00800           0
     13431 MEMB     108      PMPE     C313     CTL2    -0.180000       12.0110           0
     13432 MEMB     108      PMPE     H13X     HAL2     0.900000E-01   1.00800           0
     13433 MEMB     108      PMPE     H13Y     HAL2     0.900000E-01   1.00800           0
     13434 MEMB     108      PMPE     C314     CTL2    -0.180000       12.0110           0
     13435 MEMB     108      PMPE     H14X     HAL2     0.900000E-01   1.00800           0
     13436 MEMB     108      PMPE     H14Y     HAL2     0.900000E-01   1.00800           0
     13437 MEMB     108      PMPE     C315     CTL2    -0.180000       12.0110           0
     13438 MEMB     108      PMPE     H15X     HAL2     0.900000E-01   1.00800           0
     13439 MEMB     108      PMPE     H15Y     HAL2     0.900000E-01   1.00800           0
     13440 MEMB     108      PMPE     C316     CTL3    -0.270000       12.0110           0
     13441 MEMB     108      PMPE     H16X     HAL3     0.900000E-01   1.00800           0
     13442 MEMB     108      PMPE     H16Y     HAL3     0.900000E-01   1.00800           0
     13443 MEMB     108      PMPE     H16Z     HAL3     0.900000E-01   1.00800           0
     13444 MEMB     109      PMPE     N        NH3L    -0.300000       14.0070           0
     13445 MEMB     109      PMPE     HN1      HCL      0.330000       1.00800           0
     13446 MEMB     109      PMPE     HN2      HCL      0.330000       1.00800           0
     13447 MEMB     109      PMPE     HN3      HCL      0.330000       1.00800           0
     13448 MEMB     109      PMPE     C12      CTL2     0.130000       12.0110           0
     13449 MEMB     109      PMPE     H12A     HAL2     0.900000E-01   1.00800           0
     13450 MEMB     109      PMPE     H12B     HAL2     0.900000E-01   1.00800           0
     13451 MEMB     109      PMPE     C11      CTL2    -0.800000E-01   12.0110           0
     13452 MEMB     109      PMPE     H11A     HAL2     0.900000E-01   1.00800           0
     13453 MEMB     109      PMPE     H11B     HAL2     0.900000E-01   1.00800           0
     13454 MEMB     109      PMPE     P        PL        1.50000       30.9740           0
     13455 MEMB     109      PMPE     O13      O2L     -0.780000       15.9994           0
     13456 MEMB     109      PMPE     O14      O2L     -0.780000       15.9994           0
     13457 MEMB     109      PMPE     O11      OSLP    -0.570000       15.9994           0
     13458 MEMB     109      PMPE     O12      OSLP    -0.570000       15.9994           0
     13459 MEMB     109      PMPE     C1       CTL2    -0.800000E-01   12.0110           0
     13460 MEMB     109      PMPE     HA       HAL2     0.900000E-01   1.00800           0
     13461 MEMB     109      PMPE     HB       HAL2     0.900000E-01   1.00800           0
     13462 MEMB     109      PMPE     C2       CTL1     0.170000       12.0110           0
     13463 MEMB     109      PMPE     HS       HAL1     0.900000E-01   1.00800           0
     13464 MEMB     109      PMPE     O21      OSL     -0.490000       15.9994           0
     13465 MEMB     109      PMPE     C21      CL       0.900000       12.0110           0
     13466 MEMB     109      PMPE     O22      OBL     -0.630000       15.9994           0
     13467 MEMB     109      PMPE     C22      CTL2    -0.220000       12.0110           0
     13468 MEMB     109      PMPE     H2R      HAL2     0.900000E-01   1.00800           0
     13469 MEMB     109      PMPE     H2S      HAL2     0.900000E-01   1.00800           0
     13470 MEMB     109      PMPE     C3       CTL2     0.800000E-01   12.0110           0
     13471 MEMB     109      PMPE     HX       HAL2     0.900000E-01   1.00800           0
     13472 MEMB     109      PMPE     HY       HAL2     0.900000E-01   1.00800           0
     13473 MEMB     109      PMPE     O31      OSL     -0.490000       15.9994           0
     13474 MEMB     109      PMPE     C31      CL       0.900000       12.0110           0
     13475 MEMB     109      PMPE     O32      OBL     -0.630000       15.9994           0
     13476 MEMB     109      PMPE     C32      CTL2    -0.220000       12.0110           0
     13477 MEMB     109      PMPE     H2X      HAL2     0.900000E-01   1.00800           0
     13478 MEMB     109      PMPE     H2Y      HAL2     0.900000E-01   1.00800           0
     13479 MEMB     109      PMPE     C23      CTL2    -0.180000       12.0110           0
     13480 MEMB     109      PMPE     H3R      HAL2     0.900000E-01   1.00800           0
     13481 MEMB     109      PMPE     H3S      HAL2     0.900000E-01   1.00800           0
     13482 MEMB     109      PMPE     C24      CTL2    -0.180000       12.0110           0
     13483 MEMB     109      PMPE     H4R      HAL2     0.900000E-01   1.00800           0
     13484 MEMB     109      PMPE     H4S      HAL2     0.900000E-01   1.00800           0
     13485 MEMB     109      PMPE     C25      CTL2    -0.180000       12.0110           0
     13486 MEMB     109      PMPE     H5R      HAL2     0.900000E-01   1.00800           0
     13487 MEMB     109      PMPE     H5S      HAL2     0.900000E-01   1.00800           0
     13488 MEMB     109      PMPE     C26      CTL2    -0.180000       12.0110           0
     13489 MEMB     109      PMPE     H6R      HAL2     0.900000E-01   1.00800           0
     13490 MEMB     109      PMPE     H6S      HAL2     0.900000E-01   1.00800           0
     13491 MEMB     109      PMPE     C27      CTL2    -0.180000       12.0110           0
     13492 MEMB     109      PMPE     H7R      HAL2     0.900000E-01   1.00800           0
     13493 MEMB     109      PMPE     H7S      HAL2     0.900000E-01   1.00800           0
     13494 MEMB     109      PMPE     C28      CTL2    -0.180000       12.0110           0
     13495 MEMB     109      PMPE     H8R      HAL2     0.900000E-01   1.00800           0
     13496 MEMB     109      PMPE     H8S      HAL2     0.900000E-01   1.00800           0
     13497 MEMB     109      PMPE     C29      CG3RC1  -0.900000E-01   12.0110           0
     13498 MEMB     109      PMPE     H9R      HGA1     0.900000E-01   1.00800           0
     13499 MEMB     109      PMPE     C217     CG3C31  -0.180000       12.0110           0
     13500 MEMB     109      PMPE     H17R     HGA2     0.900000E-01   1.00800           0
     13501 MEMB     109      PMPE     H17S     HGA2     0.900000E-01   1.00800           0
     13502 MEMB     109      PMPE     C210     CG3RC1  -0.900000E-01   12.0110           0
     13503 MEMB     109      PMPE     H10R     HGA1     0.900000E-01   1.00800           0
     13504 MEMB     109      PMPE     C211     CTL2    -0.180000       12.0110           0
     13505 MEMB     109      PMPE     H11R     HAL2     0.900000E-01   1.00800           0
     13506 MEMB     109      PMPE     H11S     HAL2     0.900000E-01   1.00800           0
     13507 MEMB     109      PMPE     C212     CTL2    -0.180000       12.0110           0
     13508 MEMB     109      PMPE     H12R     HAL2     0.900000E-01   1.00800           0
     13509 MEMB     109      PMPE     H12S     HAL2     0.900000E-01   1.00800           0
     13510 MEMB     109      PMPE     C213     CTL2    -0.180000       12.0110           0
     13511 MEMB     109      PMPE     H13R     HAL2     0.900000E-01   1.00800           0
     13512 MEMB     109      PMPE     H13S     HAL2     0.900000E-01   1.00800           0
     13513 MEMB     109      PMPE     C214     CTL2    -0.180000       12.0110           0
     13514 MEMB     109      PMPE     H14R     HAL2     0.900000E-01   1.00800           0
     13515 MEMB     109      PMPE     H14S     HAL2     0.900000E-01   1.00800           0
     13516 MEMB     109      PMPE     C215     CTL2    -0.180000       12.0110           0
     13517 MEMB     109      PMPE     H15R     HAL2     0.900000E-01   1.00800           0
     13518 MEMB     109      PMPE     H15S     HAL2     0.900000E-01   1.00800           0
     13519 MEMB     109      PMPE     C216     CTL3    -0.270000       12.0110           0
     13520 MEMB     109      PMPE     H16R     HAL3     0.900000E-01   1.00800           0
     13521 MEMB     109      PMPE     H16S     HAL3     0.900000E-01   1.00800           0
     13522 MEMB     109      PMPE     H16T     HAL3     0.900000E-01   1.00800           0
     13523 MEMB     109      PMPE     C33      CTL2    -0.180000       12.0110           0
     13524 MEMB     109      PMPE     H3X      HAL2     0.900000E-01   1.00800           0
     13525 MEMB     109      PMPE     H3Y      HAL2     0.900000E-01   1.00800           0
     13526 MEMB     109      PMPE     C34      CTL2    -0.180000       12.0110           0
     13527 MEMB     109      PMPE     H4X      HAL2     0.900000E-01   1.00800           0
     13528 MEMB     109      PMPE     H4Y      HAL2     0.900000E-01   1.00800           0
     13529 MEMB     109      PMPE     C35      CTL2    -0.180000       12.0110           0
     13530 MEMB     109      PMPE     H5X      HAL2     0.900000E-01   1.00800           0
     13531 MEMB     109      PMPE     H5Y      HAL2     0.900000E-01   1.00800           0
     13532 MEMB     109      PMPE     C36      CTL2    -0.180000       12.0110           0
     13533 MEMB     109      PMPE     H6X      HAL2     0.900000E-01   1.00800           0
     13534 MEMB     109      PMPE     H6Y      HAL2     0.900000E-01   1.00800           0
     13535 MEMB     109      PMPE     C37      CTL2    -0.180000       12.0110           0
     13536 MEMB     109      PMPE     H7X      HAL2     0.900000E-01   1.00800           0
     13537 MEMB     109      PMPE     H7Y      HAL2     0.900000E-01   1.00800           0
     13538 MEMB     109      PMPE     C38      CTL2    -0.180000       12.0110           0
     13539 MEMB     109      PMPE     H8X      HAL2     0.900000E-01   1.00800           0
     13540 MEMB     109      PMPE     H8Y      HAL2     0.900000E-01   1.00800           0
     13541 MEMB     109      PMPE     C39      CTL2    -0.180000       12.0110           0
     13542 MEMB     109      PMPE     H9X      HAL2     0.900000E-01   1.00800           0
     13543 MEMB     109      PMPE     H9Y      HAL2     0.900000E-01   1.00800           0
     13544 MEMB     109      PMPE     C310     CTL2    -0.180000       12.0110           0
     13545 MEMB     109      PMPE     H10X     HAL2     0.900000E-01   1.00800           0
     13546 MEMB     109      PMPE     H10Y     HAL2     0.900000E-01   1.00800           0
     13547 MEMB     109      PMPE     C311     CTL2    -0.180000       12.0110           0
     13548 MEMB     109      PMPE     H11X     HAL2     0.900000E-01   1.00800           0
     13549 MEMB     109      PMPE     H11Y     HAL2     0.900000E-01   1.00800           0
     13550 MEMB     109      PMPE     C312     CTL2    -0.180000       12.0110           0
     13551 MEMB     109      PMPE     H12X     HAL2     0.900000E-01   1.00800           0
     13552 MEMB     109      PMPE     H12Y     HAL2     0.900000E-01   1.00800           0
     13553 MEMB     109      PMPE     C313     CTL2    -0.180000       12.0110           0
     13554 MEMB     109      PMPE     H13X     HAL2     0.900000E-01   1.00800           0
     13555 MEMB     109      PMPE     H13Y     HAL2     0.900000E-01   1.00800           0
     13556 MEMB     109      PMPE     C314     CTL2    -0.180000       12.0110           0
     13557 MEMB     109      PMPE     H14X     HAL2     0.900000E-01   1.00800           0
     13558 MEMB     109      PMPE     H14Y     HAL2     0.900000E-01   1.00800           0
     13559 MEMB     109      PMPE     C315     CTL2    -0.180000       12.0110           0
     13560 MEMB     109      PMPE     H15X     HAL2     0.900000E-01   1.00800           0
     13561 MEMB     109      PMPE     H15Y     HAL2     0.900000E-01   1.00800           0
     13562 MEMB     109      PMPE     C316     CTL3    -0.270000       12.0110           0
     13563 MEMB     109      PMPE     H16X     HAL3     0.900000E-01   1.00800           0
     13564 MEMB     109      PMPE     H16Y     HAL3     0.900000E-01   1.00800           0
     13565 MEMB     109      PMPE     H16Z     HAL3     0.900000E-01   1.00800           0
     13566 MEMB     110      PMPE     N        NH3L    -0.300000       14.0070           0
     13567 MEMB     110      PMPE     HN1      HCL      0.330000       1.00800           0
     13568 MEMB     110      PMPE     HN2      HCL      0.330000       1.00800           0
     13569 MEMB     110      PMPE     HN3      HCL      0.330000       1.00800           0
     13570 MEMB     110      PMPE     C12      CTL2     0.130000       12.0110           0
     13571 MEMB     110      PMPE     H12A     HAL2     0.900000E-01   1.00800           0
     13572 MEMB     110      PMPE     H12B     HAL2     0.900000E-01   1.00800           0
     13573 MEMB     110      PMPE     C11      CTL2    -0.800000E-01   12.0110           0
     13574 MEMB     110      PMPE     H11A     HAL2     0.900000E-01   1.00800           0
     13575 MEMB     110      PMPE     H11B     HAL2     0.900000E-01   1.00800           0
     13576 MEMB     110      PMPE     P        PL        1.50000       30.9740           0
     13577 MEMB     110      PMPE     O13      O2L     -0.780000       15.9994           0
     13578 MEMB     110      PMPE     O14      O2L     -0.780000       15.9994           0
     13579 MEMB     110      PMPE     O11      OSLP    -0.570000       15.9994           0
     13580 MEMB     110      PMPE     O12      OSLP    -0.570000       15.9994           0
     13581 MEMB     110      PMPE     C1       CTL2    -0.800000E-01   12.0110           0
     13582 MEMB     110      PMPE     HA       HAL2     0.900000E-01   1.00800           0
     13583 MEMB     110      PMPE     HB       HAL2     0.900000E-01   1.00800           0
     13584 MEMB     110      PMPE     C2       CTL1     0.170000       12.0110           0
     13585 MEMB     110      PMPE     HS       HAL1     0.900000E-01   1.00800           0
     13586 MEMB     110      PMPE     O21      OSL     -0.490000       15.9994           0
     13587 MEMB     110      PMPE     C21      CL       0.900000       12.0110           0
     13588 MEMB     110      PMPE     O22      OBL     -0.630000       15.9994           0
     13589 MEMB     110      PMPE     C22      CTL2    -0.220000       12.0110           0
     13590 MEMB     110      PMPE     H2R      HAL2     0.900000E-01   1.00800           0
     13591 MEMB     110      PMPE     H2S      HAL2     0.900000E-01   1.00800           0
     13592 MEMB     110      PMPE     C3       CTL2     0.800000E-01   12.0110           0
     13593 MEMB     110      PMPE     HX       HAL2     0.900000E-01   1.00800           0
     13594 MEMB     110      PMPE     HY       HAL2     0.900000E-01   1.00800           0
     13595 MEMB     110      PMPE     O31      OSL     -0.490000       15.9994           0
     13596 MEMB     110      PMPE     C31      CL       0.900000       12.0110           0
     13597 MEMB     110      PMPE     O32      OBL     -0.630000       15.9994           0
     13598 MEMB     110      PMPE     C32      CTL2    -0.220000       12.0110           0
     13599 MEMB     110      PMPE     H2X      HAL2     0.900000E-01   1.00800           0
     13600 MEMB     110      PMPE     H2Y      HAL2     0.900000E-01   1.00800           0
     13601 MEMB     110      PMPE     C23      CTL2    -0.180000       12.0110           0
     13602 MEMB     110      PMPE     H3R      HAL2     0.900000E-01   1.00800           0
     13603 MEMB     110      PMPE     H3S      HAL2     0.900000E-01   1.00800           0
     13604 MEMB     110      PMPE     C24      CTL2    -0.180000       12.0110           0
     13605 MEMB     110      PMPE     H4R      HAL2     0.900000E-01   1.00800           0
     13606 MEMB     110      PMPE     H4S      HAL2     0.900000E-01   1.00800           0
     13607 MEMB     110      PMPE     C25      CTL2    -0.180000       12.0110           0
     13608 MEMB     110      PMPE     H5R      HAL2     0.900000E-01   1.00800           0
     13609 MEMB     110      PMPE     H5S      HAL2     0.900000E-01   1.00800           0
     13610 MEMB     110      PMPE     C26      CTL2    -0.180000       12.0110           0
     13611 MEMB     110      PMPE     H6R      HAL2     0.900000E-01   1.00800           0
     13612 MEMB     110      PMPE     H6S      HAL2     0.900000E-01   1.00800           0
     13613 MEMB     110      PMPE     C27      CTL2    -0.180000       12.0110           0
     13614 MEMB     110      PMPE     H7R      HAL2     0.900000E-01   1.00800           0
     13615 MEMB     110      PMPE     H7S      HAL2     0.900000E-01   1.00800           0
     13616 MEMB     110      PMPE     C28      CTL2    -0.180000       12.0110           0
     13617 MEMB     110      PMPE     H8R      HAL2     0.900000E-01   1.00800           0
     13618 MEMB     110      PMPE     H8S      HAL2     0.900000E-01   1.00800           0
     13619 MEMB     110      PMPE     C29      CG3RC1  -0.900000E-01   12.0110           0
     13620 MEMB     110      PMPE     H9R      HGA1     0.900000E-01   1.00800           0
     13621 MEMB     110      PMPE     C217     CG3C31  -0.180000       12.0110           0
     13622 MEMB     110      PMPE     H17R     HGA2     0.900000E-01   1.00800           0
     13623 MEMB     110      PMPE     H17S     HGA2     0.900000E-01   1.00800           0
     13624 MEMB     110      PMPE     C210     CG3RC1  -0.900000E-01   12.0110           0
     13625 MEMB     110      PMPE     H10R     HGA1     0.900000E-01   1.00800           0
     13626 MEMB     110      PMPE     C211     CTL2    -0.180000       12.0110           0
     13627 MEMB     110      PMPE     H11R     HAL2     0.900000E-01   1.00800           0
     13628 MEMB     110      PMPE     H11S     HAL2     0.900000E-01   1.00800           0
     13629 MEMB     110      PMPE     C212     CTL2    -0.180000       12.0110           0
     13630 MEMB     110      PMPE     H12R     HAL2     0.900000E-01   1.00800           0
     13631 MEMB     110      PMPE     H12S     HAL2     0.900000E-01   1.00800           0
     13632 MEMB     110      PMPE     C213     CTL2    -0.180000       12.0110           0
     13633 MEMB     110      PMPE     H13R     HAL2     0.900000E-01   1.00800           0
     13634 MEMB     110      PMPE     H13S     HAL2     0.900000E-01   1.00800           0
     13635 MEMB     110      PMPE     C214     CTL2    -0.180000       12.0110           0
     13636 MEMB     110      PMPE     H14R     HAL2     0.900000E-01   1.00800           0
     13637 MEMB     110      PMPE     H14S     HAL2     0.900000E-01   1.00800           0
     13638 MEMB     110      PMPE     C215     CTL2    -0.180000       12.0110           0
     13639 MEMB     110      PMPE     H15R     HAL2     0.900000E-01   1.00800           0
     13640 MEMB     110      PMPE     H15S     HAL2     0.900000E-01   1.00800           0
     13641 MEMB     110      PMPE     C216     CTL3    -0.270000       12.0110           0
     13642 MEMB     110      PMPE     H16R     HAL3     0.900000E-01   1.00800           0
     13643 MEMB     110      PMPE     H16S     HAL3     0.900000E-01   1.00800           0
     13644 MEMB     110      PMPE     H16T     HAL3     0.900000E-01   1.00800           0
     13645 MEMB     110      PMPE     C33      CTL2    -0.180000       12.0110           0
     13646 MEMB     110      PMPE     H3X      HAL2     0.900000E-01   1.00800           0
     13647 MEMB     110      PMPE     H3Y      HAL2     0.900000E-01   1.00800           0
     13648 MEMB     110      PMPE     C34      CTL2    -0.180000       12.0110           0
     13649 MEMB     110      PMPE     H4X      HAL2     0.900000E-01   1.00800           0
     13650 MEMB     110      PMPE     H4Y      HAL2     0.900000E-01   1.00800           0
     13651 MEMB     110      PMPE     C35      CTL2    -0.180000       12.0110           0
     13652 MEMB     110      PMPE     H5X      HAL2     0.900000E-01   1.00800           0
     13653 MEMB     110      PMPE     H5Y      HAL2     0.900000E-01   1.00800           0
     13654 MEMB     110      PMPE     C36      CTL2    -0.180000       12.0110           0
     13655 MEMB     110      PMPE     H6X      HAL2     0.900000E-01   1.00800           0
     13656 MEMB     110      PMPE     H6Y      HAL2     0.900000E-01   1.00800           0
     13657 MEMB     110      PMPE     C37      CTL2    -0.180000       12.0110           0
     13658 MEMB     110      PMPE     H7X      HAL2     0.900000E-01   1.00800           0
     13659 MEMB     110      PMPE     H7Y      HAL2     0.900000E-01   1.00800           0
     13660 MEMB     110      PMPE     C38      CTL2    -0.180000       12.0110           0
     13661 MEMB     110      PMPE     H8X      HAL2     0.900000E-01   1.00800           0
     13662 MEMB     110      PMPE     H8Y      HAL2     0.900000E-01   1.00800           0
     13663 MEMB     110      PMPE     C39      CTL2    -0.180000       12.0110           0
     13664 MEMB     110      PMPE     H9X      HAL2     0.900000E-01   1.00800           0
     13665 MEMB     110      PMPE     H9Y      HAL2     0.900000E-01   1.00800           0
     13666 MEMB     110      PMPE     C310     CTL2    -0.180000       12.0110           0
     13667 MEMB     110      PMPE     H10X     HAL2     0.900000E-01   1.00800           0
     13668 MEMB     110      PMPE     H10Y     HAL2     0.900000E-01   1.00800           0
     13669 MEMB     110      PMPE     C311     CTL2    -0.180000       12.0110           0
     13670 MEMB     110      PMPE     H11X     HAL2     0.900000E-01   1.00800           0
     13671 MEMB     110      PMPE     H11Y     HAL2     0.900000E-01   1.00800           0
     13672 MEMB     110      PMPE     C312     CTL2    -0.180000       12.0110           0
     13673 MEMB     110      PMPE     H12X     HAL2     0.900000E-01   1.00800           0
     13674 MEMB     110      PMPE     H12Y     HAL2     0.900000E-01   1.00800           0
     13675 MEMB     110      PMPE     C313     CTL2    -0.180000       12.0110           0
     13676 MEMB     110      PMPE     H13X     HAL2     0.900000E-01   1.00800           0
     13677 MEMB     110      PMPE     H13Y     HAL2     0.900000E-01   1.00800           0
     13678 MEMB     110      PMPE     C314     CTL2    -0.180000       12.0110           0
     13679 MEMB     110      PMPE     H14X     HAL2     0.900000E-01   1.00800           0
     13680 MEMB     110      PMPE     H14Y     HAL2     0.900000E-01   1.00800           0
     13681 MEMB     110      PMPE     C315     CTL2    -0.180000       12.0110           0
     13682 MEMB     110      PMPE     H15X     HAL2     0.900000E-01   1.00800           0
     13683 MEMB     110      PMPE     H15Y     HAL2     0.900000E-01   1.00800           0
     13684 MEMB     110      PMPE     C316     CTL3    -0.270000       12.0110           0
     13685 MEMB     110      PMPE     H16X     HAL3     0.900000E-01   1.00800           0
     13686 MEMB     110      PMPE     H16Y     HAL3     0.900000E-01   1.00800           0
     13687 MEMB     110      PMPE     H16Z     HAL3     0.900000E-01   1.00800           0
     13688 MEMB     111      QMPE     N        NH3L    -0.300000       14.0070           0
     13689 MEMB     111      QMPE     HN1      HCL      0.330000       1.00800           0
     13690 MEMB     111      QMPE     HN2      HCL      0.330000       1.00800           0
     13691 MEMB     111      QMPE     HN3      HCL      0.330000       1.00800           0
     13692 MEMB     111      QMPE     C12      CTL2     0.130000       12.0110           0
     13693 MEMB     111      QMPE     H12A     HAL2     0.900000E-01   1.00800           0
     13694 MEMB     111      QMPE     H12B     HAL2     0.900000E-01   1.00800           0
     13695 MEMB     111      QMPE     C11      CTL2    -0.800000E-01   12.0110           0
     13696 MEMB     111      QMPE     H11A     HAL2     0.900000E-01   1.00800           0
     13697 MEMB     111      QMPE     H11B     HAL2     0.900000E-01   1.00800           0
     13698 MEMB     111      QMPE     P        PL        1.50000       30.9740           0
     13699 MEMB     111      QMPE     O13      O2L     -0.780000       15.9994           0
     13700 MEMB     111      QMPE     O14      O2L     -0.780000       15.9994           0
     13701 MEMB     111      QMPE     O11      OSLP    -0.570000       15.9994           0
     13702 MEMB     111      QMPE     O12      OSLP    -0.570000       15.9994           0
     13703 MEMB     111      QMPE     C1       CTL2    -0.800000E-01   12.0110           0
     13704 MEMB     111      QMPE     HA       HAL2     0.900000E-01   1.00800           0
     13705 MEMB     111      QMPE     HB       HAL2     0.900000E-01   1.00800           0
     13706 MEMB     111      QMPE     C2       CTL1     0.170000       12.0110           0
     13707 MEMB     111      QMPE     HS       HAL1     0.900000E-01   1.00800           0
     13708 MEMB     111      QMPE     O21      OSL     -0.490000       15.9994           0
     13709 MEMB     111      QMPE     C21      CL       0.900000       12.0110           0
     13710 MEMB     111      QMPE     O22      OBL     -0.630000       15.9994           0
     13711 MEMB     111      QMPE     C22      CTL2    -0.220000       12.0110           0
     13712 MEMB     111      QMPE     H2R      HAL2     0.900000E-01   1.00800           0
     13713 MEMB     111      QMPE     H2S      HAL2     0.900000E-01   1.00800           0
     13714 MEMB     111      QMPE     C3       CTL2     0.800000E-01   12.0110           0
     13715 MEMB     111      QMPE     HX       HAL2     0.900000E-01   1.00800           0
     13716 MEMB     111      QMPE     HY       HAL2     0.900000E-01   1.00800           0
     13717 MEMB     111      QMPE     O31      OSL     -0.490000       15.9994           0
     13718 MEMB     111      QMPE     C31      CL       0.900000       12.0110           0
     13719 MEMB     111      QMPE     O32      OBL     -0.630000       15.9994           0
     13720 MEMB     111      QMPE     C32      CTL2    -0.220000       12.0110           0
     13721 MEMB     111      QMPE     H2X      HAL2     0.900000E-01   1.00800           0
     13722 MEMB     111      QMPE     H2Y      HAL2     0.900000E-01   1.00800           0
     13723 MEMB     111      QMPE     C23      CTL2    -0.180000       12.0110           0
     13724 MEMB     111      QMPE     H3R      HAL2     0.900000E-01   1.00800           0
     13725 MEMB     111      QMPE     H3S      HAL2     0.900000E-01   1.00800           0
     13726 MEMB     111      QMPE     C24      CTL2    -0.180000       12.0110           0
     13727 MEMB     111      QMPE     H4R      HAL2     0.900000E-01   1.00800           0
     13728 MEMB     111      QMPE     H4S      HAL2     0.900000E-01   1.00800           0
     13729 MEMB     111      QMPE     C25      CTL2    -0.180000       12.0110           0
     13730 MEMB     111      QMPE     H5R      HAL2     0.900000E-01   1.00800           0
     13731 MEMB     111      QMPE     H5S      HAL2     0.900000E-01   1.00800           0
     13732 MEMB     111      QMPE     C26      CTL2    -0.180000       12.0110           0
     13733 MEMB     111      QMPE     H6R      HAL2     0.900000E-01   1.00800           0
     13734 MEMB     111      QMPE     H6S      HAL2     0.900000E-01   1.00800           0
     13735 MEMB     111      QMPE     C27      CTL2    -0.180000       12.0110           0
     13736 MEMB     111      QMPE     H7R      HAL2     0.900000E-01   1.00800           0
     13737 MEMB     111      QMPE     H7S      HAL2     0.900000E-01   1.00800           0
     13738 MEMB     111      QMPE     C28      CTL2    -0.180000       12.0110           0
     13739 MEMB     111      QMPE     H8R      HAL2     0.900000E-01   1.00800           0
     13740 MEMB     111      QMPE     H8S      HAL2     0.900000E-01   1.00800           0
     13741 MEMB     111      QMPE     C29      CG3RC1  -0.900000E-01   12.0110           0
     13742 MEMB     111      QMPE     H9R      HGA1     0.900000E-01   1.00800           0
     13743 MEMB     111      QMPE     C217     CG3C31  -0.180000       12.0110           0
     13744 MEMB     111      QMPE     H17R     HGA2     0.900000E-01   1.00800           0
     13745 MEMB     111      QMPE     H17S     HGA2     0.900000E-01   1.00800           0
     13746 MEMB     111      QMPE     C210     CG3RC1  -0.900000E-01   12.0110           0
     13747 MEMB     111      QMPE     H10R     HGA1     0.900000E-01   1.00800           0
     13748 MEMB     111      QMPE     C211     CTL2    -0.180000       12.0110           0
     13749 MEMB     111      QMPE     H11R     HAL2     0.900000E-01   1.00800           0
     13750 MEMB     111      QMPE     H11S     HAL2     0.900000E-01   1.00800           0
     13751 MEMB     111      QMPE     C212     CTL2    -0.180000       12.0110           0
     13752 MEMB     111      QMPE     H12R     HAL2     0.900000E-01   1.00800           0
     13753 MEMB     111      QMPE     H12S     HAL2     0.900000E-01   1.00800           0
     13754 MEMB     111      QMPE     C213     CTL2    -0.180000       12.0110           0
     13755 MEMB     111      QMPE     H13R     HAL2     0.900000E-01   1.00800           0
     13756 MEMB     111      QMPE     H13S     HAL2     0.900000E-01   1.00800           0
     13757 MEMB     111      QMPE     C214     CTL2    -0.180000       12.0110           0
     13758 MEMB     111      QMPE     H14R     HAL2     0.900000E-01   1.00800           0
     13759 MEMB     111      QMPE     H14S     HAL2     0.900000E-01   1.00800           0
     13760 MEMB     111      QMPE     C215     CTL2    -0.180000       12.0110           0
     13761 MEMB     111      QMPE     H15R     HAL2     0.900000E-01   1.00800           0
     13762 MEMB     111      QMPE     H15S     HAL2     0.900000E-01   1.00800           0
     13763 MEMB     111      QMPE     C216     CTL3    -0.270000       12.0110           0
     13764 MEMB     111      QMPE     H16R     HAL3     0.900000E-01   1.00800           0
     13765 MEMB     111      QMPE     H16S     HAL3     0.900000E-01   1.00800           0
     13766 MEMB     111      QMPE     H16T     HAL3     0.900000E-01   1.00800           0
     13767 MEMB     111      QMPE     C33      CTL2    -0.180000       12.0110           0
     13768 MEMB     111      QMPE     H3X      HAL2     0.900000E-01   1.00800           0
     13769 MEMB     111      QMPE     H3Y      HAL2     0.900000E-01   1.00800           0
     13770 MEMB     111      QMPE     C34      CTL2    -0.180000       12.0110           0
     13771 MEMB     111      QMPE     H4X      HAL2     0.900000E-01   1.00800           0
     13772 MEMB     111      QMPE     H4Y      HAL2     0.900000E-01   1.00800           0
     13773 MEMB     111      QMPE     C35      CTL2    -0.180000       12.0110           0
     13774 MEMB     111      QMPE     H5X      HAL2     0.900000E-01   1.00800           0
     13775 MEMB     111      QMPE     H5Y      HAL2     0.900000E-01   1.00800           0
     13776 MEMB     111      QMPE     C36      CTL2    -0.180000       12.0110           0
     13777 MEMB     111      QMPE     H6X      HAL2     0.900000E-01   1.00800           0
     13778 MEMB     111      QMPE     H6Y      HAL2     0.900000E-01   1.00800           0
     13779 MEMB     111      QMPE     C37      CTL2    -0.180000       12.0110           0
     13780 MEMB     111      QMPE     H7X      HAL2     0.900000E-01   1.00800           0
     13781 MEMB     111      QMPE     H7Y      HAL2     0.900000E-01   1.00800           0
     13782 MEMB     111      QMPE     C38      CTL2    -0.180000       12.0110           0
     13783 MEMB     111      QMPE     H8X      HAL2     0.900000E-01   1.00800           0
     13784 MEMB     111      QMPE     H8Y      HAL2     0.900000E-01   1.00800           0
     13785 MEMB     111      QMPE     C39      CTL2    -0.180000       12.0110           0
     13786 MEMB     111      QMPE     H9X      HAL2     0.900000E-01   1.00800           0
     13787 MEMB     111      QMPE     H9Y      HAL2     0.900000E-01   1.00800           0
     13788 MEMB     111      QMPE     C310     CTL2    -0.180000       12.0110           0
     13789 MEMB     111      QMPE     H10X     HAL2     0.900000E-01   1.00800           0
     13790 MEMB     111      QMPE     H10Y     HAL2     0.900000E-01   1.00800           0
     13791 MEMB     111      QMPE     C311     CTL2    -0.180000       12.0110           0
     13792 MEMB     111      QMPE     H11X     HAL2     0.900000E-01   1.00800           0
     13793 MEMB     111      QMPE     H11Y     HAL2     0.900000E-01   1.00800           0
     13794 MEMB     111      QMPE     C312     CTL2    -0.180000       12.0110           0
     13795 MEMB     111      QMPE     H12X     HAL2     0.900000E-01   1.00800           0
     13796 MEMB     111      QMPE     H12Y     HAL2     0.900000E-01   1.00800           0
     13797 MEMB     111      QMPE     C313     CTL2    -0.180000       12.0110           0
     13798 MEMB     111      QMPE     H13X     HAL2     0.900000E-01   1.00800           0
     13799 MEMB     111      QMPE     H13Y     HAL2     0.900000E-01   1.00800           0
     13800 MEMB     111      QMPE     C314     CTL2    -0.180000       12.0110           0
     13801 MEMB     111      QMPE     H14X     HAL2     0.900000E-01   1.00800           0
     13802 MEMB     111      QMPE     H14Y     HAL2     0.900000E-01   1.00800           0
     13803 MEMB     111      QMPE     C315     CTL3    -0.270000       12.0110           0
     13804 MEMB     111      QMPE     H15X     HAL3     0.900000E-01   1.00800           0
     13805 MEMB     111      QMPE     H15Y     HAL3     0.900000E-01   1.00800           0
     13806 MEMB     111      QMPE     H15Z     HAL3     0.900000E-01   1.00800           0
     13807 MEMB     112      PMPE     N        NH3L    -0.300000       14.0070           0
     13808 MEMB     112      PMPE     HN1      HCL      0.330000       1.00800           0
     13809 MEMB     112      PMPE     HN2      HCL      0.330000       1.00800           0
     13810 MEMB     112      PMPE     HN3      HCL      0.330000       1.00800           0
     13811 MEMB     112      PMPE     C12      CTL2     0.130000       12.0110           0
     13812 MEMB     112      PMPE     H12A     HAL2     0.900000E-01   1.00800           0
     13813 MEMB     112      PMPE     H12B     HAL2     0.900000E-01   1.00800           0
     13814 MEMB     112      PMPE     C11      CTL2    -0.800000E-01   12.0110           0
     13815 MEMB     112      PMPE     H11A     HAL2     0.900000E-01   1.00800           0
     13816 MEMB     112      PMPE     H11B     HAL2     0.900000E-01   1.00800           0
     13817 MEMB     112      PMPE     P        PL        1.50000       30.9740           0
     13818 MEMB     112      PMPE     O13      O2L     -0.780000       15.9994           0
     13819 MEMB     112      PMPE     O14      O2L     -0.780000       15.9994           0
     13820 MEMB     112      PMPE     O11      OSLP    -0.570000       15.9994           0
     13821 MEMB     112      PMPE     O12      OSLP    -0.570000       15.9994           0
     13822 MEMB     112      PMPE     C1       CTL2    -0.800000E-01   12.0110           0
     13823 MEMB     112      PMPE     HA       HAL2     0.900000E-01   1.00800           0
     13824 MEMB     112      PMPE     HB       HAL2     0.900000E-01   1.00800           0
     13825 MEMB     112      PMPE     C2       CTL1     0.170000       12.0110           0
     13826 MEMB     112      PMPE     HS       HAL1     0.900000E-01   1.00800           0
     13827 MEMB     112      PMPE     O21      OSL     -0.490000       15.9994           0
     13828 MEMB     112      PMPE     C21      CL       0.900000       12.0110           0
     13829 MEMB     112      PMPE     O22      OBL     -0.630000       15.9994           0
     13830 MEMB     112      PMPE     C22      CTL2    -0.220000       12.0110           0
     13831 MEMB     112      PMPE     H2R      HAL2     0.900000E-01   1.00800           0
     13832 MEMB     112      PMPE     H2S      HAL2     0.900000E-01   1.00800           0
     13833 MEMB     112      PMPE     C3       CTL2     0.800000E-01   12.0110           0
     13834 MEMB     112      PMPE     HX       HAL2     0.900000E-01   1.00800           0
     13835 MEMB     112      PMPE     HY       HAL2     0.900000E-01   1.00800           0
     13836 MEMB     112      PMPE     O31      OSL     -0.490000       15.9994           0
     13837 MEMB     112      PMPE     C31      CL       0.900000       12.0110           0
     13838 MEMB     112      PMPE     O32      OBL     -0.630000       15.9994           0
     13839 MEMB     112      PMPE     C32      CTL2    -0.220000       12.0110           0
     13840 MEMB     112      PMPE     H2X      HAL2     0.900000E-01   1.00800           0
     13841 MEMB     112      PMPE     H2Y      HAL2     0.900000E-01   1.00800           0
     13842 MEMB     112      PMPE     C23      CTL2    -0.180000       12.0110           0
     13843 MEMB     112      PMPE     H3R      HAL2     0.900000E-01   1.00800           0
     13844 MEMB     112      PMPE     H3S      HAL2     0.900000E-01   1.00800           0
     13845 MEMB     112      PMPE     C24      CTL2    -0.180000       12.0110           0
     13846 MEMB     112      PMPE     H4R      HAL2     0.900000E-01   1.00800           0
     13847 MEMB     112      PMPE     H4S      HAL2     0.900000E-01   1.00800           0
     13848 MEMB     112      PMPE     C25      CTL2    -0.180000       12.0110           0
     13849 MEMB     112      PMPE     H5R      HAL2     0.900000E-01   1.00800           0
     13850 MEMB     112      PMPE     H5S      HAL2     0.900000E-01   1.00800           0
     13851 MEMB     112      PMPE     C26      CTL2    -0.180000       12.0110           0
     13852 MEMB     112      PMPE     H6R      HAL2     0.900000E-01   1.00800           0
     13853 MEMB     112      PMPE     H6S      HAL2     0.900000E-01   1.00800           0
     13854 MEMB     112      PMPE     C27      CTL2    -0.180000       12.0110           0
     13855 MEMB     112      PMPE     H7R      HAL2     0.900000E-01   1.00800           0
     13856 MEMB     112      PMPE     H7S      HAL2     0.900000E-01   1.00800           0
     13857 MEMB     112      PMPE     C28      CTL2    -0.180000       12.0110           0
     13858 MEMB     112      PMPE     H8R      HAL2     0.900000E-01   1.00800           0
     13859 MEMB     112      PMPE     H8S      HAL2     0.900000E-01   1.00800           0
     13860 MEMB     112      PMPE     C29      CG3RC1  -0.900000E-01   12.0110           0
     13861 MEMB     112      PMPE     H9R      HGA1     0.900000E-01   1.00800           0
     13862 MEMB     112      PMPE     C217     CG3C31  -0.180000       12.0110           0
     13863 MEMB     112      PMPE     H17R     HGA2     0.900000E-01   1.00800           0
     13864 MEMB     112      PMPE     H17S     HGA2     0.900000E-01   1.00800           0
     13865 MEMB     112      PMPE     C210     CG3RC1  -0.900000E-01   12.0110           0
     13866 MEMB     112      PMPE     H10R     HGA1     0.900000E-01   1.00800           0
     13867 MEMB     112      PMPE     C211     CTL2    -0.180000       12.0110           0
     13868 MEMB     112      PMPE     H11R     HAL2     0.900000E-01   1.00800           0
     13869 MEMB     112      PMPE     H11S     HAL2     0.900000E-01   1.00800           0
     13870 MEMB     112      PMPE     C212     CTL2    -0.180000       12.0110           0
     13871 MEMB     112      PMPE     H12R     HAL2     0.900000E-01   1.00800           0
     13872 MEMB     112      PMPE     H12S     HAL2     0.900000E-01   1.00800           0
     13873 MEMB     112      PMPE     C213     CTL2    -0.180000       12.0110           0
     13874 MEMB     112      PMPE     H13R     HAL2     0.900000E-01   1.00800           0
     13875 MEMB     112      PMPE     H13S     HAL2     0.900000E-01   1.00800           0
     13876 MEMB     112      PMPE     C214     CTL2    -0.180000       12.0110           0
     13877 MEMB     112      PMPE     H14R     HAL2     0.900000E-01   1.00800           0
     13878 MEMB     112      PMPE     H14S     HAL2     0.900000E-01   1.00800           0
     13879 MEMB     112      PMPE     C215     CTL2    -0.180000       12.0110           0
     13880 MEMB     112      PMPE     H15R     HAL2     0.900000E-01   1.00800           0
     13881 MEMB     112      PMPE     H15S     HAL2     0.900000E-01   1.00800           0
     13882 MEMB     112      PMPE     C216     CTL3    -0.270000       12.0110           0
     13883 MEMB     112      PMPE     H16R     HAL3     0.900000E-01   1.00800           0
     13884 MEMB     112      PMPE     H16S     HAL3     0.900000E-01   1.00800           0
     13885 MEMB     112      PMPE     H16T     HAL3     0.900000E-01   1.00800           0
     13886 MEMB     112      PMPE     C33      CTL2    -0.180000       12.0110           0
     13887 MEMB     112      PMPE     H3X      HAL2     0.900000E-01   1.00800           0
     13888 MEMB     112      PMPE     H3Y      HAL2     0.900000E-01   1.00800           0
     13889 MEMB     112      PMPE     C34      CTL2    -0.180000       12.0110           0
     13890 MEMB     112      PMPE     H4X      HAL2     0.900000E-01   1.00800           0
     13891 MEMB     112      PMPE     H4Y      HAL2     0.900000E-01   1.00800           0
     13892 MEMB     112      PMPE     C35      CTL2    -0.180000       12.0110           0
     13893 MEMB     112      PMPE     H5X      HAL2     0.900000E-01   1.00800           0
     13894 MEMB     112      PMPE     H5Y      HAL2     0.900000E-01   1.00800           0
     13895 MEMB     112      PMPE     C36      CTL2    -0.180000       12.0110           0
     13896 MEMB     112      PMPE     H6X      HAL2     0.900000E-01   1.00800           0
     13897 MEMB     112      PMPE     H6Y      HAL2     0.900000E-01   1.00800           0
     13898 MEMB     112      PMPE     C37      CTL2    -0.180000       12.0110           0
     13899 MEMB     112      PMPE     H7X      HAL2     0.900000E-01   1.00800           0
     13900 MEMB     112      PMPE     H7Y      HAL2     0.900000E-01   1.00800           0
     13901 MEMB     112      PMPE     C38      CTL2    -0.180000       12.0110           0
     13902 MEMB     112      PMPE     H8X      HAL2     0.900000E-01   1.00800           0
     13903 MEMB     112      PMPE     H8Y      HAL2     0.900000E-01   1.00800           0
     13904 MEMB     112      PMPE     C39      CTL2    -0.180000       12.0110           0
     13905 MEMB     112      PMPE     H9X      HAL2     0.900000E-01   1.00800           0
     13906 MEMB     112      PMPE     H9Y      HAL2     0.900000E-01   1.00800           0
     13907 MEMB     112      PMPE     C310     CTL2    -0.180000       12.0110           0
     13908 MEMB     112      PMPE     H10X     HAL2     0.900000E-01   1.00800           0
     13909 MEMB     112      PMPE     H10Y     HAL2     0.900000E-01   1.00800           0
     13910 MEMB     112      PMPE     C311     CTL2    -0.180000       12.0110           0
     13911 MEMB     112      PMPE     H11X     HAL2     0.900000E-01   1.00800           0
     13912 MEMB     112      PMPE     H11Y     HAL2     0.900000E-01   1.00800           0
     13913 MEMB     112      PMPE     C312     CTL2    -0.180000       12.0110           0
     13914 MEMB     112      PMPE     H12X     HAL2     0.900000E-01   1.00800           0
     13915 MEMB     112      PMPE     H12Y     HAL2     0.900000E-01   1.00800           0
     13916 MEMB     112      PMPE     C313     CTL2    -0.180000       12.0110           0
     13917 MEMB     112      PMPE     H13X     HAL2     0.900000E-01   1.00800           0
     13918 MEMB     112      PMPE     H13Y     HAL2     0.900000E-01   1.00800           0
     13919 MEMB     112      PMPE     C314     CTL2    -0.180000       12.0110           0
     13920 MEMB     112      PMPE     H14X     HAL2     0.900000E-01   1.00800           0
     13921 MEMB     112      PMPE     H14Y     HAL2     0.900000E-01   1.00800           0
     13922 MEMB     112      PMPE     C315     CTL2    -0.180000       12.0110           0
     13923 MEMB     112      PMPE     H15X     HAL2     0.900000E-01   1.00800           0
     13924 MEMB     112      PMPE     H15Y     HAL2     0.900000E-01   1.00800           0
     13925 MEMB     112      PMPE     C316     CTL3    -0.270000       12.0110           0
     13926 MEMB     112      PMPE     H16X     HAL3     0.900000E-01   1.00800           0
     13927 MEMB     112      PMPE     H16Y     HAL3     0.900000E-01   1.00800           0
     13928 MEMB     112      PMPE     H16Z     HAL3     0.900000E-01   1.00800           0
     13929 MEMB     113      PMPE     N        NH3L    -0.300000       14.0070           0
     13930 MEMB     113      PMPE     HN1      HCL      0.330000       1.00800           0
     13931 MEMB     113      PMPE     HN2      HCL      0.330000       1.00800           0
     13932 MEMB     113      PMPE     HN3      HCL      0.330000       1.00800           0
     13933 MEMB     113      PMPE     C12      CTL2     0.130000       12.0110           0
     13934 MEMB     113      PMPE     H12A     HAL2     0.900000E-01   1.00800           0
     13935 MEMB     113      PMPE     H12B     HAL2     0.900000E-01   1.00800           0
     13936 MEMB     113      PMPE     C11      CTL2    -0.800000E-01   12.0110           0
     13937 MEMB     113      PMPE     H11A     HAL2     0.900000E-01   1.00800           0
     13938 MEMB     113      PMPE     H11B     HAL2     0.900000E-01   1.00800           0
     13939 MEMB     113      PMPE     P        PL        1.50000       30.9740           0
     13940 MEMB     113      PMPE     O13      O2L     -0.780000       15.9994           0
     13941 MEMB     113      PMPE     O14      O2L     -0.780000       15.9994           0
     13942 MEMB     113      PMPE     O11      OSLP    -0.570000       15.9994           0
     13943 MEMB     113      PMPE     O12      OSLP    -0.570000       15.9994           0
     13944 MEMB     113      PMPE     C1       CTL2    -0.800000E-01   12.0110           0
     13945 MEMB     113      PMPE     HA       HAL2     0.900000E-01   1.00800           0
     13946 MEMB     113      PMPE     HB       HAL2     0.900000E-01   1.00800           0
     13947 MEMB     113      PMPE     C2       CTL1     0.170000       12.0110           0
     13948 MEMB     113      PMPE     HS       HAL1     0.900000E-01   1.00800           0
     13949 MEMB     113      PMPE     O21      OSL     -0.490000       15.9994           0
     13950 MEMB     113      PMPE     C21      CL       0.900000       12.0110           0
     13951 MEMB     113      PMPE     O22      OBL     -0.630000       15.9994           0
     13952 MEMB     113      PMPE     C22      CTL2    -0.220000       12.0110           0
     13953 MEMB     113      PMPE     H2R      HAL2     0.900000E-01   1.00800           0
     13954 MEMB     113      PMPE     H2S      HAL2     0.900000E-01   1.00800           0
     13955 MEMB     113      PMPE     C3       CTL2     0.800000E-01   12.0110           0
     13956 MEMB     113      PMPE     HX       HAL2     0.900000E-01   1.00800           0
     13957 MEMB     113      PMPE     HY       HAL2     0.900000E-01   1.00800           0
     13958 MEMB     113      PMPE     O31      OSL     -0.490000       15.9994           0
     13959 MEMB     113      PMPE     C31      CL       0.900000       12.0110           0
     13960 MEMB     113      PMPE     O32      OBL     -0.630000       15.9994           0
     13961 MEMB     113      PMPE     C32      CTL2    -0.220000       12.0110           0
     13962 MEMB     113      PMPE     H2X      HAL2     0.900000E-01   1.00800           0
     13963 MEMB     113      PMPE     H2Y      HAL2     0.900000E-01   1.00800           0
     13964 MEMB     113      PMPE     C23      CTL2    -0.180000       12.0110           0
     13965 MEMB     113      PMPE     H3R      HAL2     0.900000E-01   1.00800           0
     13966 MEMB     113      PMPE     H3S      HAL2     0.900000E-01   1.00800           0
     13967 MEMB     113      PMPE     C24      CTL2    -0.180000       12.0110           0
     13968 MEMB     113      PMPE     H4R      HAL2     0.900000E-01   1.00800           0
     13969 MEMB     113      PMPE     H4S      HAL2     0.900000E-01   1.00800           0
     13970 MEMB     113      PMPE     C25      CTL2    -0.180000       12.0110           0
     13971 MEMB     113      PMPE     H5R      HAL2     0.900000E-01   1.00800           0
     13972 MEMB     113      PMPE     H5S      HAL2     0.900000E-01   1.00800           0
     13973 MEMB     113      PMPE     C26      CTL2    -0.180000       12.0110           0
     13974 MEMB     113      PMPE     H6R      HAL2     0.900000E-01   1.00800           0
     13975 MEMB     113      PMPE     H6S      HAL2     0.900000E-01   1.00800           0
     13976 MEMB     113      PMPE     C27      CTL2    -0.180000       12.0110           0
     13977 MEMB     113      PMPE     H7R      HAL2     0.900000E-01   1.00800           0
     13978 MEMB     113      PMPE     H7S      HAL2     0.900000E-01   1.00800           0
     13979 MEMB     113      PMPE     C28      CTL2    -0.180000       12.0110           0
     13980 MEMB     113      PMPE     H8R      HAL2     0.900000E-01   1.00800           0
     13981 MEMB     113      PMPE     H8S      HAL2     0.900000E-01   1.00800           0
     13982 MEMB     113      PMPE     C29      CG3RC1  -0.900000E-01   12.0110           0
     13983 MEMB     113      PMPE     H9R      HGA1     0.900000E-01   1.00800           0
     13984 MEMB     113      PMPE     C217     CG3C31  -0.180000       12.0110           0
     13985 MEMB     113      PMPE     H17R     HGA2     0.900000E-01   1.00800           0
     13986 MEMB     113      PMPE     H17S     HGA2     0.900000E-01   1.00800           0
     13987 MEMB     113      PMPE     C210     CG3RC1  -0.900000E-01   12.0110           0
     13988 MEMB     113      PMPE     H10R     HGA1     0.900000E-01   1.00800           0
     13989 MEMB     113      PMPE     C211     CTL2    -0.180000       12.0110           0
     13990 MEMB     113      PMPE     H11R     HAL2     0.900000E-01   1.00800           0
     13991 MEMB     113      PMPE     H11S     HAL2     0.900000E-01   1.00800           0
     13992 MEMB     113      PMPE     C212     CTL2    -0.180000       12.0110           0
     13993 MEMB     113      PMPE     H12R     HAL2     0.900000E-01   1.00800           0
     13994 MEMB     113      PMPE     H12S     HAL2     0.900000E-01   1.00800           0
     13995 MEMB     113      PMPE     C213     CTL2    -0.180000       12.0110           0
     13996 MEMB     113      PMPE     H13R     HAL2     0.900000E-01   1.00800           0
     13997 MEMB     113      PMPE     H13S     HAL2     0.900000E-01   1.00800           0
     13998 MEMB     113      PMPE     C214     CTL2    -0.180000       12.0110           0
     13999 MEMB     113      PMPE     H14R     HAL2     0.900000E-01   1.00800           0
     14000 MEMB     113      PMPE     H14S     HAL2     0.900000E-01   1.00800           0
     14001 MEMB     113      PMPE     C215     CTL2    -0.180000       12.0110           0
     14002 MEMB     113      PMPE     H15R     HAL2     0.900000E-01   1.00800           0
     14003 MEMB     113      PMPE     H15S     HAL2     0.900000E-01   1.00800           0
     14004 MEMB     113      PMPE     C216     CTL3    -0.270000       12.0110           0
     14005 MEMB     113      PMPE     H16R     HAL3     0.900000E-01   1.00800           0
     14006 MEMB     113      PMPE     H16S     HAL3     0.900000E-01   1.00800           0
     14007 MEMB     113      PMPE     H16T     HAL3     0.900000E-01   1.00800           0
     14008 MEMB     113      PMPE     C33      CTL2    -0.180000       12.0110           0
     14009 MEMB     113      PMPE     H3X      HAL2     0.900000E-01   1.00800           0
     14010 MEMB     113      PMPE     H3Y      HAL2     0.900000E-01   1.00800           0
     14011 MEMB     113      PMPE     C34      CTL2    -0.180000       12.0110           0
     14012 MEMB     113      PMPE     H4X      HAL2     0.900000E-01   1.00800           0
     14013 MEMB     113      PMPE     H4Y      HAL2     0.900000E-01   1.00800           0
     14014 MEMB     113      PMPE     C35      CTL2    -0.180000       12.0110           0
     14015 MEMB     113      PMPE     H5X      HAL2     0.900000E-01   1.00800           0
     14016 MEMB     113      PMPE     H5Y      HAL2     0.900000E-01   1.00800           0
     14017 MEMB     113      PMPE     C36      CTL2    -0.180000       12.0110           0
     14018 MEMB     113      PMPE     H6X      HAL2     0.900000E-01   1.00800           0
     14019 MEMB     113      PMPE     H6Y      HAL2     0.900000E-01   1.00800           0
     14020 MEMB     113      PMPE     C37      CTL2    -0.180000       12.0110           0
     14021 MEMB     113      PMPE     H7X      HAL2     0.900000E-01   1.00800           0
     14022 MEMB     113      PMPE     H7Y      HAL2     0.900000E-01   1.00800           0
     14023 MEMB     113      PMPE     C38      CTL2    -0.180000       12.0110           0
     14024 MEMB     113      PMPE     H8X      HAL2     0.900000E-01   1.00800           0
     14025 MEMB     113      PMPE     H8Y      HAL2     0.900000E-01   1.00800           0
     14026 MEMB     113      PMPE     C39      CTL2    -0.180000       12.0110           0
     14027 MEMB     113      PMPE     H9X      HAL2     0.900000E-01   1.00800           0
     14028 MEMB     113      PMPE     H9Y      HAL2     0.900000E-01   1.00800           0
     14029 MEMB     113      PMPE     C310     CTL2    -0.180000       12.0110           0
     14030 MEMB     113      PMPE     H10X     HAL2     0.900000E-01   1.00800           0
     14031 MEMB     113      PMPE     H10Y     HAL2     0.900000E-01   1.00800           0
     14032 MEMB     113      PMPE     C311     CTL2    -0.180000       12.0110           0
     14033 MEMB     113      PMPE     H11X     HAL2     0.900000E-01   1.00800           0
     14034 MEMB     113      PMPE     H11Y     HAL2     0.900000E-01   1.00800           0
     14035 MEMB     113      PMPE     C312     CTL2    -0.180000       12.0110           0
     14036 MEMB     113      PMPE     H12X     HAL2     0.900000E-01   1.00800           0
     14037 MEMB     113      PMPE     H12Y     HAL2     0.900000E-01   1.00800           0
     14038 MEMB     113      PMPE     C313     CTL2    -0.180000       12.0110           0
     14039 MEMB     113      PMPE     H13X     HAL2     0.900000E-01   1.00800           0
     14040 MEMB     113      PMPE     H13Y     HAL2     0.900000E-01   1.00800           0
     14041 MEMB     113      PMPE     C314     CTL2    -0.180000       12.0110           0
     14042 MEMB     113      PMPE     H14X     HAL2     0.900000E-01   1.00800           0
     14043 MEMB     113      PMPE     H14Y     HAL2     0.900000E-01   1.00800           0
     14044 MEMB     113      PMPE     C315     CTL2    -0.180000       12.0110           0
     14045 MEMB     113      PMPE     H15X     HAL2     0.900000E-01   1.00800           0
     14046 MEMB     113      PMPE     H15Y     HAL2     0.900000E-01   1.00800           0
     14047 MEMB     113      PMPE     C316     CTL3    -0.270000       12.0110           0
     14048 MEMB     113      PMPE     H16X     HAL3     0.900000E-01   1.00800           0
     14049 MEMB     113      PMPE     H16Y     HAL3     0.900000E-01   1.00800           0
     14050 MEMB     113      PMPE     H16Z     HAL3     0.900000E-01   1.00800           0
     14051 MEMB     114      PVCL2    C3       CTL2    -0.800000E-01   12.0110           0
     14052 MEMB     114      PVCL2    HG31     HAL2     0.900000E-01   1.00800           0
     14053 MEMB     114      PVCL2    HG32     HAL2     0.900000E-01   1.00800           0
     14054 MEMB     114      PVCL2    P3       PL        1.50000       30.9740           0
     14055 MEMB     114      PVCL2    OP33     O2L     -0.780000       15.9994           0
     14056 MEMB     114      PVCL2    OP34     O2L     -0.780000       15.9994           0
     14057 MEMB     114      PVCL2    OP31     OSLP    -0.570000       15.9994           0
     14058 MEMB     114      PVCL2    OP32     OSLP    -0.570000       15.9994           0
     14059 MEMB     114      PVCL2    C31      CTL2    -0.800000E-01   12.0110           0
     14060 MEMB     114      PVCL2    H31J     HAL2     0.900000E-01   1.00800           0
     14061 MEMB     114      PVCL2    H31K     HAL2     0.900000E-01   1.00800           0
     14062 MEMB     114      PVCL2    C2       CTL1     0.140000       12.0110           0
     14063 MEMB     114      PVCL2    HG22     HAL1     0.900000E-01   1.00800           0
     14064 MEMB     114      PVCL2    OG12     OHL     -0.650000       15.9994           0
     14065 MEMB     114      PVCL2    HO12     HOL      0.420000       1.00800           0
     14066 MEMB     114      PVCL2    C1       CTL2    -0.800000E-01   12.0110           0
     14067 MEMB     114      PVCL2    HG11     HAL2     0.900000E-01   1.00800           0
     14068 MEMB     114      PVCL2    HG12     HAL2     0.900000E-01   1.00800           0
     14069 MEMB     114      PVCL2    P1       PL        1.50000       30.9740           0
     14070 MEMB     114      PVCL2    OP13     O2L     -0.780000       15.9994           0
     14071 MEMB     114      PVCL2    OP14     O2L     -0.780000       15.9994           0
     14072 MEMB     114      PVCL2    OP11     OSLP    -0.570000       15.9994           0
     14073 MEMB     114      PVCL2    OP12     OSLP    -0.570000       15.9994           0
     14074 MEMB     114      PVCL2    C11      CTL2    -0.800000E-01   12.0110           0
     14075 MEMB     114      PVCL2    H11J     HAL2     0.900000E-01   1.00800           0
     14076 MEMB     114      PVCL2    H11K     HAL2     0.900000E-01   1.00800           0
     14077 MEMB     114      PVCL2    C12      CTL1     0.170000       12.0110           0
     14078 MEMB     114      PVCL2    H12J     HAL1     0.900000E-01   1.00800           0
     14079 MEMB     114      PVCL2    O12      OSL     -0.490000       15.9994           0
     14080 MEMB     114      PVCL2    CA1      CL       0.900000       12.0110           0
     14081 MEMB     114      PVCL2    OA1      OBL     -0.630000       15.9994           0
     14082 MEMB     114      PVCL2    CA2      CTL2    -0.220000       12.0110           0
     14083 MEMB     114      PVCL2    H2A      HAL2     0.900000E-01   1.00800           0
     14084 MEMB     114      PVCL2    H2B      HAL2     0.900000E-01   1.00800           0
     14085 MEMB     114      PVCL2    C13      CTL2     0.800000E-01   12.0110           0
     14086 MEMB     114      PVCL2    H13J     HAL2     0.900000E-01   1.00800           0
     14087 MEMB     114      PVCL2    H13K     HAL2     0.900000E-01   1.00800           0
     14088 MEMB     114      PVCL2    O13      OSL     -0.490000       15.9994           0
     14089 MEMB     114      PVCL2    CB1      CL       0.900000       12.0110           0
     14090 MEMB     114      PVCL2    OB1      OBL     -0.630000       15.9994           0
     14091 MEMB     114      PVCL2    CB2      CTL2    -0.220000       12.0110           0
     14092 MEMB     114      PVCL2    H2D      HAL2     0.900000E-01   1.00800           0
     14093 MEMB     114      PVCL2    H2E      HAL2     0.900000E-01   1.00800           0
     14094 MEMB     114      PVCL2    C32      CTL1     0.170000       12.0110           0
     14095 MEMB     114      PVCL2    H32J     HAL1     0.900000E-01   1.00800           0
     14096 MEMB     114      PVCL2    O32      OSL     -0.490000       15.9994           0
     14097 MEMB     114      PVCL2    CC1      CL       0.900000       12.0110           0
     14098 MEMB     114      PVCL2    OC1      OBL     -0.630000       15.9994           0
     14099 MEMB     114      PVCL2    CC2      CTL2    -0.220000       12.0110           0
     14100 MEMB     114      PVCL2    H2R      HAL2     0.900000E-01   1.00800           0
     14101 MEMB     114      PVCL2    H2S      HAL2     0.900000E-01   1.00800           0
     14102 MEMB     114      PVCL2    C33      CTL2     0.800000E-01   12.0110           0
     14103 MEMB     114      PVCL2    H33J     HAL2     0.900000E-01   1.00800           0
     14104 MEMB     114      PVCL2    H33K     HAL2     0.900000E-01   1.00800           0
     14105 MEMB     114      PVCL2    O33      OSL     -0.490000       15.9994           0
     14106 MEMB     114      PVCL2    CD1      CL       0.900000       12.0110           0
     14107 MEMB     114      PVCL2    OD1      OBL     -0.630000       15.9994           0
     14108 MEMB     114      PVCL2    CD2      CTL2    -0.220000       12.0110           0
     14109 MEMB     114      PVCL2    H2X      HAL2     0.900000E-01   1.00800           0
     14110 MEMB     114      PVCL2    H2Y      HAL2     0.900000E-01   1.00800           0
     14111 MEMB     114      PVCL2    CA3      CTL2    -0.180000       12.0110           0
     14112 MEMB     114      PVCL2    H3A      HAL2     0.900000E-01   1.00800           0
     14113 MEMB     114      PVCL2    H3B      HAL2     0.900000E-01   1.00800           0
     14114 MEMB     114      PVCL2    CA4      CTL2    -0.180000       12.0110           0
     14115 MEMB     114      PVCL2    H4A      HAL2     0.900000E-01   1.00800           0
     14116 MEMB     114      PVCL2    H4B      HAL2     0.900000E-01   1.00800           0
     14117 MEMB     114      PVCL2    CA5      CTL2    -0.180000       12.0110           0
     14118 MEMB     114      PVCL2    H5A      HAL2     0.900000E-01   1.00800           0
     14119 MEMB     114      PVCL2    H5B      HAL2     0.900000E-01   1.00800           0
     14120 MEMB     114      PVCL2    CA6      CTL2    -0.180000       12.0110           0
     14121 MEMB     114      PVCL2    H6A      HAL2     0.900000E-01   1.00800           0
     14122 MEMB     114      PVCL2    H6B      HAL2     0.900000E-01   1.00800           0
     14123 MEMB     114      PVCL2    CA7      CTL2    -0.180000       12.0110           0
     14124 MEMB     114      PVCL2    H7A      HAL2     0.900000E-01   1.00800           0
     14125 MEMB     114      PVCL2    H7B      HAL2     0.900000E-01   1.00800           0
     14126 MEMB     114      PVCL2    CA8      CTL2    -0.180000       12.0110           0
     14127 MEMB     114      PVCL2    H8A      HAL2     0.900000E-01   1.00800           0
     14128 MEMB     114      PVCL2    H8B      HAL2     0.900000E-01   1.00800           0
     14129 MEMB     114      PVCL2    CA9      CTL2    -0.180000       12.0110           0
     14130 MEMB     114      PVCL2    H9A      HAL2     0.900000E-01   1.00800           0
     14131 MEMB     114      PVCL2    H9B      HAL2     0.900000E-01   1.00800           0
     14132 MEMB     114      PVCL2    CA10     CTL2    -0.180000       12.0110           0
     14133 MEMB     114      PVCL2    H10A     HAL2     0.900000E-01   1.00800           0
     14134 MEMB     114      PVCL2    H10B     HAL2     0.900000E-01   1.00800           0
     14135 MEMB     114      PVCL2    CA11     CEL1    -0.150000       12.0110           0
     14136 MEMB     114      PVCL2    H11A     HEL1     0.150000       1.00800           0
     14137 MEMB     114      PVCL2    CA12     CEL1    -0.150000       12.0110           0
     14138 MEMB     114      PVCL2    H12A     HEL1     0.150000       1.00800           0
     14139 MEMB     114      PVCL2    CA13     CTL2    -0.180000       12.0110           0
     14140 MEMB     114      PVCL2    H13A     HAL2     0.900000E-01   1.00800           0
     14141 MEMB     114      PVCL2    H13B     HAL2     0.900000E-01   1.00800           0
     14142 MEMB     114      PVCL2    CA14     CTL2    -0.180000       12.0110           0
     14143 MEMB     114      PVCL2    H14A     HAL2     0.900000E-01   1.00800           0
     14144 MEMB     114      PVCL2    H14B     HAL2     0.900000E-01   1.00800           0
     14145 MEMB     114      PVCL2    CA15     CTL2    -0.180000       12.0110           0
     14146 MEMB     114      PVCL2    H15A     HAL2     0.900000E-01   1.00800           0
     14147 MEMB     114      PVCL2    H15B     HAL2     0.900000E-01   1.00800           0
     14148 MEMB     114      PVCL2    CA16     CTL2    -0.180000       12.0110           0
     14149 MEMB     114      PVCL2    H16A     HAL2     0.900000E-01   1.00800           0
     14150 MEMB     114      PVCL2    H16B     HAL2     0.900000E-01   1.00800           0
     14151 MEMB     114      PVCL2    CA17     CTL2    -0.180000       12.0110           0
     14152 MEMB     114      PVCL2    H17A     HAL2     0.900000E-01   1.00800           0
     14153 MEMB     114      PVCL2    H17B     HAL2     0.900000E-01   1.00800           0
     14154 MEMB     114      PVCL2    CA18     CTL3    -0.270000       12.0110           0
     14155 MEMB     114      PVCL2    H18A     HAL3     0.900000E-01   1.00800           0
     14156 MEMB     114      PVCL2    H18B     HAL3     0.900000E-01   1.00800           0
     14157 MEMB     114      PVCL2    H18C     HAL3     0.900000E-01   1.00800           0
     14158 MEMB     114      PVCL2    CB3      CTL2    -0.180000       12.0110           0
     14159 MEMB     114      PVCL2    H3D      HAL2     0.900000E-01   1.00800           0
     14160 MEMB     114      PVCL2    H3E      HAL2     0.900000E-01   1.00800           0
     14161 MEMB     114      PVCL2    CB4      CTL2    -0.180000       12.0110           0
     14162 MEMB     114      PVCL2    H4D      HAL2     0.900000E-01   1.00800           0
     14163 MEMB     114      PVCL2    H4E      HAL2     0.900000E-01   1.00800           0
     14164 MEMB     114      PVCL2    CB5      CTL2    -0.180000       12.0110           0
     14165 MEMB     114      PVCL2    H5D      HAL2     0.900000E-01   1.00800           0
     14166 MEMB     114      PVCL2    H5E      HAL2     0.900000E-01   1.00800           0
     14167 MEMB     114      PVCL2    CB6      CTL2    -0.180000       12.0110           0
     14168 MEMB     114      PVCL2    H6D      HAL2     0.900000E-01   1.00800           0
     14169 MEMB     114      PVCL2    H6E      HAL2     0.900000E-01   1.00800           0
     14170 MEMB     114      PVCL2    CB7      CTL2    -0.180000       12.0110           0
     14171 MEMB     114      PVCL2    H7D      HAL2     0.900000E-01   1.00800           0
     14172 MEMB     114      PVCL2    H7E      HAL2     0.900000E-01   1.00800           0
     14173 MEMB     114      PVCL2    CB8      CTL2    -0.180000       12.0110           0
     14174 MEMB     114      PVCL2    H8D      HAL2     0.900000E-01   1.00800           0
     14175 MEMB     114      PVCL2    H8E      HAL2     0.900000E-01   1.00800           0
     14176 MEMB     114      PVCL2    CB9      CTL2    -0.180000       12.0110           0
     14177 MEMB     114      PVCL2    H9D      HAL2     0.900000E-01   1.00800           0
     14178 MEMB     114      PVCL2    H9E      HAL2     0.900000E-01   1.00800           0
     14179 MEMB     114      PVCL2    CB10     CTL2    -0.180000       12.0110           0
     14180 MEMB     114      PVCL2    H10D     HAL2     0.900000E-01   1.00800           0
     14181 MEMB     114      PVCL2    H10E     HAL2     0.900000E-01   1.00800           0
     14182 MEMB     114      PVCL2    CB11     CTL2    -0.180000       12.0110           0
     14183 MEMB     114      PVCL2    H11D     HAL2     0.900000E-01   1.00800           0
     14184 MEMB     114      PVCL2    H11E     HAL2     0.900000E-01   1.00800           0
     14185 MEMB     114      PVCL2    CB12     CTL2    -0.180000       12.0110           0
     14186 MEMB     114      PVCL2    H12D     HAL2     0.900000E-01   1.00800           0
     14187 MEMB     114      PVCL2    H12E     HAL2     0.900000E-01   1.00800           0
     14188 MEMB     114      PVCL2    CB13     CTL2    -0.180000       12.0110           0
     14189 MEMB     114      PVCL2    H13D     HAL2     0.900000E-01   1.00800           0
     14190 MEMB     114      PVCL2    H13E     HAL2     0.900000E-01   1.00800           0
     14191 MEMB     114      PVCL2    CB14     CTL2    -0.180000       12.0110           0
     14192 MEMB     114      PVCL2    H14D     HAL2     0.900000E-01   1.00800           0
     14193 MEMB     114      PVCL2    H14E     HAL2     0.900000E-01   1.00800           0
     14194 MEMB     114      PVCL2    CB15     CTL2    -0.180000       12.0110           0
     14195 MEMB     114      PVCL2    H15D     HAL2     0.900000E-01   1.00800           0
     14196 MEMB     114      PVCL2    H15E     HAL2     0.900000E-01   1.00800           0
     14197 MEMB     114      PVCL2    CB16     CTL3    -0.270000       12.0110           0
     14198 MEMB     114      PVCL2    H16D     HAL3     0.900000E-01   1.00800           0
     14199 MEMB     114      PVCL2    H16E     HAL3     0.900000E-01   1.00800           0
     14200 MEMB     114      PVCL2    H16F     HAL3     0.900000E-01   1.00800           0
     14201 MEMB     114      PVCL2    CC3      CTL2    -0.180000       12.0110           0
     14202 MEMB     114      PVCL2    H3R      HAL2     0.900000E-01   1.00800           0
     14203 MEMB     114      PVCL2    H3S      HAL2     0.900000E-01   1.00800           0
     14204 MEMB     114      PVCL2    CC4      CTL2    -0.180000       12.0110           0
     14205 MEMB     114      PVCL2    H4R      HAL2     0.900000E-01   1.00800           0
     14206 MEMB     114      PVCL2    H4S      HAL2     0.900000E-01   1.00800           0
     14207 MEMB     114      PVCL2    CC5      CTL2    -0.180000       12.0110           0
     14208 MEMB     114      PVCL2    H5R      HAL2     0.900000E-01   1.00800           0
     14209 MEMB     114      PVCL2    H5S      HAL2     0.900000E-01   1.00800           0
     14210 MEMB     114      PVCL2    CC6      CTL2    -0.180000       12.0110           0
     14211 MEMB     114      PVCL2    H6R      HAL2     0.900000E-01   1.00800           0
     14212 MEMB     114      PVCL2    H6S      HAL2     0.900000E-01   1.00800           0
     14213 MEMB     114      PVCL2    CC7      CTL2    -0.180000       12.0110           0
     14214 MEMB     114      PVCL2    H7R      HAL2     0.900000E-01   1.00800           0
     14215 MEMB     114      PVCL2    H7S      HAL2     0.900000E-01   1.00800           0
     14216 MEMB     114      PVCL2    CC8      CTL2    -0.180000       12.0110           0
     14217 MEMB     114      PVCL2    H8R      HAL2     0.900000E-01   1.00800           0
     14218 MEMB     114      PVCL2    H8S      HAL2     0.900000E-01   1.00800           0
     14219 MEMB     114      PVCL2    CC9      CTL2    -0.180000       12.0110           0
     14220 MEMB     114      PVCL2    H9R      HAL2     0.900000E-01   1.00800           0
     14221 MEMB     114      PVCL2    H9S      HAL2     0.900000E-01   1.00800           0
     14222 MEMB     114      PVCL2    CC10     CTL2    -0.180000       12.0110           0
     14223 MEMB     114      PVCL2    H10R     HAL2     0.900000E-01   1.00800           0
     14224 MEMB     114      PVCL2    H10S     HAL2     0.900000E-01   1.00800           0
     14225 MEMB     114      PVCL2    CC11     CEL1    -0.150000       12.0110           0
     14226 MEMB     114      PVCL2    H11R     HEL1     0.150000       1.00800           0
     14227 MEMB     114      PVCL2    CC12     CEL1    -0.150000       12.0110           0
     14228 MEMB     114      PVCL2    H12R     HEL1     0.150000       1.00800           0
     14229 MEMB     114      PVCL2    CC13     CTL2    -0.180000       12.0110           0
     14230 MEMB     114      PVCL2    H13R     HAL2     0.900000E-01   1.00800           0
     14231 MEMB     114      PVCL2    H13S     HAL2     0.900000E-01   1.00800           0
     14232 MEMB     114      PVCL2    CC14     CTL2    -0.180000       12.0110           0
     14233 MEMB     114      PVCL2    H14R     HAL2     0.900000E-01   1.00800           0
     14234 MEMB     114      PVCL2    H14S     HAL2     0.900000E-01   1.00800           0
     14235 MEMB     114      PVCL2    CC15     CTL2    -0.180000       12.0110           0
     14236 MEMB     114      PVCL2    H15R     HAL2     0.900000E-01   1.00800           0
     14237 MEMB     114      PVCL2    H15S     HAL2     0.900000E-01   1.00800           0
     14238 MEMB     114      PVCL2    CC16     CTL2    -0.180000       12.0110           0
     14239 MEMB     114      PVCL2    H16R     HAL2     0.900000E-01   1.00800           0
     14240 MEMB     114      PVCL2    H16S     HAL2     0.900000E-01   1.00800           0
     14241 MEMB     114      PVCL2    CC17     CTL2    -0.180000       12.0110           0
     14242 MEMB     114      PVCL2    H17R     HAL2     0.900000E-01   1.00800           0
     14243 MEMB     114      PVCL2    H17S     HAL2     0.900000E-01   1.00800           0
     14244 MEMB     114      PVCL2    CC18     CTL3    -0.270000       12.0110           0
     14245 MEMB     114      PVCL2    H18R     HAL3     0.900000E-01   1.00800           0
     14246 MEMB     114      PVCL2    H18S     HAL3     0.900000E-01   1.00800           0
     14247 MEMB     114      PVCL2    H18T     HAL3     0.900000E-01   1.00800           0
     14248 MEMB     114      PVCL2    CD3      CTL2    -0.180000       12.0110           0
     14249 MEMB     114      PVCL2    H3X      HAL2     0.900000E-01   1.00800           0
     14250 MEMB     114      PVCL2    H3Y      HAL2     0.900000E-01   1.00800           0
     14251 MEMB     114      PVCL2    CD4      CTL2    -0.180000       12.0110           0
     14252 MEMB     114      PVCL2    H4X      HAL2     0.900000E-01   1.00800           0
     14253 MEMB     114      PVCL2    H4Y      HAL2     0.900000E-01   1.00800           0
     14254 MEMB     114      PVCL2    CD5      CTL2    -0.180000       12.0110           0
     14255 MEMB     114      PVCL2    H5X      HAL2     0.900000E-01   1.00800           0
     14256 MEMB     114      PVCL2    H5Y      HAL2     0.900000E-01   1.00800           0
     14257 MEMB     114      PVCL2    CD6      CTL2    -0.180000       12.0110           0
     14258 MEMB     114      PVCL2    H6X      HAL2     0.900000E-01   1.00800           0
     14259 MEMB     114      PVCL2    H6Y      HAL2     0.900000E-01   1.00800           0
     14260 MEMB     114      PVCL2    CD7      CTL2    -0.180000       12.0110           0
     14261 MEMB     114      PVCL2    H7X      HAL2     0.900000E-01   1.00800           0
     14262 MEMB     114      PVCL2    H7Y      HAL2     0.900000E-01   1.00800           0
     14263 MEMB     114      PVCL2    CD8      CTL2    -0.180000       12.0110           0
     14264 MEMB     114      PVCL2    H8X      HAL2     0.900000E-01   1.00800           0
     14265 MEMB     114      PVCL2    H8Y      HAL2     0.900000E-01   1.00800           0
     14266 MEMB     114      PVCL2    CD9      CTL2    -0.180000       12.0110           0
     14267 MEMB     114      PVCL2    H9X      HAL2     0.900000E-01   1.00800           0
     14268 MEMB     114      PVCL2    H9Y      HAL2     0.900000E-01   1.00800           0
     14269 MEMB     114      PVCL2    CD10     CTL2    -0.180000       12.0110           0
     14270 MEMB     114      PVCL2    H10X     HAL2     0.900000E-01   1.00800           0
     14271 MEMB     114      PVCL2    H10Y     HAL2     0.900000E-01   1.00800           0
     14272 MEMB     114      PVCL2    CD11     CTL2    -0.180000       12.0110           0
     14273 MEMB     114      PVCL2    H11X     HAL2     0.900000E-01   1.00800           0
     14274 MEMB     114      PVCL2    H11Y     HAL2     0.900000E-01   1.00800           0
     14275 MEMB     114      PVCL2    CD12     CTL2    -0.180000       12.0110           0
     14276 MEMB     114      PVCL2    H12X     HAL2     0.900000E-01   1.00800           0
     14277 MEMB     114      PVCL2    H12Y     HAL2     0.900000E-01   1.00800           0
     14278 MEMB     114      PVCL2    CD13     CTL2    -0.180000       12.0110           0
     14279 MEMB     114      PVCL2    H13X     HAL2     0.900000E-01   1.00800           0
     14280 MEMB     114      PVCL2    H13Y     HAL2     0.900000E-01   1.00800           0
     14281 MEMB     114      PVCL2    CD14     CTL2    -0.180000       12.0110           0
     14282 MEMB     114      PVCL2    H14X     HAL2     0.900000E-01   1.00800           0
     14283 MEMB     114      PVCL2    H14Y     HAL2     0.900000E-01   1.00800           0
     14284 MEMB     114      PVCL2    CD15     CTL2    -0.180000       12.0110           0
     14285 MEMB     114      PVCL2    H15X     HAL2     0.900000E-01   1.00800           0
     14286 MEMB     114      PVCL2    H15Y     HAL2     0.900000E-01   1.00800           0
     14287 MEMB     114      PVCL2    CD16     CTL3    -0.270000       12.0110           0
     14288 MEMB     114      PVCL2    H16X     HAL3     0.900000E-01   1.00800           0
     14289 MEMB     114      PVCL2    H16Y     HAL3     0.900000E-01   1.00800           0
     14290 MEMB     114      PVCL2    H16Z     HAL3     0.900000E-01   1.00800           0
     14291 MEMB     115      PMPG     C13      CTL2     0.500000E-01   12.0110           0
     14292 MEMB     115      PMPG     H13A     HAL2     0.900000E-01   1.00800           0
     14293 MEMB     115      PMPG     H13B     HAL2     0.900000E-01   1.00800           0
     14294 MEMB     115      PMPG     OC3      OHL     -0.660000       15.9994           0
     14295 MEMB     115      PMPG     HO3      HOL      0.430000       1.00800           0
     14296 MEMB     115      PMPG     C12      CTL1     0.140000       12.0110           0
     14297 MEMB     115      PMPG     H12A     HAL1     0.900000E-01   1.00800           0
     14298 MEMB     115      PMPG     OC2      OHL     -0.660000       15.9994           0
     14299 MEMB     115      PMPG     HO2      HOL      0.430000       1.00800           0
     14300 MEMB     115      PMPG     C11      CTL2    -0.800000E-01   12.0110           0
     14301 MEMB     115      PMPG     H11A     HAL2     0.900000E-01   1.00800           0
     14302 MEMB     115      PMPG     H11B     HAL2     0.900000E-01   1.00800           0
     14303 MEMB     115      PMPG     P        PL        1.50000       30.9740           0
     14304 MEMB     115      PMPG     O13      O2L     -0.780000       15.9994           0
     14305 MEMB     115      PMPG     O14      O2L     -0.780000       15.9994           0
     14306 MEMB     115      PMPG     O11      OSLP    -0.570000       15.9994           0
     14307 MEMB     115      PMPG     O12      OSLP    -0.570000       15.9994           0
     14308 MEMB     115      PMPG     C1       CTL2    -0.800000E-01   12.0110           0
     14309 MEMB     115      PMPG     HA       HAL2     0.900000E-01   1.00800           0
     14310 MEMB     115      PMPG     HB       HAL2     0.900000E-01   1.00800           0
     14311 MEMB     115      PMPG     C2       CTL1     0.170000       12.0110           0
     14312 MEMB     115      PMPG     HS       HAL1     0.900000E-01   1.00800           0
     14313 MEMB     115      PMPG     O21      OSL     -0.490000       15.9994           0
     14314 MEMB     115      PMPG     C21      CL       0.900000       12.0110           0
     14315 MEMB     115      PMPG     O22      OBL     -0.630000       15.9994           0
     14316 MEMB     115      PMPG     C22      CTL2    -0.220000       12.0110           0
     14317 MEMB     115      PMPG     H2R      HAL2     0.900000E-01   1.00800           0
     14318 MEMB     115      PMPG     H2S      HAL2     0.900000E-01   1.00800           0
     14319 MEMB     115      PMPG     C3       CTL2     0.800000E-01   12.0110           0
     14320 MEMB     115      PMPG     HX       HAL2     0.900000E-01   1.00800           0
     14321 MEMB     115      PMPG     HY       HAL2     0.900000E-01   1.00800           0
     14322 MEMB     115      PMPG     O31      OSL     -0.490000       15.9994           0
     14323 MEMB     115      PMPG     C31      CL       0.900000       12.0110           0
     14324 MEMB     115      PMPG     O32      OBL     -0.630000       15.9994           0
     14325 MEMB     115      PMPG     C32      CTL2    -0.220000       12.0110           0
     14326 MEMB     115      PMPG     H2X      HAL2     0.900000E-01   1.00800           0
     14327 MEMB     115      PMPG     H2Y      HAL2     0.900000E-01   1.00800           0
     14328 MEMB     115      PMPG     C23      CTL2    -0.180000       12.0110           0
     14329 MEMB     115      PMPG     H3R      HAL2     0.900000E-01   1.00800           0
     14330 MEMB     115      PMPG     H3S      HAL2     0.900000E-01   1.00800           0
     14331 MEMB     115      PMPG     C24      CTL2    -0.180000       12.0110           0
     14332 MEMB     115      PMPG     H4R      HAL2     0.900000E-01   1.00800           0
     14333 MEMB     115      PMPG     H4S      HAL2     0.900000E-01   1.00800           0
     14334 MEMB     115      PMPG     C25      CTL2    -0.180000       12.0110           0
     14335 MEMB     115      PMPG     H5R      HAL2     0.900000E-01   1.00800           0
     14336 MEMB     115      PMPG     H5S      HAL2     0.900000E-01   1.00800           0
     14337 MEMB     115      PMPG     C26      CTL2    -0.180000       12.0110           0
     14338 MEMB     115      PMPG     H6R      HAL2     0.900000E-01   1.00800           0
     14339 MEMB     115      PMPG     H6S      HAL2     0.900000E-01   1.00800           0
     14340 MEMB     115      PMPG     C27      CTL2    -0.180000       12.0110           0
     14341 MEMB     115      PMPG     H7R      HAL2     0.900000E-01   1.00800           0
     14342 MEMB     115      PMPG     H7S      HAL2     0.900000E-01   1.00800           0
     14343 MEMB     115      PMPG     C28      CTL2    -0.180000       12.0110           0
     14344 MEMB     115      PMPG     H8R      HAL2     0.900000E-01   1.00800           0
     14345 MEMB     115      PMPG     H8S      HAL2     0.900000E-01   1.00800           0
     14346 MEMB     115      PMPG     C29      CG3RC1  -0.900000E-01   12.0110           0
     14347 MEMB     115      PMPG     H9R      HGA1     0.900000E-01   1.00800           0
     14348 MEMB     115      PMPG     C217     CG3C31  -0.180000       12.0110           0
     14349 MEMB     115      PMPG     H17R     HGA2     0.900000E-01   1.00800           0
     14350 MEMB     115      PMPG     H17S     HGA2     0.900000E-01   1.00800           0
     14351 MEMB     115      PMPG     C210     CG3RC1  -0.900000E-01   12.0110           0
     14352 MEMB     115      PMPG     H10R     HGA1     0.900000E-01   1.00800           0
     14353 MEMB     115      PMPG     C211     CTL2    -0.180000       12.0110           0
     14354 MEMB     115      PMPG     H11R     HAL2     0.900000E-01   1.00800           0
     14355 MEMB     115      PMPG     H11S     HAL2     0.900000E-01   1.00800           0
     14356 MEMB     115      PMPG     C212     CTL2    -0.180000       12.0110           0
     14357 MEMB     115      PMPG     H12R     HAL2     0.900000E-01   1.00800           0
     14358 MEMB     115      PMPG     H12S     HAL2     0.900000E-01   1.00800           0
     14359 MEMB     115      PMPG     C213     CTL2    -0.180000       12.0110           0
     14360 MEMB     115      PMPG     H13R     HAL2     0.900000E-01   1.00800           0
     14361 MEMB     115      PMPG     H13S     HAL2     0.900000E-01   1.00800           0
     14362 MEMB     115      PMPG     C214     CTL2    -0.180000       12.0110           0
     14363 MEMB     115      PMPG     H14R     HAL2     0.900000E-01   1.00800           0
     14364 MEMB     115      PMPG     H14S     HAL2     0.900000E-01   1.00800           0
     14365 MEMB     115      PMPG     C215     CTL2    -0.180000       12.0110           0
     14366 MEMB     115      PMPG     H15R     HAL2     0.900000E-01   1.00800           0
     14367 MEMB     115      PMPG     H15S     HAL2     0.900000E-01   1.00800           0
     14368 MEMB     115      PMPG     C216     CTL3    -0.270000       12.0110           0
     14369 MEMB     115      PMPG     H16R     HAL3     0.900000E-01   1.00800           0
     14370 MEMB     115      PMPG     H16S     HAL3     0.900000E-01   1.00800           0
     14371 MEMB     115      PMPG     H16T     HAL3     0.900000E-01   1.00800           0
     14372 MEMB     115      PMPG     C33      CTL2    -0.180000       12.0110           0
     14373 MEMB     115      PMPG     H3X      HAL2     0.900000E-01   1.00800           0
     14374 MEMB     115      PMPG     H3Y      HAL2     0.900000E-01   1.00800           0
     14375 MEMB     115      PMPG     C34      CTL2    -0.180000       12.0110           0
     14376 MEMB     115      PMPG     H4X      HAL2     0.900000E-01   1.00800           0
     14377 MEMB     115      PMPG     H4Y      HAL2     0.900000E-01   1.00800           0
     14378 MEMB     115      PMPG     C35      CTL2    -0.180000       12.0110           0
     14379 MEMB     115      PMPG     H5X      HAL2     0.900000E-01   1.00800           0
     14380 MEMB     115      PMPG     H5Y      HAL2     0.900000E-01   1.00800           0
     14381 MEMB     115      PMPG     C36      CTL2    -0.180000       12.0110           0
     14382 MEMB     115      PMPG     H6X      HAL2     0.900000E-01   1.00800           0
     14383 MEMB     115      PMPG     H6Y      HAL2     0.900000E-01   1.00800           0
     14384 MEMB     115      PMPG     C37      CTL2    -0.180000       12.0110           0
     14385 MEMB     115      PMPG     H7X      HAL2     0.900000E-01   1.00800           0
     14386 MEMB     115      PMPG     H7Y      HAL2     0.900000E-01   1.00800           0
     14387 MEMB     115      PMPG     C38      CTL2    -0.180000       12.0110           0
     14388 MEMB     115      PMPG     H8X      HAL2     0.900000E-01   1.00800           0
     14389 MEMB     115      PMPG     H8Y      HAL2     0.900000E-01   1.00800           0
     14390 MEMB     115      PMPG     C39      CTL2    -0.180000       12.0110           0
     14391 MEMB     115      PMPG     H9X      HAL2     0.900000E-01   1.00800           0
     14392 MEMB     115      PMPG     H9Y      HAL2     0.900000E-01   1.00800           0
     14393 MEMB     115      PMPG     C310     CTL2    -0.180000       12.0110           0
     14394 MEMB     115      PMPG     H10X     HAL2     0.900000E-01   1.00800           0
     14395 MEMB     115      PMPG     H10Y     HAL2     0.900000E-01   1.00800           0
     14396 MEMB     115      PMPG     C311     CTL2    -0.180000       12.0110           0
     14397 MEMB     115      PMPG     H11X     HAL2     0.900000E-01   1.00800           0
     14398 MEMB     115      PMPG     H11Y     HAL2     0.900000E-01   1.00800           0
     14399 MEMB     115      PMPG     C312     CTL2    -0.180000       12.0110           0
     14400 MEMB     115      PMPG     H12X     HAL2     0.900000E-01   1.00800           0
     14401 MEMB     115      PMPG     H12Y     HAL2     0.900000E-01   1.00800           0
     14402 MEMB     115      PMPG     C313     CTL2    -0.180000       12.0110           0
     14403 MEMB     115      PMPG     H13X     HAL2     0.900000E-01   1.00800           0
     14404 MEMB     115      PMPG     H13Y     HAL2     0.900000E-01   1.00800           0
     14405 MEMB     115      PMPG     C314     CTL2    -0.180000       12.0110           0
     14406 MEMB     115      PMPG     H14X     HAL2     0.900000E-01   1.00800           0
     14407 MEMB     115      PMPG     H14Y     HAL2     0.900000E-01   1.00800           0
     14408 MEMB     115      PMPG     C315     CTL2    -0.180000       12.0110           0
     14409 MEMB     115      PMPG     H15X     HAL2     0.900000E-01   1.00800           0
     14410 MEMB     115      PMPG     H15Y     HAL2     0.900000E-01   1.00800           0
     14411 MEMB     115      PMPG     C316     CTL3    -0.270000       12.0110           0
     14412 MEMB     115      PMPG     H16X     HAL3     0.900000E-01   1.00800           0
     14413 MEMB     115      PMPG     H16Y     HAL3     0.900000E-01   1.00800           0
     14414 MEMB     115      PMPG     H16Z     HAL3     0.900000E-01   1.00800           0
     14415 MEMB     116      PVCL2    C3       CTL2    -0.800000E-01   12.0110           0
     14416 MEMB     116      PVCL2    HG31     HAL2     0.900000E-01   1.00800           0
     14417 MEMB     116      PVCL2    HG32     HAL2     0.900000E-01   1.00800           0
     14418 MEMB     116      PVCL2    P3       PL        1.50000       30.9740           0
     14419 MEMB     116      PVCL2    OP33     O2L     -0.780000       15.9994           0
     14420 MEMB     116      PVCL2    OP34     O2L     -0.780000       15.9994           0
     14421 MEMB     116      PVCL2    OP31     OSLP    -0.570000       15.9994           0
     14422 MEMB     116      PVCL2    OP32     OSLP    -0.570000       15.9994           0
     14423 MEMB     116      PVCL2    C31      CTL2    -0.800000E-01   12.0110           0
     14424 MEMB     116      PVCL2    H31J     HAL2     0.900000E-01   1.00800           0
     14425 MEMB     116      PVCL2    H31K     HAL2     0.900000E-01   1.00800           0
     14426 MEMB     116      PVCL2    C2       CTL1     0.140000       12.0110           0
     14427 MEMB     116      PVCL2    HG22     HAL1     0.900000E-01   1.00800           0
     14428 MEMB     116      PVCL2    OG12     OHL     -0.650000       15.9994           0
     14429 MEMB     116      PVCL2    HO12     HOL      0.420000       1.00800           0
     14430 MEMB     116      PVCL2    C1       CTL2    -0.800000E-01   12.0110           0
     14431 MEMB     116      PVCL2    HG11     HAL2     0.900000E-01   1.00800           0
     14432 MEMB     116      PVCL2    HG12     HAL2     0.900000E-01   1.00800           0
     14433 MEMB     116      PVCL2    P1       PL        1.50000       30.9740           0
     14434 MEMB     116      PVCL2    OP13     O2L     -0.780000       15.9994           0
     14435 MEMB     116      PVCL2    OP14     O2L     -0.780000       15.9994           0
     14436 MEMB     116      PVCL2    OP11     OSLP    -0.570000       15.9994           0
     14437 MEMB     116      PVCL2    OP12     OSLP    -0.570000       15.9994           0
     14438 MEMB     116      PVCL2    C11      CTL2    -0.800000E-01   12.0110           0
     14439 MEMB     116      PVCL2    H11J     HAL2     0.900000E-01   1.00800           0
     14440 MEMB     116      PVCL2    H11K     HAL2     0.900000E-01   1.00800           0
     14441 MEMB     116      PVCL2    C12      CTL1     0.170000       12.0110           0
     14442 MEMB     116      PVCL2    H12J     HAL1     0.900000E-01   1.00800           0
     14443 MEMB     116      PVCL2    O12      OSL     -0.490000       15.9994           0
     14444 MEMB     116      PVCL2    CA1      CL       0.900000       12.0110           0
     14445 MEMB     116      PVCL2    OA1      OBL     -0.630000       15.9994           0
     14446 MEMB     116      PVCL2    CA2      CTL2    -0.220000       12.0110           0
     14447 MEMB     116      PVCL2    H2A      HAL2     0.900000E-01   1.00800           0
     14448 MEMB     116      PVCL2    H2B      HAL2     0.900000E-01   1.00800           0
     14449 MEMB     116      PVCL2    C13      CTL2     0.800000E-01   12.0110           0
     14450 MEMB     116      PVCL2    H13J     HAL2     0.900000E-01   1.00800           0
     14451 MEMB     116      PVCL2    H13K     HAL2     0.900000E-01   1.00800           0
     14452 MEMB     116      PVCL2    O13      OSL     -0.490000       15.9994           0
     14453 MEMB     116      PVCL2    CB1      CL       0.900000       12.0110           0
     14454 MEMB     116      PVCL2    OB1      OBL     -0.630000       15.9994           0
     14455 MEMB     116      PVCL2    CB2      CTL2    -0.220000       12.0110           0
     14456 MEMB     116      PVCL2    H2D      HAL2     0.900000E-01   1.00800           0
     14457 MEMB     116      PVCL2    H2E      HAL2     0.900000E-01   1.00800           0
     14458 MEMB     116      PVCL2    C32      CTL1     0.170000       12.0110           0
     14459 MEMB     116      PVCL2    H32J     HAL1     0.900000E-01   1.00800           0
     14460 MEMB     116      PVCL2    O32      OSL     -0.490000       15.9994           0
     14461 MEMB     116      PVCL2    CC1      CL       0.900000       12.0110           0
     14462 MEMB     116      PVCL2    OC1      OBL     -0.630000       15.9994           0
     14463 MEMB     116      PVCL2    CC2      CTL2    -0.220000       12.0110           0
     14464 MEMB     116      PVCL2    H2R      HAL2     0.900000E-01   1.00800           0
     14465 MEMB     116      PVCL2    H2S      HAL2     0.900000E-01   1.00800           0
     14466 MEMB     116      PVCL2    C33      CTL2     0.800000E-01   12.0110           0
     14467 MEMB     116      PVCL2    H33J     HAL2     0.900000E-01   1.00800           0
     14468 MEMB     116      PVCL2    H33K     HAL2     0.900000E-01   1.00800           0
     14469 MEMB     116      PVCL2    O33      OSL     -0.490000       15.9994           0
     14470 MEMB     116      PVCL2    CD1      CL       0.900000       12.0110           0
     14471 MEMB     116      PVCL2    OD1      OBL     -0.630000       15.9994           0
     14472 MEMB     116      PVCL2    CD2      CTL2    -0.220000       12.0110           0
     14473 MEMB     116      PVCL2    H2X      HAL2     0.900000E-01   1.00800           0
     14474 MEMB     116      PVCL2    H2Y      HAL2     0.900000E-01   1.00800           0
     14475 MEMB     116      PVCL2    CA3      CTL2    -0.180000       12.0110           0
     14476 MEMB     116      PVCL2    H3A      HAL2     0.900000E-01   1.00800           0
     14477 MEMB     116      PVCL2    H3B      HAL2     0.900000E-01   1.00800           0
     14478 MEMB     116      PVCL2    CA4      CTL2    -0.180000       12.0110           0
     14479 MEMB     116      PVCL2    H4A      HAL2     0.900000E-01   1.00800           0
     14480 MEMB     116      PVCL2    H4B      HAL2     0.900000E-01   1.00800           0
     14481 MEMB     116      PVCL2    CA5      CTL2    -0.180000       12.0110           0
     14482 MEMB     116      PVCL2    H5A      HAL2     0.900000E-01   1.00800           0
     14483 MEMB     116      PVCL2    H5B      HAL2     0.900000E-01   1.00800           0
     14484 MEMB     116      PVCL2    CA6      CTL2    -0.180000       12.0110           0
     14485 MEMB     116      PVCL2    H6A      HAL2     0.900000E-01   1.00800           0
     14486 MEMB     116      PVCL2    H6B      HAL2     0.900000E-01   1.00800           0
     14487 MEMB     116      PVCL2    CA7      CTL2    -0.180000       12.0110           0
     14488 MEMB     116      PVCL2    H7A      HAL2     0.900000E-01   1.00800           0
     14489 MEMB     116      PVCL2    H7B      HAL2     0.900000E-01   1.00800           0
     14490 MEMB     116      PVCL2    CA8      CTL2    -0.180000       12.0110           0
     14491 MEMB     116      PVCL2    H8A      HAL2     0.900000E-01   1.00800           0
     14492 MEMB     116      PVCL2    H8B      HAL2     0.900000E-01   1.00800           0
     14493 MEMB     116      PVCL2    CA9      CTL2    -0.180000       12.0110           0
     14494 MEMB     116      PVCL2    H9A      HAL2     0.900000E-01   1.00800           0
     14495 MEMB     116      PVCL2    H9B      HAL2     0.900000E-01   1.00800           0
     14496 MEMB     116      PVCL2    CA10     CTL2    -0.180000       12.0110           0
     14497 MEMB     116      PVCL2    H10A     HAL2     0.900000E-01   1.00800           0
     14498 MEMB     116      PVCL2    H10B     HAL2     0.900000E-01   1.00800           0
     14499 MEMB     116      PVCL2    CA11     CEL1    -0.150000       12.0110           0
     14500 MEMB     116      PVCL2    H11A     HEL1     0.150000       1.00800           0
     14501 MEMB     116      PVCL2    CA12     CEL1    -0.150000       12.0110           0
     14502 MEMB     116      PVCL2    H12A     HEL1     0.150000       1.00800           0
     14503 MEMB     116      PVCL2    CA13     CTL2    -0.180000       12.0110           0
     14504 MEMB     116      PVCL2    H13A     HAL2     0.900000E-01   1.00800           0
     14505 MEMB     116      PVCL2    H13B     HAL2     0.900000E-01   1.00800           0
     14506 MEMB     116      PVCL2    CA14     CTL2    -0.180000       12.0110           0
     14507 MEMB     116      PVCL2    H14A     HAL2     0.900000E-01   1.00800           0
     14508 MEMB     116      PVCL2    H14B     HAL2     0.900000E-01   1.00800           0
     14509 MEMB     116      PVCL2    CA15     CTL2    -0.180000       12.0110           0
     14510 MEMB     116      PVCL2    H15A     HAL2     0.900000E-01   1.00800           0
     14511 MEMB     116      PVCL2    H15B     HAL2     0.900000E-01   1.00800           0
     14512 MEMB     116      PVCL2    CA16     CTL2    -0.180000       12.0110           0
     14513 MEMB     116      PVCL2    H16A     HAL2     0.900000E-01   1.00800           0
     14514 MEMB     116      PVCL2    H16B     HAL2     0.900000E-01   1.00800           0
     14515 MEMB     116      PVCL2    CA17     CTL2    -0.180000       12.0110           0
     14516 MEMB     116      PVCL2    H17A     HAL2     0.900000E-01   1.00800           0
     14517 MEMB     116      PVCL2    H17B     HAL2     0.900000E-01   1.00800           0
     14518 MEMB     116      PVCL2    CA18     CTL3    -0.270000       12.0110           0
     14519 MEMB     116      PVCL2    H18A     HAL3     0.900000E-01   1.00800           0
     14520 MEMB     116      PVCL2    H18B     HAL3     0.900000E-01   1.00800           0
     14521 MEMB     116      PVCL2    H18C     HAL3     0.900000E-01   1.00800           0
     14522 MEMB     116      PVCL2    CB3      CTL2    -0.180000       12.0110           0
     14523 MEMB     116      PVCL2    H3D      HAL2     0.900000E-01   1.00800           0
     14524 MEMB     116      PVCL2    H3E      HAL2     0.900000E-01   1.00800           0
     14525 MEMB     116      PVCL2    CB4      CTL2    -0.180000       12.0110           0
     14526 MEMB     116      PVCL2    H4D      HAL2     0.900000E-01   1.00800           0
     14527 MEMB     116      PVCL2    H4E      HAL2     0.900000E-01   1.00800           0
     14528 MEMB     116      PVCL2    CB5      CTL2    -0.180000       12.0110           0
     14529 MEMB     116      PVCL2    H5D      HAL2     0.900000E-01   1.00800           0
     14530 MEMB     116      PVCL2    H5E      HAL2     0.900000E-01   1.00800           0
     14531 MEMB     116      PVCL2    CB6      CTL2    -0.180000       12.0110           0
     14532 MEMB     116      PVCL2    H6D      HAL2     0.900000E-01   1.00800           0
     14533 MEMB     116      PVCL2    H6E      HAL2     0.900000E-01   1.00800           0
     14534 MEMB     116      PVCL2    CB7      CTL2    -0.180000       12.0110           0
     14535 MEMB     116      PVCL2    H7D      HAL2     0.900000E-01   1.00800           0
     14536 MEMB     116      PVCL2    H7E      HAL2     0.900000E-01   1.00800           0
     14537 MEMB     116      PVCL2    CB8      CTL2    -0.180000       12.0110           0
     14538 MEMB     116      PVCL2    H8D      HAL2     0.900000E-01   1.00800           0
     14539 MEMB     116      PVCL2    H8E      HAL2     0.900000E-01   1.00800           0
     14540 MEMB     116      PVCL2    CB9      CTL2    -0.180000       12.0110           0
     14541 MEMB     116      PVCL2    H9D      HAL2     0.900000E-01   1.00800           0
     14542 MEMB     116      PVCL2    H9E      HAL2     0.900000E-01   1.00800           0
     14543 MEMB     116      PVCL2    CB10     CTL2    -0.180000       12.0110           0
     14544 MEMB     116      PVCL2    H10D     HAL2     0.900000E-01   1.00800           0
     14545 MEMB     116      PVCL2    H10E     HAL2     0.900000E-01   1.00800           0
     14546 MEMB     116      PVCL2    CB11     CTL2    -0.180000       12.0110           0
     14547 MEMB     116      PVCL2    H11D     HAL2     0.900000E-01   1.00800           0
     14548 MEMB     116      PVCL2    H11E     HAL2     0.900000E-01   1.00800           0
     14549 MEMB     116      PVCL2    CB12     CTL2    -0.180000       12.0110           0
     14550 MEMB     116      PVCL2    H12D     HAL2     0.900000E-01   1.00800           0
     14551 MEMB     116      PVCL2    H12E     HAL2     0.900000E-01   1.00800           0
     14552 MEMB     116      PVCL2    CB13     CTL2    -0.180000       12.0110           0
     14553 MEMB     116      PVCL2    H13D     HAL2     0.900000E-01   1.00800           0
     14554 MEMB     116      PVCL2    H13E     HAL2     0.900000E-01   1.00800           0
     14555 MEMB     116      PVCL2    CB14     CTL2    -0.180000       12.0110           0
     14556 MEMB     116      PVCL2    H14D     HAL2     0.900000E-01   1.00800           0
     14557 MEMB     116      PVCL2    H14E     HAL2     0.900000E-01   1.00800           0
     14558 MEMB     116      PVCL2    CB15     CTL2    -0.180000       12.0110           0
     14559 MEMB     116      PVCL2    H15D     HAL2     0.900000E-01   1.00800           0
     14560 MEMB     116      PVCL2    H15E     HAL2     0.900000E-01   1.00800           0
     14561 MEMB     116      PVCL2    CB16     CTL3    -0.270000       12.0110           0
     14562 MEMB     116      PVCL2    H16D     HAL3     0.900000E-01   1.00800           0
     14563 MEMB     116      PVCL2    H16E     HAL3     0.900000E-01   1.00800           0
     14564 MEMB     116      PVCL2    H16F     HAL3     0.900000E-01   1.00800           0
     14565 MEMB     116      PVCL2    CC3      CTL2    -0.180000       12.0110           0
     14566 MEMB     116      PVCL2    H3R      HAL2     0.900000E-01   1.00800           0
     14567 MEMB     116      PVCL2    H3S      HAL2     0.900000E-01   1.00800           0
     14568 MEMB     116      PVCL2    CC4      CTL2    -0.180000       12.0110           0
     14569 MEMB     116      PVCL2    H4R      HAL2     0.900000E-01   1.00800           0
     14570 MEMB     116      PVCL2    H4S      HAL2     0.900000E-01   1.00800           0
     14571 MEMB     116      PVCL2    CC5      CTL2    -0.180000       12.0110           0
     14572 MEMB     116      PVCL2    H5R      HAL2     0.900000E-01   1.00800           0
     14573 MEMB     116      PVCL2    H5S      HAL2     0.900000E-01   1.00800           0
     14574 MEMB     116      PVCL2    CC6      CTL2    -0.180000       12.0110           0
     14575 MEMB     116      PVCL2    H6R      HAL2     0.900000E-01   1.00800           0
     14576 MEMB     116      PVCL2    H6S      HAL2     0.900000E-01   1.00800           0
     14577 MEMB     116      PVCL2    CC7      CTL2    -0.180000       12.0110           0
     14578 MEMB     116      PVCL2    H7R      HAL2     0.900000E-01   1.00800           0
     14579 MEMB     116      PVCL2    H7S      HAL2     0.900000E-01   1.00800           0
     14580 MEMB     116      PVCL2    CC8      CTL2    -0.180000       12.0110           0
     14581 MEMB     116      PVCL2    H8R      HAL2     0.900000E-01   1.00800           0
     14582 MEMB     116      PVCL2    H8S      HAL2     0.900000E-01   1.00800           0
     14583 MEMB     116      PVCL2    CC9      CTL2    -0.180000       12.0110           0
     14584 MEMB     116      PVCL2    H9R      HAL2     0.900000E-01   1.00800           0
     14585 MEMB     116      PVCL2    H9S      HAL2     0.900000E-01   1.00800           0
     14586 MEMB     116      PVCL2    CC10     CTL2    -0.180000       12.0110           0
     14587 MEMB     116      PVCL2    H10R     HAL2     0.900000E-01   1.00800           0
     14588 MEMB     116      PVCL2    H10S     HAL2     0.900000E-01   1.00800           0
     14589 MEMB     116      PVCL2    CC11     CEL1    -0.150000       12.0110           0
     14590 MEMB     116      PVCL2    H11R     HEL1     0.150000       1.00800           0
     14591 MEMB     116      PVCL2    CC12     CEL1    -0.150000       12.0110           0
     14592 MEMB     116      PVCL2    H12R     HEL1     0.150000       1.00800           0
     14593 MEMB     116      PVCL2    CC13     CTL2    -0.180000       12.0110           0
     14594 MEMB     116      PVCL2    H13R     HAL2     0.900000E-01   1.00800           0
     14595 MEMB     116      PVCL2    H13S     HAL2     0.900000E-01   1.00800           0
     14596 MEMB     116      PVCL2    CC14     CTL2    -0.180000       12.0110           0
     14597 MEMB     116      PVCL2    H14R     HAL2     0.900000E-01   1.00800           0
     14598 MEMB     116      PVCL2    H14S     HAL2     0.900000E-01   1.00800           0
     14599 MEMB     116      PVCL2    CC15     CTL2    -0.180000       12.0110           0
     14600 MEMB     116      PVCL2    H15R     HAL2     0.900000E-01   1.00800           0
     14601 MEMB     116      PVCL2    H15S     HAL2     0.900000E-01   1.00800           0
     14602 MEMB     116      PVCL2    CC16     CTL2    -0.180000       12.0110           0
     14603 MEMB     116      PVCL2    H16R     HAL2     0.900000E-01   1.00800           0
     14604 MEMB     116      PVCL2    H16S     HAL2     0.900000E-01   1.00800           0
     14605 MEMB     116      PVCL2    CC17     CTL2    -0.180000       12.0110           0
     14606 MEMB     116      PVCL2    H17R     HAL2     0.900000E-01   1.00800           0
     14607 MEMB     116      PVCL2    H17S     HAL2     0.900000E-01   1.00800           0
     14608 MEMB     116      PVCL2    CC18     CTL3    -0.270000       12.0110           0
     14609 MEMB     116      PVCL2    H18R     HAL3     0.900000E-01   1.00800           0
     14610 MEMB     116      PVCL2    H18S     HAL3     0.900000E-01   1.00800           0
     14611 MEMB     116      PVCL2    H18T     HAL3     0.900000E-01   1.00800           0
     14612 MEMB     116      PVCL2    CD3      CTL2    -0.180000       12.0110           0
     14613 MEMB     116      PVCL2    H3X      HAL2     0.900000E-01   1.00800           0
     14614 MEMB     116      PVCL2    H3Y      HAL2     0.900000E-01   1.00800           0
     14615 MEMB     116      PVCL2    CD4      CTL2    -0.180000       12.0110           0
     14616 MEMB     116      PVCL2    H4X      HAL2     0.900000E-01   1.00800           0
     14617 MEMB     116      PVCL2    H4Y      HAL2     0.900000E-01   1.00800           0
     14618 MEMB     116      PVCL2    CD5      CTL2    -0.180000       12.0110           0
     14619 MEMB     116      PVCL2    H5X      HAL2     0.900000E-01   1.00800           0
     14620 MEMB     116      PVCL2    H5Y      HAL2     0.900000E-01   1.00800           0
     14621 MEMB     116      PVCL2    CD6      CTL2    -0.180000       12.0110           0
     14622 MEMB     116      PVCL2    H6X      HAL2     0.900000E-01   1.00800           0
     14623 MEMB     116      PVCL2    H6Y      HAL2     0.900000E-01   1.00800           0
     14624 MEMB     116      PVCL2    CD7      CTL2    -0.180000       12.0110           0
     14625 MEMB     116      PVCL2    H7X      HAL2     0.900000E-01   1.00800           0
     14626 MEMB     116      PVCL2    H7Y      HAL2     0.900000E-01   1.00800           0
     14627 MEMB     116      PVCL2    CD8      CTL2    -0.180000       12.0110           0
     14628 MEMB     116      PVCL2    H8X      HAL2     0.900000E-01   1.00800           0
     14629 MEMB     116      PVCL2    H8Y      HAL2     0.900000E-01   1.00800           0
     14630 MEMB     116      PVCL2    CD9      CTL2    -0.180000       12.0110           0
     14631 MEMB     116      PVCL2    H9X      HAL2     0.900000E-01   1.00800           0
     14632 MEMB     116      PVCL2    H9Y      HAL2     0.900000E-01   1.00800           0
     14633 MEMB     116      PVCL2    CD10     CTL2    -0.180000       12.0110           0
     14634 MEMB     116      PVCL2    H10X     HAL2     0.900000E-01   1.00800           0
     14635 MEMB     116      PVCL2    H10Y     HAL2     0.900000E-01   1.00800           0
     14636 MEMB     116      PVCL2    CD11     CTL2    -0.180000       12.0110           0
     14637 MEMB     116      PVCL2    H11X     HAL2     0.900000E-01   1.00800           0
     14638 MEMB     116      PVCL2    H11Y     HAL2     0.900000E-01   1.00800           0
     14639 MEMB     116      PVCL2    CD12     CTL2    -0.180000       12.0110           0
     14640 MEMB     116      PVCL2    H12X     HAL2     0.900000E-01   1.00800           0
     14641 MEMB     116      PVCL2    H12Y     HAL2     0.900000E-01   1.00800           0
     14642 MEMB     116      PVCL2    CD13     CTL2    -0.180000       12.0110           0
     14643 MEMB     116      PVCL2    H13X     HAL2     0.900000E-01   1.00800           0
     14644 MEMB     116      PVCL2    H13Y     HAL2     0.900000E-01   1.00800           0
     14645 MEMB     116      PVCL2    CD14     CTL2    -0.180000       12.0110           0
     14646 MEMB     116      PVCL2    H14X     HAL2     0.900000E-01   1.00800           0
     14647 MEMB     116      PVCL2    H14Y     HAL2     0.900000E-01   1.00800           0
     14648 MEMB     116      PVCL2    CD15     CTL2    -0.180000       12.0110           0
     14649 MEMB     116      PVCL2    H15X     HAL2     0.900000E-01   1.00800           0
     14650 MEMB     116      PVCL2    H15Y     HAL2     0.900000E-01   1.00800           0
     14651 MEMB     116      PVCL2    CD16     CTL3    -0.270000       12.0110           0
     14652 MEMB     116      PVCL2    H16X     HAL3     0.900000E-01   1.00800           0
     14653 MEMB     116      PVCL2    H16Y     HAL3     0.900000E-01   1.00800           0
     14654 MEMB     116      PVCL2    H16Z     HAL3     0.900000E-01   1.00800           0
     14655 MEMB     117      PMPE     N        NH3L    -0.300000       14.0070           0
     14656 MEMB     117      PMPE     HN1      HCL      0.330000       1.00800           0
     14657 MEMB     117      PMPE     HN2      HCL      0.330000       1.00800           0
     14658 MEMB     117      PMPE     HN3      HCL      0.330000       1.00800           0
     14659 MEMB     117      PMPE     C12      CTL2     0.130000       12.0110           0
     14660 MEMB     117      PMPE     H12A     HAL2     0.900000E-01   1.00800           0
     14661 MEMB     117      PMPE     H12B     HAL2     0.900000E-01   1.00800           0
     14662 MEMB     117      PMPE     C11      CTL2    -0.800000E-01   12.0110           0
     14663 MEMB     117      PMPE     H11A     HAL2     0.900000E-01   1.00800           0
     14664 MEMB     117      PMPE     H11B     HAL2     0.900000E-01   1.00800           0
     14665 MEMB     117      PMPE     P        PL        1.50000       30.9740           0
     14666 MEMB     117      PMPE     O13      O2L     -0.780000       15.9994           0
     14667 MEMB     117      PMPE     O14      O2L     -0.780000       15.9994           0
     14668 MEMB     117      PMPE     O11      OSLP    -0.570000       15.9994           0
     14669 MEMB     117      PMPE     O12      OSLP    -0.570000       15.9994           0
     14670 MEMB     117      PMPE     C1       CTL2    -0.800000E-01   12.0110           0
     14671 MEMB     117      PMPE     HA       HAL2     0.900000E-01   1.00800           0
     14672 MEMB     117      PMPE     HB       HAL2     0.900000E-01   1.00800           0
     14673 MEMB     117      PMPE     C2       CTL1     0.170000       12.0110           0
     14674 MEMB     117      PMPE     HS       HAL1     0.900000E-01   1.00800           0
     14675 MEMB     117      PMPE     O21      OSL     -0.490000       15.9994           0
     14676 MEMB     117      PMPE     C21      CL       0.900000       12.0110           0
     14677 MEMB     117      PMPE     O22      OBL     -0.630000       15.9994           0
     14678 MEMB     117      PMPE     C22      CTL2    -0.220000       12.0110           0
     14679 MEMB     117      PMPE     H2R      HAL2     0.900000E-01   1.00800           0
     14680 MEMB     117      PMPE     H2S      HAL2     0.900000E-01   1.00800           0
     14681 MEMB     117      PMPE     C3       CTL2     0.800000E-01   12.0110           0
     14682 MEMB     117      PMPE     HX       HAL2     0.900000E-01   1.00800           0
     14683 MEMB     117      PMPE     HY       HAL2     0.900000E-01   1.00800           0
     14684 MEMB     117      PMPE     O31      OSL     -0.490000       15.9994           0
     14685 MEMB     117      PMPE     C31      CL       0.900000       12.0110           0
     14686 MEMB     117      PMPE     O32      OBL     -0.630000       15.9994           0
     14687 MEMB     117      PMPE     C32      CTL2    -0.220000       12.0110           0
     14688 MEMB     117      PMPE     H2X      HAL2     0.900000E-01   1.00800           0
     14689 MEMB     117      PMPE     H2Y      HAL2     0.900000E-01   1.00800           0
     14690 MEMB     117      PMPE     C23      CTL2    -0.180000       12.0110           0
     14691 MEMB     117      PMPE     H3R      HAL2     0.900000E-01   1.00800           0
     14692 MEMB     117      PMPE     H3S      HAL2     0.900000E-01   1.00800           0
     14693 MEMB     117      PMPE     C24      CTL2    -0.180000       12.0110           0
     14694 MEMB     117      PMPE     H4R      HAL2     0.900000E-01   1.00800           0
     14695 MEMB     117      PMPE     H4S      HAL2     0.900000E-01   1.00800           0
     14696 MEMB     117      PMPE     C25      CTL2    -0.180000       12.0110           0
     14697 MEMB     117      PMPE     H5R      HAL2     0.900000E-01   1.00800           0
     14698 MEMB     117      PMPE     H5S      HAL2     0.900000E-01   1.00800           0
     14699 MEMB     117      PMPE     C26      CTL2    -0.180000       12.0110           0
     14700 MEMB     117      PMPE     H6R      HAL2     0.900000E-01   1.00800           0
     14701 MEMB     117      PMPE     H6S      HAL2     0.900000E-01   1.00800           0
     14702 MEMB     117      PMPE     C27      CTL2    -0.180000       12.0110           0
     14703 MEMB     117      PMPE     H7R      HAL2     0.900000E-01   1.00800           0
     14704 MEMB     117      PMPE     H7S      HAL2     0.900000E-01   1.00800           0
     14705 MEMB     117      PMPE     C28      CTL2    -0.180000       12.0110           0
     14706 MEMB     117      PMPE     H8R      HAL2     0.900000E-01   1.00800           0
     14707 MEMB     117      PMPE     H8S      HAL2     0.900000E-01   1.00800           0
     14708 MEMB     117      PMPE     C29      CG3RC1  -0.900000E-01   12.0110           0
     14709 MEMB     117      PMPE     H9R      HGA1     0.900000E-01   1.00800           0
     14710 MEMB     117      PMPE     C217     CG3C31  -0.180000       12.0110           0
     14711 MEMB     117      PMPE     H17R     HGA2     0.900000E-01   1.00800           0
     14712 MEMB     117      PMPE     H17S     HGA2     0.900000E-01   1.00800           0
     14713 MEMB     117      PMPE     C210     CG3RC1  -0.900000E-01   12.0110           0
     14714 MEMB     117      PMPE     H10R     HGA1     0.900000E-01   1.00800           0
     14715 MEMB     117      PMPE     C211     CTL2    -0.180000       12.0110           0
     14716 MEMB     117      PMPE     H11R     HAL2     0.900000E-01   1.00800           0
     14717 MEMB     117      PMPE     H11S     HAL2     0.900000E-01   1.00800           0
     14718 MEMB     117      PMPE     C212     CTL2    -0.180000       12.0110           0
     14719 MEMB     117      PMPE     H12R     HAL2     0.900000E-01   1.00800           0
     14720 MEMB     117      PMPE     H12S     HAL2     0.900000E-01   1.00800           0
     14721 MEMB     117      PMPE     C213     CTL2    -0.180000       12.0110           0
     14722 MEMB     117      PMPE     H13R     HAL2     0.900000E-01   1.00800           0
     14723 MEMB     117      PMPE     H13S     HAL2     0.900000E-01   1.00800           0
     14724 MEMB     117      PMPE     C214     CTL2    -0.180000       12.0110           0
     14725 MEMB     117      PMPE     H14R     HAL2     0.900000E-01   1.00800           0
     14726 MEMB     117      PMPE     H14S     HAL2     0.900000E-01   1.00800           0
     14727 MEMB     117      PMPE     C215     CTL2    -0.180000       12.0110           0
     14728 MEMB     117      PMPE     H15R     HAL2     0.900000E-01   1.00800           0
     14729 MEMB     117      PMPE     H15S     HAL2     0.900000E-01   1.00800           0
     14730 MEMB     117      PMPE     C216     CTL3    -0.270000       12.0110           0
     14731 MEMB     117      PMPE     H16R     HAL3     0.900000E-01   1.00800           0
     14732 MEMB     117      PMPE     H16S     HAL3     0.900000E-01   1.00800           0
     14733 MEMB     117      PMPE     H16T     HAL3     0.900000E-01   1.00800           0
     14734 MEMB     117      PMPE     C33      CTL2    -0.180000       12.0110           0
     14735 MEMB     117      PMPE     H3X      HAL2     0.900000E-01   1.00800           0
     14736 MEMB     117      PMPE     H3Y      HAL2     0.900000E-01   1.00800           0
     14737 MEMB     117      PMPE     C34      CTL2    -0.180000       12.0110           0
     14738 MEMB     117      PMPE     H4X      HAL2     0.900000E-01   1.00800           0
     14739 MEMB     117      PMPE     H4Y      HAL2     0.900000E-01   1.00800           0
     14740 MEMB     117      PMPE     C35      CTL2    -0.180000       12.0110           0
     14741 MEMB     117      PMPE     H5X      HAL2     0.900000E-01   1.00800           0
     14742 MEMB     117      PMPE     H5Y      HAL2     0.900000E-01   1.00800           0
     14743 MEMB     117      PMPE     C36      CTL2    -0.180000       12.0110           0
     14744 MEMB     117      PMPE     H6X      HAL2     0.900000E-01   1.00800           0
     14745 MEMB     117      PMPE     H6Y      HAL2     0.900000E-01   1.00800           0
     14746 MEMB     117      PMPE     C37      CTL2    -0.180000       12.0110           0
     14747 MEMB     117      PMPE     H7X      HAL2     0.900000E-01   1.00800           0
     14748 MEMB     117      PMPE     H7Y      HAL2     0.900000E-01   1.00800           0
     14749 MEMB     117      PMPE     C38      CTL2    -0.180000       12.0110           0
     14750 MEMB     117      PMPE     H8X      HAL2     0.900000E-01   1.00800           0
     14751 MEMB     117      PMPE     H8Y      HAL2     0.900000E-01   1.00800           0
     14752 MEMB     117      PMPE     C39      CTL2    -0.180000       12.0110           0
     14753 MEMB     117      PMPE     H9X      HAL2     0.900000E-01   1.00800           0
     14754 MEMB     117      PMPE     H9Y      HAL2     0.900000E-01   1.00800           0
     14755 MEMB     117      PMPE     C310     CTL2    -0.180000       12.0110           0
     14756 MEMB     117      PMPE     H10X     HAL2     0.900000E-01   1.00800           0
     14757 MEMB     117      PMPE     H10Y     HAL2     0.900000E-01   1.00800           0
     14758 MEMB     117      PMPE     C311     CTL2    -0.180000       12.0110           0
     14759 MEMB     117      PMPE     H11X     HAL2     0.900000E-01   1.00800           0
     14760 MEMB     117      PMPE     H11Y     HAL2     0.900000E-01   1.00800           0
     14761 MEMB     117      PMPE     C312     CTL2    -0.180000       12.0110           0
     14762 MEMB     117      PMPE     H12X     HAL2     0.900000E-01   1.00800           0
     14763 MEMB     117      PMPE     H12Y     HAL2     0.900000E-01   1.00800           0
     14764 MEMB     117      PMPE     C313     CTL2    -0.180000       12.0110           0
     14765 MEMB     117      PMPE     H13X     HAL2     0.900000E-01   1.00800           0
     14766 MEMB     117      PMPE     H13Y     HAL2     0.900000E-01   1.00800           0
     14767 MEMB     117      PMPE     C314     CTL2    -0.180000       12.0110           0
     14768 MEMB     117      PMPE     H14X     HAL2     0.900000E-01   1.00800           0
     14769 MEMB     117      PMPE     H14Y     HAL2     0.900000E-01   1.00800           0
     14770 MEMB     117      PMPE     C315     CTL2    -0.180000       12.0110           0
     14771 MEMB     117      PMPE     H15X     HAL2     0.900000E-01   1.00800           0
     14772 MEMB     117      PMPE     H15Y     HAL2     0.900000E-01   1.00800           0
     14773 MEMB     117      PMPE     C316     CTL3    -0.270000       12.0110           0
     14774 MEMB     117      PMPE     H16X     HAL3     0.900000E-01   1.00800           0
     14775 MEMB     117      PMPE     H16Y     HAL3     0.900000E-01   1.00800           0
     14776 MEMB     117      PMPE     H16Z     HAL3     0.900000E-01   1.00800           0
     14777 MEMB     118      PMPE     N        NH3L    -0.300000       14.0070           0
     14778 MEMB     118      PMPE     HN1      HCL      0.330000       1.00800           0
     14779 MEMB     118      PMPE     HN2      HCL      0.330000       1.00800           0
     14780 MEMB     118      PMPE     HN3      HCL      0.330000       1.00800           0
     14781 MEMB     118      PMPE     C12      CTL2     0.130000       12.0110           0
     14782 MEMB     118      PMPE     H12A     HAL2     0.900000E-01   1.00800           0
     14783 MEMB     118      PMPE     H12B     HAL2     0.900000E-01   1.00800           0
     14784 MEMB     118      PMPE     C11      CTL2    -0.800000E-01   12.0110           0
     14785 MEMB     118      PMPE     H11A     HAL2     0.900000E-01   1.00800           0
     14786 MEMB     118      PMPE     H11B     HAL2     0.900000E-01   1.00800           0
     14787 MEMB     118      PMPE     P        PL        1.50000       30.9740           0
     14788 MEMB     118      PMPE     O13      O2L     -0.780000       15.9994           0
     14789 MEMB     118      PMPE     O14      O2L     -0.780000       15.9994           0
     14790 MEMB     118      PMPE     O11      OSLP    -0.570000       15.9994           0
     14791 MEMB     118      PMPE     O12      OSLP    -0.570000       15.9994           0
     14792 MEMB     118      PMPE     C1       CTL2    -0.800000E-01   12.0110           0
     14793 MEMB     118      PMPE     HA       HAL2     0.900000E-01   1.00800           0
     14794 MEMB     118      PMPE     HB       HAL2     0.900000E-01   1.00800           0
     14795 MEMB     118      PMPE     C2       CTL1     0.170000       12.0110           0
     14796 MEMB     118      PMPE     HS       HAL1     0.900000E-01   1.00800           0
     14797 MEMB     118      PMPE     O21      OSL     -0.490000       15.9994           0
     14798 MEMB     118      PMPE     C21      CL       0.900000       12.0110           0
     14799 MEMB     118      PMPE     O22      OBL     -0.630000       15.9994           0
     14800 MEMB     118      PMPE     C22      CTL2    -0.220000       12.0110           0
     14801 MEMB     118      PMPE     H2R      HAL2     0.900000E-01   1.00800           0
     14802 MEMB     118      PMPE     H2S      HAL2     0.900000E-01   1.00800           0
     14803 MEMB     118      PMPE     C3       CTL2     0.800000E-01   12.0110           0
     14804 MEMB     118      PMPE     HX       HAL2     0.900000E-01   1.00800           0
     14805 MEMB     118      PMPE     HY       HAL2     0.900000E-01   1.00800           0
     14806 MEMB     118      PMPE     O31      OSL     -0.490000       15.9994           0
     14807 MEMB     118      PMPE     C31      CL       0.900000       12.0110           0
     14808 MEMB     118      PMPE     O32      OBL     -0.630000       15.9994           0
     14809 MEMB     118      PMPE     C32      CTL2    -0.220000       12.0110           0
     14810 MEMB     118      PMPE     H2X      HAL2     0.900000E-01   1.00800           0
     14811 MEMB     118      PMPE     H2Y      HAL2     0.900000E-01   1.00800           0
     14812 MEMB     118      PMPE     C23      CTL2    -0.180000       12.0110           0
     14813 MEMB     118      PMPE     H3R      HAL2     0.900000E-01   1.00800           0
     14814 MEMB     118      PMPE     H3S      HAL2     0.900000E-01   1.00800           0
     14815 MEMB     118      PMPE     C24      CTL2    -0.180000       12.0110           0
     14816 MEMB     118      PMPE     H4R      HAL2     0.900000E-01   1.00800           0
     14817 MEMB     118      PMPE     H4S      HAL2     0.900000E-01   1.00800           0
     14818 MEMB     118      PMPE     C25      CTL2    -0.180000       12.0110           0
     14819 MEMB     118      PMPE     H5R      HAL2     0.900000E-01   1.00800           0
     14820 MEMB     118      PMPE     H5S      HAL2     0.900000E-01   1.00800           0
     14821 MEMB     118      PMPE     C26      CTL2    -0.180000       12.0110           0
     14822 MEMB     118      PMPE     H6R      HAL2     0.900000E-01   1.00800           0
     14823 MEMB     118      PMPE     H6S      HAL2     0.900000E-01   1.00800           0
     14824 MEMB     118      PMPE     C27      CTL2    -0.180000       12.0110           0
     14825 MEMB     118      PMPE     H7R      HAL2     0.900000E-01   1.00800           0
     14826 MEMB     118      PMPE     H7S      HAL2     0.900000E-01   1.00800           0
     14827 MEMB     118      PMPE     C28      CTL2    -0.180000       12.0110           0
     14828 MEMB     118      PMPE     H8R      HAL2     0.900000E-01   1.00800           0
     14829 MEMB     118      PMPE     H8S      HAL2     0.900000E-01   1.00800           0
     14830 MEMB     118      PMPE     C29      CG3RC1  -0.900000E-01   12.0110           0
     14831 MEMB     118      PMPE     H9R      HGA1     0.900000E-01   1.00800           0
     14832 MEMB     118      PMPE     C217     CG3C31  -0.180000       12.0110           0
     14833 MEMB     118      PMPE     H17R     HGA2     0.900000E-01   1.00800           0
     14834 MEMB     118      PMPE     H17S     HGA2     0.900000E-01   1.00800           0
     14835 MEMB     118      PMPE     C210     CG3RC1  -0.900000E-01   12.0110           0
     14836 MEMB     118      PMPE     H10R     HGA1     0.900000E-01   1.00800           0
     14837 MEMB     118      PMPE     C211     CTL2    -0.180000       12.0110           0
     14838 MEMB     118      PMPE     H11R     HAL2     0.900000E-01   1.00800           0
     14839 MEMB     118      PMPE     H11S     HAL2     0.900000E-01   1.00800           0
     14840 MEMB     118      PMPE     C212     CTL2    -0.180000       12.0110           0
     14841 MEMB     118      PMPE     H12R     HAL2     0.900000E-01   1.00800           0
     14842 MEMB     118      PMPE     H12S     HAL2     0.900000E-01   1.00800           0
     14843 MEMB     118      PMPE     C213     CTL2    -0.180000       12.0110           0
     14844 MEMB     118      PMPE     H13R     HAL2     0.900000E-01   1.00800           0
     14845 MEMB     118      PMPE     H13S     HAL2     0.900000E-01   1.00800           0
     14846 MEMB     118      PMPE     C214     CTL2    -0.180000       12.0110           0
     14847 MEMB     118      PMPE     H14R     HAL2     0.900000E-01   1.00800           0
     14848 MEMB     118      PMPE     H14S     HAL2     0.900000E-01   1.00800           0
     14849 MEMB     118      PMPE     C215     CTL2    -0.180000       12.0110           0
     14850 MEMB     118      PMPE     H15R     HAL2     0.900000E-01   1.00800           0
     14851 MEMB     118      PMPE     H15S     HAL2     0.900000E-01   1.00800           0
     14852 MEMB     118      PMPE     C216     CTL3    -0.270000       12.0110           0
     14853 MEMB     118      PMPE     H16R     HAL3     0.900000E-01   1.00800           0
     14854 MEMB     118      PMPE     H16S     HAL3     0.900000E-01   1.00800           0
     14855 MEMB     118      PMPE     H16T     HAL3     0.900000E-01   1.00800           0
     14856 MEMB     118      PMPE     C33      CTL2    -0.180000       12.0110           0
     14857 MEMB     118      PMPE     H3X      HAL2     0.900000E-01   1.00800           0
     14858 MEMB     118      PMPE     H3Y      HAL2     0.900000E-01   1.00800           0
     14859 MEMB     118      PMPE     C34      CTL2    -0.180000       12.0110           0
     14860 MEMB     118      PMPE     H4X      HAL2     0.900000E-01   1.00800           0
     14861 MEMB     118      PMPE     H4Y      HAL2     0.900000E-01   1.00800           0
     14862 MEMB     118      PMPE     C35      CTL2    -0.180000       12.0110           0
     14863 MEMB     118      PMPE     H5X      HAL2     0.900000E-01   1.00800           0
     14864 MEMB     118      PMPE     H5Y      HAL2     0.900000E-01   1.00800           0
     14865 MEMB     118      PMPE     C36      CTL2    -0.180000       12.0110           0
     14866 MEMB     118      PMPE     H6X      HAL2     0.900000E-01   1.00800           0
     14867 MEMB     118      PMPE     H6Y      HAL2     0.900000E-01   1.00800           0
     14868 MEMB     118      PMPE     C37      CTL2    -0.180000       12.0110           0
     14869 MEMB     118      PMPE     H7X      HAL2     0.900000E-01   1.00800           0
     14870 MEMB     118      PMPE     H7Y      HAL2     0.900000E-01   1.00800           0
     14871 MEMB     118      PMPE     C38      CTL2    -0.180000       12.0110           0
     14872 MEMB     118      PMPE     H8X      HAL2     0.900000E-01   1.00800           0
     14873 MEMB     118      PMPE     H8Y      HAL2     0.900000E-01   1.00800           0
     14874 MEMB     118      PMPE     C39      CTL2    -0.180000       12.0110           0
     14875 MEMB     118      PMPE     H9X      HAL2     0.900000E-01   1.00800           0
     14876 MEMB     118      PMPE     H9Y      HAL2     0.900000E-01   1.00800           0
     14877 MEMB     118      PMPE     C310     CTL2    -0.180000       12.0110           0
     14878 MEMB     118      PMPE     H10X     HAL2     0.900000E-01   1.00800           0
     14879 MEMB     118      PMPE     H10Y     HAL2     0.900000E-01   1.00800           0
     14880 MEMB     118      PMPE     C311     CTL2    -0.180000       12.0110           0
     14881 MEMB     118      PMPE     H11X     HAL2     0.900000E-01   1.00800           0
     14882 MEMB     118      PMPE     H11Y     HAL2     0.900000E-01   1.00800           0
     14883 MEMB     118      PMPE     C312     CTL2    -0.180000       12.0110           0
     14884 MEMB     118      PMPE     H12X     HAL2     0.900000E-01   1.00800           0
     14885 MEMB     118      PMPE     H12Y     HAL2     0.900000E-01   1.00800           0
     14886 MEMB     118      PMPE     C313     CTL2    -0.180000       12.0110           0
     14887 MEMB     118      PMPE     H13X     HAL2     0.900000E-01   1.00800           0
     14888 MEMB     118      PMPE     H13Y     HAL2     0.900000E-01   1.00800           0
     14889 MEMB     118      PMPE     C314     CTL2    -0.180000       12.0110           0
     14890 MEMB     118      PMPE     H14X     HAL2     0.900000E-01   1.00800           0
     14891 MEMB     118      PMPE     H14Y     HAL2     0.900000E-01   1.00800           0
     14892 MEMB     118      PMPE     C315     CTL2    -0.180000       12.0110           0
     14893 MEMB     118      PMPE     H15X     HAL2     0.900000E-01   1.00800           0
     14894 MEMB     118      PMPE     H15Y     HAL2     0.900000E-01   1.00800           0
     14895 MEMB     118      PMPE     C316     CTL3    -0.270000       12.0110           0
     14896 MEMB     118      PMPE     H16X     HAL3     0.900000E-01   1.00800           0
     14897 MEMB     118      PMPE     H16Y     HAL3     0.900000E-01   1.00800           0
     14898 MEMB     118      PMPE     H16Z     HAL3     0.900000E-01   1.00800           0
     14899 MEMB     119      PMPE     N        NH3L    -0.300000       14.0070           0
     14900 MEMB     119      PMPE     HN1      HCL      0.330000       1.00800           0
     14901 MEMB     119      PMPE     HN2      HCL      0.330000       1.00800           0
     14902 MEMB     119      PMPE     HN3      HCL      0.330000       1.00800           0
     14903 MEMB     119      PMPE     C12      CTL2     0.130000       12.0110           0
     14904 MEMB     119      PMPE     H12A     HAL2     0.900000E-01   1.00800           0
     14905 MEMB     119      PMPE     H12B     HAL2     0.900000E-01   1.00800           0
     14906 MEMB     119      PMPE     C11      CTL2    -0.800000E-01   12.0110           0
     14907 MEMB     119      PMPE     H11A     HAL2     0.900000E-01   1.00800           0
     14908 MEMB     119      PMPE     H11B     HAL2     0.900000E-01   1.00800           0
     14909 MEMB     119      PMPE     P        PL        1.50000       30.9740           0
     14910 MEMB     119      PMPE     O13      O2L     -0.780000       15.9994           0
     14911 MEMB     119      PMPE     O14      O2L     -0.780000       15.9994           0
     14912 MEMB     119      PMPE     O11      OSLP    -0.570000       15.9994           0
     14913 MEMB     119      PMPE     O12      OSLP    -0.570000       15.9994           0
     14914 MEMB     119      PMPE     C1       CTL2    -0.800000E-01   12.0110           0
     14915 MEMB     119      PMPE     HA       HAL2     0.900000E-01   1.00800           0
     14916 MEMB     119      PMPE     HB       HAL2     0.900000E-01   1.00800           0
     14917 MEMB     119      PMPE     C2       CTL1     0.170000       12.0110           0
     14918 MEMB     119      PMPE     HS       HAL1     0.900000E-01   1.00800           0
     14919 MEMB     119      PMPE     O21      OSL     -0.490000       15.9994           0
     14920 MEMB     119      PMPE     C21      CL       0.900000       12.0110           0
     14921 MEMB     119      PMPE     O22      OBL     -0.630000       15.9994           0
     14922 MEMB     119      PMPE     C22      CTL2    -0.220000       12.0110           0
     14923 MEMB     119      PMPE     H2R      HAL2     0.900000E-01   1.00800           0
     14924 MEMB     119      PMPE     H2S      HAL2     0.900000E-01   1.00800           0
     14925 MEMB     119      PMPE     C3       CTL2     0.800000E-01   12.0110           0
     14926 MEMB     119      PMPE     HX       HAL2     0.900000E-01   1.00800           0
     14927 MEMB     119      PMPE     HY       HAL2     0.900000E-01   1.00800           0
     14928 MEMB     119      PMPE     O31      OSL     -0.490000       15.9994           0
     14929 MEMB     119      PMPE     C31      CL       0.900000       12.0110           0
     14930 MEMB     119      PMPE     O32      OBL     -0.630000       15.9994           0
     14931 MEMB     119      PMPE     C32      CTL2    -0.220000       12.0110           0
     14932 MEMB     119      PMPE     H2X      HAL2     0.900000E-01   1.00800           0
     14933 MEMB     119      PMPE     H2Y      HAL2     0.900000E-01   1.00800           0
     14934 MEMB     119      PMPE     C23      CTL2    -0.180000       12.0110           0
     14935 MEMB     119      PMPE     H3R      HAL2     0.900000E-01   1.00800           0
     14936 MEMB     119      PMPE     H3S      HAL2     0.900000E-01   1.00800           0
     14937 MEMB     119      PMPE     C24      CTL2    -0.180000       12.0110           0
     14938 MEMB     119      PMPE     H4R      HAL2     0.900000E-01   1.00800           0
     14939 MEMB     119      PMPE     H4S      HAL2     0.900000E-01   1.00800           0
     14940 MEMB     119      PMPE     C25      CTL2    -0.180000       12.0110           0
     14941 MEMB     119      PMPE     H5R      HAL2     0.900000E-01   1.00800           0
     14942 MEMB     119      PMPE     H5S      HAL2     0.900000E-01   1.00800           0
     14943 MEMB     119      PMPE     C26      CTL2    -0.180000       12.0110           0
     14944 MEMB     119      PMPE     H6R      HAL2     0.900000E-01   1.00800           0
     14945 MEMB     119      PMPE     H6S      HAL2     0.900000E-01   1.00800           0
     14946 MEMB     119      PMPE     C27      CTL2    -0.180000       12.0110           0
     14947 MEMB     119      PMPE     H7R      HAL2     0.900000E-01   1.00800           0
     14948 MEMB     119      PMPE     H7S      HAL2     0.900000E-01   1.00800           0
     14949 MEMB     119      PMPE     C28      CTL2    -0.180000       12.0110           0
     14950 MEMB     119      PMPE     H8R      HAL2     0.900000E-01   1.00800           0
     14951 MEMB     119      PMPE     H8S      HAL2     0.900000E-01   1.00800           0
     14952 MEMB     119      PMPE     C29      CG3RC1  -0.900000E-01   12.0110           0
     14953 MEMB     119      PMPE     H9R      HGA1     0.900000E-01   1.00800           0
     14954 MEMB     119      PMPE     C217     CG3C31  -0.180000       12.0110           0
     14955 MEMB     119      PMPE     H17R     HGA2     0.900000E-01   1.00800           0
     14956 MEMB     119      PMPE     H17S     HGA2     0.900000E-01   1.00800           0
     14957 MEMB     119      PMPE     C210     CG3RC1  -0.900000E-01   12.0110           0
     14958 MEMB     119      PMPE     H10R     HGA1     0.900000E-01   1.00800           0
     14959 MEMB     119      PMPE     C211     CTL2    -0.180000       12.0110           0
     14960 MEMB     119      PMPE     H11R     HAL2     0.900000E-01   1.00800           0
     14961 MEMB     119      PMPE     H11S     HAL2     0.900000E-01   1.00800           0
     14962 MEMB     119      PMPE     C212     CTL2    -0.180000       12.0110           0
     14963 MEMB     119      PMPE     H12R     HAL2     0.900000E-01   1.00800           0
     14964 MEMB     119      PMPE     H12S     HAL2     0.900000E-01   1.00800           0
     14965 MEMB     119      PMPE     C213     CTL2    -0.180000       12.0110           0
     14966 MEMB     119      PMPE     H13R     HAL2     0.900000E-01   1.00800           0
     14967 MEMB     119      PMPE     H13S     HAL2     0.900000E-01   1.00800           0
     14968 MEMB     119      PMPE     C214     CTL2    -0.180000       12.0110           0
     14969 MEMB     119      PMPE     H14R     HAL2     0.900000E-01   1.00800           0
     14970 MEMB     119      PMPE     H14S     HAL2     0.900000E-01   1.00800           0
     14971 MEMB     119      PMPE     C215     CTL2    -0.180000       12.0110           0
     14972 MEMB     119      PMPE     H15R     HAL2     0.900000E-01   1.00800           0
     14973 MEMB     119      PMPE     H15S     HAL2     0.900000E-01   1.00800           0
     14974 MEMB     119      PMPE     C216     CTL3    -0.270000       12.0110           0
     14975 MEMB     119      PMPE     H16R     HAL3     0.900000E-01   1.00800           0
     14976 MEMB     119      PMPE     H16S     HAL3     0.900000E-01   1.00800           0
     14977 MEMB     119      PMPE     H16T     HAL3     0.900000E-01   1.00800           0
     14978 MEMB     119      PMPE     C33      CTL2    -0.180000       12.0110           0
     14979 MEMB     119      PMPE     H3X      HAL2     0.900000E-01   1.00800           0
     14980 MEMB     119      PMPE     H3Y      HAL2     0.900000E-01   1.00800           0
     14981 MEMB     119      PMPE     C34      CTL2    -0.180000       12.0110           0
     14982 MEMB     119      PMPE     H4X      HAL2     0.900000E-01   1.00800           0
     14983 MEMB     119      PMPE     H4Y      HAL2     0.900000E-01   1.00800           0
     14984 MEMB     119      PMPE     C35      CTL2    -0.180000       12.0110           0
     14985 MEMB     119      PMPE     H5X      HAL2     0.900000E-01   1.00800           0
     14986 MEMB     119      PMPE     H5Y      HAL2     0.900000E-01   1.00800           0
     14987 MEMB     119      PMPE     C36      CTL2    -0.180000       12.0110           0
     14988 MEMB     119      PMPE     H6X      HAL2     0.900000E-01   1.00800           0
     14989 MEMB     119      PMPE     H6Y      HAL2     0.900000E-01   1.00800           0
     14990 MEMB     119      PMPE     C37      CTL2    -0.180000       12.0110           0
     14991 MEMB     119      PMPE     H7X      HAL2     0.900000E-01   1.00800           0
     14992 MEMB     119      PMPE     H7Y      HAL2     0.900000E-01   1.00800           0
     14993 MEMB     119      PMPE     C38      CTL2    -0.180000       12.0110           0
     14994 MEMB     119      PMPE     H8X      HAL2     0.900000E-01   1.00800           0
     14995 MEMB     119      PMPE     H8Y      HAL2     0.900000E-01   1.00800           0
     14996 MEMB     119      PMPE     C39      CTL2    -0.180000       12.0110           0
     14997 MEMB     119      PMPE     H9X      HAL2     0.900000E-01   1.00800           0
     14998 MEMB     119      PMPE     H9Y      HAL2     0.900000E-01   1.00800           0
     14999 MEMB     119      PMPE     C310     CTL2    -0.180000       12.0110           0
     15000 MEMB     119      PMPE     H10X     HAL2     0.900000E-01   1.00800           0
     15001 MEMB     119      PMPE     H10Y     HAL2     0.900000E-01   1.00800           0
     15002 MEMB     119      PMPE     C311     CTL2    -0.180000       12.0110           0
     15003 MEMB     119      PMPE     H11X     HAL2     0.900000E-01   1.00800           0
     15004 MEMB     119      PMPE     H11Y     HAL2     0.900000E-01   1.00800           0
     15005 MEMB     119      PMPE     C312     CTL2    -0.180000       12.0110           0
     15006 MEMB     119      PMPE     H12X     HAL2     0.900000E-01   1.00800           0
     15007 MEMB     119      PMPE     H12Y     HAL2     0.900000E-01   1.00800           0
     15008 MEMB     119      PMPE     C313     CTL2    -0.180000       12.0110           0
     15009 MEMB     119      PMPE     H13X     HAL2     0.900000E-01   1.00800           0
     15010 MEMB     119      PMPE     H13Y     HAL2     0.900000E-01   1.00800           0
     15011 MEMB     119      PMPE     C314     CTL2    -0.180000       12.0110           0
     15012 MEMB     119      PMPE     H14X     HAL2     0.900000E-01   1.00800           0
     15013 MEMB     119      PMPE     H14Y     HAL2     0.900000E-01   1.00800           0
     15014 MEMB     119      PMPE     C315     CTL2    -0.180000       12.0110           0
     15015 MEMB     119      PMPE     H15X     HAL2     0.900000E-01   1.00800           0
     15016 MEMB     119      PMPE     H15Y     HAL2     0.900000E-01   1.00800           0
     15017 MEMB     119      PMPE     C316     CTL3    -0.270000       12.0110           0
     15018 MEMB     119      PMPE     H16X     HAL3     0.900000E-01   1.00800           0
     15019 MEMB     119      PMPE     H16Y     HAL3     0.900000E-01   1.00800           0
     15020 MEMB     119      PMPE     H16Z     HAL3     0.900000E-01   1.00800           0
     15021 MEMB     120      PMPE     N        NH3L    -0.300000       14.0070           0
     15022 MEMB     120      PMPE     HN1      HCL      0.330000       1.00800           0
     15023 MEMB     120      PMPE     HN2      HCL      0.330000       1.00800           0
     15024 MEMB     120      PMPE     HN3      HCL      0.330000       1.00800           0
     15025 MEMB     120      PMPE     C12      CTL2     0.130000       12.0110           0
     15026 MEMB     120      PMPE     H12A     HAL2     0.900000E-01   1.00800           0
     15027 MEMB     120      PMPE     H12B     HAL2     0.900000E-01   1.00800           0
     15028 MEMB     120      PMPE     C11      CTL2    -0.800000E-01   12.0110           0
     15029 MEMB     120      PMPE     H11A     HAL2     0.900000E-01   1.00800           0
     15030 MEMB     120      PMPE     H11B     HAL2     0.900000E-01   1.00800           0
     15031 MEMB     120      PMPE     P        PL        1.50000       30.9740           0
     15032 MEMB     120      PMPE     O13      O2L     -0.780000       15.9994           0
     15033 MEMB     120      PMPE     O14      O2L     -0.780000       15.9994           0
     15034 MEMB     120      PMPE     O11      OSLP    -0.570000       15.9994           0
     15035 MEMB     120      PMPE     O12      OSLP    -0.570000       15.9994           0
     15036 MEMB     120      PMPE     C1       CTL2    -0.800000E-01   12.0110           0
     15037 MEMB     120      PMPE     HA       HAL2     0.900000E-01   1.00800           0
     15038 MEMB     120      PMPE     HB       HAL2     0.900000E-01   1.00800           0
     15039 MEMB     120      PMPE     C2       CTL1     0.170000       12.0110           0
     15040 MEMB     120      PMPE     HS       HAL1     0.900000E-01   1.00800           0
     15041 MEMB     120      PMPE     O21      OSL     -0.490000       15.9994           0
     15042 MEMB     120      PMPE     C21      CL       0.900000       12.0110           0
     15043 MEMB     120      PMPE     O22      OBL     -0.630000       15.9994           0
     15044 MEMB     120      PMPE     C22      CTL2    -0.220000       12.0110           0
     15045 MEMB     120      PMPE     H2R      HAL2     0.900000E-01   1.00800           0
     15046 MEMB     120      PMPE     H2S      HAL2     0.900000E-01   1.00800           0
     15047 MEMB     120      PMPE     C3       CTL2     0.800000E-01   12.0110           0
     15048 MEMB     120      PMPE     HX       HAL2     0.900000E-01   1.00800           0
     15049 MEMB     120      PMPE     HY       HAL2     0.900000E-01   1.00800           0
     15050 MEMB     120      PMPE     O31      OSL     -0.490000       15.9994           0
     15051 MEMB     120      PMPE     C31      CL       0.900000       12.0110           0
     15052 MEMB     120      PMPE     O32      OBL     -0.630000       15.9994           0
     15053 MEMB     120      PMPE     C32      CTL2    -0.220000       12.0110           0
     15054 MEMB     120      PMPE     H2X      HAL2     0.900000E-01   1.00800           0
     15055 MEMB     120      PMPE     H2Y      HAL2     0.900000E-01   1.00800           0
     15056 MEMB     120      PMPE     C23      CTL2    -0.180000       12.0110           0
     15057 MEMB     120      PMPE     H3R      HAL2     0.900000E-01   1.00800           0
     15058 MEMB     120      PMPE     H3S      HAL2     0.900000E-01   1.00800           0
     15059 MEMB     120      PMPE     C24      CTL2    -0.180000       12.0110           0
     15060 MEMB     120      PMPE     H4R      HAL2     0.900000E-01   1.00800           0
     15061 MEMB     120      PMPE     H4S      HAL2     0.900000E-01   1.00800           0
     15062 MEMB     120      PMPE     C25      CTL2    -0.180000       12.0110           0
     15063 MEMB     120      PMPE     H5R      HAL2     0.900000E-01   1.00800           0
     15064 MEMB     120      PMPE     H5S      HAL2     0.900000E-01   1.00800           0
     15065 MEMB     120      PMPE     C26      CTL2    -0.180000       12.0110           0
     15066 MEMB     120      PMPE     H6R      HAL2     0.900000E-01   1.00800           0
     15067 MEMB     120      PMPE     H6S      HAL2     0.900000E-01   1.00800           0
     15068 MEMB     120      PMPE     C27      CTL2    -0.180000       12.0110           0
     15069 MEMB     120      PMPE     H7R      HAL2     0.900000E-01   1.00800           0
     15070 MEMB     120      PMPE     H7S      HAL2     0.900000E-01   1.00800           0
     15071 MEMB     120      PMPE     C28      CTL2    -0.180000       12.0110           0
     15072 MEMB     120      PMPE     H8R      HAL2     0.900000E-01   1.00800           0
     15073 MEMB     120      PMPE     H8S      HAL2     0.900000E-01   1.00800           0
     15074 MEMB     120      PMPE     C29      CG3RC1  -0.900000E-01   12.0110           0
     15075 MEMB     120      PMPE     H9R      HGA1     0.900000E-01   1.00800           0
     15076 MEMB     120      PMPE     C217     CG3C31  -0.180000       12.0110           0
     15077 MEMB     120      PMPE     H17R     HGA2     0.900000E-01   1.00800           0
     15078 MEMB     120      PMPE     H17S     HGA2     0.900000E-01   1.00800           0
     15079 MEMB     120      PMPE     C210     CG3RC1  -0.900000E-01   12.0110           0
     15080 MEMB     120      PMPE     H10R     HGA1     0.900000E-01   1.00800           0
     15081 MEMB     120      PMPE     C211     CTL2    -0.180000       12.0110           0
     15082 MEMB     120      PMPE     H11R     HAL2     0.900000E-01   1.00800           0
     15083 MEMB     120      PMPE     H11S     HAL2     0.900000E-01   1.00800           0
     15084 MEMB     120      PMPE     C212     CTL2    -0.180000       12.0110           0
     15085 MEMB     120      PMPE     H12R     HAL2     0.900000E-01   1.00800           0
     15086 MEMB     120      PMPE     H12S     HAL2     0.900000E-01   1.00800           0
     15087 MEMB     120      PMPE     C213     CTL2    -0.180000       12.0110           0
     15088 MEMB     120      PMPE     H13R     HAL2     0.900000E-01   1.00800           0
     15089 MEMB     120      PMPE     H13S     HAL2     0.900000E-01   1.00800           0
     15090 MEMB     120      PMPE     C214     CTL2    -0.180000       12.0110           0
     15091 MEMB     120      PMPE     H14R     HAL2     0.900000E-01   1.00800           0
     15092 MEMB     120      PMPE     H14S     HAL2     0.900000E-01   1.00800           0
     15093 MEMB     120      PMPE     C215     CTL2    -0.180000       12.0110           0
     15094 MEMB     120      PMPE     H15R     HAL2     0.900000E-01   1.00800           0
     15095 MEMB     120      PMPE     H15S     HAL2     0.900000E-01   1.00800           0
     15096 MEMB     120      PMPE     C216     CTL3    -0.270000       12.0110           0
     15097 MEMB     120      PMPE     H16R     HAL3     0.900000E-01   1.00800           0
     15098 MEMB     120      PMPE     H16S     HAL3     0.900000E-01   1.00800           0
     15099 MEMB     120      PMPE     H16T     HAL3     0.900000E-01   1.00800           0
     15100 MEMB     120      PMPE     C33      CTL2    -0.180000       12.0110           0
     15101 MEMB     120      PMPE     H3X      HAL2     0.900000E-01   1.00800           0
     15102 MEMB     120      PMPE     H3Y      HAL2     0.900000E-01   1.00800           0
     15103 MEMB     120      PMPE     C34      CTL2    -0.180000       12.0110           0
     15104 MEMB     120      PMPE     H4X      HAL2     0.900000E-01   1.00800           0
     15105 MEMB     120      PMPE     H4Y      HAL2     0.900000E-01   1.00800           0
     15106 MEMB     120      PMPE     C35      CTL2    -0.180000       12.0110           0
     15107 MEMB     120      PMPE     H5X      HAL2     0.900000E-01   1.00800           0
     15108 MEMB     120      PMPE     H5Y      HAL2     0.900000E-01   1.00800           0
     15109 MEMB     120      PMPE     C36      CTL2    -0.180000       12.0110           0
     15110 MEMB     120      PMPE     H6X      HAL2     0.900000E-01   1.00800           0
     15111 MEMB     120      PMPE     H6Y      HAL2     0.900000E-01   1.00800           0
     15112 MEMB     120      PMPE     C37      CTL2    -0.180000       12.0110           0
     15113 MEMB     120      PMPE     H7X      HAL2     0.900000E-01   1.00800           0
     15114 MEMB     120      PMPE     H7Y      HAL2     0.900000E-01   1.00800           0
     15115 MEMB     120      PMPE     C38      CTL2    -0.180000       12.0110           0
     15116 MEMB     120      PMPE     H8X      HAL2     0.900000E-01   1.00800           0
     15117 MEMB     120      PMPE     H8Y      HAL2     0.900000E-01   1.00800           0
     15118 MEMB     120      PMPE     C39      CTL2    -0.180000       12.0110           0
     15119 MEMB     120      PMPE     H9X      HAL2     0.900000E-01   1.00800           0
     15120 MEMB     120      PMPE     H9Y      HAL2     0.900000E-01   1.00800           0
     15121 MEMB     120      PMPE     C310     CTL2    -0.180000       12.0110           0
     15122 MEMB     120      PMPE     H10X     HAL2     0.900000E-01   1.00800           0
     15123 MEMB     120      PMPE     H10Y     HAL2     0.900000E-01   1.00800           0
     15124 MEMB     120      PMPE     C311     CTL2    -0.180000       12.0110           0
     15125 MEMB     120      PMPE     H11X     HAL2     0.900000E-01   1.00800           0
     15126 MEMB     120      PMPE     H11Y     HAL2     0.900000E-01   1.00800           0
     15127 MEMB     120      PMPE     C312     CTL2    -0.180000       12.0110           0
     15128 MEMB     120      PMPE     H12X     HAL2     0.900000E-01   1.00800           0
     15129 MEMB     120      PMPE     H12Y     HAL2     0.900000E-01   1.00800           0
     15130 MEMB     120      PMPE     C313     CTL2    -0.180000       12.0110           0
     15131 MEMB     120      PMPE     H13X     HAL2     0.900000E-01   1.00800           0
     15132 MEMB     120      PMPE     H13Y     HAL2     0.900000E-01   1.00800           0
     15133 MEMB     120      PMPE     C314     CTL2    -0.180000       12.0110           0
     15134 MEMB     120      PMPE     H14X     HAL2     0.900000E-01   1.00800           0
     15135 MEMB     120      PMPE     H14Y     HAL2     0.900000E-01   1.00800           0
     15136 MEMB     120      PMPE     C315     CTL2    -0.180000       12.0110           0
     15137 MEMB     120      PMPE     H15X     HAL2     0.900000E-01   1.00800           0
     15138 MEMB     120      PMPE     H15Y     HAL2     0.900000E-01   1.00800           0
     15139 MEMB     120      PMPE     C316     CTL3    -0.270000       12.0110           0
     15140 MEMB     120      PMPE     H16X     HAL3     0.900000E-01   1.00800           0
     15141 MEMB     120      PMPE     H16Y     HAL3     0.900000E-01   1.00800           0
     15142 MEMB     120      PMPE     H16Z     HAL3     0.900000E-01   1.00800           0
     15143 MEMB     121      POPE     N        NH3L    -0.300000       14.0070           0
     15144 MEMB     121      POPE     HN1      HCL      0.330000       1.00800           0
     15145 MEMB     121      POPE     HN2      HCL      0.330000       1.00800           0
     15146 MEMB     121      POPE     HN3      HCL      0.330000       1.00800           0
     15147 MEMB     121      POPE     C12      CTL2     0.130000       12.0110           0
     15148 MEMB     121      POPE     H12A     HAL2     0.900000E-01   1.00800           0
     15149 MEMB     121      POPE     H12B     HAL2     0.900000E-01   1.00800           0
     15150 MEMB     121      POPE     C11      CTL2    -0.800000E-01   12.0110           0
     15151 MEMB     121      POPE     H11A     HAL2     0.900000E-01   1.00800           0
     15152 MEMB     121      POPE     H11B     HAL2     0.900000E-01   1.00800           0
     15153 MEMB     121      POPE     P        PL        1.50000       30.9740           0
     15154 MEMB     121      POPE     O13      O2L     -0.780000       15.9994           0
     15155 MEMB     121      POPE     O14      O2L     -0.780000       15.9994           0
     15156 MEMB     121      POPE     O11      OSLP    -0.570000       15.9994           0
     15157 MEMB     121      POPE     O12      OSLP    -0.570000       15.9994           0
     15158 MEMB     121      POPE     C1       CTL2    -0.800000E-01   12.0110           0
     15159 MEMB     121      POPE     HA       HAL2     0.900000E-01   1.00800           0
     15160 MEMB     121      POPE     HB       HAL2     0.900000E-01   1.00800           0
     15161 MEMB     121      POPE     C2       CTL1     0.170000       12.0110           0
     15162 MEMB     121      POPE     HS       HAL1     0.900000E-01   1.00800           0
     15163 MEMB     121      POPE     O21      OSL     -0.490000       15.9994           0
     15164 MEMB     121      POPE     C21      CL       0.900000       12.0110           0
     15165 MEMB     121      POPE     O22      OBL     -0.630000       15.9994           0
     15166 MEMB     121      POPE     C22      CTL2    -0.220000       12.0110           0
     15167 MEMB     121      POPE     H2R      HAL2     0.900000E-01   1.00800           0
     15168 MEMB     121      POPE     H2S      HAL2     0.900000E-01   1.00800           0
     15169 MEMB     121      POPE     C3       CTL2     0.800000E-01   12.0110           0
     15170 MEMB     121      POPE     HX       HAL2     0.900000E-01   1.00800           0
     15171 MEMB     121      POPE     HY       HAL2     0.900000E-01   1.00800           0
     15172 MEMB     121      POPE     O31      OSL     -0.490000       15.9994           0
     15173 MEMB     121      POPE     C31      CL       0.900000       12.0110           0
     15174 MEMB     121      POPE     O32      OBL     -0.630000       15.9994           0
     15175 MEMB     121      POPE     C32      CTL2    -0.220000       12.0110           0
     15176 MEMB     121      POPE     H2X      HAL2     0.900000E-01   1.00800           0
     15177 MEMB     121      POPE     H2Y      HAL2     0.900000E-01   1.00800           0
     15178 MEMB     121      POPE     C23      CTL2    -0.180000       12.0110           0
     15179 MEMB     121      POPE     H3R      HAL2     0.900000E-01   1.00800           0
     15180 MEMB     121      POPE     H3S      HAL2     0.900000E-01   1.00800           0
     15181 MEMB     121      POPE     C24      CTL2    -0.180000       12.0110           0
     15182 MEMB     121      POPE     H4R      HAL2     0.900000E-01   1.00800           0
     15183 MEMB     121      POPE     H4S      HAL2     0.900000E-01   1.00800           0
     15184 MEMB     121      POPE     C25      CTL2    -0.180000       12.0110           0
     15185 MEMB     121      POPE     H5R      HAL2     0.900000E-01   1.00800           0
     15186 MEMB     121      POPE     H5S      HAL2     0.900000E-01   1.00800           0
     15187 MEMB     121      POPE     C26      CTL2    -0.180000       12.0110           0
     15188 MEMB     121      POPE     H6R      HAL2     0.900000E-01   1.00800           0
     15189 MEMB     121      POPE     H6S      HAL2     0.900000E-01   1.00800           0
     15190 MEMB     121      POPE     C27      CTL2    -0.180000       12.0110           0
     15191 MEMB     121      POPE     H7R      HAL2     0.900000E-01   1.00800           0
     15192 MEMB     121      POPE     H7S      HAL2     0.900000E-01   1.00800           0
     15193 MEMB     121      POPE     C28      CTL2    -0.180000       12.0110           0
     15194 MEMB     121      POPE     H8R      HAL2     0.900000E-01   1.00800           0
     15195 MEMB     121      POPE     H8S      HAL2     0.900000E-01   1.00800           0
     15196 MEMB     121      POPE     C29      CEL1    -0.150000       12.0110           0
     15197 MEMB     121      POPE     H91      HEL1     0.150000       1.00800           0
     15198 MEMB     121      POPE     C210     CEL1    -0.150000       12.0110           0
     15199 MEMB     121      POPE     H101     HEL1     0.150000       1.00800           0
     15200 MEMB     121      POPE     C211     CTL2    -0.180000       12.0110           0
     15201 MEMB     121      POPE     H11R     HAL2     0.900000E-01   1.00800           0
     15202 MEMB     121      POPE     H11S     HAL2     0.900000E-01   1.00800           0
     15203 MEMB     121      POPE     C212     CTL2    -0.180000       12.0110           0
     15204 MEMB     121      POPE     H12R     HAL2     0.900000E-01   1.00800           0
     15205 MEMB     121      POPE     H12S     HAL2     0.900000E-01   1.00800           0
     15206 MEMB     121      POPE     C213     CTL2    -0.180000       12.0110           0
     15207 MEMB     121      POPE     H13R     HAL2     0.900000E-01   1.00800           0
     15208 MEMB     121      POPE     H13S     HAL2     0.900000E-01   1.00800           0
     15209 MEMB     121      POPE     C214     CTL2    -0.180000       12.0110           0
     15210 MEMB     121      POPE     H14R     HAL2     0.900000E-01   1.00800           0
     15211 MEMB     121      POPE     H14S     HAL2     0.900000E-01   1.00800           0
     15212 MEMB     121      POPE     C215     CTL2    -0.180000       12.0110           0
     15213 MEMB     121      POPE     H15R     HAL2     0.900000E-01   1.00800           0
     15214 MEMB     121      POPE     H15S     HAL2     0.900000E-01   1.00800           0
     15215 MEMB     121      POPE     C216     CTL2    -0.180000       12.0110           0
     15216 MEMB     121      POPE     H16R     HAL2     0.900000E-01   1.00800           0
     15217 MEMB     121      POPE     H16S     HAL2     0.900000E-01   1.00800           0
     15218 MEMB     121      POPE     C217     CTL2    -0.180000       12.0110           0
     15219 MEMB     121      POPE     H17R     HAL2     0.900000E-01   1.00800           0
     15220 MEMB     121      POPE     H17S     HAL2     0.900000E-01   1.00800           0
     15221 MEMB     121      POPE     C218     CTL3    -0.270000       12.0110           0
     15222 MEMB     121      POPE     H18R     HAL3     0.900000E-01   1.00800           0
     15223 MEMB     121      POPE     H18S     HAL3     0.900000E-01   1.00800           0
     15224 MEMB     121      POPE     H18T     HAL3     0.900000E-01   1.00800           0
     15225 MEMB     121      POPE     C33      CTL2    -0.180000       12.0110           0
     15226 MEMB     121      POPE     H3X      HAL2     0.900000E-01   1.00800           0
     15227 MEMB     121      POPE     H3Y      HAL2     0.900000E-01   1.00800           0
     15228 MEMB     121      POPE     C34      CTL2    -0.180000       12.0110           0
     15229 MEMB     121      POPE     H4X      HAL2     0.900000E-01   1.00800           0
     15230 MEMB     121      POPE     H4Y      HAL2     0.900000E-01   1.00800           0
     15231 MEMB     121      POPE     C35      CTL2    -0.180000       12.0110           0
     15232 MEMB     121      POPE     H5X      HAL2     0.900000E-01   1.00800           0
     15233 MEMB     121      POPE     H5Y      HAL2     0.900000E-01   1.00800           0
     15234 MEMB     121      POPE     C36      CTL2    -0.180000       12.0110           0
     15235 MEMB     121      POPE     H6X      HAL2     0.900000E-01   1.00800           0
     15236 MEMB     121      POPE     H6Y      HAL2     0.900000E-01   1.00800           0
     15237 MEMB     121      POPE     C37      CTL2    -0.180000       12.0110           0
     15238 MEMB     121      POPE     H7X      HAL2     0.900000E-01   1.00800           0
     15239 MEMB     121      POPE     H7Y      HAL2     0.900000E-01   1.00800           0
     15240 MEMB     121      POPE     C38      CTL2    -0.180000       12.0110           0
     15241 MEMB     121      POPE     H8X      HAL2     0.900000E-01   1.00800           0
     15242 MEMB     121      POPE     H8Y      HAL2     0.900000E-01   1.00800           0
     15243 MEMB     121      POPE     C39      CTL2    -0.180000       12.0110           0
     15244 MEMB     121      POPE     H9X      HAL2     0.900000E-01   1.00800           0
     15245 MEMB     121      POPE     H9Y      HAL2     0.900000E-01   1.00800           0
     15246 MEMB     121      POPE     C310     CTL2    -0.180000       12.0110           0
     15247 MEMB     121      POPE     H10X     HAL2     0.900000E-01   1.00800           0
     15248 MEMB     121      POPE     H10Y     HAL2     0.900000E-01   1.00800           0
     15249 MEMB     121      POPE     C311     CTL2    -0.180000       12.0110           0
     15250 MEMB     121      POPE     H11X     HAL2     0.900000E-01   1.00800           0
     15251 MEMB     121      POPE     H11Y     HAL2     0.900000E-01   1.00800           0
     15252 MEMB     121      POPE     C312     CTL2    -0.180000       12.0110           0
     15253 MEMB     121      POPE     H12X     HAL2     0.900000E-01   1.00800           0
     15254 MEMB     121      POPE     H12Y     HAL2     0.900000E-01   1.00800           0
     15255 MEMB     121      POPE     C313     CTL2    -0.180000       12.0110           0
     15256 MEMB     121      POPE     H13X     HAL2     0.900000E-01   1.00800           0
     15257 MEMB     121      POPE     H13Y     HAL2     0.900000E-01   1.00800           0
     15258 MEMB     121      POPE     C314     CTL2    -0.180000       12.0110           0
     15259 MEMB     121      POPE     H14X     HAL2     0.900000E-01   1.00800           0
     15260 MEMB     121      POPE     H14Y     HAL2     0.900000E-01   1.00800           0
     15261 MEMB     121      POPE     C315     CTL2    -0.180000       12.0110           0
     15262 MEMB     121      POPE     H15X     HAL2     0.900000E-01   1.00800           0
     15263 MEMB     121      POPE     H15Y     HAL2     0.900000E-01   1.00800           0
     15264 MEMB     121      POPE     C316     CTL3    -0.270000       12.0110           0
     15265 MEMB     121      POPE     H16X     HAL3     0.900000E-01   1.00800           0
     15266 MEMB     121      POPE     H16Y     HAL3     0.900000E-01   1.00800           0
     15267 MEMB     121      POPE     H16Z     HAL3     0.900000E-01   1.00800           0
     15268 MEMB     122      PMPE     N        NH3L    -0.300000       14.0070           0
     15269 MEMB     122      PMPE     HN1      HCL      0.330000       1.00800           0
     15270 MEMB     122      PMPE     HN2      HCL      0.330000       1.00800           0
     15271 MEMB     122      PMPE     HN3      HCL      0.330000       1.00800           0
     15272 MEMB     122      PMPE     C12      CTL2     0.130000       12.0110           0
     15273 MEMB     122      PMPE     H12A     HAL2     0.900000E-01   1.00800           0
     15274 MEMB     122      PMPE     H12B     HAL2     0.900000E-01   1.00800           0
     15275 MEMB     122      PMPE     C11      CTL2    -0.800000E-01   12.0110           0
     15276 MEMB     122      PMPE     H11A     HAL2     0.900000E-01   1.00800           0
     15277 MEMB     122      PMPE     H11B     HAL2     0.900000E-01   1.00800           0
     15278 MEMB     122      PMPE     P        PL        1.50000       30.9740           0
     15279 MEMB     122      PMPE     O13      O2L     -0.780000       15.9994           0
     15280 MEMB     122      PMPE     O14      O2L     -0.780000       15.9994           0
     15281 MEMB     122      PMPE     O11      OSLP    -0.570000       15.9994           0
     15282 MEMB     122      PMPE     O12      OSLP    -0.570000       15.9994           0
     15283 MEMB     122      PMPE     C1       CTL2    -0.800000E-01   12.0110           0
     15284 MEMB     122      PMPE     HA       HAL2     0.900000E-01   1.00800           0
     15285 MEMB     122      PMPE     HB       HAL2     0.900000E-01   1.00800           0
     15286 MEMB     122      PMPE     C2       CTL1     0.170000       12.0110           0
     15287 MEMB     122      PMPE     HS       HAL1     0.900000E-01   1.00800           0
     15288 MEMB     122      PMPE     O21      OSL     -0.490000       15.9994           0
     15289 MEMB     122      PMPE     C21      CL       0.900000       12.0110           0
     15290 MEMB     122      PMPE     O22      OBL     -0.630000       15.9994           0
     15291 MEMB     122      PMPE     C22      CTL2    -0.220000       12.0110           0
     15292 MEMB     122      PMPE     H2R      HAL2     0.900000E-01   1.00800           0
     15293 MEMB     122      PMPE     H2S      HAL2     0.900000E-01   1.00800           0
     15294 MEMB     122      PMPE     C3       CTL2     0.800000E-01   12.0110           0
     15295 MEMB     122      PMPE     HX       HAL2     0.900000E-01   1.00800           0
     15296 MEMB     122      PMPE     HY       HAL2     0.900000E-01   1.00800           0
     15297 MEMB     122      PMPE     O31      OSL     -0.490000       15.9994           0
     15298 MEMB     122      PMPE     C31      CL       0.900000       12.0110           0
     15299 MEMB     122      PMPE     O32      OBL     -0.630000       15.9994           0
     15300 MEMB     122      PMPE     C32      CTL2    -0.220000       12.0110           0
     15301 MEMB     122      PMPE     H2X      HAL2     0.900000E-01   1.00800           0
     15302 MEMB     122      PMPE     H2Y      HAL2     0.900000E-01   1.00800           0
     15303 MEMB     122      PMPE     C23      CTL2    -0.180000       12.0110           0
     15304 MEMB     122      PMPE     H3R      HAL2     0.900000E-01   1.00800           0
     15305 MEMB     122      PMPE     H3S      HAL2     0.900000E-01   1.00800           0
     15306 MEMB     122      PMPE     C24      CTL2    -0.180000       12.0110           0
     15307 MEMB     122      PMPE     H4R      HAL2     0.900000E-01   1.00800           0
     15308 MEMB     122      PMPE     H4S      HAL2     0.900000E-01   1.00800           0
     15309 MEMB     122      PMPE     C25      CTL2    -0.180000       12.0110           0
     15310 MEMB     122      PMPE     H5R      HAL2     0.900000E-01   1.00800           0
     15311 MEMB     122      PMPE     H5S      HAL2     0.900000E-01   1.00800           0
     15312 MEMB     122      PMPE     C26      CTL2    -0.180000       12.0110           0
     15313 MEMB     122      PMPE     H6R      HAL2     0.900000E-01   1.00800           0
     15314 MEMB     122      PMPE     H6S      HAL2     0.900000E-01   1.00800           0
     15315 MEMB     122      PMPE     C27      CTL2    -0.180000       12.0110           0
     15316 MEMB     122      PMPE     H7R      HAL2     0.900000E-01   1.00800           0
     15317 MEMB     122      PMPE     H7S      HAL2     0.900000E-01   1.00800           0
     15318 MEMB     122      PMPE     C28      CTL2    -0.180000       12.0110           0
     15319 MEMB     122      PMPE     H8R      HAL2     0.900000E-01   1.00800           0
     15320 MEMB     122      PMPE     H8S      HAL2     0.900000E-01   1.00800           0
     15321 MEMB     122      PMPE     C29      CG3RC1  -0.900000E-01   12.0110           0
     15322 MEMB     122      PMPE     H9R      HGA1     0.900000E-01   1.00800           0
     15323 MEMB     122      PMPE     C217     CG3C31  -0.180000       12.0110           0
     15324 MEMB     122      PMPE     H17R     HGA2     0.900000E-01   1.00800           0
     15325 MEMB     122      PMPE     H17S     HGA2     0.900000E-01   1.00800           0
     15326 MEMB     122      PMPE     C210     CG3RC1  -0.900000E-01   12.0110           0
     15327 MEMB     122      PMPE     H10R     HGA1     0.900000E-01   1.00800           0
     15328 MEMB     122      PMPE     C211     CTL2    -0.180000       12.0110           0
     15329 MEMB     122      PMPE     H11R     HAL2     0.900000E-01   1.00800           0
     15330 MEMB     122      PMPE     H11S     HAL2     0.900000E-01   1.00800           0
     15331 MEMB     122      PMPE     C212     CTL2    -0.180000       12.0110           0
     15332 MEMB     122      PMPE     H12R     HAL2     0.900000E-01   1.00800           0
     15333 MEMB     122      PMPE     H12S     HAL2     0.900000E-01   1.00800           0
     15334 MEMB     122      PMPE     C213     CTL2    -0.180000       12.0110           0
     15335 MEMB     122      PMPE     H13R     HAL2     0.900000E-01   1.00800           0
     15336 MEMB     122      PMPE     H13S     HAL2     0.900000E-01   1.00800           0
     15337 MEMB     122      PMPE     C214     CTL2    -0.180000       12.0110           0
     15338 MEMB     122      PMPE     H14R     HAL2     0.900000E-01   1.00800           0
     15339 MEMB     122      PMPE     H14S     HAL2     0.900000E-01   1.00800           0
     15340 MEMB     122      PMPE     C215     CTL2    -0.180000       12.0110           0
     15341 MEMB     122      PMPE     H15R     HAL2     0.900000E-01   1.00800           0
     15342 MEMB     122      PMPE     H15S     HAL2     0.900000E-01   1.00800           0
     15343 MEMB     122      PMPE     C216     CTL3    -0.270000       12.0110           0
     15344 MEMB     122      PMPE     H16R     HAL3     0.900000E-01   1.00800           0
     15345 MEMB     122      PMPE     H16S     HAL3     0.900000E-01   1.00800           0
     15346 MEMB     122      PMPE     H16T     HAL3     0.900000E-01   1.00800           0
     15347 MEMB     122      PMPE     C33      CTL2    -0.180000       12.0110           0
     15348 MEMB     122      PMPE     H3X      HAL2     0.900000E-01   1.00800           0
     15349 MEMB     122      PMPE     H3Y      HAL2     0.900000E-01   1.00800           0
     15350 MEMB     122      PMPE     C34      CTL2    -0.180000       12.0110           0
     15351 MEMB     122      PMPE     H4X      HAL2     0.900000E-01   1.00800           0
     15352 MEMB     122      PMPE     H4Y      HAL2     0.900000E-01   1.00800           0
     15353 MEMB     122      PMPE     C35      CTL2    -0.180000       12.0110           0
     15354 MEMB     122      PMPE     H5X      HAL2     0.900000E-01   1.00800           0
     15355 MEMB     122      PMPE     H5Y      HAL2     0.900000E-01   1.00800           0
     15356 MEMB     122      PMPE     C36      CTL2    -0.180000       12.0110           0
     15357 MEMB     122      PMPE     H6X      HAL2     0.900000E-01   1.00800           0
     15358 MEMB     122      PMPE     H6Y      HAL2     0.900000E-01   1.00800           0
     15359 MEMB     122      PMPE     C37      CTL2    -0.180000       12.0110           0
     15360 MEMB     122      PMPE     H7X      HAL2     0.900000E-01   1.00800           0
     15361 MEMB     122      PMPE     H7Y      HAL2     0.900000E-01   1.00800           0
     15362 MEMB     122      PMPE     C38      CTL2    -0.180000       12.0110           0
     15363 MEMB     122      PMPE     H8X      HAL2     0.900000E-01   1.00800           0
     15364 MEMB     122      PMPE     H8Y      HAL2     0.900000E-01   1.00800           0
     15365 MEMB     122      PMPE     C39      CTL2    -0.180000       12.0110           0
     15366 MEMB     122      PMPE     H9X      HAL2     0.900000E-01   1.00800           0
     15367 MEMB     122      PMPE     H9Y      HAL2     0.900000E-01   1.00800           0
     15368 MEMB     122      PMPE     C310     CTL2    -0.180000       12.0110           0
     15369 MEMB     122      PMPE     H10X     HAL2     0.900000E-01   1.00800           0
     15370 MEMB     122      PMPE     H10Y     HAL2     0.900000E-01   1.00800           0
     15371 MEMB     122      PMPE     C311     CTL2    -0.180000       12.0110           0
     15372 MEMB     122      PMPE     H11X     HAL2     0.900000E-01   1.00800           0
     15373 MEMB     122      PMPE     H11Y     HAL2     0.900000E-01   1.00800           0
     15374 MEMB     122      PMPE     C312     CTL2    -0.180000       12.0110           0
     15375 MEMB     122      PMPE     H12X     HAL2     0.900000E-01   1.00800           0
     15376 MEMB     122      PMPE     H12Y     HAL2     0.900000E-01   1.00800           0
     15377 MEMB     122      PMPE     C313     CTL2    -0.180000       12.0110           0
     15378 MEMB     122      PMPE     H13X     HAL2     0.900000E-01   1.00800           0
     15379 MEMB     122      PMPE     H13Y     HAL2     0.900000E-01   1.00800           0
     15380 MEMB     122      PMPE     C314     CTL2    -0.180000       12.0110           0
     15381 MEMB     122      PMPE     H14X     HAL2     0.900000E-01   1.00800           0
     15382 MEMB     122      PMPE     H14Y     HAL2     0.900000E-01   1.00800           0
     15383 MEMB     122      PMPE     C315     CTL2    -0.180000       12.0110           0
     15384 MEMB     122      PMPE     H15X     HAL2     0.900000E-01   1.00800           0
     15385 MEMB     122      PMPE     H15Y     HAL2     0.900000E-01   1.00800           0
     15386 MEMB     122      PMPE     C316     CTL3    -0.270000       12.0110           0
     15387 MEMB     122      PMPE     H16X     HAL3     0.900000E-01   1.00800           0
     15388 MEMB     122      PMPE     H16Y     HAL3     0.900000E-01   1.00800           0
     15389 MEMB     122      PMPE     H16Z     HAL3     0.900000E-01   1.00800           0
     15390 MEMB     123      PMPE     N        NH3L    -0.300000       14.0070           0
     15391 MEMB     123      PMPE     HN1      HCL      0.330000       1.00800           0
     15392 MEMB     123      PMPE     HN2      HCL      0.330000       1.00800           0
     15393 MEMB     123      PMPE     HN3      HCL      0.330000       1.00800           0
     15394 MEMB     123      PMPE     C12      CTL2     0.130000       12.0110           0
     15395 MEMB     123      PMPE     H12A     HAL2     0.900000E-01   1.00800           0
     15396 MEMB     123      PMPE     H12B     HAL2     0.900000E-01   1.00800           0
     15397 MEMB     123      PMPE     C11      CTL2    -0.800000E-01   12.0110           0
     15398 MEMB     123      PMPE     H11A     HAL2     0.900000E-01   1.00800           0
     15399 MEMB     123      PMPE     H11B     HAL2     0.900000E-01   1.00800           0
     15400 MEMB     123      PMPE     P        PL        1.50000       30.9740           0
     15401 MEMB     123      PMPE     O13      O2L     -0.780000       15.9994           0
     15402 MEMB     123      PMPE     O14      O2L     -0.780000       15.9994           0
     15403 MEMB     123      PMPE     O11      OSLP    -0.570000       15.9994           0
     15404 MEMB     123      PMPE     O12      OSLP    -0.570000       15.9994           0
     15405 MEMB     123      PMPE     C1       CTL2    -0.800000E-01   12.0110           0
     15406 MEMB     123      PMPE     HA       HAL2     0.900000E-01   1.00800           0
     15407 MEMB     123      PMPE     HB       HAL2     0.900000E-01   1.00800           0
     15408 MEMB     123      PMPE     C2       CTL1     0.170000       12.0110           0
     15409 MEMB     123      PMPE     HS       HAL1     0.900000E-01   1.00800           0
     15410 MEMB     123      PMPE     O21      OSL     -0.490000       15.9994           0
     15411 MEMB     123      PMPE     C21      CL       0.900000       12.0110           0
     15412 MEMB     123      PMPE     O22      OBL     -0.630000       15.9994           0
     15413 MEMB     123      PMPE     C22      CTL2    -0.220000       12.0110           0
     15414 MEMB     123      PMPE     H2R      HAL2     0.900000E-01   1.00800           0
     15415 MEMB     123      PMPE     H2S      HAL2     0.900000E-01   1.00800           0
     15416 MEMB     123      PMPE     C3       CTL2     0.800000E-01   12.0110           0
     15417 MEMB     123      PMPE     HX       HAL2     0.900000E-01   1.00800           0
     15418 MEMB     123      PMPE     HY       HAL2     0.900000E-01   1.00800           0
     15419 MEMB     123      PMPE     O31      OSL     -0.490000       15.9994           0
     15420 MEMB     123      PMPE     C31      CL       0.900000       12.0110           0
     15421 MEMB     123      PMPE     O32      OBL     -0.630000       15.9994           0
     15422 MEMB     123      PMPE     C32      CTL2    -0.220000       12.0110           0
     15423 MEMB     123      PMPE     H2X      HAL2     0.900000E-01   1.00800           0
     15424 MEMB     123      PMPE     H2Y      HAL2     0.900000E-01   1.00800           0
     15425 MEMB     123      PMPE     C23      CTL2    -0.180000       12.0110           0
     15426 MEMB     123      PMPE     H3R      HAL2     0.900000E-01   1.00800           0
     15427 MEMB     123      PMPE     H3S      HAL2     0.900000E-01   1.00800           0
     15428 MEMB     123      PMPE     C24      CTL2    -0.180000       12.0110           0
     15429 MEMB     123      PMPE     H4R      HAL2     0.900000E-01   1.00800           0
     15430 MEMB     123      PMPE     H4S      HAL2     0.900000E-01   1.00800           0
     15431 MEMB     123      PMPE     C25      CTL2    -0.180000       12.0110           0
     15432 MEMB     123      PMPE     H5R      HAL2     0.900000E-01   1.00800           0
     15433 MEMB     123      PMPE     H5S      HAL2     0.900000E-01   1.00800           0
     15434 MEMB     123      PMPE     C26      CTL2    -0.180000       12.0110           0
     15435 MEMB     123      PMPE     H6R      HAL2     0.900000E-01   1.00800           0
     15436 MEMB     123      PMPE     H6S      HAL2     0.900000E-01   1.00800           0
     15437 MEMB     123      PMPE     C27      CTL2    -0.180000       12.0110           0
     15438 MEMB     123      PMPE     H7R      HAL2     0.900000E-01   1.00800           0
     15439 MEMB     123      PMPE     H7S      HAL2     0.900000E-01   1.00800           0
     15440 MEMB     123      PMPE     C28      CTL2    -0.180000       12.0110           0
     15441 MEMB     123      PMPE     H8R      HAL2     0.900000E-01   1.00800           0
     15442 MEMB     123      PMPE     H8S      HAL2     0.900000E-01   1.00800           0
     15443 MEMB     123      PMPE     C29      CG3RC1  -0.900000E-01   12.0110           0
     15444 MEMB     123      PMPE     H9R      HGA1     0.900000E-01   1.00800           0
     15445 MEMB     123      PMPE     C217     CG3C31  -0.180000       12.0110           0
     15446 MEMB     123      PMPE     H17R     HGA2     0.900000E-01   1.00800           0
     15447 MEMB     123      PMPE     H17S     HGA2     0.900000E-01   1.00800           0
     15448 MEMB     123      PMPE     C210     CG3RC1  -0.900000E-01   12.0110           0
     15449 MEMB     123      PMPE     H10R     HGA1     0.900000E-01   1.00800           0
     15450 MEMB     123      PMPE     C211     CTL2    -0.180000       12.0110           0
     15451 MEMB     123      PMPE     H11R     HAL2     0.900000E-01   1.00800           0
     15452 MEMB     123      PMPE     H11S     HAL2     0.900000E-01   1.00800           0
     15453 MEMB     123      PMPE     C212     CTL2    -0.180000       12.0110           0
     15454 MEMB     123      PMPE     H12R     HAL2     0.900000E-01   1.00800           0
     15455 MEMB     123      PMPE     H12S     HAL2     0.900000E-01   1.00800           0
     15456 MEMB     123      PMPE     C213     CTL2    -0.180000       12.0110           0
     15457 MEMB     123      PMPE     H13R     HAL2     0.900000E-01   1.00800           0
     15458 MEMB     123      PMPE     H13S     HAL2     0.900000E-01   1.00800           0
     15459 MEMB     123      PMPE     C214     CTL2    -0.180000       12.0110           0
     15460 MEMB     123      PMPE     H14R     HAL2     0.900000E-01   1.00800           0
     15461 MEMB     123      PMPE     H14S     HAL2     0.900000E-01   1.00800           0
     15462 MEMB     123      PMPE     C215     CTL2    -0.180000       12.0110           0
     15463 MEMB     123      PMPE     H15R     HAL2     0.900000E-01   1.00800           0
     15464 MEMB     123      PMPE     H15S     HAL2     0.900000E-01   1.00800           0
     15465 MEMB     123      PMPE     C216     CTL3    -0.270000       12.0110           0
     15466 MEMB     123      PMPE     H16R     HAL3     0.900000E-01   1.00800           0
     15467 MEMB     123      PMPE     H16S     HAL3     0.900000E-01   1.00800           0
     15468 MEMB     123      PMPE     H16T     HAL3     0.900000E-01   1.00800           0
     15469 MEMB     123      PMPE     C33      CTL2    -0.180000       12.0110           0
     15470 MEMB     123      PMPE     H3X      HAL2     0.900000E-01   1.00800           0
     15471 MEMB     123      PMPE     H3Y      HAL2     0.900000E-01   1.00800           0
     15472 MEMB     123      PMPE     C34      CTL2    -0.180000       12.0110           0
     15473 MEMB     123      PMPE     H4X      HAL2     0.900000E-01   1.00800           0
     15474 MEMB     123      PMPE     H4Y      HAL2     0.900000E-01   1.00800           0
     15475 MEMB     123      PMPE     C35      CTL2    -0.180000       12.0110           0
     15476 MEMB     123      PMPE     H5X      HAL2     0.900000E-01   1.00800           0
     15477 MEMB     123      PMPE     H5Y      HAL2     0.900000E-01   1.00800           0
     15478 MEMB     123      PMPE     C36      CTL2    -0.180000       12.0110           0
     15479 MEMB     123      PMPE     H6X      HAL2     0.900000E-01   1.00800           0
     15480 MEMB     123      PMPE     H6Y      HAL2     0.900000E-01   1.00800           0
     15481 MEMB     123      PMPE     C37      CTL2    -0.180000       12.0110           0
     15482 MEMB     123      PMPE     H7X      HAL2     0.900000E-01   1.00800           0
     15483 MEMB     123      PMPE     H7Y      HAL2     0.900000E-01   1.00800           0
     15484 MEMB     123      PMPE     C38      CTL2    -0.180000       12.0110           0
     15485 MEMB     123      PMPE     H8X      HAL2     0.900000E-01   1.00800           0
     15486 MEMB     123      PMPE     H8Y      HAL2     0.900000E-01   1.00800           0
     15487 MEMB     123      PMPE     C39      CTL2    -0.180000       12.0110           0
     15488 MEMB     123      PMPE     H9X      HAL2     0.900000E-01   1.00800           0
     15489 MEMB     123      PMPE     H9Y      HAL2     0.900000E-01   1.00800           0
     15490 MEMB     123      PMPE     C310     CTL2    -0.180000       12.0110           0
     15491 MEMB     123      PMPE     H10X     HAL2     0.900000E-01   1.00800           0
     15492 MEMB     123      PMPE     H10Y     HAL2     0.900000E-01   1.00800           0
     15493 MEMB     123      PMPE     C311     CTL2    -0.180000       12.0110           0
     15494 MEMB     123      PMPE     H11X     HAL2     0.900000E-01   1.00800           0
     15495 MEMB     123      PMPE     H11Y     HAL2     0.900000E-01   1.00800           0
     15496 MEMB     123      PMPE     C312     CTL2    -0.180000       12.0110           0
     15497 MEMB     123      PMPE     H12X     HAL2     0.900000E-01   1.00800           0
     15498 MEMB     123      PMPE     H12Y     HAL2     0.900000E-01   1.00800           0
     15499 MEMB     123      PMPE     C313     CTL2    -0.180000       12.0110           0
     15500 MEMB     123      PMPE     H13X     HAL2     0.900000E-01   1.00800           0
     15501 MEMB     123      PMPE     H13Y     HAL2     0.900000E-01   1.00800           0
     15502 MEMB     123      PMPE     C314     CTL2    -0.180000       12.0110           0
     15503 MEMB     123      PMPE     H14X     HAL2     0.900000E-01   1.00800           0
     15504 MEMB     123      PMPE     H14Y     HAL2     0.900000E-01   1.00800           0
     15505 MEMB     123      PMPE     C315     CTL2    -0.180000       12.0110           0
     15506 MEMB     123      PMPE     H15X     HAL2     0.900000E-01   1.00800           0
     15507 MEMB     123      PMPE     H15Y     HAL2     0.900000E-01   1.00800           0
     15508 MEMB     123      PMPE     C316     CTL3    -0.270000       12.0110           0
     15509 MEMB     123      PMPE     H16X     HAL3     0.900000E-01   1.00800           0
     15510 MEMB     123      PMPE     H16Y     HAL3     0.900000E-01   1.00800           0
     15511 MEMB     123      PMPE     H16Z     HAL3     0.900000E-01   1.00800           0
     15512 MEMB     124      PMPG     C13      CTL2     0.500000E-01   12.0110           0
     15513 MEMB     124      PMPG     H13A     HAL2     0.900000E-01   1.00800           0
     15514 MEMB     124      PMPG     H13B     HAL2     0.900000E-01   1.00800           0
     15515 MEMB     124      PMPG     OC3      OHL     -0.660000       15.9994           0
     15516 MEMB     124      PMPG     HO3      HOL      0.430000       1.00800           0
     15517 MEMB     124      PMPG     C12      CTL1     0.140000       12.0110           0
     15518 MEMB     124      PMPG     H12A     HAL1     0.900000E-01   1.00800           0
     15519 MEMB     124      PMPG     OC2      OHL     -0.660000       15.9994           0
     15520 MEMB     124      PMPG     HO2      HOL      0.430000       1.00800           0
     15521 MEMB     124      PMPG     C11      CTL2    -0.800000E-01   12.0110           0
     15522 MEMB     124      PMPG     H11A     HAL2     0.900000E-01   1.00800           0
     15523 MEMB     124      PMPG     H11B     HAL2     0.900000E-01   1.00800           0
     15524 MEMB     124      PMPG     P        PL        1.50000       30.9740           0
     15525 MEMB     124      PMPG     O13      O2L     -0.780000       15.9994           0
     15526 MEMB     124      PMPG     O14      O2L     -0.780000       15.9994           0
     15527 MEMB     124      PMPG     O11      OSLP    -0.570000       15.9994           0
     15528 MEMB     124      PMPG     O12      OSLP    -0.570000       15.9994           0
     15529 MEMB     124      PMPG     C1       CTL2    -0.800000E-01   12.0110           0
     15530 MEMB     124      PMPG     HA       HAL2     0.900000E-01   1.00800           0
     15531 MEMB     124      PMPG     HB       HAL2     0.900000E-01   1.00800           0
     15532 MEMB     124      PMPG     C2       CTL1     0.170000       12.0110           0
     15533 MEMB     124      PMPG     HS       HAL1     0.900000E-01   1.00800           0
     15534 MEMB     124      PMPG     O21      OSL     -0.490000       15.9994           0
     15535 MEMB     124      PMPG     C21      CL       0.900000       12.0110           0
     15536 MEMB     124      PMPG     O22      OBL     -0.630000       15.9994           0
     15537 MEMB     124      PMPG     C22      CTL2    -0.220000       12.0110           0
     15538 MEMB     124      PMPG     H2R      HAL2     0.900000E-01   1.00800           0
     15539 MEMB     124      PMPG     H2S      HAL2     0.900000E-01   1.00800           0
     15540 MEMB     124      PMPG     C3       CTL2     0.800000E-01   12.0110           0
     15541 MEMB     124      PMPG     HX       HAL2     0.900000E-01   1.00800           0
     15542 MEMB     124      PMPG     HY       HAL2     0.900000E-01   1.00800           0
     15543 MEMB     124      PMPG     O31      OSL     -0.490000       15.9994           0
     15544 MEMB     124      PMPG     C31      CL       0.900000       12.0110           0
     15545 MEMB     124      PMPG     O32      OBL     -0.630000       15.9994           0
     15546 MEMB     124      PMPG     C32      CTL2    -0.220000       12.0110           0
     15547 MEMB     124      PMPG     H2X      HAL2     0.900000E-01   1.00800           0
     15548 MEMB     124      PMPG     H2Y      HAL2     0.900000E-01   1.00800           0
     15549 MEMB     124      PMPG     C23      CTL2    -0.180000       12.0110           0
     15550 MEMB     124      PMPG     H3R      HAL2     0.900000E-01   1.00800           0
     15551 MEMB     124      PMPG     H3S      HAL2     0.900000E-01   1.00800           0
     15552 MEMB     124      PMPG     C24      CTL2    -0.180000       12.0110           0
     15553 MEMB     124      PMPG     H4R      HAL2     0.900000E-01   1.00800           0
     15554 MEMB     124      PMPG     H4S      HAL2     0.900000E-01   1.00800           0
     15555 MEMB     124      PMPG     C25      CTL2    -0.180000       12.0110           0
     15556 MEMB     124      PMPG     H5R      HAL2     0.900000E-01   1.00800           0
     15557 MEMB     124      PMPG     H5S      HAL2     0.900000E-01   1.00800           0
     15558 MEMB     124      PMPG     C26      CTL2    -0.180000       12.0110           0
     15559 MEMB     124      PMPG     H6R      HAL2     0.900000E-01   1.00800           0
     15560 MEMB     124      PMPG     H6S      HAL2     0.900000E-01   1.00800           0
     15561 MEMB     124      PMPG     C27      CTL2    -0.180000       12.0110           0
     15562 MEMB     124      PMPG     H7R      HAL2     0.900000E-01   1.00800           0
     15563 MEMB     124      PMPG     H7S      HAL2     0.900000E-01   1.00800           0
     15564 MEMB     124      PMPG     C28      CTL2    -0.180000       12.0110           0
     15565 MEMB     124      PMPG     H8R      HAL2     0.900000E-01   1.00800           0
     15566 MEMB     124      PMPG     H8S      HAL2     0.900000E-01   1.00800           0
     15567 MEMB     124      PMPG     C29      CG3RC1  -0.900000E-01   12.0110           0
     15568 MEMB     124      PMPG     H9R      HGA1     0.900000E-01   1.00800           0
     15569 MEMB     124      PMPG     C217     CG3C31  -0.180000       12.0110           0
     15570 MEMB     124      PMPG     H17R     HGA2     0.900000E-01   1.00800           0
     15571 MEMB     124      PMPG     H17S     HGA2     0.900000E-01   1.00800           0
     15572 MEMB     124      PMPG     C210     CG3RC1  -0.900000E-01   12.0110           0
     15573 MEMB     124      PMPG     H10R     HGA1     0.900000E-01   1.00800           0
     15574 MEMB     124      PMPG     C211     CTL2    -0.180000       12.0110           0
     15575 MEMB     124      PMPG     H11R     HAL2     0.900000E-01   1.00800           0
     15576 MEMB     124      PMPG     H11S     HAL2     0.900000E-01   1.00800           0
     15577 MEMB     124      PMPG     C212     CTL2    -0.180000       12.0110           0
     15578 MEMB     124      PMPG     H12R     HAL2     0.900000E-01   1.00800           0
     15579 MEMB     124      PMPG     H12S     HAL2     0.900000E-01   1.00800           0
     15580 MEMB     124      PMPG     C213     CTL2    -0.180000       12.0110           0
     15581 MEMB     124      PMPG     H13R     HAL2     0.900000E-01   1.00800           0
     15582 MEMB     124      PMPG     H13S     HAL2     0.900000E-01   1.00800           0
     15583 MEMB     124      PMPG     C214     CTL2    -0.180000       12.0110           0
     15584 MEMB     124      PMPG     H14R     HAL2     0.900000E-01   1.00800           0
     15585 MEMB     124      PMPG     H14S     HAL2     0.900000E-01   1.00800           0
     15586 MEMB     124      PMPG     C215     CTL2    -0.180000       12.0110           0
     15587 MEMB     124      PMPG     H15R     HAL2     0.900000E-01   1.00800           0
     15588 MEMB     124      PMPG     H15S     HAL2     0.900000E-01   1.00800           0
     15589 MEMB     124      PMPG     C216     CTL3    -0.270000       12.0110           0
     15590 MEMB     124      PMPG     H16R     HAL3     0.900000E-01   1.00800           0
     15591 MEMB     124      PMPG     H16S     HAL3     0.900000E-01   1.00800           0
     15592 MEMB     124      PMPG     H16T     HAL3     0.900000E-01   1.00800           0
     15593 MEMB     124      PMPG     C33      CTL2    -0.180000       12.0110           0
     15594 MEMB     124      PMPG     H3X      HAL2     0.900000E-01   1.00800           0
     15595 MEMB     124      PMPG     H3Y      HAL2     0.900000E-01   1.00800           0
     15596 MEMB     124      PMPG     C34      CTL2    -0.180000       12.0110           0
     15597 MEMB     124      PMPG     H4X      HAL2     0.900000E-01   1.00800           0
     15598 MEMB     124      PMPG     H4Y      HAL2     0.900000E-01   1.00800           0
     15599 MEMB     124      PMPG     C35      CTL2    -0.180000       12.0110           0
     15600 MEMB     124      PMPG     H5X      HAL2     0.900000E-01   1.00800           0
     15601 MEMB     124      PMPG     H5Y      HAL2     0.900000E-01   1.00800           0
     15602 MEMB     124      PMPG     C36      CTL2    -0.180000       12.0110           0
     15603 MEMB     124      PMPG     H6X      HAL2     0.900000E-01   1.00800           0
     15604 MEMB     124      PMPG     H6Y      HAL2     0.900000E-01   1.00800           0
     15605 MEMB     124      PMPG     C37      CTL2    -0.180000       12.0110           0
     15606 MEMB     124      PMPG     H7X      HAL2     0.900000E-01   1.00800           0
     15607 MEMB     124      PMPG     H7Y      HAL2     0.900000E-01   1.00800           0
     15608 MEMB     124      PMPG     C38      CTL2    -0.180000       12.0110           0
     15609 MEMB     124      PMPG     H8X      HAL2     0.900000E-01   1.00800           0
     15610 MEMB     124      PMPG     H8Y      HAL2     0.900000E-01   1.00800           0
     15611 MEMB     124      PMPG     C39      CTL2    -0.180000       12.0110           0
     15612 MEMB     124      PMPG     H9X      HAL2     0.900000E-01   1.00800           0
     15613 MEMB     124      PMPG     H9Y      HAL2     0.900000E-01   1.00800           0
     15614 MEMB     124      PMPG     C310     CTL2    -0.180000       12.0110           0
     15615 MEMB     124      PMPG     H10X     HAL2     0.900000E-01   1.00800           0
     15616 MEMB     124      PMPG     H10Y     HAL2     0.900000E-01   1.00800           0
     15617 MEMB     124      PMPG     C311     CTL2    -0.180000       12.0110           0
     15618 MEMB     124      PMPG     H11X     HAL2     0.900000E-01   1.00800           0
     15619 MEMB     124      PMPG     H11Y     HAL2     0.900000E-01   1.00800           0
     15620 MEMB     124      PMPG     C312     CTL2    -0.180000       12.0110           0
     15621 MEMB     124      PMPG     H12X     HAL2     0.900000E-01   1.00800           0
     15622 MEMB     124      PMPG     H12Y     HAL2     0.900000E-01   1.00800           0
     15623 MEMB     124      PMPG     C313     CTL2    -0.180000       12.0110           0
     15624 MEMB     124      PMPG     H13X     HAL2     0.900000E-01   1.00800           0
     15625 MEMB     124      PMPG     H13Y     HAL2     0.900000E-01   1.00800           0
     15626 MEMB     124      PMPG     C314     CTL2    -0.180000       12.0110           0
     15627 MEMB     124      PMPG     H14X     HAL2     0.900000E-01   1.00800           0
     15628 MEMB     124      PMPG     H14Y     HAL2     0.900000E-01   1.00800           0
     15629 MEMB     124      PMPG     C315     CTL2    -0.180000       12.0110           0
     15630 MEMB     124      PMPG     H15X     HAL2     0.900000E-01   1.00800           0
     15631 MEMB     124      PMPG     H15Y     HAL2     0.900000E-01   1.00800           0
     15632 MEMB     124      PMPG     C316     CTL3    -0.270000       12.0110           0
     15633 MEMB     124      PMPG     H16X     HAL3     0.900000E-01   1.00800           0
     15634 MEMB     124      PMPG     H16Y     HAL3     0.900000E-01   1.00800           0
     15635 MEMB     124      PMPG     H16Z     HAL3     0.900000E-01   1.00800           0
     15636 MEMB     125      PMPE     N        NH3L    -0.300000       14.0070           0
     15637 MEMB     125      PMPE     HN1      HCL      0.330000       1.00800           0
     15638 MEMB     125      PMPE     HN2      HCL      0.330000       1.00800           0
     15639 MEMB     125      PMPE     HN3      HCL      0.330000       1.00800           0
     15640 MEMB     125      PMPE     C12      CTL2     0.130000       12.0110           0
     15641 MEMB     125      PMPE     H12A     HAL2     0.900000E-01   1.00800           0
     15642 MEMB     125      PMPE     H12B     HAL2     0.900000E-01   1.00800           0
     15643 MEMB     125      PMPE     C11      CTL2    -0.800000E-01   12.0110           0
     15644 MEMB     125      PMPE     H11A     HAL2     0.900000E-01   1.00800           0
     15645 MEMB     125      PMPE     H11B     HAL2     0.900000E-01   1.00800           0
     15646 MEMB     125      PMPE     P        PL        1.50000       30.9740           0
     15647 MEMB     125      PMPE     O13      O2L     -0.780000       15.9994           0
     15648 MEMB     125      PMPE     O14      O2L     -0.780000       15.9994           0
     15649 MEMB     125      PMPE     O11      OSLP    -0.570000       15.9994           0
     15650 MEMB     125      PMPE     O12      OSLP    -0.570000       15.9994           0
     15651 MEMB     125      PMPE     C1       CTL2    -0.800000E-01   12.0110           0
     15652 MEMB     125      PMPE     HA       HAL2     0.900000E-01   1.00800           0
     15653 MEMB     125      PMPE     HB       HAL2     0.900000E-01   1.00800           0
     15654 MEMB     125      PMPE     C2       CTL1     0.170000       12.0110           0
     15655 MEMB     125      PMPE     HS       HAL1     0.900000E-01   1.00800           0
     15656 MEMB     125      PMPE     O21      OSL     -0.490000       15.9994           0
     15657 MEMB     125      PMPE     C21      CL       0.900000       12.0110           0
     15658 MEMB     125      PMPE     O22      OBL     -0.630000       15.9994           0
     15659 MEMB     125      PMPE     C22      CTL2    -0.220000       12.0110           0
     15660 MEMB     125      PMPE     H2R      HAL2     0.900000E-01   1.00800           0
     15661 MEMB     125      PMPE     H2S      HAL2     0.900000E-01   1.00800           0
     15662 MEMB     125      PMPE     C3       CTL2     0.800000E-01   12.0110           0
     15663 MEMB     125      PMPE     HX       HAL2     0.900000E-01   1.00800           0
     15664 MEMB     125      PMPE     HY       HAL2     0.900000E-01   1.00800           0
     15665 MEMB     125      PMPE     O31      OSL     -0.490000       15.9994           0
     15666 MEMB     125      PMPE     C31      CL       0.900000       12.0110           0
     15667 MEMB     125      PMPE     O32      OBL     -0.630000       15.9994           0
     15668 MEMB     125      PMPE     C32      CTL2    -0.220000       12.0110           0
     15669 MEMB     125      PMPE     H2X      HAL2     0.900000E-01   1.00800           0
     15670 MEMB     125      PMPE     H2Y      HAL2     0.900000E-01   1.00800           0
     15671 MEMB     125      PMPE     C23      CTL2    -0.180000       12.0110           0
     15672 MEMB     125      PMPE     H3R      HAL2     0.900000E-01   1.00800           0
     15673 MEMB     125      PMPE     H3S      HAL2     0.900000E-01   1.00800           0
     15674 MEMB     125      PMPE     C24      CTL2    -0.180000       12.0110           0
     15675 MEMB     125      PMPE     H4R      HAL2     0.900000E-01   1.00800           0
     15676 MEMB     125      PMPE     H4S      HAL2     0.900000E-01   1.00800           0
     15677 MEMB     125      PMPE     C25      CTL2    -0.180000       12.0110           0
     15678 MEMB     125      PMPE     H5R      HAL2     0.900000E-01   1.00800           0
     15679 MEMB     125      PMPE     H5S      HAL2     0.900000E-01   1.00800           0
     15680 MEMB     125      PMPE     C26      CTL2    -0.180000       12.0110           0
     15681 MEMB     125      PMPE     H6R      HAL2     0.900000E-01   1.00800           0
     15682 MEMB     125      PMPE     H6S      HAL2     0.900000E-01   1.00800           0
     15683 MEMB     125      PMPE     C27      CTL2    -0.180000       12.0110           0
     15684 MEMB     125      PMPE     H7R      HAL2     0.900000E-01   1.00800           0
     15685 MEMB     125      PMPE     H7S      HAL2     0.900000E-01   1.00800           0
     15686 MEMB     125      PMPE     C28      CTL2    -0.180000       12.0110           0
     15687 MEMB     125      PMPE     H8R      HAL2     0.900000E-01   1.00800           0
     15688 MEMB     125      PMPE     H8S      HAL2     0.900000E-01   1.00800           0
     15689 MEMB     125      PMPE     C29      CG3RC1  -0.900000E-01   12.0110           0
     15690 MEMB     125      PMPE     H9R      HGA1     0.900000E-01   1.00800           0
     15691 MEMB     125      PMPE     C217     CG3C31  -0.180000       12.0110           0
     15692 MEMB     125      PMPE     H17R     HGA2     0.900000E-01   1.00800           0
     15693 MEMB     125      PMPE     H17S     HGA2     0.900000E-01   1.00800           0
     15694 MEMB     125      PMPE     C210     CG3RC1  -0.900000E-01   12.0110           0
     15695 MEMB     125      PMPE     H10R     HGA1     0.900000E-01   1.00800           0
     15696 MEMB     125      PMPE     C211     CTL2    -0.180000       12.0110           0
     15697 MEMB     125      PMPE     H11R     HAL2     0.900000E-01   1.00800           0
     15698 MEMB     125      PMPE     H11S     HAL2     0.900000E-01   1.00800           0
     15699 MEMB     125      PMPE     C212     CTL2    -0.180000       12.0110           0
     15700 MEMB     125      PMPE     H12R     HAL2     0.900000E-01   1.00800           0
     15701 MEMB     125      PMPE     H12S     HAL2     0.900000E-01   1.00800           0
     15702 MEMB     125      PMPE     C213     CTL2    -0.180000       12.0110           0
     15703 MEMB     125      PMPE     H13R     HAL2     0.900000E-01   1.00800           0
     15704 MEMB     125      PMPE     H13S     HAL2     0.900000E-01   1.00800           0
     15705 MEMB     125      PMPE     C214     CTL2    -0.180000       12.0110           0
     15706 MEMB     125      PMPE     H14R     HAL2     0.900000E-01   1.00800           0
     15707 MEMB     125      PMPE     H14S     HAL2     0.900000E-01   1.00800           0
     15708 MEMB     125      PMPE     C215     CTL2    -0.180000       12.0110           0
     15709 MEMB     125      PMPE     H15R     HAL2     0.900000E-01   1.00800           0
     15710 MEMB     125      PMPE     H15S     HAL2     0.900000E-01   1.00800           0
     15711 MEMB     125      PMPE     C216     CTL3    -0.270000       12.0110           0
     15712 MEMB     125      PMPE     H16R     HAL3     0.900000E-01   1.00800           0
     15713 MEMB     125      PMPE     H16S     HAL3     0.900000E-01   1.00800           0
     15714 MEMB     125      PMPE     H16T     HAL3     0.900000E-01   1.00800           0
     15715 MEMB     125      PMPE     C33      CTL2    -0.180000       12.0110           0
     15716 MEMB     125      PMPE     H3X      HAL2     0.900000E-01   1.00800           0
     15717 MEMB     125      PMPE     H3Y      HAL2     0.900000E-01   1.00800           0
     15718 MEMB     125      PMPE     C34      CTL2    -0.180000       12.0110           0
     15719 MEMB     125      PMPE     H4X      HAL2     0.900000E-01   1.00800           0
     15720 MEMB     125      PMPE     H4Y      HAL2     0.900000E-01   1.00800           0
     15721 MEMB     125      PMPE     C35      CTL2    -0.180000       12.0110           0
     15722 MEMB     125      PMPE     H5X      HAL2     0.900000E-01   1.00800           0
     15723 MEMB     125      PMPE     H5Y      HAL2     0.900000E-01   1.00800           0
     15724 MEMB     125      PMPE     C36      CTL2    -0.180000       12.0110           0
     15725 MEMB     125      PMPE     H6X      HAL2     0.900000E-01   1.00800           0
     15726 MEMB     125      PMPE     H6Y      HAL2     0.900000E-01   1.00800           0
     15727 MEMB     125      PMPE     C37      CTL2    -0.180000       12.0110           0
     15728 MEMB     125      PMPE     H7X      HAL2     0.900000E-01   1.00800           0
     15729 MEMB     125      PMPE     H7Y      HAL2     0.900000E-01   1.00800           0
     15730 MEMB     125      PMPE     C38      CTL2    -0.180000       12.0110           0
     15731 MEMB     125      PMPE     H8X      HAL2     0.900000E-01   1.00800           0
     15732 MEMB     125      PMPE     H8Y      HAL2     0.900000E-01   1.00800           0
     15733 MEMB     125      PMPE     C39      CTL2    -0.180000       12.0110           0
     15734 MEMB     125      PMPE     H9X      HAL2     0.900000E-01   1.00800           0
     15735 MEMB     125      PMPE     H9Y      HAL2     0.900000E-01   1.00800           0
     15736 MEMB     125      PMPE     C310     CTL2    -0.180000       12.0110           0
     15737 MEMB     125      PMPE     H10X     HAL2     0.900000E-01   1.00800           0
     15738 MEMB     125      PMPE     H10Y     HAL2     0.900000E-01   1.00800           0
     15739 MEMB     125      PMPE     C311     CTL2    -0.180000       12.0110           0
     15740 MEMB     125      PMPE     H11X     HAL2     0.900000E-01   1.00800           0
     15741 MEMB     125      PMPE     H11Y     HAL2     0.900000E-01   1.00800           0
     15742 MEMB     125      PMPE     C312     CTL2    -0.180000       12.0110           0
     15743 MEMB     125      PMPE     H12X     HAL2     0.900000E-01   1.00800           0
     15744 MEMB     125      PMPE     H12Y     HAL2     0.900000E-01   1.00800           0
     15745 MEMB     125      PMPE     C313     CTL2    -0.180000       12.0110           0
     15746 MEMB     125      PMPE     H13X     HAL2     0.900000E-01   1.00800           0
     15747 MEMB     125      PMPE     H13Y     HAL2     0.900000E-01   1.00800           0
     15748 MEMB     125      PMPE     C314     CTL2    -0.180000       12.0110           0
     15749 MEMB     125      PMPE     H14X     HAL2     0.900000E-01   1.00800           0
     15750 MEMB     125      PMPE     H14Y     HAL2     0.900000E-01   1.00800           0
     15751 MEMB     125      PMPE     C315     CTL2    -0.180000       12.0110           0
     15752 MEMB     125      PMPE     H15X     HAL2     0.900000E-01   1.00800           0
     15753 MEMB     125      PMPE     H15Y     HAL2     0.900000E-01   1.00800           0
     15754 MEMB     125      PMPE     C316     CTL3    -0.270000       12.0110           0
     15755 MEMB     125      PMPE     H16X     HAL3     0.900000E-01   1.00800           0
     15756 MEMB     125      PMPE     H16Y     HAL3     0.900000E-01   1.00800           0
     15757 MEMB     125      PMPE     H16Z     HAL3     0.900000E-01   1.00800           0
     15758 MEMB     126      QMPE     N        NH3L    -0.300000       14.0070           0
     15759 MEMB     126      QMPE     HN1      HCL      0.330000       1.00800           0
     15760 MEMB     126      QMPE     HN2      HCL      0.330000       1.00800           0
     15761 MEMB     126      QMPE     HN3      HCL      0.330000       1.00800           0
     15762 MEMB     126      QMPE     C12      CTL2     0.130000       12.0110           0
     15763 MEMB     126      QMPE     H12A     HAL2     0.900000E-01   1.00800           0
     15764 MEMB     126      QMPE     H12B     HAL2     0.900000E-01   1.00800           0
     15765 MEMB     126      QMPE     C11      CTL2    -0.800000E-01   12.0110           0
     15766 MEMB     126      QMPE     H11A     HAL2     0.900000E-01   1.00800           0
     15767 MEMB     126      QMPE     H11B     HAL2     0.900000E-01   1.00800           0
     15768 MEMB     126      QMPE     P        PL        1.50000       30.9740           0
     15769 MEMB     126      QMPE     O13      O2L     -0.780000       15.9994           0
     15770 MEMB     126      QMPE     O14      O2L     -0.780000       15.9994           0
     15771 MEMB     126      QMPE     O11      OSLP    -0.570000       15.9994           0
     15772 MEMB     126      QMPE     O12      OSLP    -0.570000       15.9994           0
     15773 MEMB     126      QMPE     C1       CTL2    -0.800000E-01   12.0110           0
     15774 MEMB     126      QMPE     HA       HAL2     0.900000E-01   1.00800           0
     15775 MEMB     126      QMPE     HB       HAL2     0.900000E-01   1.00800           0
     15776 MEMB     126      QMPE     C2       CTL1     0.170000       12.0110           0
     15777 MEMB     126      QMPE     HS       HAL1     0.900000E-01   1.00800           0
     15778 MEMB     126      QMPE     O21      OSL     -0.490000       15.9994           0
     15779 MEMB     126      QMPE     C21      CL       0.900000       12.0110           0
     15780 MEMB     126      QMPE     O22      OBL     -0.630000       15.9994           0
     15781 MEMB     126      QMPE     C22      CTL2    -0.220000       12.0110           0
     15782 MEMB     126      QMPE     H2R      HAL2     0.900000E-01   1.00800           0
     15783 MEMB     126      QMPE     H2S      HAL2     0.900000E-01   1.00800           0
     15784 MEMB     126      QMPE     C3       CTL2     0.800000E-01   12.0110           0
     15785 MEMB     126      QMPE     HX       HAL2     0.900000E-01   1.00800           0
     15786 MEMB     126      QMPE     HY       HAL2     0.900000E-01   1.00800           0
     15787 MEMB     126      QMPE     O31      OSL     -0.490000       15.9994           0
     15788 MEMB     126      QMPE     C31      CL       0.900000       12.0110           0
     15789 MEMB     126      QMPE     O32      OBL     -0.630000       15.9994           0
     15790 MEMB     126      QMPE     C32      CTL2    -0.220000       12.0110           0
     15791 MEMB     126      QMPE     H2X      HAL2     0.900000E-01   1.00800           0
     15792 MEMB     126      QMPE     H2Y      HAL2     0.900000E-01   1.00800           0
     15793 MEMB     126      QMPE     C23      CTL2    -0.180000       12.0110           0
     15794 MEMB     126      QMPE     H3R      HAL2     0.900000E-01   1.00800           0
     15795 MEMB     126      QMPE     H3S      HAL2     0.900000E-01   1.00800           0
     15796 MEMB     126      QMPE     C24      CTL2    -0.180000       12.0110           0
     15797 MEMB     126      QMPE     H4R      HAL2     0.900000E-01   1.00800           0
     15798 MEMB     126      QMPE     H4S      HAL2     0.900000E-01   1.00800           0
     15799 MEMB     126      QMPE     C25      CTL2    -0.180000       12.0110           0
     15800 MEMB     126      QMPE     H5R      HAL2     0.900000E-01   1.00800           0
     15801 MEMB     126      QMPE     H5S      HAL2     0.900000E-01   1.00800           0
     15802 MEMB     126      QMPE     C26      CTL2    -0.180000       12.0110           0
     15803 MEMB     126      QMPE     H6R      HAL2     0.900000E-01   1.00800           0
     15804 MEMB     126      QMPE     H6S      HAL2     0.900000E-01   1.00800           0
     15805 MEMB     126      QMPE     C27      CTL2    -0.180000       12.0110           0
     15806 MEMB     126      QMPE     H7R      HAL2     0.900000E-01   1.00800           0
     15807 MEMB     126      QMPE     H7S      HAL2     0.900000E-01   1.00800           0
     15808 MEMB     126      QMPE     C28      CTL2    -0.180000       12.0110           0
     15809 MEMB     126      QMPE     H8R      HAL2     0.900000E-01   1.00800           0
     15810 MEMB     126      QMPE     H8S      HAL2     0.900000E-01   1.00800           0
     15811 MEMB     126      QMPE     C29      CG3RC1  -0.900000E-01   12.0110           0
     15812 MEMB     126      QMPE     H9R      HGA1     0.900000E-01   1.00800           0
     15813 MEMB     126      QMPE     C217     CG3C31  -0.180000       12.0110           0
     15814 MEMB     126      QMPE     H17R     HGA2     0.900000E-01   1.00800           0
     15815 MEMB     126      QMPE     H17S     HGA2     0.900000E-01   1.00800           0
     15816 MEMB     126      QMPE     C210     CG3RC1  -0.900000E-01   12.0110           0
     15817 MEMB     126      QMPE     H10R     HGA1     0.900000E-01   1.00800           0
     15818 MEMB     126      QMPE     C211     CTL2    -0.180000       12.0110           0
     15819 MEMB     126      QMPE     H11R     HAL2     0.900000E-01   1.00800           0
     15820 MEMB     126      QMPE     H11S     HAL2     0.900000E-01   1.00800           0
     15821 MEMB     126      QMPE     C212     CTL2    -0.180000       12.0110           0
     15822 MEMB     126      QMPE     H12R     HAL2     0.900000E-01   1.00800           0
     15823 MEMB     126      QMPE     H12S     HAL2     0.900000E-01   1.00800           0
     15824 MEMB     126      QMPE     C213     CTL2    -0.180000       12.0110           0
     15825 MEMB     126      QMPE     H13R     HAL2     0.900000E-01   1.00800           0
     15826 MEMB     126      QMPE     H13S     HAL2     0.900000E-01   1.00800           0
     15827 MEMB     126      QMPE     C214     CTL2    -0.180000       12.0110           0
     15828 MEMB     126      QMPE     H14R     HAL2     0.900000E-01   1.00800           0
     15829 MEMB     126      QMPE     H14S     HAL2     0.900000E-01   1.00800           0
     15830 MEMB     126      QMPE     C215     CTL2    -0.180000       12.0110           0
     15831 MEMB     126      QMPE     H15R     HAL2     0.900000E-01   1.00800           0
     15832 MEMB     126      QMPE     H15S     HAL2     0.900000E-01   1.00800           0
     15833 MEMB     126      QMPE     C216     CTL3    -0.270000       12.0110           0
     15834 MEMB     126      QMPE     H16R     HAL3     0.900000E-01   1.00800           0
     15835 MEMB     126      QMPE     H16S     HAL3     0.900000E-01   1.00800           0
     15836 MEMB     126      QMPE     H16T     HAL3     0.900000E-01   1.00800           0
     15837 MEMB     126      QMPE     C33      CTL2    -0.180000       12.0110           0
     15838 MEMB     126      QMPE     H3X      HAL2     0.900000E-01   1.00800           0
     15839 MEMB     126      QMPE     H3Y      HAL2     0.900000E-01   1.00800           0
     15840 MEMB     126      QMPE     C34      CTL2    -0.180000       12.0110           0
     15841 MEMB     126      QMPE     H4X      HAL2     0.900000E-01   1.00800           0
     15842 MEMB     126      QMPE     H4Y      HAL2     0.900000E-01   1.00800           0
     15843 MEMB     126      QMPE     C35      CTL2    -0.180000       12.0110           0
     15844 MEMB     126      QMPE     H5X      HAL2     0.900000E-01   1.00800           0
     15845 MEMB     126      QMPE     H5Y      HAL2     0.900000E-01   1.00800           0
     15846 MEMB     126      QMPE     C36      CTL2    -0.180000       12.0110           0
     15847 MEMB     126      QMPE     H6X      HAL2     0.900000E-01   1.00800           0
     15848 MEMB     126      QMPE     H6Y      HAL2     0.900000E-01   1.00800           0
     15849 MEMB     126      QMPE     C37      CTL2    -0.180000       12.0110           0
     15850 MEMB     126      QMPE     H7X      HAL2     0.900000E-01   1.00800           0
     15851 MEMB     126      QMPE     H7Y      HAL2     0.900000E-01   1.00800           0
     15852 MEMB     126      QMPE     C38      CTL2    -0.180000       12.0110           0
     15853 MEMB     126      QMPE     H8X      HAL2     0.900000E-01   1.00800           0
     15854 MEMB     126      QMPE     H8Y      HAL2     0.900000E-01   1.00800           0
     15855 MEMB     126      QMPE     C39      CTL2    -0.180000       12.0110           0
     15856 MEMB     126      QMPE     H9X      HAL2     0.900000E-01   1.00800           0
     15857 MEMB     126      QMPE     H9Y      HAL2     0.900000E-01   1.00800           0
     15858 MEMB     126      QMPE     C310     CTL2    -0.180000       12.0110           0
     15859 MEMB     126      QMPE     H10X     HAL2     0.900000E-01   1.00800           0
     15860 MEMB     126      QMPE     H10Y     HAL2     0.900000E-01   1.00800           0
     15861 MEMB     126      QMPE     C311     CTL2    -0.180000       12.0110           0
     15862 MEMB     126      QMPE     H11X     HAL2     0.900000E-01   1.00800           0
     15863 MEMB     126      QMPE     H11Y     HAL2     0.900000E-01   1.00800           0
     15864 MEMB     126      QMPE     C312     CTL2    -0.180000       12.0110           0
     15865 MEMB     126      QMPE     H12X     HAL2     0.900000E-01   1.00800           0
     15866 MEMB     126      QMPE     H12Y     HAL2     0.900000E-01   1.00800           0
     15867 MEMB     126      QMPE     C313     CTL2    -0.180000       12.0110           0
     15868 MEMB     126      QMPE     H13X     HAL2     0.900000E-01   1.00800           0
     15869 MEMB     126      QMPE     H13Y     HAL2     0.900000E-01   1.00800           0
     15870 MEMB     126      QMPE     C314     CTL2    -0.180000       12.0110           0
     15871 MEMB     126      QMPE     H14X     HAL2     0.900000E-01   1.00800           0
     15872 MEMB     126      QMPE     H14Y     HAL2     0.900000E-01   1.00800           0
     15873 MEMB     126      QMPE     C315     CTL3    -0.270000       12.0110           0
     15874 MEMB     126      QMPE     H15X     HAL3     0.900000E-01   1.00800           0
     15875 MEMB     126      QMPE     H15Y     HAL3     0.900000E-01   1.00800           0
     15876 MEMB     126      QMPE     H15Z     HAL3     0.900000E-01   1.00800           0
     15877 MEMB     127      PYPG     C13      CTL2     0.500000E-01   12.0110           0
     15878 MEMB     127      PYPG     H13A     HAL2     0.900000E-01   1.00800           0
     15879 MEMB     127      PYPG     H13B     HAL2     0.900000E-01   1.00800           0
     15880 MEMB     127      PYPG     OC3      OHL     -0.660000       15.9994           0
     15881 MEMB     127      PYPG     HO3      HOL      0.430000       1.00800           0
     15882 MEMB     127      PYPG     C12      CTL1     0.140000       12.0110           0
     15883 MEMB     127      PYPG     H12A     HAL1     0.900000E-01   1.00800           0
     15884 MEMB     127      PYPG     OC2      OHL     -0.660000       15.9994           0
     15885 MEMB     127      PYPG     HO2      HOL      0.430000       1.00800           0
     15886 MEMB     127      PYPG     C11      CTL2    -0.800000E-01   12.0110           0
     15887 MEMB     127      PYPG     H11A     HAL2     0.900000E-01   1.00800           0
     15888 MEMB     127      PYPG     H11B     HAL2     0.900000E-01   1.00800           0
     15889 MEMB     127      PYPG     P        PL        1.50000       30.9740           0
     15890 MEMB     127      PYPG     O13      O2L     -0.780000       15.9994           0
     15891 MEMB     127      PYPG     O14      O2L     -0.780000       15.9994           0
     15892 MEMB     127      PYPG     O11      OSLP    -0.570000       15.9994           0
     15893 MEMB     127      PYPG     O12      OSLP    -0.570000       15.9994           0
     15894 MEMB     127      PYPG     C1       CTL2    -0.800000E-01   12.0110           0
     15895 MEMB     127      PYPG     HA       HAL2     0.900000E-01   1.00800           0
     15896 MEMB     127      PYPG     HB       HAL2     0.900000E-01   1.00800           0
     15897 MEMB     127      PYPG     C2       CTL1     0.170000       12.0110           0
     15898 MEMB     127      PYPG     HS       HAL1     0.900000E-01   1.00800           0
     15899 MEMB     127      PYPG     O21      OSL     -0.490000       15.9994           0
     15900 MEMB     127      PYPG     C21      CL       0.900000       12.0110           0
     15901 MEMB     127      PYPG     O22      OBL     -0.630000       15.9994           0
     15902 MEMB     127      PYPG     C22      CTL2    -0.220000       12.0110           0
     15903 MEMB     127      PYPG     H2R      HAL2     0.900000E-01   1.00800           0
     15904 MEMB     127      PYPG     H2S      HAL2     0.900000E-01   1.00800           0
     15905 MEMB     127      PYPG     C3       CTL2     0.800000E-01   12.0110           0
     15906 MEMB     127      PYPG     HX       HAL2     0.900000E-01   1.00800           0
     15907 MEMB     127      PYPG     HY       HAL2     0.900000E-01   1.00800           0
     15908 MEMB     127      PYPG     O31      OSL     -0.490000       15.9994           0
     15909 MEMB     127      PYPG     C31      CL       0.900000       12.0110           0
     15910 MEMB     127      PYPG     O32      OBL     -0.630000       15.9994           0
     15911 MEMB     127      PYPG     C32      CTL2    -0.220000       12.0110           0
     15912 MEMB     127      PYPG     H2X      HAL2     0.900000E-01   1.00800           0
     15913 MEMB     127      PYPG     H2Y      HAL2     0.900000E-01   1.00800           0
     15914 MEMB     127      PYPG     C23      CTL2    -0.180000       12.0110           0
     15915 MEMB     127      PYPG     H3R      HAL2     0.900000E-01   1.00800           0
     15916 MEMB     127      PYPG     H3S      HAL2     0.900000E-01   1.00800           0
     15917 MEMB     127      PYPG     C24      CTL2    -0.180000       12.0110           0
     15918 MEMB     127      PYPG     H4R      HAL2     0.900000E-01   1.00800           0
     15919 MEMB     127      PYPG     H4S      HAL2     0.900000E-01   1.00800           0
     15920 MEMB     127      PYPG     C25      CTL2    -0.180000       12.0110           0
     15921 MEMB     127      PYPG     H5R      HAL2     0.900000E-01   1.00800           0
     15922 MEMB     127      PYPG     H5S      HAL2     0.900000E-01   1.00800           0
     15923 MEMB     127      PYPG     C26      CTL2    -0.180000       12.0110           0
     15924 MEMB     127      PYPG     H6R      HAL2     0.900000E-01   1.00800           0
     15925 MEMB     127      PYPG     H6S      HAL2     0.900000E-01   1.00800           0
     15926 MEMB     127      PYPG     C27      CTL2    -0.180000       12.0110           0
     15927 MEMB     127      PYPG     H7R      HAL2     0.900000E-01   1.00800           0
     15928 MEMB     127      PYPG     H7S      HAL2     0.900000E-01   1.00800           0
     15929 MEMB     127      PYPG     C28      CTL2    -0.180000       12.0110           0
     15930 MEMB     127      PYPG     H8R      HAL2     0.900000E-01   1.00800           0
     15931 MEMB     127      PYPG     H8S      HAL2     0.900000E-01   1.00800           0
     15932 MEMB     127      PYPG     C29      CEL1    -0.150000       12.0110           0
     15933 MEMB     127      PYPG     H9R      HEL1     0.150000       1.00800           0
     15934 MEMB     127      PYPG     C210     CEL1    -0.150000       12.0110           0
     15935 MEMB     127      PYPG     H10R     HEL1     0.150000       1.00800           0
     15936 MEMB     127      PYPG     C211     CTL2    -0.180000       12.0110           0
     15937 MEMB     127      PYPG     H11R     HAL2     0.900000E-01   1.00800           0
     15938 MEMB     127      PYPG     H11S     HAL2     0.900000E-01   1.00800           0
     15939 MEMB     127      PYPG     C212     CTL2    -0.180000       12.0110           0
     15940 MEMB     127      PYPG     H12R     HAL2     0.900000E-01   1.00800           0
     15941 MEMB     127      PYPG     H12S     HAL2     0.900000E-01   1.00800           0
     15942 MEMB     127      PYPG     C213     CTL2    -0.180000       12.0110           0
     15943 MEMB     127      PYPG     H13R     HAL2     0.900000E-01   1.00800           0
     15944 MEMB     127      PYPG     H13S     HAL2     0.900000E-01   1.00800           0
     15945 MEMB     127      PYPG     C214     CTL2    -0.180000       12.0110           0
     15946 MEMB     127      PYPG     H14R     HAL2     0.900000E-01   1.00800           0
     15947 MEMB     127      PYPG     H14S     HAL2     0.900000E-01   1.00800           0
     15948 MEMB     127      PYPG     C215     CTL2    -0.180000       12.0110           0
     15949 MEMB     127      PYPG     H15R     HAL2     0.900000E-01   1.00800           0
     15950 MEMB     127      PYPG     H15S     HAL2     0.900000E-01   1.00800           0
     15951 MEMB     127      PYPG     C216     CTL3    -0.270000       12.0110           0
     15952 MEMB     127      PYPG     H16R     HAL3     0.900000E-01   1.00800           0
     15953 MEMB     127      PYPG     H16S     HAL3     0.900000E-01   1.00800           0
     15954 MEMB     127      PYPG     H16T     HAL3     0.900000E-01   1.00800           0
     15955 MEMB     127      PYPG     C33      CTL2    -0.180000       12.0110           0
     15956 MEMB     127      PYPG     H3X      HAL2     0.900000E-01   1.00800           0
     15957 MEMB     127      PYPG     H3Y      HAL2     0.900000E-01   1.00800           0
     15958 MEMB     127      PYPG     C34      CTL2    -0.180000       12.0110           0
     15959 MEMB     127      PYPG     H4X      HAL2     0.900000E-01   1.00800           0
     15960 MEMB     127      PYPG     H4Y      HAL2     0.900000E-01   1.00800           0
     15961 MEMB     127      PYPG     C35      CTL2    -0.180000       12.0110           0
     15962 MEMB     127      PYPG     H5X      HAL2     0.900000E-01   1.00800           0
     15963 MEMB     127      PYPG     H5Y      HAL2     0.900000E-01   1.00800           0
     15964 MEMB     127      PYPG     C36      CTL2    -0.180000       12.0110           0
     15965 MEMB     127      PYPG     H6X      HAL2     0.900000E-01   1.00800           0
     15966 MEMB     127      PYPG     H6Y      HAL2     0.900000E-01   1.00800           0
     15967 MEMB     127      PYPG     C37      CTL2    -0.180000       12.0110           0
     15968 MEMB     127      PYPG     H7X      HAL2     0.900000E-01   1.00800           0
     15969 MEMB     127      PYPG     H7Y      HAL2     0.900000E-01   1.00800           0
     15970 MEMB     127      PYPG     C38      CTL2    -0.180000       12.0110           0
     15971 MEMB     127      PYPG     H8X      HAL2     0.900000E-01   1.00800           0
     15972 MEMB     127      PYPG     H8Y      HAL2     0.900000E-01   1.00800           0
     15973 MEMB     127      PYPG     C39      CTL2    -0.180000       12.0110           0
     15974 MEMB     127      PYPG     H9X      HAL2     0.900000E-01   1.00800           0
     15975 MEMB     127      PYPG     H9Y      HAL2     0.900000E-01   1.00800           0
     15976 MEMB     127      PYPG     C310     CTL2    -0.180000       12.0110           0
     15977 MEMB     127      PYPG     H10X     HAL2     0.900000E-01   1.00800           0
     15978 MEMB     127      PYPG     H10Y     HAL2     0.900000E-01   1.00800           0
     15979 MEMB     127      PYPG     C311     CTL2    -0.180000       12.0110           0
     15980 MEMB     127      PYPG     H11X     HAL2     0.900000E-01   1.00800           0
     15981 MEMB     127      PYPG     H11Y     HAL2     0.900000E-01   1.00800           0
     15982 MEMB     127      PYPG     C312     CTL2    -0.180000       12.0110           0
     15983 MEMB     127      PYPG     H12X     HAL2     0.900000E-01   1.00800           0
     15984 MEMB     127      PYPG     H12Y     HAL2     0.900000E-01   1.00800           0
     15985 MEMB     127      PYPG     C313     CTL2    -0.180000       12.0110           0
     15986 MEMB     127      PYPG     H13X     HAL2     0.900000E-01   1.00800           0
     15987 MEMB     127      PYPG     H13Y     HAL2     0.900000E-01   1.00800           0
     15988 MEMB     127      PYPG     C314     CTL2    -0.180000       12.0110           0
     15989 MEMB     127      PYPG     H14X     HAL2     0.900000E-01   1.00800           0
     15990 MEMB     127      PYPG     H14Y     HAL2     0.900000E-01   1.00800           0
     15991 MEMB     127      PYPG     C315     CTL2    -0.180000       12.0110           0
     15992 MEMB     127      PYPG     H15X     HAL2     0.900000E-01   1.00800           0
     15993 MEMB     127      PYPG     H15Y     HAL2     0.900000E-01   1.00800           0
     15994 MEMB     127      PYPG     C316     CTL3    -0.270000       12.0110           0
     15995 MEMB     127      PYPG     H16X     HAL3     0.900000E-01   1.00800           0
     15996 MEMB     127      PYPG     H16Y     HAL3     0.900000E-01   1.00800           0
     15997 MEMB     127      PYPG     H16Z     HAL3     0.900000E-01   1.00800           0
     15998 MEMB     128      PYPG     C13      CTL2     0.500000E-01   12.0110           0
     15999 MEMB     128      PYPG     H13A     HAL2     0.900000E-01   1.00800           0
     16000 MEMB     128      PYPG     H13B     HAL2     0.900000E-01   1.00800           0
     16001 MEMB     128      PYPG     OC3      OHL     -0.660000       15.9994           0
     16002 MEMB     128      PYPG     HO3      HOL      0.430000       1.00800           0
     16003 MEMB     128      PYPG     C12      CTL1     0.140000       12.0110           0
     16004 MEMB     128      PYPG     H12A     HAL1     0.900000E-01   1.00800           0
     16005 MEMB     128      PYPG     OC2      OHL     -0.660000       15.9994           0
     16006 MEMB     128      PYPG     HO2      HOL      0.430000       1.00800           0
     16007 MEMB     128      PYPG     C11      CTL2    -0.800000E-01   12.0110           0
     16008 MEMB     128      PYPG     H11A     HAL2     0.900000E-01   1.00800           0
     16009 MEMB     128      PYPG     H11B     HAL2     0.900000E-01   1.00800           0
     16010 MEMB     128      PYPG     P        PL        1.50000       30.9740           0
     16011 MEMB     128      PYPG     O13      O2L     -0.780000       15.9994           0
     16012 MEMB     128      PYPG     O14      O2L     -0.780000       15.9994           0
     16013 MEMB     128      PYPG     O11      OSLP    -0.570000       15.9994           0
     16014 MEMB     128      PYPG     O12      OSLP    -0.570000       15.9994           0
     16015 MEMB     128      PYPG     C1       CTL2    -0.800000E-01   12.0110           0
     16016 MEMB     128      PYPG     HA       HAL2     0.900000E-01   1.00800           0
     16017 MEMB     128      PYPG     HB       HAL2     0.900000E-01   1.00800           0
     16018 MEMB     128      PYPG     C2       CTL1     0.170000       12.0110           0
     16019 MEMB     128      PYPG     HS       HAL1     0.900000E-01   1.00800           0
     16020 MEMB     128      PYPG     O21      OSL     -0.490000       15.9994           0
     16021 MEMB     128      PYPG     C21      CL       0.900000       12.0110           0
     16022 MEMB     128      PYPG     O22      OBL     -0.630000       15.9994           0
     16023 MEMB     128      PYPG     C22      CTL2    -0.220000       12.0110           0
     16024 MEMB     128      PYPG     H2R      HAL2     0.900000E-01   1.00800           0
     16025 MEMB     128      PYPG     H2S      HAL2     0.900000E-01   1.00800           0
     16026 MEMB     128      PYPG     C3       CTL2     0.800000E-01   12.0110           0
     16027 MEMB     128      PYPG     HX       HAL2     0.900000E-01   1.00800           0
     16028 MEMB     128      PYPG     HY       HAL2     0.900000E-01   1.00800           0
     16029 MEMB     128      PYPG     O31      OSL     -0.490000       15.9994           0
     16030 MEMB     128      PYPG     C31      CL       0.900000       12.0110           0
     16031 MEMB     128      PYPG     O32      OBL     -0.630000       15.9994           0
     16032 MEMB     128      PYPG     C32      CTL2    -0.220000       12.0110           0
     16033 MEMB     128      PYPG     H2X      HAL2     0.900000E-01   1.00800           0
     16034 MEMB     128      PYPG     H2Y      HAL2     0.900000E-01   1.00800           0
     16035 MEMB     128      PYPG     C23      CTL2    -0.180000       12.0110           0
     16036 MEMB     128      PYPG     H3R      HAL2     0.900000E-01   1.00800           0
     16037 MEMB     128      PYPG     H3S      HAL2     0.900000E-01   1.00800           0
     16038 MEMB     128      PYPG     C24      CTL2    -0.180000       12.0110           0
     16039 MEMB     128      PYPG     H4R      HAL2     0.900000E-01   1.00800           0
     16040 MEMB     128      PYPG     H4S      HAL2     0.900000E-01   1.00800           0
     16041 MEMB     128      PYPG     C25      CTL2    -0.180000       12.0110           0
     16042 MEMB     128      PYPG     H5R      HAL2     0.900000E-01   1.00800           0
     16043 MEMB     128      PYPG     H5S      HAL2     0.900000E-01   1.00800           0
     16044 MEMB     128      PYPG     C26      CTL2    -0.180000       12.0110           0
     16045 MEMB     128      PYPG     H6R      HAL2     0.900000E-01   1.00800           0
     16046 MEMB     128      PYPG     H6S      HAL2     0.900000E-01   1.00800           0
     16047 MEMB     128      PYPG     C27      CTL2    -0.180000       12.0110           0
     16048 MEMB     128      PYPG     H7R      HAL2     0.900000E-01   1.00800           0
     16049 MEMB     128      PYPG     H7S      HAL2     0.900000E-01   1.00800           0
     16050 MEMB     128      PYPG     C28      CTL2    -0.180000       12.0110           0
     16051 MEMB     128      PYPG     H8R      HAL2     0.900000E-01   1.00800           0
     16052 MEMB     128      PYPG     H8S      HAL2     0.900000E-01   1.00800           0
     16053 MEMB     128      PYPG     C29      CEL1    -0.150000       12.0110           0
     16054 MEMB     128      PYPG     H9R      HEL1     0.150000       1.00800           0
     16055 MEMB     128      PYPG     C210     CEL1    -0.150000       12.0110           0
     16056 MEMB     128      PYPG     H10R     HEL1     0.150000       1.00800           0
     16057 MEMB     128      PYPG     C211     CTL2    -0.180000       12.0110           0
     16058 MEMB     128      PYPG     H11R     HAL2     0.900000E-01   1.00800           0
     16059 MEMB     128      PYPG     H11S     HAL2     0.900000E-01   1.00800           0
     16060 MEMB     128      PYPG     C212     CTL2    -0.180000       12.0110           0
     16061 MEMB     128      PYPG     H12R     HAL2     0.900000E-01   1.00800           0
     16062 MEMB     128      PYPG     H12S     HAL2     0.900000E-01   1.00800           0
     16063 MEMB     128      PYPG     C213     CTL2    -0.180000       12.0110           0
     16064 MEMB     128      PYPG     H13R     HAL2     0.900000E-01   1.00800           0
     16065 MEMB     128      PYPG     H13S     HAL2     0.900000E-01   1.00800           0
     16066 MEMB     128      PYPG     C214     CTL2    -0.180000       12.0110           0
     16067 MEMB     128      PYPG     H14R     HAL2     0.900000E-01   1.00800           0
     16068 MEMB     128      PYPG     H14S     HAL2     0.900000E-01   1.00800           0
     16069 MEMB     128      PYPG     C215     CTL2    -0.180000       12.0110           0
     16070 MEMB     128      PYPG     H15R     HAL2     0.900000E-01   1.00800           0
     16071 MEMB     128      PYPG     H15S     HAL2     0.900000E-01   1.00800           0
     16072 MEMB     128      PYPG     C216     CTL3    -0.270000       12.0110           0
     16073 MEMB     128      PYPG     H16R     HAL3     0.900000E-01   1.00800           0
     16074 MEMB     128      PYPG     H16S     HAL3     0.900000E-01   1.00800           0
     16075 MEMB     128      PYPG     H16T     HAL3     0.900000E-01   1.00800           0
     16076 MEMB     128      PYPG     C33      CTL2    -0.180000       12.0110           0
     16077 MEMB     128      PYPG     H3X      HAL2     0.900000E-01   1.00800           0
     16078 MEMB     128      PYPG     H3Y      HAL2     0.900000E-01   1.00800           0
     16079 MEMB     128      PYPG     C34      CTL2    -0.180000       12.0110           0
     16080 MEMB     128      PYPG     H4X      HAL2     0.900000E-01   1.00800           0
     16081 MEMB     128      PYPG     H4Y      HAL2     0.900000E-01   1.00800           0
     16082 MEMB     128      PYPG     C35      CTL2    -0.180000       12.0110           0
     16083 MEMB     128      PYPG     H5X      HAL2     0.900000E-01   1.00800           0
     16084 MEMB     128      PYPG     H5Y      HAL2     0.900000E-01   1.00800           0
     16085 MEMB     128      PYPG     C36      CTL2    -0.180000       12.0110           0
     16086 MEMB     128      PYPG     H6X      HAL2     0.900000E-01   1.00800           0
     16087 MEMB     128      PYPG     H6Y      HAL2     0.900000E-01   1.00800           0
     16088 MEMB     128      PYPG     C37      CTL2    -0.180000       12.0110           0
     16089 MEMB     128      PYPG     H7X      HAL2     0.900000E-01   1.00800           0
     16090 MEMB     128      PYPG     H7Y      HAL2     0.900000E-01   1.00800           0
     16091 MEMB     128      PYPG     C38      CTL2    -0.180000       12.0110           0
     16092 MEMB     128      PYPG     H8X      HAL2     0.900000E-01   1.00800           0
     16093 MEMB     128      PYPG     H8Y      HAL2     0.900000E-01   1.00800           0
     16094 MEMB     128      PYPG     C39      CTL2    -0.180000       12.0110           0
     16095 MEMB     128      PYPG     H9X      HAL2     0.900000E-01   1.00800           0
     16096 MEMB     128      PYPG     H9Y      HAL2     0.900000E-01   1.00800           0
     16097 MEMB     128      PYPG     C310     CTL2    -0.180000       12.0110           0
     16098 MEMB     128      PYPG     H10X     HAL2     0.900000E-01   1.00800           0
     16099 MEMB     128      PYPG     H10Y     HAL2     0.900000E-01   1.00800           0
     16100 MEMB     128      PYPG     C311     CTL2    -0.180000       12.0110           0
     16101 MEMB     128      PYPG     H11X     HAL2     0.900000E-01   1.00800           0
     16102 MEMB     128      PYPG     H11Y     HAL2     0.900000E-01   1.00800           0
     16103 MEMB     128      PYPG     C312     CTL2    -0.180000       12.0110           0
     16104 MEMB     128      PYPG     H12X     HAL2     0.900000E-01   1.00800           0
     16105 MEMB     128      PYPG     H12Y     HAL2     0.900000E-01   1.00800           0
     16106 MEMB     128      PYPG     C313     CTL2    -0.180000       12.0110           0
     16107 MEMB     128      PYPG     H13X     HAL2     0.900000E-01   1.00800           0
     16108 MEMB     128      PYPG     H13Y     HAL2     0.900000E-01   1.00800           0
     16109 MEMB     128      PYPG     C314     CTL2    -0.180000       12.0110           0
     16110 MEMB     128      PYPG     H14X     HAL2     0.900000E-01   1.00800           0
     16111 MEMB     128      PYPG     H14Y     HAL2     0.900000E-01   1.00800           0
     16112 MEMB     128      PYPG     C315     CTL2    -0.180000       12.0110           0
     16113 MEMB     128      PYPG     H15X     HAL2     0.900000E-01   1.00800           0
     16114 MEMB     128      PYPG     H15Y     HAL2     0.900000E-01   1.00800           0
     16115 MEMB     128      PYPG     C316     CTL3    -0.270000       12.0110           0
     16116 MEMB     128      PYPG     H16X     HAL3     0.900000E-01   1.00800           0
     16117 MEMB     128      PYPG     H16Y     HAL3     0.900000E-01   1.00800           0
     16118 MEMB     128      PYPG     H16Z     HAL3     0.900000E-01   1.00800           0
     16119 MEMB     129      PMPE     N        NH3L    -0.300000       14.0070           0
     16120 MEMB     129      PMPE     HN1      HCL      0.330000       1.00800           0
     16121 MEMB     129      PMPE     HN2      HCL      0.330000       1.00800           0
     16122 MEMB     129      PMPE     HN3      HCL      0.330000       1.00800           0
     16123 MEMB     129      PMPE     C12      CTL2     0.130000       12.0110           0
     16124 MEMB     129      PMPE     H12A     HAL2     0.900000E-01   1.00800           0
     16125 MEMB     129      PMPE     H12B     HAL2     0.900000E-01   1.00800           0
     16126 MEMB     129      PMPE     C11      CTL2    -0.800000E-01   12.0110           0
     16127 MEMB     129      PMPE     H11A     HAL2     0.900000E-01   1.00800           0
     16128 MEMB     129      PMPE     H11B     HAL2     0.900000E-01   1.00800           0
     16129 MEMB     129      PMPE     P        PL        1.50000       30.9740           0
     16130 MEMB     129      PMPE     O13      O2L     -0.780000       15.9994           0
     16131 MEMB     129      PMPE     O14      O2L     -0.780000       15.9994           0
     16132 MEMB     129      PMPE     O11      OSLP    -0.570000       15.9994           0
     16133 MEMB     129      PMPE     O12      OSLP    -0.570000       15.9994           0
     16134 MEMB     129      PMPE     C1       CTL2    -0.800000E-01   12.0110           0
     16135 MEMB     129      PMPE     HA       HAL2     0.900000E-01   1.00800           0
     16136 MEMB     129      PMPE     HB       HAL2     0.900000E-01   1.00800           0
     16137 MEMB     129      PMPE     C2       CTL1     0.170000       12.0110           0
     16138 MEMB     129      PMPE     HS       HAL1     0.900000E-01   1.00800           0
     16139 MEMB     129      PMPE     O21      OSL     -0.490000       15.9994           0
     16140 MEMB     129      PMPE     C21      CL       0.900000       12.0110           0
     16141 MEMB     129      PMPE     O22      OBL     -0.630000       15.9994           0
     16142 MEMB     129      PMPE     C22      CTL2    -0.220000       12.0110           0
     16143 MEMB     129      PMPE     H2R      HAL2     0.900000E-01   1.00800           0
     16144 MEMB     129      PMPE     H2S      HAL2     0.900000E-01   1.00800           0
     16145 MEMB     129      PMPE     C3       CTL2     0.800000E-01   12.0110           0
     16146 MEMB     129      PMPE     HX       HAL2     0.900000E-01   1.00800           0
     16147 MEMB     129      PMPE     HY       HAL2     0.900000E-01   1.00800           0
     16148 MEMB     129      PMPE     O31      OSL     -0.490000       15.9994           0
     16149 MEMB     129      PMPE     C31      CL       0.900000       12.0110           0
     16150 MEMB     129      PMPE     O32      OBL     -0.630000       15.9994           0
     16151 MEMB     129      PMPE     C32      CTL2    -0.220000       12.0110           0
     16152 MEMB     129      PMPE     H2X      HAL2     0.900000E-01   1.00800           0
     16153 MEMB     129      PMPE     H2Y      HAL2     0.900000E-01   1.00800           0
     16154 MEMB     129      PMPE     C23      CTL2    -0.180000       12.0110           0
     16155 MEMB     129      PMPE     H3R      HAL2     0.900000E-01   1.00800           0
     16156 MEMB     129      PMPE     H3S      HAL2     0.900000E-01   1.00800           0
     16157 MEMB     129      PMPE     C24      CTL2    -0.180000       12.0110           0
     16158 MEMB     129      PMPE     H4R      HAL2     0.900000E-01   1.00800           0
     16159 MEMB     129      PMPE     H4S      HAL2     0.900000E-01   1.00800           0
     16160 MEMB     129      PMPE     C25      CTL2    -0.180000       12.0110           0
     16161 MEMB     129      PMPE     H5R      HAL2     0.900000E-01   1.00800           0
     16162 MEMB     129      PMPE     H5S      HAL2     0.900000E-01   1.00800           0
     16163 MEMB     129      PMPE     C26      CTL2    -0.180000       12.0110           0
     16164 MEMB     129      PMPE     H6R      HAL2     0.900000E-01   1.00800           0
     16165 MEMB     129      PMPE     H6S      HAL2     0.900000E-01   1.00800           0
     16166 MEMB     129      PMPE     C27      CTL2    -0.180000       12.0110           0
     16167 MEMB     129      PMPE     H7R      HAL2     0.900000E-01   1.00800           0
     16168 MEMB     129      PMPE     H7S      HAL2     0.900000E-01   1.00800           0
     16169 MEMB     129      PMPE     C28      CTL2    -0.180000       12.0110           0
     16170 MEMB     129      PMPE     H8R      HAL2     0.900000E-01   1.00800           0
     16171 MEMB     129      PMPE     H8S      HAL2     0.900000E-01   1.00800           0
     16172 MEMB     129      PMPE     C29      CG3RC1  -0.900000E-01   12.0110           0
     16173 MEMB     129      PMPE     H9R      HGA1     0.900000E-01   1.00800           0
     16174 MEMB     129      PMPE     C217     CG3C31  -0.180000       12.0110           0
     16175 MEMB     129      PMPE     H17R     HGA2     0.900000E-01   1.00800           0
     16176 MEMB     129      PMPE     H17S     HGA2     0.900000E-01   1.00800           0
     16177 MEMB     129      PMPE     C210     CG3RC1  -0.900000E-01   12.0110           0
     16178 MEMB     129      PMPE     H10R     HGA1     0.900000E-01   1.00800           0
     16179 MEMB     129      PMPE     C211     CTL2    -0.180000       12.0110           0
     16180 MEMB     129      PMPE     H11R     HAL2     0.900000E-01   1.00800           0
     16181 MEMB     129      PMPE     H11S     HAL2     0.900000E-01   1.00800           0
     16182 MEMB     129      PMPE     C212     CTL2    -0.180000       12.0110           0
     16183 MEMB     129      PMPE     H12R     HAL2     0.900000E-01   1.00800           0
     16184 MEMB     129      PMPE     H12S     HAL2     0.900000E-01   1.00800           0
     16185 MEMB     129      PMPE     C213     CTL2    -0.180000       12.0110           0
     16186 MEMB     129      PMPE     H13R     HAL2     0.900000E-01   1.00800           0
     16187 MEMB     129      PMPE     H13S     HAL2     0.900000E-01   1.00800           0
     16188 MEMB     129      PMPE     C214     CTL2    -0.180000       12.0110           0
     16189 MEMB     129      PMPE     H14R     HAL2     0.900000E-01   1.00800           0
     16190 MEMB     129      PMPE     H14S     HAL2     0.900000E-01   1.00800           0
     16191 MEMB     129      PMPE     C215     CTL2    -0.180000       12.0110           0
     16192 MEMB     129      PMPE     H15R     HAL2     0.900000E-01   1.00800           0
     16193 MEMB     129      PMPE     H15S     HAL2     0.900000E-01   1.00800           0
     16194 MEMB     129      PMPE     C216     CTL3    -0.270000       12.0110           0
     16195 MEMB     129      PMPE     H16R     HAL3     0.900000E-01   1.00800           0
     16196 MEMB     129      PMPE     H16S     HAL3     0.900000E-01   1.00800           0
     16197 MEMB     129      PMPE     H16T     HAL3     0.900000E-01   1.00800           0
     16198 MEMB     129      PMPE     C33      CTL2    -0.180000       12.0110           0
     16199 MEMB     129      PMPE     H3X      HAL2     0.900000E-01   1.00800           0
     16200 MEMB     129      PMPE     H3Y      HAL2     0.900000E-01   1.00800           0
     16201 MEMB     129      PMPE     C34      CTL2    -0.180000       12.0110           0
     16202 MEMB     129      PMPE     H4X      HAL2     0.900000E-01   1.00800           0
     16203 MEMB     129      PMPE     H4Y      HAL2     0.900000E-01   1.00800           0
     16204 MEMB     129      PMPE     C35      CTL2    -0.180000       12.0110           0
     16205 MEMB     129      PMPE     H5X      HAL2     0.900000E-01   1.00800           0
     16206 MEMB     129      PMPE     H5Y      HAL2     0.900000E-01   1.00800           0
     16207 MEMB     129      PMPE     C36      CTL2    -0.180000       12.0110           0
     16208 MEMB     129      PMPE     H6X      HAL2     0.900000E-01   1.00800           0
     16209 MEMB     129      PMPE     H6Y      HAL2     0.900000E-01   1.00800           0
     16210 MEMB     129      PMPE     C37      CTL2    -0.180000       12.0110           0
     16211 MEMB     129      PMPE     H7X      HAL2     0.900000E-01   1.00800           0
     16212 MEMB     129      PMPE     H7Y      HAL2     0.900000E-01   1.00800           0
     16213 MEMB     129      PMPE     C38      CTL2    -0.180000       12.0110           0
     16214 MEMB     129      PMPE     H8X      HAL2     0.900000E-01   1.00800           0
     16215 MEMB     129      PMPE     H8Y      HAL2     0.900000E-01   1.00800           0
     16216 MEMB     129      PMPE     C39      CTL2    -0.180000       12.0110           0
     16217 MEMB     129      PMPE     H9X      HAL2     0.900000E-01   1.00800           0
     16218 MEMB     129      PMPE     H9Y      HAL2     0.900000E-01   1.00800           0
     16219 MEMB     129      PMPE     C310     CTL2    -0.180000       12.0110           0
     16220 MEMB     129      PMPE     H10X     HAL2     0.900000E-01   1.00800           0
     16221 MEMB     129      PMPE     H10Y     HAL2     0.900000E-01   1.00800           0
     16222 MEMB     129      PMPE     C311     CTL2    -0.180000       12.0110           0
     16223 MEMB     129      PMPE     H11X     HAL2     0.900000E-01   1.00800           0
     16224 MEMB     129      PMPE     H11Y     HAL2     0.900000E-01   1.00800           0
     16225 MEMB     129      PMPE     C312     CTL2    -0.180000       12.0110           0
     16226 MEMB     129      PMPE     H12X     HAL2     0.900000E-01   1.00800           0
     16227 MEMB     129      PMPE     H12Y     HAL2     0.900000E-01   1.00800           0
     16228 MEMB     129      PMPE     C313     CTL2    -0.180000       12.0110           0
     16229 MEMB     129      PMPE     H13X     HAL2     0.900000E-01   1.00800           0
     16230 MEMB     129      PMPE     H13Y     HAL2     0.900000E-01   1.00800           0
     16231 MEMB     129      PMPE     C314     CTL2    -0.180000       12.0110           0
     16232 MEMB     129      PMPE     H14X     HAL2     0.900000E-01   1.00800           0
     16233 MEMB     129      PMPE     H14Y     HAL2     0.900000E-01   1.00800           0
     16234 MEMB     129      PMPE     C315     CTL2    -0.180000       12.0110           0
     16235 MEMB     129      PMPE     H15X     HAL2     0.900000E-01   1.00800           0
     16236 MEMB     129      PMPE     H15Y     HAL2     0.900000E-01   1.00800           0
     16237 MEMB     129      PMPE     C316     CTL3    -0.270000       12.0110           0
     16238 MEMB     129      PMPE     H16X     HAL3     0.900000E-01   1.00800           0
     16239 MEMB     129      PMPE     H16Y     HAL3     0.900000E-01   1.00800           0
     16240 MEMB     129      PMPE     H16Z     HAL3     0.900000E-01   1.00800           0
     16241 MEMB     130      POPE     N        NH3L    -0.300000       14.0070           0
     16242 MEMB     130      POPE     HN1      HCL      0.330000       1.00800           0
     16243 MEMB     130      POPE     HN2      HCL      0.330000       1.00800           0
     16244 MEMB     130      POPE     HN3      HCL      0.330000       1.00800           0
     16245 MEMB     130      POPE     C12      CTL2     0.130000       12.0110           0
     16246 MEMB     130      POPE     H12A     HAL2     0.900000E-01   1.00800           0
     16247 MEMB     130      POPE     H12B     HAL2     0.900000E-01   1.00800           0
     16248 MEMB     130      POPE     C11      CTL2    -0.800000E-01   12.0110           0
     16249 MEMB     130      POPE     H11A     HAL2     0.900000E-01   1.00800           0
     16250 MEMB     130      POPE     H11B     HAL2     0.900000E-01   1.00800           0
     16251 MEMB     130      POPE     P        PL        1.50000       30.9740           0
     16252 MEMB     130      POPE     O13      O2L     -0.780000       15.9994           0
     16253 MEMB     130      POPE     O14      O2L     -0.780000       15.9994           0
     16254 MEMB     130      POPE     O11      OSLP    -0.570000       15.9994           0
     16255 MEMB     130      POPE     O12      OSLP    -0.570000       15.9994           0
     16256 MEMB     130      POPE     C1       CTL2    -0.800000E-01   12.0110           0
     16257 MEMB     130      POPE     HA       HAL2     0.900000E-01   1.00800           0
     16258 MEMB     130      POPE     HB       HAL2     0.900000E-01   1.00800           0
     16259 MEMB     130      POPE     C2       CTL1     0.170000       12.0110           0
     16260 MEMB     130      POPE     HS       HAL1     0.900000E-01   1.00800           0
     16261 MEMB     130      POPE     O21      OSL     -0.490000       15.9994           0
     16262 MEMB     130      POPE     C21      CL       0.900000       12.0110           0
     16263 MEMB     130      POPE     O22      OBL     -0.630000       15.9994           0
     16264 MEMB     130      POPE     C22      CTL2    -0.220000       12.0110           0
     16265 MEMB     130      POPE     H2R      HAL2     0.900000E-01   1.00800           0
     16266 MEMB     130      POPE     H2S      HAL2     0.900000E-01   1.00800           0
     16267 MEMB     130      POPE     C3       CTL2     0.800000E-01   12.0110           0
     16268 MEMB     130      POPE     HX       HAL2     0.900000E-01   1.00800           0
     16269 MEMB     130      POPE     HY       HAL2     0.900000E-01   1.00800           0
     16270 MEMB     130      POPE     O31      OSL     -0.490000       15.9994           0
     16271 MEMB     130      POPE     C31      CL       0.900000       12.0110           0
     16272 MEMB     130      POPE     O32      OBL     -0.630000       15.9994           0
     16273 MEMB     130      POPE     C32      CTL2    -0.220000       12.0110           0
     16274 MEMB     130      POPE     H2X      HAL2     0.900000E-01   1.00800           0
     16275 MEMB     130      POPE     H2Y      HAL2     0.900000E-01   1.00800           0
     16276 MEMB     130      POPE     C23      CTL2    -0.180000       12.0110           0
     16277 MEMB     130      POPE     H3R      HAL2     0.900000E-01   1.00800           0
     16278 MEMB     130      POPE     H3S      HAL2     0.900000E-01   1.00800           0
     16279 MEMB     130      POPE     C24      CTL2    -0.180000       12.0110           0
     16280 MEMB     130      POPE     H4R      HAL2     0.900000E-01   1.00800           0
     16281 MEMB     130      POPE     H4S      HAL2     0.900000E-01   1.00800           0
     16282 MEMB     130      POPE     C25      CTL2    -0.180000       12.0110           0
     16283 MEMB     130      POPE     H5R      HAL2     0.900000E-01   1.00800           0
     16284 MEMB     130      POPE     H5S      HAL2     0.900000E-01   1.00800           0
     16285 MEMB     130      POPE     C26      CTL2    -0.180000       12.0110           0
     16286 MEMB     130      POPE     H6R      HAL2     0.900000E-01   1.00800           0
     16287 MEMB     130      POPE     H6S      HAL2     0.900000E-01   1.00800           0
     16288 MEMB     130      POPE     C27      CTL2    -0.180000       12.0110           0
     16289 MEMB     130      POPE     H7R      HAL2     0.900000E-01   1.00800           0
     16290 MEMB     130      POPE     H7S      HAL2     0.900000E-01   1.00800           0
     16291 MEMB     130      POPE     C28      CTL2    -0.180000       12.0110           0
     16292 MEMB     130      POPE     H8R      HAL2     0.900000E-01   1.00800           0
     16293 MEMB     130      POPE     H8S      HAL2     0.900000E-01   1.00800           0
     16294 MEMB     130      POPE     C29      CEL1    -0.150000       12.0110           0
     16295 MEMB     130      POPE     H91      HEL1     0.150000       1.00800           0
     16296 MEMB     130      POPE     C210     CEL1    -0.150000       12.0110           0
     16297 MEMB     130      POPE     H101     HEL1     0.150000       1.00800           0
     16298 MEMB     130      POPE     C211     CTL2    -0.180000       12.0110           0
     16299 MEMB     130      POPE     H11R     HAL2     0.900000E-01   1.00800           0
     16300 MEMB     130      POPE     H11S     HAL2     0.900000E-01   1.00800           0
     16301 MEMB     130      POPE     C212     CTL2    -0.180000       12.0110           0
     16302 MEMB     130      POPE     H12R     HAL2     0.900000E-01   1.00800           0
     16303 MEMB     130      POPE     H12S     HAL2     0.900000E-01   1.00800           0
     16304 MEMB     130      POPE     C213     CTL2    -0.180000       12.0110           0
     16305 MEMB     130      POPE     H13R     HAL2     0.900000E-01   1.00800           0
     16306 MEMB     130      POPE     H13S     HAL2     0.900000E-01   1.00800           0
     16307 MEMB     130      POPE     C214     CTL2    -0.180000       12.0110           0
     16308 MEMB     130      POPE     H14R     HAL2     0.900000E-01   1.00800           0
     16309 MEMB     130      POPE     H14S     HAL2     0.900000E-01   1.00800           0
     16310 MEMB     130      POPE     C215     CTL2    -0.180000       12.0110           0
     16311 MEMB     130      POPE     H15R     HAL2     0.900000E-01   1.00800           0
     16312 MEMB     130      POPE     H15S     HAL2     0.900000E-01   1.00800           0
     16313 MEMB     130      POPE     C216     CTL2    -0.180000       12.0110           0
     16314 MEMB     130      POPE     H16R     HAL2     0.900000E-01   1.00800           0
     16315 MEMB     130      POPE     H16S     HAL2     0.900000E-01   1.00800           0
     16316 MEMB     130      POPE     C217     CTL2    -0.180000       12.0110           0
     16317 MEMB     130      POPE     H17R     HAL2     0.900000E-01   1.00800           0
     16318 MEMB     130      POPE     H17S     HAL2     0.900000E-01   1.00800           0
     16319 MEMB     130      POPE     C218     CTL3    -0.270000       12.0110           0
     16320 MEMB     130      POPE     H18R     HAL3     0.900000E-01   1.00800           0
     16321 MEMB     130      POPE     H18S     HAL3     0.900000E-01   1.00800           0
     16322 MEMB     130      POPE     H18T     HAL3     0.900000E-01   1.00800           0
     16323 MEMB     130      POPE     C33      CTL2    -0.180000       12.0110           0
     16324 MEMB     130      POPE     H3X      HAL2     0.900000E-01   1.00800           0
     16325 MEMB     130      POPE     H3Y      HAL2     0.900000E-01   1.00800           0
     16326 MEMB     130      POPE     C34      CTL2    -0.180000       12.0110           0
     16327 MEMB     130      POPE     H4X      HAL2     0.900000E-01   1.00800           0
     16328 MEMB     130      POPE     H4Y      HAL2     0.900000E-01   1.00800           0
     16329 MEMB     130      POPE     C35      CTL2    -0.180000       12.0110           0
     16330 MEMB     130      POPE     H5X      HAL2     0.900000E-01   1.00800           0
     16331 MEMB     130      POPE     H5Y      HAL2     0.900000E-01   1.00800           0
     16332 MEMB     130      POPE     C36      CTL2    -0.180000       12.0110           0
     16333 MEMB     130      POPE     H6X      HAL2     0.900000E-01   1.00800           0
     16334 MEMB     130      POPE     H6Y      HAL2     0.900000E-01   1.00800           0
     16335 MEMB     130      POPE     C37      CTL2    -0.180000       12.0110           0
     16336 MEMB     130      POPE     H7X      HAL2     0.900000E-01   1.00800           0
     16337 MEMB     130      POPE     H7Y      HAL2     0.900000E-01   1.00800           0
     16338 MEMB     130      POPE     C38      CTL2    -0.180000       12.0110           0
     16339 MEMB     130      POPE     H8X      HAL2     0.900000E-01   1.00800           0
     16340 MEMB     130      POPE     H8Y      HAL2     0.900000E-01   1.00800           0
     16341 MEMB     130      POPE     C39      CTL2    -0.180000       12.0110           0
     16342 MEMB     130      POPE     H9X      HAL2     0.900000E-01   1.00800           0
     16343 MEMB     130      POPE     H9Y      HAL2     0.900000E-01   1.00800           0
     16344 MEMB     130      POPE     C310     CTL2    -0.180000       12.0110           0
     16345 MEMB     130      POPE     H10X     HAL2     0.900000E-01   1.00800           0
     16346 MEMB     130      POPE     H10Y     HAL2     0.900000E-01   1.00800           0
     16347 MEMB     130      POPE     C311     CTL2    -0.180000       12.0110           0
     16348 MEMB     130      POPE     H11X     HAL2     0.900000E-01   1.00800           0
     16349 MEMB     130      POPE     H11Y     HAL2     0.900000E-01   1.00800           0
     16350 MEMB     130      POPE     C312     CTL2    -0.180000       12.0110           0
     16351 MEMB     130      POPE     H12X     HAL2     0.900000E-01   1.00800           0
     16352 MEMB     130      POPE     H12Y     HAL2     0.900000E-01   1.00800           0
     16353 MEMB     130      POPE     C313     CTL2    -0.180000       12.0110           0
     16354 MEMB     130      POPE     H13X     HAL2     0.900000E-01   1.00800           0
     16355 MEMB     130      POPE     H13Y     HAL2     0.900000E-01   1.00800           0
     16356 MEMB     130      POPE     C314     CTL2    -0.180000       12.0110           0
     16357 MEMB     130      POPE     H14X     HAL2     0.900000E-01   1.00800           0
     16358 MEMB     130      POPE     H14Y     HAL2     0.900000E-01   1.00800           0
     16359 MEMB     130      POPE     C315     CTL2    -0.180000       12.0110           0
     16360 MEMB     130      POPE     H15X     HAL2     0.900000E-01   1.00800           0
     16361 MEMB     130      POPE     H15Y     HAL2     0.900000E-01   1.00800           0
     16362 MEMB     130      POPE     C316     CTL3    -0.270000       12.0110           0
     16363 MEMB     130      POPE     H16X     HAL3     0.900000E-01   1.00800           0
     16364 MEMB     130      POPE     H16Y     HAL3     0.900000E-01   1.00800           0
     16365 MEMB     130      POPE     H16Z     HAL3     0.900000E-01   1.00800           0
     16366 MEMB     131      POPE     N        NH3L    -0.300000       14.0070           0
     16367 MEMB     131      POPE     HN1      HCL      0.330000       1.00800           0
     16368 MEMB     131      POPE     HN2      HCL      0.330000       1.00800           0
     16369 MEMB     131      POPE     HN3      HCL      0.330000       1.00800           0
     16370 MEMB     131      POPE     C12      CTL2     0.130000       12.0110           0
     16371 MEMB     131      POPE     H12A     HAL2     0.900000E-01   1.00800           0
     16372 MEMB     131      POPE     H12B     HAL2     0.900000E-01   1.00800           0
     16373 MEMB     131      POPE     C11      CTL2    -0.800000E-01   12.0110           0
     16374 MEMB     131      POPE     H11A     HAL2     0.900000E-01   1.00800           0
     16375 MEMB     131      POPE     H11B     HAL2     0.900000E-01   1.00800           0
     16376 MEMB     131      POPE     P        PL        1.50000       30.9740           0
     16377 MEMB     131      POPE     O13      O2L     -0.780000       15.9994           0
     16378 MEMB     131      POPE     O14      O2L     -0.780000       15.9994           0
     16379 MEMB     131      POPE     O11      OSLP    -0.570000       15.9994           0
     16380 MEMB     131      POPE     O12      OSLP    -0.570000       15.9994           0
     16381 MEMB     131      POPE     C1       CTL2    -0.800000E-01   12.0110           0
     16382 MEMB     131      POPE     HA       HAL2     0.900000E-01   1.00800           0
     16383 MEMB     131      POPE     HB       HAL2     0.900000E-01   1.00800           0
     16384 MEMB     131      POPE     C2       CTL1     0.170000       12.0110           0
     16385 MEMB     131      POPE     HS       HAL1     0.900000E-01   1.00800           0
     16386 MEMB     131      POPE     O21      OSL     -0.490000       15.9994           0
     16387 MEMB     131      POPE     C21      CL       0.900000       12.0110           0
     16388 MEMB     131      POPE     O22      OBL     -0.630000       15.9994           0
     16389 MEMB     131      POPE     C22      CTL2    -0.220000       12.0110           0
     16390 MEMB     131      POPE     H2R      HAL2     0.900000E-01   1.00800           0
     16391 MEMB     131      POPE     H2S      HAL2     0.900000E-01   1.00800           0
     16392 MEMB     131      POPE     C3       CTL2     0.800000E-01   12.0110           0
     16393 MEMB     131      POPE     HX       HAL2     0.900000E-01   1.00800           0
     16394 MEMB     131      POPE     HY       HAL2     0.900000E-01   1.00800           0
     16395 MEMB     131      POPE     O31      OSL     -0.490000       15.9994           0
     16396 MEMB     131      POPE     C31      CL       0.900000       12.0110           0
     16397 MEMB     131      POPE     O32      OBL     -0.630000       15.9994           0
     16398 MEMB     131      POPE     C32      CTL2    -0.220000       12.0110           0
     16399 MEMB     131      POPE     H2X      HAL2     0.900000E-01   1.00800           0
     16400 MEMB     131      POPE     H2Y      HAL2     0.900000E-01   1.00800           0
     16401 MEMB     131      POPE     C23      CTL2    -0.180000       12.0110           0
     16402 MEMB     131      POPE     H3R      HAL2     0.900000E-01   1.00800           0
     16403 MEMB     131      POPE     H3S      HAL2     0.900000E-01   1.00800           0
     16404 MEMB     131      POPE     C24      CTL2    -0.180000       12.0110           0
     16405 MEMB     131      POPE     H4R      HAL2     0.900000E-01   1.00800           0
     16406 MEMB     131      POPE     H4S      HAL2     0.900000E-01   1.00800           0
     16407 MEMB     131      POPE     C25      CTL2    -0.180000       12.0110           0
     16408 MEMB     131      POPE     H5R      HAL2     0.900000E-01   1.00800           0
     16409 MEMB     131      POPE     H5S      HAL2     0.900000E-01   1.00800           0
     16410 MEMB     131      POPE     C26      CTL2    -0.180000       12.0110           0
     16411 MEMB     131      POPE     H6R      HAL2     0.900000E-01   1.00800           0
     16412 MEMB     131      POPE     H6S      HAL2     0.900000E-01   1.00800           0
     16413 MEMB     131      POPE     C27      CTL2    -0.180000       12.0110           0
     16414 MEMB     131      POPE     H7R      HAL2     0.900000E-01   1.00800           0
     16415 MEMB     131      POPE     H7S      HAL2     0.900000E-01   1.00800           0
     16416 MEMB     131      POPE     C28      CTL2    -0.180000       12.0110           0
     16417 MEMB     131      POPE     H8R      HAL2     0.900000E-01   1.00800           0
     16418 MEMB     131      POPE     H8S      HAL2     0.900000E-01   1.00800           0
     16419 MEMB     131      POPE     C29      CEL1    -0.150000       12.0110           0
     16420 MEMB     131      POPE     H91      HEL1     0.150000       1.00800           0
     16421 MEMB     131      POPE     C210     CEL1    -0.150000       12.0110           0
     16422 MEMB     131      POPE     H101     HEL1     0.150000       1.00800           0
     16423 MEMB     131      POPE     C211     CTL2    -0.180000       12.0110           0
     16424 MEMB     131      POPE     H11R     HAL2     0.900000E-01   1.00800           0
     16425 MEMB     131      POPE     H11S     HAL2     0.900000E-01   1.00800           0
     16426 MEMB     131      POPE     C212     CTL2    -0.180000       12.0110           0
     16427 MEMB     131      POPE     H12R     HAL2     0.900000E-01   1.00800           0
     16428 MEMB     131      POPE     H12S     HAL2     0.900000E-01   1.00800           0
     16429 MEMB     131      POPE     C213     CTL2    -0.180000       12.0110           0
     16430 MEMB     131      POPE     H13R     HAL2     0.900000E-01   1.00800           0
     16431 MEMB     131      POPE     H13S     HAL2     0.900000E-01   1.00800           0
     16432 MEMB     131      POPE     C214     CTL2    -0.180000       12.0110           0
     16433 MEMB     131      POPE     H14R     HAL2     0.900000E-01   1.00800           0
     16434 MEMB     131      POPE     H14S     HAL2     0.900000E-01   1.00800           0
     16435 MEMB     131      POPE     C215     CTL2    -0.180000       12.0110           0
     16436 MEMB     131      POPE     H15R     HAL2     0.900000E-01   1.00800           0
     16437 MEMB     131      POPE     H15S     HAL2     0.900000E-01   1.00800           0
     16438 MEMB     131      POPE     C216     CTL2    -0.180000       12.0110           0
     16439 MEMB     131      POPE     H16R     HAL2     0.900000E-01   1.00800           0
     16440 MEMB     131      POPE     H16S     HAL2     0.900000E-01   1.00800           0
     16441 MEMB     131      POPE     C217     CTL2    -0.180000       12.0110           0
     16442 MEMB     131      POPE     H17R     HAL2     0.900000E-01   1.00800           0
     16443 MEMB     131      POPE     H17S     HAL2     0.900000E-01   1.00800           0
     16444 MEMB     131      POPE     C218     CTL3    -0.270000       12.0110           0
     16445 MEMB     131      POPE     H18R     HAL3     0.900000E-01   1.00800           0
     16446 MEMB     131      POPE     H18S     HAL3     0.900000E-01   1.00800           0
     16447 MEMB     131      POPE     H18T     HAL3     0.900000E-01   1.00800           0
     16448 MEMB     131      POPE     C33      CTL2    -0.180000       12.0110           0
     16449 MEMB     131      POPE     H3X      HAL2     0.900000E-01   1.00800           0
     16450 MEMB     131      POPE     H3Y      HAL2     0.900000E-01   1.00800           0
     16451 MEMB     131      POPE     C34      CTL2    -0.180000       12.0110           0
     16452 MEMB     131      POPE     H4X      HAL2     0.900000E-01   1.00800           0
     16453 MEMB     131      POPE     H4Y      HAL2     0.900000E-01   1.00800           0
     16454 MEMB     131      POPE     C35      CTL2    -0.180000       12.0110           0
     16455 MEMB     131      POPE     H5X      HAL2     0.900000E-01   1.00800           0
     16456 MEMB     131      POPE     H5Y      HAL2     0.900000E-01   1.00800           0
     16457 MEMB     131      POPE     C36      CTL2    -0.180000       12.0110           0
     16458 MEMB     131      POPE     H6X      HAL2     0.900000E-01   1.00800           0
     16459 MEMB     131      POPE     H6Y      HAL2     0.900000E-01   1.00800           0
     16460 MEMB     131      POPE     C37      CTL2    -0.180000       12.0110           0
     16461 MEMB     131      POPE     H7X      HAL2     0.900000E-01   1.00800           0
     16462 MEMB     131      POPE     H7Y      HAL2     0.900000E-01   1.00800           0
     16463 MEMB     131      POPE     C38      CTL2    -0.180000       12.0110           0
     16464 MEMB     131      POPE     H8X      HAL2     0.900000E-01   1.00800           0
     16465 MEMB     131      POPE     H8Y      HAL2     0.900000E-01   1.00800           0
     16466 MEMB     131      POPE     C39      CTL2    -0.180000       12.0110           0
     16467 MEMB     131      POPE     H9X      HAL2     0.900000E-01   1.00800           0
     16468 MEMB     131      POPE     H9Y      HAL2     0.900000E-01   1.00800           0
     16469 MEMB     131      POPE     C310     CTL2    -0.180000       12.0110           0
     16470 MEMB     131      POPE     H10X     HAL2     0.900000E-01   1.00800           0
     16471 MEMB     131      POPE     H10Y     HAL2     0.900000E-01   1.00800           0
     16472 MEMB     131      POPE     C311     CTL2    -0.180000       12.0110           0
     16473 MEMB     131      POPE     H11X     HAL2     0.900000E-01   1.00800           0
     16474 MEMB     131      POPE     H11Y     HAL2     0.900000E-01   1.00800           0
     16475 MEMB     131      POPE     C312     CTL2    -0.180000       12.0110           0
     16476 MEMB     131      POPE     H12X     HAL2     0.900000E-01   1.00800           0
     16477 MEMB     131      POPE     H12Y     HAL2     0.900000E-01   1.00800           0
     16478 MEMB     131      POPE     C313     CTL2    -0.180000       12.0110           0
     16479 MEMB     131      POPE     H13X     HAL2     0.900000E-01   1.00800           0
     16480 MEMB     131      POPE     H13Y     HAL2     0.900000E-01   1.00800           0
     16481 MEMB     131      POPE     C314     CTL2    -0.180000       12.0110           0
     16482 MEMB     131      POPE     H14X     HAL2     0.900000E-01   1.00800           0
     16483 MEMB     131      POPE     H14Y     HAL2     0.900000E-01   1.00800           0
     16484 MEMB     131      POPE     C315     CTL2    -0.180000       12.0110           0
     16485 MEMB     131      POPE     H15X     HAL2     0.900000E-01   1.00800           0
     16486 MEMB     131      POPE     H15Y     HAL2     0.900000E-01   1.00800           0
     16487 MEMB     131      POPE     C316     CTL3    -0.270000       12.0110           0
     16488 MEMB     131      POPE     H16X     HAL3     0.900000E-01   1.00800           0
     16489 MEMB     131      POPE     H16Y     HAL3     0.900000E-01   1.00800           0
     16490 MEMB     131      POPE     H16Z     HAL3     0.900000E-01   1.00800           0
     16491 MEMB     132      OYPE     N        NH3L    -0.300000       14.0070           0
     16492 MEMB     132      OYPE     HN1      HCL      0.330000       1.00800           0
     16493 MEMB     132      OYPE     HN2      HCL      0.330000       1.00800           0
     16494 MEMB     132      OYPE     HN3      HCL      0.330000       1.00800           0
     16495 MEMB     132      OYPE     C12      CTL2     0.130000       12.0110           0
     16496 MEMB     132      OYPE     H12A     HAL2     0.900000E-01   1.00800           0
     16497 MEMB     132      OYPE     H12B     HAL2     0.900000E-01   1.00800           0
     16498 MEMB     132      OYPE     C11      CTL2    -0.800000E-01   12.0110           0
     16499 MEMB     132      OYPE     H11A     HAL2     0.900000E-01   1.00800           0
     16500 MEMB     132      OYPE     H11B     HAL2     0.900000E-01   1.00800           0
     16501 MEMB     132      OYPE     P        PL        1.50000       30.9740           0
     16502 MEMB     132      OYPE     O13      O2L     -0.780000       15.9994           0
     16503 MEMB     132      OYPE     O14      O2L     -0.780000       15.9994           0
     16504 MEMB     132      OYPE     O11      OSLP    -0.570000       15.9994           0
     16505 MEMB     132      OYPE     O12      OSLP    -0.570000       15.9994           0
     16506 MEMB     132      OYPE     C1       CTL2    -0.800000E-01   12.0110           0
     16507 MEMB     132      OYPE     HA       HAL2     0.900000E-01   1.00800           0
     16508 MEMB     132      OYPE     HB       HAL2     0.900000E-01   1.00800           0
     16509 MEMB     132      OYPE     C2       CTL1     0.170000       12.0110           0
     16510 MEMB     132      OYPE     HS       HAL1     0.900000E-01   1.00800           0
     16511 MEMB     132      OYPE     O21      OSL     -0.490000       15.9994           0
     16512 MEMB     132      OYPE     C21      CL       0.900000       12.0110           0
     16513 MEMB     132      OYPE     O22      OBL     -0.630000       15.9994           0
     16514 MEMB     132      OYPE     C22      CTL2    -0.220000       12.0110           0
     16515 MEMB     132      OYPE     H2R      HAL2     0.900000E-01   1.00800           0
     16516 MEMB     132      OYPE     H2S      HAL2     0.900000E-01   1.00800           0
     16517 MEMB     132      OYPE     C3       CTL2     0.800000E-01   12.0110           0
     16518 MEMB     132      OYPE     HX       HAL2     0.900000E-01   1.00800           0
     16519 MEMB     132      OYPE     HY       HAL2     0.900000E-01   1.00800           0
     16520 MEMB     132      OYPE     O31      OSL     -0.490000       15.9994           0
     16521 MEMB     132      OYPE     C31      CL       0.900000       12.0110           0
     16522 MEMB     132      OYPE     O32      OBL     -0.630000       15.9994           0
     16523 MEMB     132      OYPE     C32      CTL2    -0.220000       12.0110           0
     16524 MEMB     132      OYPE     H2X      HAL2     0.900000E-01   1.00800           0
     16525 MEMB     132      OYPE     H2Y      HAL2     0.900000E-01   1.00800           0
     16526 MEMB     132      OYPE     C23      CTL2    -0.180000       12.0110           0
     16527 MEMB     132      OYPE     H3R      HAL2     0.900000E-01   1.00800           0
     16528 MEMB     132      OYPE     H3S      HAL2     0.900000E-01   1.00800           0
     16529 MEMB     132      OYPE     C24      CTL2    -0.180000       12.0110           0
     16530 MEMB     132      OYPE     H4R      HAL2     0.900000E-01   1.00800           0
     16531 MEMB     132      OYPE     H4S      HAL2     0.900000E-01   1.00800           0
     16532 MEMB     132      OYPE     C25      CTL2    -0.180000       12.0110           0
     16533 MEMB     132      OYPE     H5R      HAL2     0.900000E-01   1.00800           0
     16534 MEMB     132      OYPE     H5S      HAL2     0.900000E-01   1.00800           0
     16535 MEMB     132      OYPE     C26      CTL2    -0.180000       12.0110           0
     16536 MEMB     132      OYPE     H6R      HAL2     0.900000E-01   1.00800           0
     16537 MEMB     132      OYPE     H6S      HAL2     0.900000E-01   1.00800           0
     16538 MEMB     132      OYPE     C27      CTL2    -0.180000       12.0110           0
     16539 MEMB     132      OYPE     H7R      HAL2     0.900000E-01   1.00800           0
     16540 MEMB     132      OYPE     H7S      HAL2     0.900000E-01   1.00800           0
     16541 MEMB     132      OYPE     C28      CTL2    -0.180000       12.0110           0
     16542 MEMB     132      OYPE     H8R      HAL2     0.900000E-01   1.00800           0
     16543 MEMB     132      OYPE     H8S      HAL2     0.900000E-01   1.00800           0
     16544 MEMB     132      OYPE     C29      CEL1    -0.150000       12.0110           0
     16545 MEMB     132      OYPE     H9R      HEL1     0.150000       1.00800           0
     16546 MEMB     132      OYPE     C210     CEL1    -0.150000       12.0110           0
     16547 MEMB     132      OYPE     H10R     HEL1     0.150000       1.00800           0
     16548 MEMB     132      OYPE     C211     CTL2    -0.180000       12.0110           0
     16549 MEMB     132      OYPE     H11R     HAL2     0.900000E-01   1.00800           0
     16550 MEMB     132      OYPE     H11S     HAL2     0.900000E-01   1.00800           0
     16551 MEMB     132      OYPE     C212     CTL2    -0.180000       12.0110           0
     16552 MEMB     132      OYPE     H12R     HAL2     0.900000E-01   1.00800           0
     16553 MEMB     132      OYPE     H12S     HAL2     0.900000E-01   1.00800           0
     16554 MEMB     132      OYPE     C213     CTL2    -0.180000       12.0110           0
     16555 MEMB     132      OYPE     H13R     HAL2     0.900000E-01   1.00800           0
     16556 MEMB     132      OYPE     H13S     HAL2     0.900000E-01   1.00800           0
     16557 MEMB     132      OYPE     C214     CTL2    -0.180000       12.0110           0
     16558 MEMB     132      OYPE     H14R     HAL2     0.900000E-01   1.00800           0
     16559 MEMB     132      OYPE     H14S     HAL2     0.900000E-01   1.00800           0
     16560 MEMB     132      OYPE     C215     CTL2    -0.180000       12.0110           0
     16561 MEMB     132      OYPE     H15R     HAL2     0.900000E-01   1.00800           0
     16562 MEMB     132      OYPE     H15S     HAL2     0.900000E-01   1.00800           0
     16563 MEMB     132      OYPE     C216     CTL3    -0.270000       12.0110           0
     16564 MEMB     132      OYPE     H16R     HAL3     0.900000E-01   1.00800           0
     16565 MEMB     132      OYPE     H16S     HAL3     0.900000E-01   1.00800           0
     16566 MEMB     132      OYPE     H16T     HAL3     0.900000E-01   1.00800           0
     16567 MEMB     132      OYPE     C33      CTL2    -0.180000       12.0110           0
     16568 MEMB     132      OYPE     H3X      HAL2     0.900000E-01   1.00800           0
     16569 MEMB     132      OYPE     H3Y      HAL2     0.900000E-01   1.00800           0
     16570 MEMB     132      OYPE     C34      CTL2    -0.180000       12.0110           0
     16571 MEMB     132      OYPE     H4X      HAL2     0.900000E-01   1.00800           0
     16572 MEMB     132      OYPE     H4Y      HAL2     0.900000E-01   1.00800           0
     16573 MEMB     132      OYPE     C35      CTL2    -0.180000       12.0110           0
     16574 MEMB     132      OYPE     H5X      HAL2     0.900000E-01   1.00800           0
     16575 MEMB     132      OYPE     H5Y      HAL2     0.900000E-01   1.00800           0
     16576 MEMB     132      OYPE     C36      CTL2    -0.180000       12.0110           0
     16577 MEMB     132      OYPE     H6X      HAL2     0.900000E-01   1.00800           0
     16578 MEMB     132      OYPE     H6Y      HAL2     0.900000E-01   1.00800           0
     16579 MEMB     132      OYPE     C37      CTL2    -0.180000       12.0110           0
     16580 MEMB     132      OYPE     H7X      HAL2     0.900000E-01   1.00800           0
     16581 MEMB     132      OYPE     H7Y      HAL2     0.900000E-01   1.00800           0
     16582 MEMB     132      OYPE     C38      CTL2    -0.180000       12.0110           0
     16583 MEMB     132      OYPE     H8X      HAL2     0.900000E-01   1.00800           0
     16584 MEMB     132      OYPE     H8Y      HAL2     0.900000E-01   1.00800           0
     16585 MEMB     132      OYPE     C39      CEL1    -0.150000       12.0110           0
     16586 MEMB     132      OYPE     H9X      HEL1     0.150000       1.00800           0
     16587 MEMB     132      OYPE     C310     CEL1    -0.150000       12.0110           0
     16588 MEMB     132      OYPE     H10X     HEL1     0.150000       1.00800           0
     16589 MEMB     132      OYPE     C311     CTL2    -0.180000       12.0110           0
     16590 MEMB     132      OYPE     H11X     HAL2     0.900000E-01   1.00800           0
     16591 MEMB     132      OYPE     H11Y     HAL2     0.900000E-01   1.00800           0
     16592 MEMB     132      OYPE     C312     CTL2    -0.180000       12.0110           0
     16593 MEMB     132      OYPE     H12X     HAL2     0.900000E-01   1.00800           0
     16594 MEMB     132      OYPE     H12Y     HAL2     0.900000E-01   1.00800           0
     16595 MEMB     132      OYPE     C313     CTL2    -0.180000       12.0110           0
     16596 MEMB     132      OYPE     H13X     HAL2     0.900000E-01   1.00800           0
     16597 MEMB     132      OYPE     H13Y     HAL2     0.900000E-01   1.00800           0
     16598 MEMB     132      OYPE     C314     CTL2    -0.180000       12.0110           0
     16599 MEMB     132      OYPE     H14X     HAL2     0.900000E-01   1.00800           0
     16600 MEMB     132      OYPE     H14Y     HAL2     0.900000E-01   1.00800           0
     16601 MEMB     132      OYPE     C315     CTL2    -0.180000       12.0110           0
     16602 MEMB     132      OYPE     H15X     HAL2     0.900000E-01   1.00800           0
     16603 MEMB     132      OYPE     H15Y     HAL2     0.900000E-01   1.00800           0
     16604 MEMB     132      OYPE     C316     CTL2    -0.180000       12.0110           0
     16605 MEMB     132      OYPE     H16X     HAL2     0.900000E-01   1.00800           0
     16606 MEMB     132      OYPE     H16Y     HAL2     0.900000E-01   1.00800           0
     16607 MEMB     132      OYPE     C317     CTL2    -0.180000       12.0110           0
     16608 MEMB     132      OYPE     H17X     HAL2     0.900000E-01   1.00800           0
     16609 MEMB     132      OYPE     H17Y     HAL2     0.900000E-01   1.00800           0
     16610 MEMB     132      OYPE     C318     CTL3    -0.270000       12.0110           0
     16611 MEMB     132      OYPE     H18X     HAL3     0.900000E-01   1.00800           0
     16612 MEMB     132      OYPE     H18Y     HAL3     0.900000E-01   1.00800           0
     16613 MEMB     132      OYPE     H18Z     HAL3     0.900000E-01   1.00800           0
     16614 MEMB     133      PMPE     N        NH3L    -0.300000       14.0070           0
     16615 MEMB     133      PMPE     HN1      HCL      0.330000       1.00800           0
     16616 MEMB     133      PMPE     HN2      HCL      0.330000       1.00800           0
     16617 MEMB     133      PMPE     HN3      HCL      0.330000       1.00800           0
     16618 MEMB     133      PMPE     C12      CTL2     0.130000       12.0110           0
     16619 MEMB     133      PMPE     H12A     HAL2     0.900000E-01   1.00800           0
     16620 MEMB     133      PMPE     H12B     HAL2     0.900000E-01   1.00800           0
     16621 MEMB     133      PMPE     C11      CTL2    -0.800000E-01   12.0110           0
     16622 MEMB     133      PMPE     H11A     HAL2     0.900000E-01   1.00800           0
     16623 MEMB     133      PMPE     H11B     HAL2     0.900000E-01   1.00800           0
     16624 MEMB     133      PMPE     P        PL        1.50000       30.9740           0
     16625 MEMB     133      PMPE     O13      O2L     -0.780000       15.9994           0
     16626 MEMB     133      PMPE     O14      O2L     -0.780000       15.9994           0
     16627 MEMB     133      PMPE     O11      OSLP    -0.570000       15.9994           0
     16628 MEMB     133      PMPE     O12      OSLP    -0.570000       15.9994           0
     16629 MEMB     133      PMPE     C1       CTL2    -0.800000E-01   12.0110           0
     16630 MEMB     133      PMPE     HA       HAL2     0.900000E-01   1.00800           0
     16631 MEMB     133      PMPE     HB       HAL2     0.900000E-01   1.00800           0
     16632 MEMB     133      PMPE     C2       CTL1     0.170000       12.0110           0
     16633 MEMB     133      PMPE     HS       HAL1     0.900000E-01   1.00800           0
     16634 MEMB     133      PMPE     O21      OSL     -0.490000       15.9994           0
     16635 MEMB     133      PMPE     C21      CL       0.900000       12.0110           0
     16636 MEMB     133      PMPE     O22      OBL     -0.630000       15.9994           0
     16637 MEMB     133      PMPE     C22      CTL2    -0.220000       12.0110           0
     16638 MEMB     133      PMPE     H2R      HAL2     0.900000E-01   1.00800           0
     16639 MEMB     133      PMPE     H2S      HAL2     0.900000E-01   1.00800           0
     16640 MEMB     133      PMPE     C3       CTL2     0.800000E-01   12.0110           0
     16641 MEMB     133      PMPE     HX       HAL2     0.900000E-01   1.00800           0
     16642 MEMB     133      PMPE     HY       HAL2     0.900000E-01   1.00800           0
     16643 MEMB     133      PMPE     O31      OSL     -0.490000       15.9994           0
     16644 MEMB     133      PMPE     C31      CL       0.900000       12.0110           0
     16645 MEMB     133      PMPE     O32      OBL     -0.630000       15.9994           0
     16646 MEMB     133      PMPE     C32      CTL2    -0.220000       12.0110           0
     16647 MEMB     133      PMPE     H2X      HAL2     0.900000E-01   1.00800           0
     16648 MEMB     133      PMPE     H2Y      HAL2     0.900000E-01   1.00800           0
     16649 MEMB     133      PMPE     C23      CTL2    -0.180000       12.0110           0
     16650 MEMB     133      PMPE     H3R      HAL2     0.900000E-01   1.00800           0
     16651 MEMB     133      PMPE     H3S      HAL2     0.900000E-01   1.00800           0
     16652 MEMB     133      PMPE     C24      CTL2    -0.180000       12.0110           0
     16653 MEMB     133      PMPE     H4R      HAL2     0.900000E-01   1.00800           0
     16654 MEMB     133      PMPE     H4S      HAL2     0.900000E-01   1.00800           0
     16655 MEMB     133      PMPE     C25      CTL2    -0.180000       12.0110           0
     16656 MEMB     133      PMPE     H5R      HAL2     0.900000E-01   1.00800           0
     16657 MEMB     133      PMPE     H5S      HAL2     0.900000E-01   1.00800           0
     16658 MEMB     133      PMPE     C26      CTL2    -0.180000       12.0110           0
     16659 MEMB     133      PMPE     H6R      HAL2     0.900000E-01   1.00800           0
     16660 MEMB     133      PMPE     H6S      HAL2     0.900000E-01   1.00800           0
     16661 MEMB     133      PMPE     C27      CTL2    -0.180000       12.0110           0
     16662 MEMB     133      PMPE     H7R      HAL2     0.900000E-01   1.00800           0
     16663 MEMB     133      PMPE     H7S      HAL2     0.900000E-01   1.00800           0
     16664 MEMB     133      PMPE     C28      CTL2    -0.180000       12.0110           0
     16665 MEMB     133      PMPE     H8R      HAL2     0.900000E-01   1.00800           0
     16666 MEMB     133      PMPE     H8S      HAL2     0.900000E-01   1.00800           0
     16667 MEMB     133      PMPE     C29      CG3RC1  -0.900000E-01   12.0110           0
     16668 MEMB     133      PMPE     H9R      HGA1     0.900000E-01   1.00800           0
     16669 MEMB     133      PMPE     C217     CG3C31  -0.180000       12.0110           0
     16670 MEMB     133      PMPE     H17R     HGA2     0.900000E-01   1.00800           0
     16671 MEMB     133      PMPE     H17S     HGA2     0.900000E-01   1.00800           0
     16672 MEMB     133      PMPE     C210     CG3RC1  -0.900000E-01   12.0110           0
     16673 MEMB     133      PMPE     H10R     HGA1     0.900000E-01   1.00800           0
     16674 MEMB     133      PMPE     C211     CTL2    -0.180000       12.0110           0
     16675 MEMB     133      PMPE     H11R     HAL2     0.900000E-01   1.00800           0
     16676 MEMB     133      PMPE     H11S     HAL2     0.900000E-01   1.00800           0
     16677 MEMB     133      PMPE     C212     CTL2    -0.180000       12.0110           0
     16678 MEMB     133      PMPE     H12R     HAL2     0.900000E-01   1.00800           0
     16679 MEMB     133      PMPE     H12S     HAL2     0.900000E-01   1.00800           0
     16680 MEMB     133      PMPE     C213     CTL2    -0.180000       12.0110           0
     16681 MEMB     133      PMPE     H13R     HAL2     0.900000E-01   1.00800           0
     16682 MEMB     133      PMPE     H13S     HAL2     0.900000E-01   1.00800           0
     16683 MEMB     133      PMPE     C214     CTL2    -0.180000       12.0110           0
     16684 MEMB     133      PMPE     H14R     HAL2     0.900000E-01   1.00800           0
     16685 MEMB     133      PMPE     H14S     HAL2     0.900000E-01   1.00800           0
     16686 MEMB     133      PMPE     C215     CTL2    -0.180000       12.0110           0
     16687 MEMB     133      PMPE     H15R     HAL2     0.900000E-01   1.00800           0
     16688 MEMB     133      PMPE     H15S     HAL2     0.900000E-01   1.00800           0
     16689 MEMB     133      PMPE     C216     CTL3    -0.270000       12.0110           0
     16690 MEMB     133      PMPE     H16R     HAL3     0.900000E-01   1.00800           0
     16691 MEMB     133      PMPE     H16S     HAL3     0.900000E-01   1.00800           0
     16692 MEMB     133      PMPE     H16T     HAL3     0.900000E-01   1.00800           0
     16693 MEMB     133      PMPE     C33      CTL2    -0.180000       12.0110           0
     16694 MEMB     133      PMPE     H3X      HAL2     0.900000E-01   1.00800           0
     16695 MEMB     133      PMPE     H3Y      HAL2     0.900000E-01   1.00800           0
     16696 MEMB     133      PMPE     C34      CTL2    -0.180000       12.0110           0
     16697 MEMB     133      PMPE     H4X      HAL2     0.900000E-01   1.00800           0
     16698 MEMB     133      PMPE     H4Y      HAL2     0.900000E-01   1.00800           0
     16699 MEMB     133      PMPE     C35      CTL2    -0.180000       12.0110           0
     16700 MEMB     133      PMPE     H5X      HAL2     0.900000E-01   1.00800           0
     16701 MEMB     133      PMPE     H5Y      HAL2     0.900000E-01   1.00800           0
     16702 MEMB     133      PMPE     C36      CTL2    -0.180000       12.0110           0
     16703 MEMB     133      PMPE     H6X      HAL2     0.900000E-01   1.00800           0
     16704 MEMB     133      PMPE     H6Y      HAL2     0.900000E-01   1.00800           0
     16705 MEMB     133      PMPE     C37      CTL2    -0.180000       12.0110           0
     16706 MEMB     133      PMPE     H7X      HAL2     0.900000E-01   1.00800           0
     16707 MEMB     133      PMPE     H7Y      HAL2     0.900000E-01   1.00800           0
     16708 MEMB     133      PMPE     C38      CTL2    -0.180000       12.0110           0
     16709 MEMB     133      PMPE     H8X      HAL2     0.900000E-01   1.00800           0
     16710 MEMB     133      PMPE     H8Y      HAL2     0.900000E-01   1.00800           0
     16711 MEMB     133      PMPE     C39      CTL2    -0.180000       12.0110           0
     16712 MEMB     133      PMPE     H9X      HAL2     0.900000E-01   1.00800           0
     16713 MEMB     133      PMPE     H9Y      HAL2     0.900000E-01   1.00800           0
     16714 MEMB     133      PMPE     C310     CTL2    -0.180000       12.0110           0
     16715 MEMB     133      PMPE     H10X     HAL2     0.900000E-01   1.00800           0
     16716 MEMB     133      PMPE     H10Y     HAL2     0.900000E-01   1.00800           0
     16717 MEMB     133      PMPE     C311     CTL2    -0.180000       12.0110           0
     16718 MEMB     133      PMPE     H11X     HAL2     0.900000E-01   1.00800           0
     16719 MEMB     133      PMPE     H11Y     HAL2     0.900000E-01   1.00800           0
     16720 MEMB     133      PMPE     C312     CTL2    -0.180000       12.0110           0
     16721 MEMB     133      PMPE     H12X     HAL2     0.900000E-01   1.00800           0
     16722 MEMB     133      PMPE     H12Y     HAL2     0.900000E-01   1.00800           0
     16723 MEMB     133      PMPE     C313     CTL2    -0.180000       12.0110           0
     16724 MEMB     133      PMPE     H13X     HAL2     0.900000E-01   1.00800           0
     16725 MEMB     133      PMPE     H13Y     HAL2     0.900000E-01   1.00800           0
     16726 MEMB     133      PMPE     C314     CTL2    -0.180000       12.0110           0
     16727 MEMB     133      PMPE     H14X     HAL2     0.900000E-01   1.00800           0
     16728 MEMB     133      PMPE     H14Y     HAL2     0.900000E-01   1.00800           0
     16729 MEMB     133      PMPE     C315     CTL2    -0.180000       12.0110           0
     16730 MEMB     133      PMPE     H15X     HAL2     0.900000E-01   1.00800           0
     16731 MEMB     133      PMPE     H15Y     HAL2     0.900000E-01   1.00800           0
     16732 MEMB     133      PMPE     C316     CTL3    -0.270000       12.0110           0
     16733 MEMB     133      PMPE     H16X     HAL3     0.900000E-01   1.00800           0
     16734 MEMB     133      PMPE     H16Y     HAL3     0.900000E-01   1.00800           0
     16735 MEMB     133      PMPE     H16Z     HAL3     0.900000E-01   1.00800           0
     16736 MEMB     134      PMPE     N        NH3L    -0.300000       14.0070           0
     16737 MEMB     134      PMPE     HN1      HCL      0.330000       1.00800           0
     16738 MEMB     134      PMPE     HN2      HCL      0.330000       1.00800           0
     16739 MEMB     134      PMPE     HN3      HCL      0.330000       1.00800           0
     16740 MEMB     134      PMPE     C12      CTL2     0.130000       12.0110           0
     16741 MEMB     134      PMPE     H12A     HAL2     0.900000E-01   1.00800           0
     16742 MEMB     134      PMPE     H12B     HAL2     0.900000E-01   1.00800           0
     16743 MEMB     134      PMPE     C11      CTL2    -0.800000E-01   12.0110           0
     16744 MEMB     134      PMPE     H11A     HAL2     0.900000E-01   1.00800           0
     16745 MEMB     134      PMPE     H11B     HAL2     0.900000E-01   1.00800           0
     16746 MEMB     134      PMPE     P        PL        1.50000       30.9740           0
     16747 MEMB     134      PMPE     O13      O2L     -0.780000       15.9994           0
     16748 MEMB     134      PMPE     O14      O2L     -0.780000       15.9994           0
     16749 MEMB     134      PMPE     O11      OSLP    -0.570000       15.9994           0
     16750 MEMB     134      PMPE     O12      OSLP    -0.570000       15.9994           0
     16751 MEMB     134      PMPE     C1       CTL2    -0.800000E-01   12.0110           0
     16752 MEMB     134      PMPE     HA       HAL2     0.900000E-01   1.00800           0
     16753 MEMB     134      PMPE     HB       HAL2     0.900000E-01   1.00800           0
     16754 MEMB     134      PMPE     C2       CTL1     0.170000       12.0110           0
     16755 MEMB     134      PMPE     HS       HAL1     0.900000E-01   1.00800           0
     16756 MEMB     134      PMPE     O21      OSL     -0.490000       15.9994           0
     16757 MEMB     134      PMPE     C21      CL       0.900000       12.0110           0
     16758 MEMB     134      PMPE     O22      OBL     -0.630000       15.9994           0
     16759 MEMB     134      PMPE     C22      CTL2    -0.220000       12.0110           0
     16760 MEMB     134      PMPE     H2R      HAL2     0.900000E-01   1.00800           0
     16761 MEMB     134      PMPE     H2S      HAL2     0.900000E-01   1.00800           0
     16762 MEMB     134      PMPE     C3       CTL2     0.800000E-01   12.0110           0
     16763 MEMB     134      PMPE     HX       HAL2     0.900000E-01   1.00800           0
     16764 MEMB     134      PMPE     HY       HAL2     0.900000E-01   1.00800           0
     16765 MEMB     134      PMPE     O31      OSL     -0.490000       15.9994           0
     16766 MEMB     134      PMPE     C31      CL       0.900000       12.0110           0
     16767 MEMB     134      PMPE     O32      OBL     -0.630000       15.9994           0
     16768 MEMB     134      PMPE     C32      CTL2    -0.220000       12.0110           0
     16769 MEMB     134      PMPE     H2X      HAL2     0.900000E-01   1.00800           0
     16770 MEMB     134      PMPE     H2Y      HAL2     0.900000E-01   1.00800           0
     16771 MEMB     134      PMPE     C23      CTL2    -0.180000       12.0110           0
     16772 MEMB     134      PMPE     H3R      HAL2     0.900000E-01   1.00800           0
     16773 MEMB     134      PMPE     H3S      HAL2     0.900000E-01   1.00800           0
     16774 MEMB     134      PMPE     C24      CTL2    -0.180000       12.0110           0
     16775 MEMB     134      PMPE     H4R      HAL2     0.900000E-01   1.00800           0
     16776 MEMB     134      PMPE     H4S      HAL2     0.900000E-01   1.00800           0
     16777 MEMB     134      PMPE     C25      CTL2    -0.180000       12.0110           0
     16778 MEMB     134      PMPE     H5R      HAL2     0.900000E-01   1.00800           0
     16779 MEMB     134      PMPE     H5S      HAL2     0.900000E-01   1.00800           0
     16780 MEMB     134      PMPE     C26      CTL2    -0.180000       12.0110           0
     16781 MEMB     134      PMPE     H6R      HAL2     0.900000E-01   1.00800           0
     16782 MEMB     134      PMPE     H6S      HAL2     0.900000E-01   1.00800           0
     16783 MEMB     134      PMPE     C27      CTL2    -0.180000       12.0110           0
     16784 MEMB     134      PMPE     H7R      HAL2     0.900000E-01   1.00800           0
     16785 MEMB     134      PMPE     H7S      HAL2     0.900000E-01   1.00800           0
     16786 MEMB     134      PMPE     C28      CTL2    -0.180000       12.0110           0
     16787 MEMB     134      PMPE     H8R      HAL2     0.900000E-01   1.00800           0
     16788 MEMB     134      PMPE     H8S      HAL2     0.900000E-01   1.00800           0
     16789 MEMB     134      PMPE     C29      CG3RC1  -0.900000E-01   12.0110           0
     16790 MEMB     134      PMPE     H9R      HGA1     0.900000E-01   1.00800           0
     16791 MEMB     134      PMPE     C217     CG3C31  -0.180000       12.0110           0
     16792 MEMB     134      PMPE     H17R     HGA2     0.900000E-01   1.00800           0
     16793 MEMB     134      PMPE     H17S     HGA2     0.900000E-01   1.00800           0
     16794 MEMB     134      PMPE     C210     CG3RC1  -0.900000E-01   12.0110           0
     16795 MEMB     134      PMPE     H10R     HGA1     0.900000E-01   1.00800           0
     16796 MEMB     134      PMPE     C211     CTL2    -0.180000       12.0110           0
     16797 MEMB     134      PMPE     H11R     HAL2     0.900000E-01   1.00800           0
     16798 MEMB     134      PMPE     H11S     HAL2     0.900000E-01   1.00800           0
     16799 MEMB     134      PMPE     C212     CTL2    -0.180000       12.0110           0
     16800 MEMB     134      PMPE     H12R     HAL2     0.900000E-01   1.00800           0
     16801 MEMB     134      PMPE     H12S     HAL2     0.900000E-01   1.00800           0
     16802 MEMB     134      PMPE     C213     CTL2    -0.180000       12.0110           0
     16803 MEMB     134      PMPE     H13R     HAL2     0.900000E-01   1.00800           0
     16804 MEMB     134      PMPE     H13S     HAL2     0.900000E-01   1.00800           0
     16805 MEMB     134      PMPE     C214     CTL2    -0.180000       12.0110           0
     16806 MEMB     134      PMPE     H14R     HAL2     0.900000E-01   1.00800           0
     16807 MEMB     134      PMPE     H14S     HAL2     0.900000E-01   1.00800           0
     16808 MEMB     134      PMPE     C215     CTL2    -0.180000       12.0110           0
     16809 MEMB     134      PMPE     H15R     HAL2     0.900000E-01   1.00800           0
     16810 MEMB     134      PMPE     H15S     HAL2     0.900000E-01   1.00800           0
     16811 MEMB     134      PMPE     C216     CTL3    -0.270000       12.0110           0
     16812 MEMB     134      PMPE     H16R     HAL3     0.900000E-01   1.00800           0
     16813 MEMB     134      PMPE     H16S     HAL3     0.900000E-01   1.00800           0
     16814 MEMB     134      PMPE     H16T     HAL3     0.900000E-01   1.00800           0
     16815 MEMB     134      PMPE     C33      CTL2    -0.180000       12.0110           0
     16816 MEMB     134      PMPE     H3X      HAL2     0.900000E-01   1.00800           0
     16817 MEMB     134      PMPE     H3Y      HAL2     0.900000E-01   1.00800           0
     16818 MEMB     134      PMPE     C34      CTL2    -0.180000       12.0110           0
     16819 MEMB     134      PMPE     H4X      HAL2     0.900000E-01   1.00800           0
     16820 MEMB     134      PMPE     H4Y      HAL2     0.900000E-01   1.00800           0
     16821 MEMB     134      PMPE     C35      CTL2    -0.180000       12.0110           0
     16822 MEMB     134      PMPE     H5X      HAL2     0.900000E-01   1.00800           0
     16823 MEMB     134      PMPE     H5Y      HAL2     0.900000E-01   1.00800           0
     16824 MEMB     134      PMPE     C36      CTL2    -0.180000       12.0110           0
     16825 MEMB     134      PMPE     H6X      HAL2     0.900000E-01   1.00800           0
     16826 MEMB     134      PMPE     H6Y      HAL2     0.900000E-01   1.00800           0
     16827 MEMB     134      PMPE     C37      CTL2    -0.180000       12.0110           0
     16828 MEMB     134      PMPE     H7X      HAL2     0.900000E-01   1.00800           0
     16829 MEMB     134      PMPE     H7Y      HAL2     0.900000E-01   1.00800           0
     16830 MEMB     134      PMPE     C38      CTL2    -0.180000       12.0110           0
     16831 MEMB     134      PMPE     H8X      HAL2     0.900000E-01   1.00800           0
     16832 MEMB     134      PMPE     H8Y      HAL2     0.900000E-01   1.00800           0
     16833 MEMB     134      PMPE     C39      CTL2    -0.180000       12.0110           0
     16834 MEMB     134      PMPE     H9X      HAL2     0.900000E-01   1.00800           0
     16835 MEMB     134      PMPE     H9Y      HAL2     0.900000E-01   1.00800           0
     16836 MEMB     134      PMPE     C310     CTL2    -0.180000       12.0110           0
     16837 MEMB     134      PMPE     H10X     HAL2     0.900000E-01   1.00800           0
     16838 MEMB     134      PMPE     H10Y     HAL2     0.900000E-01   1.00800           0
     16839 MEMB     134      PMPE     C311     CTL2    -0.180000       12.0110           0
     16840 MEMB     134      PMPE     H11X     HAL2     0.900000E-01   1.00800           0
     16841 MEMB     134      PMPE     H11Y     HAL2     0.900000E-01   1.00800           0
     16842 MEMB     134      PMPE     C312     CTL2    -0.180000       12.0110           0
     16843 MEMB     134      PMPE     H12X     HAL2     0.900000E-01   1.00800           0
     16844 MEMB     134      PMPE     H12Y     HAL2     0.900000E-01   1.00800           0
     16845 MEMB     134      PMPE     C313     CTL2    -0.180000       12.0110           0
     16846 MEMB     134      PMPE     H13X     HAL2     0.900000E-01   1.00800           0
     16847 MEMB     134      PMPE     H13Y     HAL2     0.900000E-01   1.00800           0
     16848 MEMB     134      PMPE     C314     CTL2    -0.180000       12.0110           0
     16849 MEMB     134      PMPE     H14X     HAL2     0.900000E-01   1.00800           0
     16850 MEMB     134      PMPE     H14Y     HAL2     0.900000E-01   1.00800           0
     16851 MEMB     134      PMPE     C315     CTL2    -0.180000       12.0110           0
     16852 MEMB     134      PMPE     H15X     HAL2     0.900000E-01   1.00800           0
     16853 MEMB     134      PMPE     H15Y     HAL2     0.900000E-01   1.00800           0
     16854 MEMB     134      PMPE     C316     CTL3    -0.270000       12.0110           0
     16855 MEMB     134      PMPE     H16X     HAL3     0.900000E-01   1.00800           0
     16856 MEMB     134      PMPE     H16Y     HAL3     0.900000E-01   1.00800           0
     16857 MEMB     134      PMPE     H16Z     HAL3     0.900000E-01   1.00800           0
     16858 MEMB     135      QMPE     N        NH3L    -0.300000       14.0070           0
     16859 MEMB     135      QMPE     HN1      HCL      0.330000       1.00800           0
     16860 MEMB     135      QMPE     HN2      HCL      0.330000       1.00800           0
     16861 MEMB     135      QMPE     HN3      HCL      0.330000       1.00800           0
     16862 MEMB     135      QMPE     C12      CTL2     0.130000       12.0110           0
     16863 MEMB     135      QMPE     H12A     HAL2     0.900000E-01   1.00800           0
     16864 MEMB     135      QMPE     H12B     HAL2     0.900000E-01   1.00800           0
     16865 MEMB     135      QMPE     C11      CTL2    -0.800000E-01   12.0110           0
     16866 MEMB     135      QMPE     H11A     HAL2     0.900000E-01   1.00800           0
     16867 MEMB     135      QMPE     H11B     HAL2     0.900000E-01   1.00800           0
     16868 MEMB     135      QMPE     P        PL        1.50000       30.9740           0
     16869 MEMB     135      QMPE     O13      O2L     -0.780000       15.9994           0
     16870 MEMB     135      QMPE     O14      O2L     -0.780000       15.9994           0
     16871 MEMB     135      QMPE     O11      OSLP    -0.570000       15.9994           0
     16872 MEMB     135      QMPE     O12      OSLP    -0.570000       15.9994           0
     16873 MEMB     135      QMPE     C1       CTL2    -0.800000E-01   12.0110           0
     16874 MEMB     135      QMPE     HA       HAL2     0.900000E-01   1.00800           0
     16875 MEMB     135      QMPE     HB       HAL2     0.900000E-01   1.00800           0
     16876 MEMB     135      QMPE     C2       CTL1     0.170000       12.0110           0
     16877 MEMB     135      QMPE     HS       HAL1     0.900000E-01   1.00800           0
     16878 MEMB     135      QMPE     O21      OSL     -0.490000       15.9994           0
     16879 MEMB     135      QMPE     C21      CL       0.900000       12.0110           0
     16880 MEMB     135      QMPE     O22      OBL     -0.630000       15.9994           0
     16881 MEMB     135      QMPE     C22      CTL2    -0.220000       12.0110           0
     16882 MEMB     135      QMPE     H2R      HAL2     0.900000E-01   1.00800           0
     16883 MEMB     135      QMPE     H2S      HAL2     0.900000E-01   1.00800           0
     16884 MEMB     135      QMPE     C3       CTL2     0.800000E-01   12.0110           0
     16885 MEMB     135      QMPE     HX       HAL2     0.900000E-01   1.00800           0
     16886 MEMB     135      QMPE     HY       HAL2     0.900000E-01   1.00800           0
     16887 MEMB     135      QMPE     O31      OSL     -0.490000       15.9994           0
     16888 MEMB     135      QMPE     C31      CL       0.900000       12.0110           0
     16889 MEMB     135      QMPE     O32      OBL     -0.630000       15.9994           0
     16890 MEMB     135      QMPE     C32      CTL2    -0.220000       12.0110           0
     16891 MEMB     135      QMPE     H2X      HAL2     0.900000E-01   1.00800           0
     16892 MEMB     135      QMPE     H2Y      HAL2     0.900000E-01   1.00800           0
     16893 MEMB     135      QMPE     C23      CTL2    -0.180000       12.0110           0
     16894 MEMB     135      QMPE     H3R      HAL2     0.900000E-01   1.00800           0
     16895 MEMB     135      QMPE     H3S      HAL2     0.900000E-01   1.00800           0
     16896 MEMB     135      QMPE     C24      CTL2    -0.180000       12.0110           0
     16897 MEMB     135      QMPE     H4R      HAL2     0.900000E-01   1.00800           0
     16898 MEMB     135      QMPE     H4S      HAL2     0.900000E-01   1.00800           0
     16899 MEMB     135      QMPE     C25      CTL2    -0.180000       12.0110           0
     16900 MEMB     135      QMPE     H5R      HAL2     0.900000E-01   1.00800           0
     16901 MEMB     135      QMPE     H5S      HAL2     0.900000E-01   1.00800           0
     16902 MEMB     135      QMPE     C26      CTL2    -0.180000       12.0110           0
     16903 MEMB     135      QMPE     H6R      HAL2     0.900000E-01   1.00800           0
     16904 MEMB     135      QMPE     H6S      HAL2     0.900000E-01   1.00800           0
     16905 MEMB     135      QMPE     C27      CTL2    -0.180000       12.0110           0
     16906 MEMB     135      QMPE     H7R      HAL2     0.900000E-01   1.00800           0
     16907 MEMB     135      QMPE     H7S      HAL2     0.900000E-01   1.00800           0
     16908 MEMB     135      QMPE     C28      CTL2    -0.180000       12.0110           0
     16909 MEMB     135      QMPE     H8R      HAL2     0.900000E-01   1.00800           0
     16910 MEMB     135      QMPE     H8S      HAL2     0.900000E-01   1.00800           0
     16911 MEMB     135      QMPE     C29      CG3RC1  -0.900000E-01   12.0110           0
     16912 MEMB     135      QMPE     H9R      HGA1     0.900000E-01   1.00800           0
     16913 MEMB     135      QMPE     C217     CG3C31  -0.180000       12.0110           0
     16914 MEMB     135      QMPE     H17R     HGA2     0.900000E-01   1.00800           0
     16915 MEMB     135      QMPE     H17S     HGA2     0.900000E-01   1.00800           0
     16916 MEMB     135      QMPE     C210     CG3RC1  -0.900000E-01   12.0110           0
     16917 MEMB     135      QMPE     H10R     HGA1     0.900000E-01   1.00800           0
     16918 MEMB     135      QMPE     C211     CTL2    -0.180000       12.0110           0
     16919 MEMB     135      QMPE     H11R     HAL2     0.900000E-01   1.00800           0
     16920 MEMB     135      QMPE     H11S     HAL2     0.900000E-01   1.00800           0
     16921 MEMB     135      QMPE     C212     CTL2    -0.180000       12.0110           0
     16922 MEMB     135      QMPE     H12R     HAL2     0.900000E-01   1.00800           0
     16923 MEMB     135      QMPE     H12S     HAL2     0.900000E-01   1.00800           0
     16924 MEMB     135      QMPE     C213     CTL2    -0.180000       12.0110           0
     16925 MEMB     135      QMPE     H13R     HAL2     0.900000E-01   1.00800           0
     16926 MEMB     135      QMPE     H13S     HAL2     0.900000E-01   1.00800           0
     16927 MEMB     135      QMPE     C214     CTL2    -0.180000       12.0110           0
     16928 MEMB     135      QMPE     H14R     HAL2     0.900000E-01   1.00800           0
     16929 MEMB     135      QMPE     H14S     HAL2     0.900000E-01   1.00800           0
     16930 MEMB     135      QMPE     C215     CTL2    -0.180000       12.0110           0
     16931 MEMB     135      QMPE     H15R     HAL2     0.900000E-01   1.00800           0
     16932 MEMB     135      QMPE     H15S     HAL2     0.900000E-01   1.00800           0
     16933 MEMB     135      QMPE     C216     CTL3    -0.270000       12.0110           0
     16934 MEMB     135      QMPE     H16R     HAL3     0.900000E-01   1.00800           0
     16935 MEMB     135      QMPE     H16S     HAL3     0.900000E-01   1.00800           0
     16936 MEMB     135      QMPE     H16T     HAL3     0.900000E-01   1.00800           0
     16937 MEMB     135      QMPE     C33      CTL2    -0.180000       12.0110           0
     16938 MEMB     135      QMPE     H3X      HAL2     0.900000E-01   1.00800           0
     16939 MEMB     135      QMPE     H3Y      HAL2     0.900000E-01   1.00800           0
     16940 MEMB     135      QMPE     C34      CTL2    -0.180000       12.0110           0
     16941 MEMB     135      QMPE     H4X      HAL2     0.900000E-01   1.00800           0
     16942 MEMB     135      QMPE     H4Y      HAL2     0.900000E-01   1.00800           0
     16943 MEMB     135      QMPE     C35      CTL2    -0.180000       12.0110           0
     16944 MEMB     135      QMPE     H5X      HAL2     0.900000E-01   1.00800           0
     16945 MEMB     135      QMPE     H5Y      HAL2     0.900000E-01   1.00800           0
     16946 MEMB     135      QMPE     C36      CTL2    -0.180000       12.0110           0
     16947 MEMB     135      QMPE     H6X      HAL2     0.900000E-01   1.00800           0
     16948 MEMB     135      QMPE     H6Y      HAL2     0.900000E-01   1.00800           0
     16949 MEMB     135      QMPE     C37      CTL2    -0.180000       12.0110           0
     16950 MEMB     135      QMPE     H7X      HAL2     0.900000E-01   1.00800           0
     16951 MEMB     135      QMPE     H7Y      HAL2     0.900000E-01   1.00800           0
     16952 MEMB     135      QMPE     C38      CTL2    -0.180000       12.0110           0
     16953 MEMB     135      QMPE     H8X      HAL2     0.900000E-01   1.00800           0
     16954 MEMB     135      QMPE     H8Y      HAL2     0.900000E-01   1.00800           0
     16955 MEMB     135      QMPE     C39      CTL2    -0.180000       12.0110           0
     16956 MEMB     135      QMPE     H9X      HAL2     0.900000E-01   1.00800           0
     16957 MEMB     135      QMPE     H9Y      HAL2     0.900000E-01   1.00800           0
     16958 MEMB     135      QMPE     C310     CTL2    -0.180000       12.0110           0
     16959 MEMB     135      QMPE     H10X     HAL2     0.900000E-01   1.00800           0
     16960 MEMB     135      QMPE     H10Y     HAL2     0.900000E-01   1.00800           0
     16961 MEMB     135      QMPE     C311     CTL2    -0.180000       12.0110           0
     16962 MEMB     135      QMPE     H11X     HAL2     0.900000E-01   1.00800           0
     16963 MEMB     135      QMPE     H11Y     HAL2     0.900000E-01   1.00800           0
     16964 MEMB     135      QMPE     C312     CTL2    -0.180000       12.0110           0
     16965 MEMB     135      QMPE     H12X     HAL2     0.900000E-01   1.00800           0
     16966 MEMB     135      QMPE     H12Y     HAL2     0.900000E-01   1.00800           0
     16967 MEMB     135      QMPE     C313     CTL2    -0.180000       12.0110           0
     16968 MEMB     135      QMPE     H13X     HAL2     0.900000E-01   1.00800           0
     16969 MEMB     135      QMPE     H13Y     HAL2     0.900000E-01   1.00800           0
     16970 MEMB     135      QMPE     C314     CTL2    -0.180000       12.0110           0
     16971 MEMB     135      QMPE     H14X     HAL2     0.900000E-01   1.00800           0
     16972 MEMB     135      QMPE     H14Y     HAL2     0.900000E-01   1.00800           0
     16973 MEMB     135      QMPE     C315     CTL3    -0.270000       12.0110           0
     16974 MEMB     135      QMPE     H15X     HAL3     0.900000E-01   1.00800           0
     16975 MEMB     135      QMPE     H15Y     HAL3     0.900000E-01   1.00800           0
     16976 MEMB     135      QMPE     H15Z     HAL3     0.900000E-01   1.00800           0
     16977 MEMB     136      PMPG     C13      CTL2     0.500000E-01   12.0110           0
     16978 MEMB     136      PMPG     H13A     HAL2     0.900000E-01   1.00800           0
     16979 MEMB     136      PMPG     H13B     HAL2     0.900000E-01   1.00800           0
     16980 MEMB     136      PMPG     OC3      OHL     -0.660000       15.9994           0
     16981 MEMB     136      PMPG     HO3      HOL      0.430000       1.00800           0
     16982 MEMB     136      PMPG     C12      CTL1     0.140000       12.0110           0
     16983 MEMB     136      PMPG     H12A     HAL1     0.900000E-01   1.00800           0
     16984 MEMB     136      PMPG     OC2      OHL     -0.660000       15.9994           0
     16985 MEMB     136      PMPG     HO2      HOL      0.430000       1.00800           0
     16986 MEMB     136      PMPG     C11      CTL2    -0.800000E-01   12.0110           0
     16987 MEMB     136      PMPG     H11A     HAL2     0.900000E-01   1.00800           0
     16988 MEMB     136      PMPG     H11B     HAL2     0.900000E-01   1.00800           0
     16989 MEMB     136      PMPG     P        PL        1.50000       30.9740           0
     16990 MEMB     136      PMPG     O13      O2L     -0.780000       15.9994           0
     16991 MEMB     136      PMPG     O14      O2L     -0.780000       15.9994           0
     16992 MEMB     136      PMPG     O11      OSLP    -0.570000       15.9994           0
     16993 MEMB     136      PMPG     O12      OSLP    -0.570000       15.9994           0
     16994 MEMB     136      PMPG     C1       CTL2    -0.800000E-01   12.0110           0
     16995 MEMB     136      PMPG     HA       HAL2     0.900000E-01   1.00800           0
     16996 MEMB     136      PMPG     HB       HAL2     0.900000E-01   1.00800           0
     16997 MEMB     136      PMPG     C2       CTL1     0.170000       12.0110           0
     16998 MEMB     136      PMPG     HS       HAL1     0.900000E-01   1.00800           0
     16999 MEMB     136      PMPG     O21      OSL     -0.490000       15.9994           0
     17000 MEMB     136      PMPG     C21      CL       0.900000       12.0110           0
     17001 MEMB     136      PMPG     O22      OBL     -0.630000       15.9994           0
     17002 MEMB     136      PMPG     C22      CTL2    -0.220000       12.0110           0
     17003 MEMB     136      PMPG     H2R      HAL2     0.900000E-01   1.00800           0
     17004 MEMB     136      PMPG     H2S      HAL2     0.900000E-01   1.00800           0
     17005 MEMB     136      PMPG     C3       CTL2     0.800000E-01   12.0110           0
     17006 MEMB     136      PMPG     HX       HAL2     0.900000E-01   1.00800           0
     17007 MEMB     136      PMPG     HY       HAL2     0.900000E-01   1.00800           0
     17008 MEMB     136      PMPG     O31      OSL     -0.490000       15.9994           0
     17009 MEMB     136      PMPG     C31      CL       0.900000       12.0110           0
     17010 MEMB     136      PMPG     O32      OBL     -0.630000       15.9994           0
     17011 MEMB     136      PMPG     C32      CTL2    -0.220000       12.0110           0
     17012 MEMB     136      PMPG     H2X      HAL2     0.900000E-01   1.00800           0
     17013 MEMB     136      PMPG     H2Y      HAL2     0.900000E-01   1.00800           0
     17014 MEMB     136      PMPG     C23      CTL2    -0.180000       12.0110           0
     17015 MEMB     136      PMPG     H3R      HAL2     0.900000E-01   1.00800           0
     17016 MEMB     136      PMPG     H3S      HAL2     0.900000E-01   1.00800           0
     17017 MEMB     136      PMPG     C24      CTL2    -0.180000       12.0110           0
     17018 MEMB     136      PMPG     H4R      HAL2     0.900000E-01   1.00800           0
     17019 MEMB     136      PMPG     H4S      HAL2     0.900000E-01   1.00800           0
     17020 MEMB     136      PMPG     C25      CTL2    -0.180000       12.0110           0
     17021 MEMB     136      PMPG     H5R      HAL2     0.900000E-01   1.00800           0
     17022 MEMB     136      PMPG     H5S      HAL2     0.900000E-01   1.00800           0
     17023 MEMB     136      PMPG     C26      CTL2    -0.180000       12.0110           0
     17024 MEMB     136      PMPG     H6R      HAL2     0.900000E-01   1.00800           0
     17025 MEMB     136      PMPG     H6S      HAL2     0.900000E-01   1.00800           0
     17026 MEMB     136      PMPG     C27      CTL2    -0.180000       12.0110           0
     17027 MEMB     136      PMPG     H7R      HAL2     0.900000E-01   1.00800           0
     17028 MEMB     136      PMPG     H7S      HAL2     0.900000E-01   1.00800           0
     17029 MEMB     136      PMPG     C28      CTL2    -0.180000       12.0110           0
     17030 MEMB     136      PMPG     H8R      HAL2     0.900000E-01   1.00800           0
     17031 MEMB     136      PMPG     H8S      HAL2     0.900000E-01   1.00800           0
     17032 MEMB     136      PMPG     C29      CG3RC1  -0.900000E-01   12.0110           0
     17033 MEMB     136      PMPG     H9R      HGA1     0.900000E-01   1.00800           0
     17034 MEMB     136      PMPG     C217     CG3C31  -0.180000       12.0110           0
     17035 MEMB     136      PMPG     H17R     HGA2     0.900000E-01   1.00800           0
     17036 MEMB     136      PMPG     H17S     HGA2     0.900000E-01   1.00800           0
     17037 MEMB     136      PMPG     C210     CG3RC1  -0.900000E-01   12.0110           0
     17038 MEMB     136      PMPG     H10R     HGA1     0.900000E-01   1.00800           0
     17039 MEMB     136      PMPG     C211     CTL2    -0.180000       12.0110           0
     17040 MEMB     136      PMPG     H11R     HAL2     0.900000E-01   1.00800           0
     17041 MEMB     136      PMPG     H11S     HAL2     0.900000E-01   1.00800           0
     17042 MEMB     136      PMPG     C212     CTL2    -0.180000       12.0110           0
     17043 MEMB     136      PMPG     H12R     HAL2     0.900000E-01   1.00800           0
     17044 MEMB     136      PMPG     H12S     HAL2     0.900000E-01   1.00800           0
     17045 MEMB     136      PMPG     C213     CTL2    -0.180000       12.0110           0
     17046 MEMB     136      PMPG     H13R     HAL2     0.900000E-01   1.00800           0
     17047 MEMB     136      PMPG     H13S     HAL2     0.900000E-01   1.00800           0
     17048 MEMB     136      PMPG     C214     CTL2    -0.180000       12.0110           0
     17049 MEMB     136      PMPG     H14R     HAL2     0.900000E-01   1.00800           0
     17050 MEMB     136      PMPG     H14S     HAL2     0.900000E-01   1.00800           0
     17051 MEMB     136      PMPG     C215     CTL2    -0.180000       12.0110           0
     17052 MEMB     136      PMPG     H15R     HAL2     0.900000E-01   1.00800           0
     17053 MEMB     136      PMPG     H15S     HAL2     0.900000E-01   1.00800           0
     17054 MEMB     136      PMPG     C216     CTL3    -0.270000       12.0110           0
     17055 MEMB     136      PMPG     H16R     HAL3     0.900000E-01   1.00800           0
     17056 MEMB     136      PMPG     H16S     HAL3     0.900000E-01   1.00800           0
     17057 MEMB     136      PMPG     H16T     HAL3     0.900000E-01   1.00800           0
     17058 MEMB     136      PMPG     C33      CTL2    -0.180000       12.0110           0
     17059 MEMB     136      PMPG     H3X      HAL2     0.900000E-01   1.00800           0
     17060 MEMB     136      PMPG     H3Y      HAL2     0.900000E-01   1.00800           0
     17061 MEMB     136      PMPG     C34      CTL2    -0.180000       12.0110           0
     17062 MEMB     136      PMPG     H4X      HAL2     0.900000E-01   1.00800           0
     17063 MEMB     136      PMPG     H4Y      HAL2     0.900000E-01   1.00800           0
     17064 MEMB     136      PMPG     C35      CTL2    -0.180000       12.0110           0
     17065 MEMB     136      PMPG     H5X      HAL2     0.900000E-01   1.00800           0
     17066 MEMB     136      PMPG     H5Y      HAL2     0.900000E-01   1.00800           0
     17067 MEMB     136      PMPG     C36      CTL2    -0.180000       12.0110           0
     17068 MEMB     136      PMPG     H6X      HAL2     0.900000E-01   1.00800           0
     17069 MEMB     136      PMPG     H6Y      HAL2     0.900000E-01   1.00800           0
     17070 MEMB     136      PMPG     C37      CTL2    -0.180000       12.0110           0
     17071 MEMB     136      PMPG     H7X      HAL2     0.900000E-01   1.00800           0
     17072 MEMB     136      PMPG     H7Y      HAL2     0.900000E-01   1.00800           0
     17073 MEMB     136      PMPG     C38      CTL2    -0.180000       12.0110           0
     17074 MEMB     136      PMPG     H8X      HAL2     0.900000E-01   1.00800           0
     17075 MEMB     136      PMPG     H8Y      HAL2     0.900000E-01   1.00800           0
     17076 MEMB     136      PMPG     C39      CTL2    -0.180000       12.0110           0
     17077 MEMB     136      PMPG     H9X      HAL2     0.900000E-01   1.00800           0
     17078 MEMB     136      PMPG     H9Y      HAL2     0.900000E-01   1.00800           0
     17079 MEMB     136      PMPG     C310     CTL2    -0.180000       12.0110           0
     17080 MEMB     136      PMPG     H10X     HAL2     0.900000E-01   1.00800           0
     17081 MEMB     136      PMPG     H10Y     HAL2     0.900000E-01   1.00800           0
     17082 MEMB     136      PMPG     C311     CTL2    -0.180000       12.0110           0
     17083 MEMB     136      PMPG     H11X     HAL2     0.900000E-01   1.00800           0
     17084 MEMB     136      PMPG     H11Y     HAL2     0.900000E-01   1.00800           0
     17085 MEMB     136      PMPG     C312     CTL2    -0.180000       12.0110           0
     17086 MEMB     136      PMPG     H12X     HAL2     0.900000E-01   1.00800           0
     17087 MEMB     136      PMPG     H12Y     HAL2     0.900000E-01   1.00800           0
     17088 MEMB     136      PMPG     C313     CTL2    -0.180000       12.0110           0
     17089 MEMB     136      PMPG     H13X     HAL2     0.900000E-01   1.00800           0
     17090 MEMB     136      PMPG     H13Y     HAL2     0.900000E-01   1.00800           0
     17091 MEMB     136      PMPG     C314     CTL2    -0.180000       12.0110           0
     17092 MEMB     136      PMPG     H14X     HAL2     0.900000E-01   1.00800           0
     17093 MEMB     136      PMPG     H14Y     HAL2     0.900000E-01   1.00800           0
     17094 MEMB     136      PMPG     C315     CTL2    -0.180000       12.0110           0
     17095 MEMB     136      PMPG     H15X     HAL2     0.900000E-01   1.00800           0
     17096 MEMB     136      PMPG     H15Y     HAL2     0.900000E-01   1.00800           0
     17097 MEMB     136      PMPG     C316     CTL3    -0.270000       12.0110           0
     17098 MEMB     136      PMPG     H16X     HAL3     0.900000E-01   1.00800           0
     17099 MEMB     136      PMPG     H16Y     HAL3     0.900000E-01   1.00800           0
     17100 MEMB     136      PMPG     H16Z     HAL3     0.900000E-01   1.00800           0
     17101 MEMB     137      POPE     N        NH3L    -0.300000       14.0070           0
     17102 MEMB     137      POPE     HN1      HCL      0.330000       1.00800           0
     17103 MEMB     137      POPE     HN2      HCL      0.330000       1.00800           0
     17104 MEMB     137      POPE     HN3      HCL      0.330000       1.00800           0
     17105 MEMB     137      POPE     C12      CTL2     0.130000       12.0110           0
     17106 MEMB     137      POPE     H12A     HAL2     0.900000E-01   1.00800           0
     17107 MEMB     137      POPE     H12B     HAL2     0.900000E-01   1.00800           0
     17108 MEMB     137      POPE     C11      CTL2    -0.800000E-01   12.0110           0
     17109 MEMB     137      POPE     H11A     HAL2     0.900000E-01   1.00800           0
     17110 MEMB     137      POPE     H11B     HAL2     0.900000E-01   1.00800           0
     17111 MEMB     137      POPE     P        PL        1.50000       30.9740           0
     17112 MEMB     137      POPE     O13      O2L     -0.780000       15.9994           0
     17113 MEMB     137      POPE     O14      O2L     -0.780000       15.9994           0
     17114 MEMB     137      POPE     O11      OSLP    -0.570000       15.9994           0
     17115 MEMB     137      POPE     O12      OSLP    -0.570000       15.9994           0
     17116 MEMB     137      POPE     C1       CTL2    -0.800000E-01   12.0110           0
     17117 MEMB     137      POPE     HA       HAL2     0.900000E-01   1.00800           0
     17118 MEMB     137      POPE     HB       HAL2     0.900000E-01   1.00800           0
     17119 MEMB     137      POPE     C2       CTL1     0.170000       12.0110           0
     17120 MEMB     137      POPE     HS       HAL1     0.900000E-01   1.00800           0
     17121 MEMB     137      POPE     O21      OSL     -0.490000       15.9994           0
     17122 MEMB     137      POPE     C21      CL       0.900000       12.0110           0
     17123 MEMB     137      POPE     O22      OBL     -0.630000       15.9994           0
     17124 MEMB     137      POPE     C22      CTL2    -0.220000       12.0110           0
     17125 MEMB     137      POPE     H2R      HAL2     0.900000E-01   1.00800           0
     17126 MEMB     137      POPE     H2S      HAL2     0.900000E-01   1.00800           0
     17127 MEMB     137      POPE     C3       CTL2     0.800000E-01   12.0110           0
     17128 MEMB     137      POPE     HX       HAL2     0.900000E-01   1.00800           0
     17129 MEMB     137      POPE     HY       HAL2     0.900000E-01   1.00800           0
     17130 MEMB     137      POPE     O31      OSL     -0.490000       15.9994           0
     17131 MEMB     137      POPE     C31      CL       0.900000       12.0110           0
     17132 MEMB     137      POPE     O32      OBL     -0.630000       15.9994           0
     17133 MEMB     137      POPE     C32      CTL2    -0.220000       12.0110           0
     17134 MEMB     137      POPE     H2X      HAL2     0.900000E-01   1.00800           0
     17135 MEMB     137      POPE     H2Y      HAL2     0.900000E-01   1.00800           0
     17136 MEMB     137      POPE     C23      CTL2    -0.180000       12.0110           0
     17137 MEMB     137      POPE     H3R      HAL2     0.900000E-01   1.00800           0
     17138 MEMB     137      POPE     H3S      HAL2     0.900000E-01   1.00800           0
     17139 MEMB     137      POPE     C24      CTL2    -0.180000       12.0110           0
     17140 MEMB     137      POPE     H4R      HAL2     0.900000E-01   1.00800           0
     17141 MEMB     137      POPE     H4S      HAL2     0.900000E-01   1.00800           0
     17142 MEMB     137      POPE     C25      CTL2    -0.180000       12.0110           0
     17143 MEMB     137      POPE     H5R      HAL2     0.900000E-01   1.00800           0
     17144 MEMB     137      POPE     H5S      HAL2     0.900000E-01   1.00800           0
     17145 MEMB     137      POPE     C26      CTL2    -0.180000       12.0110           0
     17146 MEMB     137      POPE     H6R      HAL2     0.900000E-01   1.00800           0
     17147 MEMB     137      POPE     H6S      HAL2     0.900000E-01   1.00800           0
     17148 MEMB     137      POPE     C27      CTL2    -0.180000       12.0110           0
     17149 MEMB     137      POPE     H7R      HAL2     0.900000E-01   1.00800           0
     17150 MEMB     137      POPE     H7S      HAL2     0.900000E-01   1.00800           0
     17151 MEMB     137      POPE     C28      CTL2    -0.180000       12.0110           0
     17152 MEMB     137      POPE     H8R      HAL2     0.900000E-01   1.00800           0
     17153 MEMB     137      POPE     H8S      HAL2     0.900000E-01   1.00800           0
     17154 MEMB     137      POPE     C29      CEL1    -0.150000       12.0110           0
     17155 MEMB     137      POPE     H91      HEL1     0.150000       1.00800           0
     17156 MEMB     137      POPE     C210     CEL1    -0.150000       12.0110           0
     17157 MEMB     137      POPE     H101     HEL1     0.150000       1.00800           0
     17158 MEMB     137      POPE     C211     CTL2    -0.180000       12.0110           0
     17159 MEMB     137      POPE     H11R     HAL2     0.900000E-01   1.00800           0
     17160 MEMB     137      POPE     H11S     HAL2     0.900000E-01   1.00800           0
     17161 MEMB     137      POPE     C212     CTL2    -0.180000       12.0110           0
     17162 MEMB     137      POPE     H12R     HAL2     0.900000E-01   1.00800           0
     17163 MEMB     137      POPE     H12S     HAL2     0.900000E-01   1.00800           0
     17164 MEMB     137      POPE     C213     CTL2    -0.180000       12.0110           0
     17165 MEMB     137      POPE     H13R     HAL2     0.900000E-01   1.00800           0
     17166 MEMB     137      POPE     H13S     HAL2     0.900000E-01   1.00800           0
     17167 MEMB     137      POPE     C214     CTL2    -0.180000       12.0110           0
     17168 MEMB     137      POPE     H14R     HAL2     0.900000E-01   1.00800           0
     17169 MEMB     137      POPE     H14S     HAL2     0.900000E-01   1.00800           0
     17170 MEMB     137      POPE     C215     CTL2    -0.180000       12.0110           0
     17171 MEMB     137      POPE     H15R     HAL2     0.900000E-01   1.00800           0
     17172 MEMB     137      POPE     H15S     HAL2     0.900000E-01   1.00800           0
     17173 MEMB     137      POPE     C216     CTL2    -0.180000       12.0110           0
     17174 MEMB     137      POPE     H16R     HAL2     0.900000E-01   1.00800           0
     17175 MEMB     137      POPE     H16S     HAL2     0.900000E-01   1.00800           0
     17176 MEMB     137      POPE     C217     CTL2    -0.180000       12.0110           0
     17177 MEMB     137      POPE     H17R     HAL2     0.900000E-01   1.00800           0
     17178 MEMB     137      POPE     H17S     HAL2     0.900000E-01   1.00800           0
     17179 MEMB     137      POPE     C218     CTL3    -0.270000       12.0110           0
     17180 MEMB     137      POPE     H18R     HAL3     0.900000E-01   1.00800           0
     17181 MEMB     137      POPE     H18S     HAL3     0.900000E-01   1.00800           0
     17182 MEMB     137      POPE     H18T     HAL3     0.900000E-01   1.00800           0
     17183 MEMB     137      POPE     C33      CTL2    -0.180000       12.0110           0
     17184 MEMB     137      POPE     H3X      HAL2     0.900000E-01   1.00800           0
     17185 MEMB     137      POPE     H3Y      HAL2     0.900000E-01   1.00800           0
     17186 MEMB     137      POPE     C34      CTL2    -0.180000       12.0110           0
     17187 MEMB     137      POPE     H4X      HAL2     0.900000E-01   1.00800           0
     17188 MEMB     137      POPE     H4Y      HAL2     0.900000E-01   1.00800           0
     17189 MEMB     137      POPE     C35      CTL2    -0.180000       12.0110           0
     17190 MEMB     137      POPE     H5X      HAL2     0.900000E-01   1.00800           0
     17191 MEMB     137      POPE     H5Y      HAL2     0.900000E-01   1.00800           0
     17192 MEMB     137      POPE     C36      CTL2    -0.180000       12.0110           0
     17193 MEMB     137      POPE     H6X      HAL2     0.900000E-01   1.00800           0
     17194 MEMB     137      POPE     H6Y      HAL2     0.900000E-01   1.00800           0
     17195 MEMB     137      POPE     C37      CTL2    -0.180000       12.0110           0
     17196 MEMB     137      POPE     H7X      HAL2     0.900000E-01   1.00800           0
     17197 MEMB     137      POPE     H7Y      HAL2     0.900000E-01   1.00800           0
     17198 MEMB     137      POPE     C38      CTL2    -0.180000       12.0110           0
     17199 MEMB     137      POPE     H8X      HAL2     0.900000E-01   1.00800           0
     17200 MEMB     137      POPE     H8Y      HAL2     0.900000E-01   1.00800           0
     17201 MEMB     137      POPE     C39      CTL2    -0.180000       12.0110           0
     17202 MEMB     137      POPE     H9X      HAL2     0.900000E-01   1.00800           0
     17203 MEMB     137      POPE     H9Y      HAL2     0.900000E-01   1.00800           0
     17204 MEMB     137      POPE     C310     CTL2    -0.180000       12.0110           0
     17205 MEMB     137      POPE     H10X     HAL2     0.900000E-01   1.00800           0
     17206 MEMB     137      POPE     H10Y     HAL2     0.900000E-01   1.00800           0
     17207 MEMB     137      POPE     C311     CTL2    -0.180000       12.0110           0
     17208 MEMB     137      POPE     H11X     HAL2     0.900000E-01   1.00800           0
     17209 MEMB     137      POPE     H11Y     HAL2     0.900000E-01   1.00800           0
     17210 MEMB     137      POPE     C312     CTL2    -0.180000       12.0110           0
     17211 MEMB     137      POPE     H12X     HAL2     0.900000E-01   1.00800           0
     17212 MEMB     137      POPE     H12Y     HAL2     0.900000E-01   1.00800           0
     17213 MEMB     137      POPE     C313     CTL2    -0.180000       12.0110           0
     17214 MEMB     137      POPE     H13X     HAL2     0.900000E-01   1.00800           0
     17215 MEMB     137      POPE     H13Y     HAL2     0.900000E-01   1.00800           0
     17216 MEMB     137      POPE     C314     CTL2    -0.180000       12.0110           0
     17217 MEMB     137      POPE     H14X     HAL2     0.900000E-01   1.00800           0
     17218 MEMB     137      POPE     H14Y     HAL2     0.900000E-01   1.00800           0
     17219 MEMB     137      POPE     C315     CTL2    -0.180000       12.0110           0
     17220 MEMB     137      POPE     H15X     HAL2     0.900000E-01   1.00800           0
     17221 MEMB     137      POPE     H15Y     HAL2     0.900000E-01   1.00800           0
     17222 MEMB     137      POPE     C316     CTL3    -0.270000       12.0110           0
     17223 MEMB     137      POPE     H16X     HAL3     0.900000E-01   1.00800           0
     17224 MEMB     137      POPE     H16Y     HAL3     0.900000E-01   1.00800           0
     17225 MEMB     137      POPE     H16Z     HAL3     0.900000E-01   1.00800           0
     17226 MEMB     138      PYPG     C13      CTL2     0.500000E-01   12.0110           0
     17227 MEMB     138      PYPG     H13A     HAL2     0.900000E-01   1.00800           0
     17228 MEMB     138      PYPG     H13B     HAL2     0.900000E-01   1.00800           0
     17229 MEMB     138      PYPG     OC3      OHL     -0.660000       15.9994           0
     17230 MEMB     138      PYPG     HO3      HOL      0.430000       1.00800           0
     17231 MEMB     138      PYPG     C12      CTL1     0.140000       12.0110           0
     17232 MEMB     138      PYPG     H12A     HAL1     0.900000E-01   1.00800           0
     17233 MEMB     138      PYPG     OC2      OHL     -0.660000       15.9994           0
     17234 MEMB     138      PYPG     HO2      HOL      0.430000       1.00800           0
     17235 MEMB     138      PYPG     C11      CTL2    -0.800000E-01   12.0110           0
     17236 MEMB     138      PYPG     H11A     HAL2     0.900000E-01   1.00800           0
     17237 MEMB     138      PYPG     H11B     HAL2     0.900000E-01   1.00800           0
     17238 MEMB     138      PYPG     P        PL        1.50000       30.9740           0
     17239 MEMB     138      PYPG     O13      O2L     -0.780000       15.9994           0
     17240 MEMB     138      PYPG     O14      O2L     -0.780000       15.9994           0
     17241 MEMB     138      PYPG     O11      OSLP    -0.570000       15.9994           0
     17242 MEMB     138      PYPG     O12      OSLP    -0.570000       15.9994           0
     17243 MEMB     138      PYPG     C1       CTL2    -0.800000E-01   12.0110           0
     17244 MEMB     138      PYPG     HA       HAL2     0.900000E-01   1.00800           0
     17245 MEMB     138      PYPG     HB       HAL2     0.900000E-01   1.00800           0
     17246 MEMB     138      PYPG     C2       CTL1     0.170000       12.0110           0
     17247 MEMB     138      PYPG     HS       HAL1     0.900000E-01   1.00800           0
     17248 MEMB     138      PYPG     O21      OSL     -0.490000       15.9994           0
     17249 MEMB     138      PYPG     C21      CL       0.900000       12.0110           0
     17250 MEMB     138      PYPG     O22      OBL     -0.630000       15.9994           0
     17251 MEMB     138      PYPG     C22      CTL2    -0.220000       12.0110           0
     17252 MEMB     138      PYPG     H2R      HAL2     0.900000E-01   1.00800           0
     17253 MEMB     138      PYPG     H2S      HAL2     0.900000E-01   1.00800           0
     17254 MEMB     138      PYPG     C3       CTL2     0.800000E-01   12.0110           0
     17255 MEMB     138      PYPG     HX       HAL2     0.900000E-01   1.00800           0
     17256 MEMB     138      PYPG     HY       HAL2     0.900000E-01   1.00800           0
     17257 MEMB     138      PYPG     O31      OSL     -0.490000       15.9994           0
     17258 MEMB     138      PYPG     C31      CL       0.900000       12.0110           0
     17259 MEMB     138      PYPG     O32      OBL     -0.630000       15.9994           0
     17260 MEMB     138      PYPG     C32      CTL2    -0.220000       12.0110           0
     17261 MEMB     138      PYPG     H2X      HAL2     0.900000E-01   1.00800           0
     17262 MEMB     138      PYPG     H2Y      HAL2     0.900000E-01   1.00800           0
     17263 MEMB     138      PYPG     C23      CTL2    -0.180000       12.0110           0
     17264 MEMB     138      PYPG     H3R      HAL2     0.900000E-01   1.00800           0
     17265 MEMB     138      PYPG     H3S      HAL2     0.900000E-01   1.00800           0
     17266 MEMB     138      PYPG     C24      CTL2    -0.180000       12.0110           0
     17267 MEMB     138      PYPG     H4R      HAL2     0.900000E-01   1.00800           0
     17268 MEMB     138      PYPG     H4S      HAL2     0.900000E-01   1.00800           0
     17269 MEMB     138      PYPG     C25      CTL2    -0.180000       12.0110           0
     17270 MEMB     138      PYPG     H5R      HAL2     0.900000E-01   1.00800           0
     17271 MEMB     138      PYPG     H5S      HAL2     0.900000E-01   1.00800           0
     17272 MEMB     138      PYPG     C26      CTL2    -0.180000       12.0110           0
     17273 MEMB     138      PYPG     H6R      HAL2     0.900000E-01   1.00800           0
     17274 MEMB     138      PYPG     H6S      HAL2     0.900000E-01   1.00800           0
     17275 MEMB     138      PYPG     C27      CTL2    -0.180000       12.0110           0
     17276 MEMB     138      PYPG     H7R      HAL2     0.900000E-01   1.00800           0
     17277 MEMB     138      PYPG     H7S      HAL2     0.900000E-01   1.00800           0
     17278 MEMB     138      PYPG     C28      CTL2    -0.180000       12.0110           0
     17279 MEMB     138      PYPG     H8R      HAL2     0.900000E-01   1.00800           0
     17280 MEMB     138      PYPG     H8S      HAL2     0.900000E-01   1.00800           0
     17281 MEMB     138      PYPG     C29      CEL1    -0.150000       12.0110           0
     17282 MEMB     138      PYPG     H9R      HEL1     0.150000       1.00800           0
     17283 MEMB     138      PYPG     C210     CEL1    -0.150000       12.0110           0
     17284 MEMB     138      PYPG     H10R     HEL1     0.150000       1.00800           0
     17285 MEMB     138      PYPG     C211     CTL2    -0.180000       12.0110           0
     17286 MEMB     138      PYPG     H11R     HAL2     0.900000E-01   1.00800           0
     17287 MEMB     138      PYPG     H11S     HAL2     0.900000E-01   1.00800           0
     17288 MEMB     138      PYPG     C212     CTL2    -0.180000       12.0110           0
     17289 MEMB     138      PYPG     H12R     HAL2     0.900000E-01   1.00800           0
     17290 MEMB     138      PYPG     H12S     HAL2     0.900000E-01   1.00800           0
     17291 MEMB     138      PYPG     C213     CTL2    -0.180000       12.0110           0
     17292 MEMB     138      PYPG     H13R     HAL2     0.900000E-01   1.00800           0
     17293 MEMB     138      PYPG     H13S     HAL2     0.900000E-01   1.00800           0
     17294 MEMB     138      PYPG     C214     CTL2    -0.180000       12.0110           0
     17295 MEMB     138      PYPG     H14R     HAL2     0.900000E-01   1.00800           0
     17296 MEMB     138      PYPG     H14S     HAL2     0.900000E-01   1.00800           0
     17297 MEMB     138      PYPG     C215     CTL2    -0.180000       12.0110           0
     17298 MEMB     138      PYPG     H15R     HAL2     0.900000E-01   1.00800           0
     17299 MEMB     138      PYPG     H15S     HAL2     0.900000E-01   1.00800           0
     17300 MEMB     138      PYPG     C216     CTL3    -0.270000       12.0110           0
     17301 MEMB     138      PYPG     H16R     HAL3     0.900000E-01   1.00800           0
     17302 MEMB     138      PYPG     H16S     HAL3     0.900000E-01   1.00800           0
     17303 MEMB     138      PYPG     H16T     HAL3     0.900000E-01   1.00800           0
     17304 MEMB     138      PYPG     C33      CTL2    -0.180000       12.0110           0
     17305 MEMB     138      PYPG     H3X      HAL2     0.900000E-01   1.00800           0
     17306 MEMB     138      PYPG     H3Y      HAL2     0.900000E-01   1.00800           0
     17307 MEMB     138      PYPG     C34      CTL2    -0.180000       12.0110           0
     17308 MEMB     138      PYPG     H4X      HAL2     0.900000E-01   1.00800           0
     17309 MEMB     138      PYPG     H4Y      HAL2     0.900000E-01   1.00800           0
     17310 MEMB     138      PYPG     C35      CTL2    -0.180000       12.0110           0
     17311 MEMB     138      PYPG     H5X      HAL2     0.900000E-01   1.00800           0
     17312 MEMB     138      PYPG     H5Y      HAL2     0.900000E-01   1.00800           0
     17313 MEMB     138      PYPG     C36      CTL2    -0.180000       12.0110           0
     17314 MEMB     138      PYPG     H6X      HAL2     0.900000E-01   1.00800           0
     17315 MEMB     138      PYPG     H6Y      HAL2     0.900000E-01   1.00800           0
     17316 MEMB     138      PYPG     C37      CTL2    -0.180000       12.0110           0
     17317 MEMB     138      PYPG     H7X      HAL2     0.900000E-01   1.00800           0
     17318 MEMB     138      PYPG     H7Y      HAL2     0.900000E-01   1.00800           0
     17319 MEMB     138      PYPG     C38      CTL2    -0.180000       12.0110           0
     17320 MEMB     138      PYPG     H8X      HAL2     0.900000E-01   1.00800           0
     17321 MEMB     138      PYPG     H8Y      HAL2     0.900000E-01   1.00800           0
     17322 MEMB     138      PYPG     C39      CTL2    -0.180000       12.0110           0
     17323 MEMB     138      PYPG     H9X      HAL2     0.900000E-01   1.00800           0
     17324 MEMB     138      PYPG     H9Y      HAL2     0.900000E-01   1.00800           0
     17325 MEMB     138      PYPG     C310     CTL2    -0.180000       12.0110           0
     17326 MEMB     138      PYPG     H10X     HAL2     0.900000E-01   1.00800           0
     17327 MEMB     138      PYPG     H10Y     HAL2     0.900000E-01   1.00800           0
     17328 MEMB     138      PYPG     C311     CTL2    -0.180000       12.0110           0
     17329 MEMB     138      PYPG     H11X     HAL2     0.900000E-01   1.00800           0
     17330 MEMB     138      PYPG     H11Y     HAL2     0.900000E-01   1.00800           0
     17331 MEMB     138      PYPG     C312     CTL2    -0.180000       12.0110           0
     17332 MEMB     138      PYPG     H12X     HAL2     0.900000E-01   1.00800           0
     17333 MEMB     138      PYPG     H12Y     HAL2     0.900000E-01   1.00800           0
     17334 MEMB     138      PYPG     C313     CTL2    -0.180000       12.0110           0
     17335 MEMB     138      PYPG     H13X     HAL2     0.900000E-01   1.00800           0
     17336 MEMB     138      PYPG     H13Y     HAL2     0.900000E-01   1.00800           0
     17337 MEMB     138      PYPG     C314     CTL2    -0.180000       12.0110           0
     17338 MEMB     138      PYPG     H14X     HAL2     0.900000E-01   1.00800           0
     17339 MEMB     138      PYPG     H14Y     HAL2     0.900000E-01   1.00800           0
     17340 MEMB     138      PYPG     C315     CTL2    -0.180000       12.0110           0
     17341 MEMB     138      PYPG     H15X     HAL2     0.900000E-01   1.00800           0
     17342 MEMB     138      PYPG     H15Y     HAL2     0.900000E-01   1.00800           0
     17343 MEMB     138      PYPG     C316     CTL3    -0.270000       12.0110           0
     17344 MEMB     138      PYPG     H16X     HAL3     0.900000E-01   1.00800           0
     17345 MEMB     138      PYPG     H16Y     HAL3     0.900000E-01   1.00800           0
     17346 MEMB     138      PYPG     H16Z     HAL3     0.900000E-01   1.00800           0
     17347 MEMB     139      QMPE     N        NH3L    -0.300000       14.0070           0
     17348 MEMB     139      QMPE     HN1      HCL      0.330000       1.00800           0
     17349 MEMB     139      QMPE     HN2      HCL      0.330000       1.00800           0
     17350 MEMB     139      QMPE     HN3      HCL      0.330000       1.00800           0
     17351 MEMB     139      QMPE     C12      CTL2     0.130000       12.0110           0
     17352 MEMB     139      QMPE     H12A     HAL2     0.900000E-01   1.00800           0
     17353 MEMB     139      QMPE     H12B     HAL2     0.900000E-01   1.00800           0
     17354 MEMB     139      QMPE     C11      CTL2    -0.800000E-01   12.0110           0
     17355 MEMB     139      QMPE     H11A     HAL2     0.900000E-01   1.00800           0
     17356 MEMB     139      QMPE     H11B     HAL2     0.900000E-01   1.00800           0
     17357 MEMB     139      QMPE     P        PL        1.50000       30.9740           0
     17358 MEMB     139      QMPE     O13      O2L     -0.780000       15.9994           0
     17359 MEMB     139      QMPE     O14      O2L     -0.780000       15.9994           0
     17360 MEMB     139      QMPE     O11      OSLP    -0.570000       15.9994           0
     17361 MEMB     139      QMPE     O12      OSLP    -0.570000       15.9994           0
     17362 MEMB     139      QMPE     C1       CTL2    -0.800000E-01   12.0110           0
     17363 MEMB     139      QMPE     HA       HAL2     0.900000E-01   1.00800           0
     17364 MEMB     139      QMPE     HB       HAL2     0.900000E-01   1.00800           0
     17365 MEMB     139      QMPE     C2       CTL1     0.170000       12.0110           0
     17366 MEMB     139      QMPE     HS       HAL1     0.900000E-01   1.00800           0
     17367 MEMB     139      QMPE     O21      OSL     -0.490000       15.9994           0
     17368 MEMB     139      QMPE     C21      CL       0.900000       12.0110           0
     17369 MEMB     139      QMPE     O22      OBL     -0.630000       15.9994           0
     17370 MEMB     139      QMPE     C22      CTL2    -0.220000       12.0110           0
     17371 MEMB     139      QMPE     H2R      HAL2     0.900000E-01   1.00800           0
     17372 MEMB     139      QMPE     H2S      HAL2     0.900000E-01   1.00800           0
     17373 MEMB     139      QMPE     C3       CTL2     0.800000E-01   12.0110           0
     17374 MEMB     139      QMPE     HX       HAL2     0.900000E-01   1.00800           0
     17375 MEMB     139      QMPE     HY       HAL2     0.900000E-01   1.00800           0
     17376 MEMB     139      QMPE     O31      OSL     -0.490000       15.9994           0
     17377 MEMB     139      QMPE     C31      CL       0.900000       12.0110           0
     17378 MEMB     139      QMPE     O32      OBL     -0.630000       15.9994           0
     17379 MEMB     139      QMPE     C32      CTL2    -0.220000       12.0110           0
     17380 MEMB     139      QMPE     H2X      HAL2     0.900000E-01   1.00800           0
     17381 MEMB     139      QMPE     H2Y      HAL2     0.900000E-01   1.00800           0
     17382 MEMB     139      QMPE     C23      CTL2    -0.180000       12.0110           0
     17383 MEMB     139      QMPE     H3R      HAL2     0.900000E-01   1.00800           0
     17384 MEMB     139      QMPE     H3S      HAL2     0.900000E-01   1.00800           0
     17385 MEMB     139      QMPE     C24      CTL2    -0.180000       12.0110           0
     17386 MEMB     139      QMPE     H4R      HAL2     0.900000E-01   1.00800           0
     17387 MEMB     139      QMPE     H4S      HAL2     0.900000E-01   1.00800           0
     17388 MEMB     139      QMPE     C25      CTL2    -0.180000       12.0110           0
     17389 MEMB     139      QMPE     H5R      HAL2     0.900000E-01   1.00800           0
     17390 MEMB     139      QMPE     H5S      HAL2     0.900000E-01   1.00800           0
     17391 MEMB     139      QMPE     C26      CTL2    -0.180000       12.0110           0
     17392 MEMB     139      QMPE     H6R      HAL2     0.900000E-01   1.00800           0
     17393 MEMB     139      QMPE     H6S      HAL2     0.900000E-01   1.00800           0
     17394 MEMB     139      QMPE     C27      CTL2    -0.180000       12.0110           0
     17395 MEMB     139      QMPE     H7R      HAL2     0.900000E-01   1.00800           0
     17396 MEMB     139      QMPE     H7S      HAL2     0.900000E-01   1.00800           0
     17397 MEMB     139      QMPE     C28      CTL2    -0.180000       12.0110           0
     17398 MEMB     139      QMPE     H8R      HAL2     0.900000E-01   1.00800           0
     17399 MEMB     139      QMPE     H8S      HAL2     0.900000E-01   1.00800           0
     17400 MEMB     139      QMPE     C29      CG3RC1  -0.900000E-01   12.0110           0
     17401 MEMB     139      QMPE     H9R      HGA1     0.900000E-01   1.00800           0
     17402 MEMB     139      QMPE     C217     CG3C31  -0.180000       12.0110           0
     17403 MEMB     139      QMPE     H17R     HGA2     0.900000E-01   1.00800           0
     17404 MEMB     139      QMPE     H17S     HGA2     0.900000E-01   1.00800           0
     17405 MEMB     139      QMPE     C210     CG3RC1  -0.900000E-01   12.0110           0
     17406 MEMB     139      QMPE     H10R     HGA1     0.900000E-01   1.00800           0
     17407 MEMB     139      QMPE     C211     CTL2    -0.180000       12.0110           0
     17408 MEMB     139      QMPE     H11R     HAL2     0.900000E-01   1.00800           0
     17409 MEMB     139      QMPE     H11S     HAL2     0.900000E-01   1.00800           0
     17410 MEMB     139      QMPE     C212     CTL2    -0.180000       12.0110           0
     17411 MEMB     139      QMPE     H12R     HAL2     0.900000E-01   1.00800           0
     17412 MEMB     139      QMPE     H12S     HAL2     0.900000E-01   1.00800           0
     17413 MEMB     139      QMPE     C213     CTL2    -0.180000       12.0110           0
     17414 MEMB     139      QMPE     H13R     HAL2     0.900000E-01   1.00800           0
     17415 MEMB     139      QMPE     H13S     HAL2     0.900000E-01   1.00800           0
     17416 MEMB     139      QMPE     C214     CTL2    -0.180000       12.0110           0
     17417 MEMB     139      QMPE     H14R     HAL2     0.900000E-01   1.00800           0
     17418 MEMB     139      QMPE     H14S     HAL2     0.900000E-01   1.00800           0
     17419 MEMB     139      QMPE     C215     CTL2    -0.180000       12.0110           0
     17420 MEMB     139      QMPE     H15R     HAL2     0.900000E-01   1.00800           0
     17421 MEMB     139      QMPE     H15S     HAL2     0.900000E-01   1.00800           0
     17422 MEMB     139      QMPE     C216     CTL3    -0.270000       12.0110           0
     17423 MEMB     139      QMPE     H16R     HAL3     0.900000E-01   1.00800           0
     17424 MEMB     139      QMPE     H16S     HAL3     0.900000E-01   1.00800           0
     17425 MEMB     139      QMPE     H16T     HAL3     0.900000E-01   1.00800           0
     17426 MEMB     139      QMPE     C33      CTL2    -0.180000       12.0110           0
     17427 MEMB     139      QMPE     H3X      HAL2     0.900000E-01   1.00800           0
     17428 MEMB     139      QMPE     H3Y      HAL2     0.900000E-01   1.00800           0
     17429 MEMB     139      QMPE     C34      CTL2    -0.180000       12.0110           0
     17430 MEMB     139      QMPE     H4X      HAL2     0.900000E-01   1.00800           0
     17431 MEMB     139      QMPE     H4Y      HAL2     0.900000E-01   1.00800           0
     17432 MEMB     139      QMPE     C35      CTL2    -0.180000       12.0110           0
     17433 MEMB     139      QMPE     H5X      HAL2     0.900000E-01   1.00800           0
     17434 MEMB     139      QMPE     H5Y      HAL2     0.900000E-01   1.00800           0
     17435 MEMB     139      QMPE     C36      CTL2    -0.180000       12.0110           0
     17436 MEMB     139      QMPE     H6X      HAL2     0.900000E-01   1.00800           0
     17437 MEMB     139      QMPE     H6Y      HAL2     0.900000E-01   1.00800           0
     17438 MEMB     139      QMPE     C37      CTL2    -0.180000       12.0110           0
     17439 MEMB     139      QMPE     H7X      HAL2     0.900000E-01   1.00800           0
     17440 MEMB     139      QMPE     H7Y      HAL2     0.900000E-01   1.00800           0
     17441 MEMB     139      QMPE     C38      CTL2    -0.180000       12.0110           0
     17442 MEMB     139      QMPE     H8X      HAL2     0.900000E-01   1.00800           0
     17443 MEMB     139      QMPE     H8Y      HAL2     0.900000E-01   1.00800           0
     17444 MEMB     139      QMPE     C39      CTL2    -0.180000       12.0110           0
     17445 MEMB     139      QMPE     H9X      HAL2     0.900000E-01   1.00800           0
     17446 MEMB     139      QMPE     H9Y      HAL2     0.900000E-01   1.00800           0
     17447 MEMB     139      QMPE     C310     CTL2    -0.180000       12.0110           0
     17448 MEMB     139      QMPE     H10X     HAL2     0.900000E-01   1.00800           0
     17449 MEMB     139      QMPE     H10Y     HAL2     0.900000E-01   1.00800           0
     17450 MEMB     139      QMPE     C311     CTL2    -0.180000       12.0110           0
     17451 MEMB     139      QMPE     H11X     HAL2     0.900000E-01   1.00800           0
     17452 MEMB     139      QMPE     H11Y     HAL2     0.900000E-01   1.00800           0
     17453 MEMB     139      QMPE     C312     CTL2    -0.180000       12.0110           0
     17454 MEMB     139      QMPE     H12X     HAL2     0.900000E-01   1.00800           0
     17455 MEMB     139      QMPE     H12Y     HAL2     0.900000E-01   1.00800           0
     17456 MEMB     139      QMPE     C313     CTL2    -0.180000       12.0110           0
     17457 MEMB     139      QMPE     H13X     HAL2     0.900000E-01   1.00800           0
     17458 MEMB     139      QMPE     H13Y     HAL2     0.900000E-01   1.00800           0
     17459 MEMB     139      QMPE     C314     CTL2    -0.180000       12.0110           0
     17460 MEMB     139      QMPE     H14X     HAL2     0.900000E-01   1.00800           0
     17461 MEMB     139      QMPE     H14Y     HAL2     0.900000E-01   1.00800           0
     17462 MEMB     139      QMPE     C315     CTL3    -0.270000       12.0110           0
     17463 MEMB     139      QMPE     H15X     HAL3     0.900000E-01   1.00800           0
     17464 MEMB     139      QMPE     H15Y     HAL3     0.900000E-01   1.00800           0
     17465 MEMB     139      QMPE     H15Z     HAL3     0.900000E-01   1.00800           0
     17466 MEMB     140      OYPE     N        NH3L    -0.300000       14.0070           0
     17467 MEMB     140      OYPE     HN1      HCL      0.330000       1.00800           0
     17468 MEMB     140      OYPE     HN2      HCL      0.330000       1.00800           0
     17469 MEMB     140      OYPE     HN3      HCL      0.330000       1.00800           0
     17470 MEMB     140      OYPE     C12      CTL2     0.130000       12.0110           0
     17471 MEMB     140      OYPE     H12A     HAL2     0.900000E-01   1.00800           0
     17472 MEMB     140      OYPE     H12B     HAL2     0.900000E-01   1.00800           0
     17473 MEMB     140      OYPE     C11      CTL2    -0.800000E-01   12.0110           0
     17474 MEMB     140      OYPE     H11A     HAL2     0.900000E-01   1.00800           0
     17475 MEMB     140      OYPE     H11B     HAL2     0.900000E-01   1.00800           0
     17476 MEMB     140      OYPE     P        PL        1.50000       30.9740           0
     17477 MEMB     140      OYPE     O13      O2L     -0.780000       15.9994           0
     17478 MEMB     140      OYPE     O14      O2L     -0.780000       15.9994           0
     17479 MEMB     140      OYPE     O11      OSLP    -0.570000       15.9994           0
     17480 MEMB     140      OYPE     O12      OSLP    -0.570000       15.9994           0
     17481 MEMB     140      OYPE     C1       CTL2    -0.800000E-01   12.0110           0
     17482 MEMB     140      OYPE     HA       HAL2     0.900000E-01   1.00800           0
     17483 MEMB     140      OYPE     HB       HAL2     0.900000E-01   1.00800           0
     17484 MEMB     140      OYPE     C2       CTL1     0.170000       12.0110           0
     17485 MEMB     140      OYPE     HS       HAL1     0.900000E-01   1.00800           0
     17486 MEMB     140      OYPE     O21      OSL     -0.490000       15.9994           0
     17487 MEMB     140      OYPE     C21      CL       0.900000       12.0110           0
     17488 MEMB     140      OYPE     O22      OBL     -0.630000       15.9994           0
     17489 MEMB     140      OYPE     C22      CTL2    -0.220000       12.0110           0
     17490 MEMB     140      OYPE     H2R      HAL2     0.900000E-01   1.00800           0
     17491 MEMB     140      OYPE     H2S      HAL2     0.900000E-01   1.00800           0
     17492 MEMB     140      OYPE     C3       CTL2     0.800000E-01   12.0110           0
     17493 MEMB     140      OYPE     HX       HAL2     0.900000E-01   1.00800           0
     17494 MEMB     140      OYPE     HY       HAL2     0.900000E-01   1.00800           0
     17495 MEMB     140      OYPE     O31      OSL     -0.490000       15.9994           0
     17496 MEMB     140      OYPE     C31      CL       0.900000       12.0110           0
     17497 MEMB     140      OYPE     O32      OBL     -0.630000       15.9994           0
     17498 MEMB     140      OYPE     C32      CTL2    -0.220000       12.0110           0
     17499 MEMB     140      OYPE     H2X      HAL2     0.900000E-01   1.00800           0
     17500 MEMB     140      OYPE     H2Y      HAL2     0.900000E-01   1.00800           0
     17501 MEMB     140      OYPE     C23      CTL2    -0.180000       12.0110           0
     17502 MEMB     140      OYPE     H3R      HAL2     0.900000E-01   1.00800           0
     17503 MEMB     140      OYPE     H3S      HAL2     0.900000E-01   1.00800           0
     17504 MEMB     140      OYPE     C24      CTL2    -0.180000       12.0110           0
     17505 MEMB     140      OYPE     H4R      HAL2     0.900000E-01   1.00800           0
     17506 MEMB     140      OYPE     H4S      HAL2     0.900000E-01   1.00800           0
     17507 MEMB     140      OYPE     C25      CTL2    -0.180000       12.0110           0
     17508 MEMB     140      OYPE     H5R      HAL2     0.900000E-01   1.00800           0
     17509 MEMB     140      OYPE     H5S      HAL2     0.900000E-01   1.00800           0
     17510 MEMB     140      OYPE     C26      CTL2    -0.180000       12.0110           0
     17511 MEMB     140      OYPE     H6R      HAL2     0.900000E-01   1.00800           0
     17512 MEMB     140      OYPE     H6S      HAL2     0.900000E-01   1.00800           0
     17513 MEMB     140      OYPE     C27      CTL2    -0.180000       12.0110           0
     17514 MEMB     140      OYPE     H7R      HAL2     0.900000E-01   1.00800           0
     17515 MEMB     140      OYPE     H7S      HAL2     0.900000E-01   1.00800           0
     17516 MEMB     140      OYPE     C28      CTL2    -0.180000       12.0110           0
     17517 MEMB     140      OYPE     H8R      HAL2     0.900000E-01   1.00800           0
     17518 MEMB     140      OYPE     H8S      HAL2     0.900000E-01   1.00800           0
     17519 MEMB     140      OYPE     C29      CEL1    -0.150000       12.0110           0
     17520 MEMB     140      OYPE     H9R      HEL1     0.150000       1.00800           0
     17521 MEMB     140      OYPE     C210     CEL1    -0.150000       12.0110           0
     17522 MEMB     140      OYPE     H10R     HEL1     0.150000       1.00800           0
     17523 MEMB     140      OYPE     C211     CTL2    -0.180000       12.0110           0
     17524 MEMB     140      OYPE     H11R     HAL2     0.900000E-01   1.00800           0
     17525 MEMB     140      OYPE     H11S     HAL2     0.900000E-01   1.00800           0
     17526 MEMB     140      OYPE     C212     CTL2    -0.180000       12.0110           0
     17527 MEMB     140      OYPE     H12R     HAL2     0.900000E-01   1.00800           0
     17528 MEMB     140      OYPE     H12S     HAL2     0.900000E-01   1.00800           0
     17529 MEMB     140      OYPE     C213     CTL2    -0.180000       12.0110           0
     17530 MEMB     140      OYPE     H13R     HAL2     0.900000E-01   1.00800           0
     17531 MEMB     140      OYPE     H13S     HAL2     0.900000E-01   1.00800           0
     17532 MEMB     140      OYPE     C214     CTL2    -0.180000       12.0110           0
     17533 MEMB     140      OYPE     H14R     HAL2     0.900000E-01   1.00800           0
     17534 MEMB     140      OYPE     H14S     HAL2     0.900000E-01   1.00800           0
     17535 MEMB     140      OYPE     C215     CTL2    -0.180000       12.0110           0
     17536 MEMB     140      OYPE     H15R     HAL2     0.900000E-01   1.00800           0
     17537 MEMB     140      OYPE     H15S     HAL2     0.900000E-01   1.00800           0
     17538 MEMB     140      OYPE     C216     CTL3    -0.270000       12.0110           0
     17539 MEMB     140      OYPE     H16R     HAL3     0.900000E-01   1.00800           0
     17540 MEMB     140      OYPE     H16S     HAL3     0.900000E-01   1.00800           0
     17541 MEMB     140      OYPE     H16T     HAL3     0.900000E-01   1.00800           0
     17542 MEMB     140      OYPE     C33      CTL2    -0.180000       12.0110           0
     17543 MEMB     140      OYPE     H3X      HAL2     0.900000E-01   1.00800           0
     17544 MEMB     140      OYPE     H3Y      HAL2     0.900000E-01   1.00800           0
     17545 MEMB     140      OYPE     C34      CTL2    -0.180000       12.0110           0
     17546 MEMB     140      OYPE     H4X      HAL2     0.900000E-01   1.00800           0
     17547 MEMB     140      OYPE     H4Y      HAL2     0.900000E-01   1.00800           0
     17548 MEMB     140      OYPE     C35      CTL2    -0.180000       12.0110           0
     17549 MEMB     140      OYPE     H5X      HAL2     0.900000E-01   1.00800           0
     17550 MEMB     140      OYPE     H5Y      HAL2     0.900000E-01   1.00800           0
     17551 MEMB     140      OYPE     C36      CTL2    -0.180000       12.0110           0
     17552 MEMB     140      OYPE     H6X      HAL2     0.900000E-01   1.00800           0
     17553 MEMB     140      OYPE     H6Y      HAL2     0.900000E-01   1.00800           0
     17554 MEMB     140      OYPE     C37      CTL2    -0.180000       12.0110           0
     17555 MEMB     140      OYPE     H7X      HAL2     0.900000E-01   1.00800           0
     17556 MEMB     140      OYPE     H7Y      HAL2     0.900000E-01   1.00800           0
     17557 MEMB     140      OYPE     C38      CTL2    -0.180000       12.0110           0
     17558 MEMB     140      OYPE     H8X      HAL2     0.900000E-01   1.00800           0
     17559 MEMB     140      OYPE     H8Y      HAL2     0.900000E-01   1.00800           0
     17560 MEMB     140      OYPE     C39      CEL1    -0.150000       12.0110           0
     17561 MEMB     140      OYPE     H9X      HEL1     0.150000       1.00800           0
     17562 MEMB     140      OYPE     C310     CEL1    -0.150000       12.0110           0
     17563 MEMB     140      OYPE     H10X     HEL1     0.150000       1.00800           0
     17564 MEMB     140      OYPE     C311     CTL2    -0.180000       12.0110           0
     17565 MEMB     140      OYPE     H11X     HAL2     0.900000E-01   1.00800           0
     17566 MEMB     140      OYPE     H11Y     HAL2     0.900000E-01   1.00800           0
     17567 MEMB     140      OYPE     C312     CTL2    -0.180000       12.0110           0
     17568 MEMB     140      OYPE     H12X     HAL2     0.900000E-01   1.00800           0
     17569 MEMB     140      OYPE     H12Y     HAL2     0.900000E-01   1.00800           0
     17570 MEMB     140      OYPE     C313     CTL2    -0.180000       12.0110           0
     17571 MEMB     140      OYPE     H13X     HAL2     0.900000E-01   1.00800           0
     17572 MEMB     140      OYPE     H13Y     HAL2     0.900000E-01   1.00800           0
     17573 MEMB     140      OYPE     C314     CTL2    -0.180000       12.0110           0
     17574 MEMB     140      OYPE     H14X     HAL2     0.900000E-01   1.00800           0
     17575 MEMB     140      OYPE     H14Y     HAL2     0.900000E-01   1.00800           0
     17576 MEMB     140      OYPE     C315     CTL2    -0.180000       12.0110           0
     17577 MEMB     140      OYPE     H15X     HAL2     0.900000E-01   1.00800           0
     17578 MEMB     140      OYPE     H15Y     HAL2     0.900000E-01   1.00800           0
     17579 MEMB     140      OYPE     C316     CTL2    -0.180000       12.0110           0
     17580 MEMB     140      OYPE     H16X     HAL2     0.900000E-01   1.00800           0
     17581 MEMB     140      OYPE     H16Y     HAL2     0.900000E-01   1.00800           0
     17582 MEMB     140      OYPE     C317     CTL2    -0.180000       12.0110           0
     17583 MEMB     140      OYPE     H17X     HAL2     0.900000E-01   1.00800           0
     17584 MEMB     140      OYPE     H17Y     HAL2     0.900000E-01   1.00800           0
     17585 MEMB     140      OYPE     C318     CTL3    -0.270000       12.0110           0
     17586 MEMB     140      OYPE     H18X     HAL3     0.900000E-01   1.00800           0
     17587 MEMB     140      OYPE     H18Y     HAL3     0.900000E-01   1.00800           0
     17588 MEMB     140      OYPE     H18Z     HAL3     0.900000E-01   1.00800           0
     17589 MEMB     141      PMPE     N        NH3L    -0.300000       14.0070           0
     17590 MEMB     141      PMPE     HN1      HCL      0.330000       1.00800           0
     17591 MEMB     141      PMPE     HN2      HCL      0.330000       1.00800           0
     17592 MEMB     141      PMPE     HN3      HCL      0.330000       1.00800           0
     17593 MEMB     141      PMPE     C12      CTL2     0.130000       12.0110           0
     17594 MEMB     141      PMPE     H12A     HAL2     0.900000E-01   1.00800           0
     17595 MEMB     141      PMPE     H12B     HAL2     0.900000E-01   1.00800           0
     17596 MEMB     141      PMPE     C11      CTL2    -0.800000E-01   12.0110           0
     17597 MEMB     141      PMPE     H11A     HAL2     0.900000E-01   1.00800           0
     17598 MEMB     141      PMPE     H11B     HAL2     0.900000E-01   1.00800           0
     17599 MEMB     141      PMPE     P        PL        1.50000       30.9740           0
     17600 MEMB     141      PMPE     O13      O2L     -0.780000       15.9994           0
     17601 MEMB     141      PMPE     O14      O2L     -0.780000       15.9994           0
     17602 MEMB     141      PMPE     O11      OSLP    -0.570000       15.9994           0
     17603 MEMB     141      PMPE     O12      OSLP    -0.570000       15.9994           0
     17604 MEMB     141      PMPE     C1       CTL2    -0.800000E-01   12.0110           0
     17605 MEMB     141      PMPE     HA       HAL2     0.900000E-01   1.00800           0
     17606 MEMB     141      PMPE     HB       HAL2     0.900000E-01   1.00800           0
     17607 MEMB     141      PMPE     C2       CTL1     0.170000       12.0110           0
     17608 MEMB     141      PMPE     HS       HAL1     0.900000E-01   1.00800           0
     17609 MEMB     141      PMPE     O21      OSL     -0.490000       15.9994           0
     17610 MEMB     141      PMPE     C21      CL       0.900000       12.0110           0
     17611 MEMB     141      PMPE     O22      OBL     -0.630000       15.9994           0
     17612 MEMB     141      PMPE     C22      CTL2    -0.220000       12.0110           0
     17613 MEMB     141      PMPE     H2R      HAL2     0.900000E-01   1.00800           0
     17614 MEMB     141      PMPE     H2S      HAL2     0.900000E-01   1.00800           0
     17615 MEMB     141      PMPE     C3       CTL2     0.800000E-01   12.0110           0
     17616 MEMB     141      PMPE     HX       HAL2     0.900000E-01   1.00800           0
     17617 MEMB     141      PMPE     HY       HAL2     0.900000E-01   1.00800           0
     17618 MEMB     141      PMPE     O31      OSL     -0.490000       15.9994           0
     17619 MEMB     141      PMPE     C31      CL       0.900000       12.0110           0
     17620 MEMB     141      PMPE     O32      OBL     -0.630000       15.9994           0
     17621 MEMB     141      PMPE     C32      CTL2    -0.220000       12.0110           0
     17622 MEMB     141      PMPE     H2X      HAL2     0.900000E-01   1.00800           0
     17623 MEMB     141      PMPE     H2Y      HAL2     0.900000E-01   1.00800           0
     17624 MEMB     141      PMPE     C23      CTL2    -0.180000       12.0110           0
     17625 MEMB     141      PMPE     H3R      HAL2     0.900000E-01   1.00800           0
     17626 MEMB     141      PMPE     H3S      HAL2     0.900000E-01   1.00800           0
     17627 MEMB     141      PMPE     C24      CTL2    -0.180000       12.0110           0
     17628 MEMB     141      PMPE     H4R      HAL2     0.900000E-01   1.00800           0
     17629 MEMB     141      PMPE     H4S      HAL2     0.900000E-01   1.00800           0
     17630 MEMB     141      PMPE     C25      CTL2    -0.180000       12.0110           0
     17631 MEMB     141      PMPE     H5R      HAL2     0.900000E-01   1.00800           0
     17632 MEMB     141      PMPE     H5S      HAL2     0.900000E-01   1.00800           0
     17633 MEMB     141      PMPE     C26      CTL2    -0.180000       12.0110           0
     17634 MEMB     141      PMPE     H6R      HAL2     0.900000E-01   1.00800           0
     17635 MEMB     141      PMPE     H6S      HAL2     0.900000E-01   1.00800           0
     17636 MEMB     141      PMPE     C27      CTL2    -0.180000       12.0110           0
     17637 MEMB     141      PMPE     H7R      HAL2     0.900000E-01   1.00800           0
     17638 MEMB     141      PMPE     H7S      HAL2     0.900000E-01   1.00800           0
     17639 MEMB     141      PMPE     C28      CTL2    -0.180000       12.0110           0
     17640 MEMB     141      PMPE     H8R      HAL2     0.900000E-01   1.00800           0
     17641 MEMB     141      PMPE     H8S      HAL2     0.900000E-01   1.00800           0
     17642 MEMB     141      PMPE     C29      CG3RC1  -0.900000E-01   12.0110           0
     17643 MEMB     141      PMPE     H9R      HGA1     0.900000E-01   1.00800           0
     17644 MEMB     141      PMPE     C217     CG3C31  -0.180000       12.0110           0
     17645 MEMB     141      PMPE     H17R     HGA2     0.900000E-01   1.00800           0
     17646 MEMB     141      PMPE     H17S     HGA2     0.900000E-01   1.00800           0
     17647 MEMB     141      PMPE     C210     CG3RC1  -0.900000E-01   12.0110           0
     17648 MEMB     141      PMPE     H10R     HGA1     0.900000E-01   1.00800           0
     17649 MEMB     141      PMPE     C211     CTL2    -0.180000       12.0110           0
     17650 MEMB     141      PMPE     H11R     HAL2     0.900000E-01   1.00800           0
     17651 MEMB     141      PMPE     H11S     HAL2     0.900000E-01   1.00800           0
     17652 MEMB     141      PMPE     C212     CTL2    -0.180000       12.0110           0
     17653 MEMB     141      PMPE     H12R     HAL2     0.900000E-01   1.00800           0
     17654 MEMB     141      PMPE     H12S     HAL2     0.900000E-01   1.00800           0
     17655 MEMB     141      PMPE     C213     CTL2    -0.180000       12.0110           0
     17656 MEMB     141      PMPE     H13R     HAL2     0.900000E-01   1.00800           0
     17657 MEMB     141      PMPE     H13S     HAL2     0.900000E-01   1.00800           0
     17658 MEMB     141      PMPE     C214     CTL2    -0.180000       12.0110           0
     17659 MEMB     141      PMPE     H14R     HAL2     0.900000E-01   1.00800           0
     17660 MEMB     141      PMPE     H14S     HAL2     0.900000E-01   1.00800           0
     17661 MEMB     141      PMPE     C215     CTL2    -0.180000       12.0110           0
     17662 MEMB     141      PMPE     H15R     HAL2     0.900000E-01   1.00800           0
     17663 MEMB     141      PMPE     H15S     HAL2     0.900000E-01   1.00800           0
     17664 MEMB     141      PMPE     C216     CTL3    -0.270000       12.0110           0
     17665 MEMB     141      PMPE     H16R     HAL3     0.900000E-01   1.00800           0
     17666 MEMB     141      PMPE     H16S     HAL3     0.900000E-01   1.00800           0
     17667 MEMB     141      PMPE     H16T     HAL3     0.900000E-01   1.00800           0
     17668 MEMB     141      PMPE     C33      CTL2    -0.180000       12.0110           0
     17669 MEMB     141      PMPE     H3X      HAL2     0.900000E-01   1.00800           0
     17670 MEMB     141      PMPE     H3Y      HAL2     0.900000E-01   1.00800           0
     17671 MEMB     141      PMPE     C34      CTL2    -0.180000       12.0110           0
     17672 MEMB     141      PMPE     H4X      HAL2     0.900000E-01   1.00800           0
     17673 MEMB     141      PMPE     H4Y      HAL2     0.900000E-01   1.00800           0
     17674 MEMB     141      PMPE     C35      CTL2    -0.180000       12.0110           0
     17675 MEMB     141      PMPE     H5X      HAL2     0.900000E-01   1.00800           0
     17676 MEMB     141      PMPE     H5Y      HAL2     0.900000E-01   1.00800           0
     17677 MEMB     141      PMPE     C36      CTL2    -0.180000       12.0110           0
     17678 MEMB     141      PMPE     H6X      HAL2     0.900000E-01   1.00800           0
     17679 MEMB     141      PMPE     H6Y      HAL2     0.900000E-01   1.00800           0
     17680 MEMB     141      PMPE     C37      CTL2    -0.180000       12.0110           0
     17681 MEMB     141      PMPE     H7X      HAL2     0.900000E-01   1.00800           0
     17682 MEMB     141      PMPE     H7Y      HAL2     0.900000E-01   1.00800           0
     17683 MEMB     141      PMPE     C38      CTL2    -0.180000       12.0110           0
     17684 MEMB     141      PMPE     H8X      HAL2     0.900000E-01   1.00800           0
     17685 MEMB     141      PMPE     H8Y      HAL2     0.900000E-01   1.00800           0
     17686 MEMB     141      PMPE     C39      CTL2    -0.180000       12.0110           0
     17687 MEMB     141      PMPE     H9X      HAL2     0.900000E-01   1.00800           0
     17688 MEMB     141      PMPE     H9Y      HAL2     0.900000E-01   1.00800           0
     17689 MEMB     141      PMPE     C310     CTL2    -0.180000       12.0110           0
     17690 MEMB     141      PMPE     H10X     HAL2     0.900000E-01   1.00800           0
     17691 MEMB     141      PMPE     H10Y     HAL2     0.900000E-01   1.00800           0
     17692 MEMB     141      PMPE     C311     CTL2    -0.180000       12.0110           0
     17693 MEMB     141      PMPE     H11X     HAL2     0.900000E-01   1.00800           0
     17694 MEMB     141      PMPE     H11Y     HAL2     0.900000E-01   1.00800           0
     17695 MEMB     141      PMPE     C312     CTL2    -0.180000       12.0110           0
     17696 MEMB     141      PMPE     H12X     HAL2     0.900000E-01   1.00800           0
     17697 MEMB     141      PMPE     H12Y     HAL2     0.900000E-01   1.00800           0
     17698 MEMB     141      PMPE     C313     CTL2    -0.180000       12.0110           0
     17699 MEMB     141      PMPE     H13X     HAL2     0.900000E-01   1.00800           0
     17700 MEMB     141      PMPE     H13Y     HAL2     0.900000E-01   1.00800           0
     17701 MEMB     141      PMPE     C314     CTL2    -0.180000       12.0110           0
     17702 MEMB     141      PMPE     H14X     HAL2     0.900000E-01   1.00800           0
     17703 MEMB     141      PMPE     H14Y     HAL2     0.900000E-01   1.00800           0
     17704 MEMB     141      PMPE     C315     CTL2    -0.180000       12.0110           0
     17705 MEMB     141      PMPE     H15X     HAL2     0.900000E-01   1.00800           0
     17706 MEMB     141      PMPE     H15Y     HAL2     0.900000E-01   1.00800           0
     17707 MEMB     141      PMPE     C316     CTL3    -0.270000       12.0110           0
     17708 MEMB     141      PMPE     H16X     HAL3     0.900000E-01   1.00800           0
     17709 MEMB     141      PMPE     H16Y     HAL3     0.900000E-01   1.00800           0
     17710 MEMB     141      PMPE     H16Z     HAL3     0.900000E-01   1.00800           0
     17711 MEMB     142      PMPE     N        NH3L    -0.300000       14.0070           0
     17712 MEMB     142      PMPE     HN1      HCL      0.330000       1.00800           0
     17713 MEMB     142      PMPE     HN2      HCL      0.330000       1.00800           0
     17714 MEMB     142      PMPE     HN3      HCL      0.330000       1.00800           0
     17715 MEMB     142      PMPE     C12      CTL2     0.130000       12.0110           0
     17716 MEMB     142      PMPE     H12A     HAL2     0.900000E-01   1.00800           0
     17717 MEMB     142      PMPE     H12B     HAL2     0.900000E-01   1.00800           0
     17718 MEMB     142      PMPE     C11      CTL2    -0.800000E-01   12.0110           0
     17719 MEMB     142      PMPE     H11A     HAL2     0.900000E-01   1.00800           0
     17720 MEMB     142      PMPE     H11B     HAL2     0.900000E-01   1.00800           0
     17721 MEMB     142      PMPE     P        PL        1.50000       30.9740           0
     17722 MEMB     142      PMPE     O13      O2L     -0.780000       15.9994           0
     17723 MEMB     142      PMPE     O14      O2L     -0.780000       15.9994           0
     17724 MEMB     142      PMPE     O11      OSLP    -0.570000       15.9994           0
     17725 MEMB     142      PMPE     O12      OSLP    -0.570000       15.9994           0
     17726 MEMB     142      PMPE     C1       CTL2    -0.800000E-01   12.0110           0
     17727 MEMB     142      PMPE     HA       HAL2     0.900000E-01   1.00800           0
     17728 MEMB     142      PMPE     HB       HAL2     0.900000E-01   1.00800           0
     17729 MEMB     142      PMPE     C2       CTL1     0.170000       12.0110           0
     17730 MEMB     142      PMPE     HS       HAL1     0.900000E-01   1.00800           0
     17731 MEMB     142      PMPE     O21      OSL     -0.490000       15.9994           0
     17732 MEMB     142      PMPE     C21      CL       0.900000       12.0110           0
     17733 MEMB     142      PMPE     O22      OBL     -0.630000       15.9994           0
     17734 MEMB     142      PMPE     C22      CTL2    -0.220000       12.0110           0
     17735 MEMB     142      PMPE     H2R      HAL2     0.900000E-01   1.00800           0
     17736 MEMB     142      PMPE     H2S      HAL2     0.900000E-01   1.00800           0
     17737 MEMB     142      PMPE     C3       CTL2     0.800000E-01   12.0110           0
     17738 MEMB     142      PMPE     HX       HAL2     0.900000E-01   1.00800           0
     17739 MEMB     142      PMPE     HY       HAL2     0.900000E-01   1.00800           0
     17740 MEMB     142      PMPE     O31      OSL     -0.490000       15.9994           0
     17741 MEMB     142      PMPE     C31      CL       0.900000       12.0110           0
     17742 MEMB     142      PMPE     O32      OBL     -0.630000       15.9994           0
     17743 MEMB     142      PMPE     C32      CTL2    -0.220000       12.0110           0
     17744 MEMB     142      PMPE     H2X      HAL2     0.900000E-01   1.00800           0
     17745 MEMB     142      PMPE     H2Y      HAL2     0.900000E-01   1.00800           0
     17746 MEMB     142      PMPE     C23      CTL2    -0.180000       12.0110           0
     17747 MEMB     142      PMPE     H3R      HAL2     0.900000E-01   1.00800           0
     17748 MEMB     142      PMPE     H3S      HAL2     0.900000E-01   1.00800           0
     17749 MEMB     142      PMPE     C24      CTL2    -0.180000       12.0110           0
     17750 MEMB     142      PMPE     H4R      HAL2     0.900000E-01   1.00800           0
     17751 MEMB     142      PMPE     H4S      HAL2     0.900000E-01   1.00800           0
     17752 MEMB     142      PMPE     C25      CTL2    -0.180000       12.0110           0
     17753 MEMB     142      PMPE     H5R      HAL2     0.900000E-01   1.00800           0
     17754 MEMB     142      PMPE     H5S      HAL2     0.900000E-01   1.00800           0
     17755 MEMB     142      PMPE     C26      CTL2    -0.180000       12.0110           0
     17756 MEMB     142      PMPE     H6R      HAL2     0.900000E-01   1.00800           0
     17757 MEMB     142      PMPE     H6S      HAL2     0.900000E-01   1.00800           0
     17758 MEMB     142      PMPE     C27      CTL2    -0.180000       12.0110           0
     17759 MEMB     142      PMPE     H7R      HAL2     0.900000E-01   1.00800           0
     17760 MEMB     142      PMPE     H7S      HAL2     0.900000E-01   1.00800           0
     17761 MEMB     142      PMPE     C28      CTL2    -0.180000       12.0110           0
     17762 MEMB     142      PMPE     H8R      HAL2     0.900000E-01   1.00800           0
     17763 MEMB     142      PMPE     H8S      HAL2     0.900000E-01   1.00800           0
     17764 MEMB     142      PMPE     C29      CG3RC1  -0.900000E-01   12.0110           0
     17765 MEMB     142      PMPE     H9R      HGA1     0.900000E-01   1.00800           0
     17766 MEMB     142      PMPE     C217     CG3C31  -0.180000       12.0110           0
     17767 MEMB     142      PMPE     H17R     HGA2     0.900000E-01   1.00800           0
     17768 MEMB     142      PMPE     H17S     HGA2     0.900000E-01   1.00800           0
     17769 MEMB     142      PMPE     C210     CG3RC1  -0.900000E-01   12.0110           0
     17770 MEMB     142      PMPE     H10R     HGA1     0.900000E-01   1.00800           0
     17771 MEMB     142      PMPE     C211     CTL2    -0.180000       12.0110           0
     17772 MEMB     142      PMPE     H11R     HAL2     0.900000E-01   1.00800           0
     17773 MEMB     142      PMPE     H11S     HAL2     0.900000E-01   1.00800           0
     17774 MEMB     142      PMPE     C212     CTL2    -0.180000       12.0110           0
     17775 MEMB     142      PMPE     H12R     HAL2     0.900000E-01   1.00800           0
     17776 MEMB     142      PMPE     H12S     HAL2     0.900000E-01   1.00800           0
     17777 MEMB     142      PMPE     C213     CTL2    -0.180000       12.0110           0
     17778 MEMB     142      PMPE     H13R     HAL2     0.900000E-01   1.00800           0
     17779 MEMB     142      PMPE     H13S     HAL2     0.900000E-01   1.00800           0
     17780 MEMB     142      PMPE     C214     CTL2    -0.180000       12.0110           0
     17781 MEMB     142      PMPE     H14R     HAL2     0.900000E-01   1.00800           0
     17782 MEMB     142      PMPE     H14S     HAL2     0.900000E-01   1.00800           0
     17783 MEMB     142      PMPE     C215     CTL2    -0.180000       12.0110           0
     17784 MEMB     142      PMPE     H15R     HAL2     0.900000E-01   1.00800           0
     17785 MEMB     142      PMPE     H15S     HAL2     0.900000E-01   1.00800           0
     17786 MEMB     142      PMPE     C216     CTL3    -0.270000       12.0110           0
     17787 MEMB     142      PMPE     H16R     HAL3     0.900000E-01   1.00800           0
     17788 MEMB     142      PMPE     H16S     HAL3     0.900000E-01   1.00800           0
     17789 MEMB     142      PMPE     H16T     HAL3     0.900000E-01   1.00800           0
     17790 MEMB     142      PMPE     C33      CTL2    -0.180000       12.0110           0
     17791 MEMB     142      PMPE     H3X      HAL2     0.900000E-01   1.00800           0
     17792 MEMB     142      PMPE     H3Y      HAL2     0.900000E-01   1.00800           0
     17793 MEMB     142      PMPE     C34      CTL2    -0.180000       12.0110           0
     17794 MEMB     142      PMPE     H4X      HAL2     0.900000E-01   1.00800           0
     17795 MEMB     142      PMPE     H4Y      HAL2     0.900000E-01   1.00800           0
     17796 MEMB     142      PMPE     C35      CTL2    -0.180000       12.0110           0
     17797 MEMB     142      PMPE     H5X      HAL2     0.900000E-01   1.00800           0
     17798 MEMB     142      PMPE     H5Y      HAL2     0.900000E-01   1.00800           0
     17799 MEMB     142      PMPE     C36      CTL2    -0.180000       12.0110           0
     17800 MEMB     142      PMPE     H6X      HAL2     0.900000E-01   1.00800           0
     17801 MEMB     142      PMPE     H6Y      HAL2     0.900000E-01   1.00800           0
     17802 MEMB     142      PMPE     C37      CTL2    -0.180000       12.0110           0
     17803 MEMB     142      PMPE     H7X      HAL2     0.900000E-01   1.00800           0
     17804 MEMB     142      PMPE     H7Y      HAL2     0.900000E-01   1.00800           0
     17805 MEMB     142      PMPE     C38      CTL2    -0.180000       12.0110           0
     17806 MEMB     142      PMPE     H8X      HAL2     0.900000E-01   1.00800           0
     17807 MEMB     142      PMPE     H8Y      HAL2     0.900000E-01   1.00800           0
     17808 MEMB     142      PMPE     C39      CTL2    -0.180000       12.0110           0
     17809 MEMB     142      PMPE     H9X      HAL2     0.900000E-01   1.00800           0
     17810 MEMB     142      PMPE     H9Y      HAL2     0.900000E-01   1.00800           0
     17811 MEMB     142      PMPE     C310     CTL2    -0.180000       12.0110           0
     17812 MEMB     142      PMPE     H10X     HAL2     0.900000E-01   1.00800           0
     17813 MEMB     142      PMPE     H10Y     HAL2     0.900000E-01   1.00800           0
     17814 MEMB     142      PMPE     C311     CTL2    -0.180000       12.0110           0
     17815 MEMB     142      PMPE     H11X     HAL2     0.900000E-01   1.00800           0
     17816 MEMB     142      PMPE     H11Y     HAL2     0.900000E-01   1.00800           0
     17817 MEMB     142      PMPE     C312     CTL2    -0.180000       12.0110           0
     17818 MEMB     142      PMPE     H12X     HAL2     0.900000E-01   1.00800           0
     17819 MEMB     142      PMPE     H12Y     HAL2     0.900000E-01   1.00800           0
     17820 MEMB     142      PMPE     C313     CTL2    -0.180000       12.0110           0
     17821 MEMB     142      PMPE     H13X     HAL2     0.900000E-01   1.00800           0
     17822 MEMB     142      PMPE     H13Y     HAL2     0.900000E-01   1.00800           0
     17823 MEMB     142      PMPE     C314     CTL2    -0.180000       12.0110           0
     17824 MEMB     142      PMPE     H14X     HAL2     0.900000E-01   1.00800           0
     17825 MEMB     142      PMPE     H14Y     HAL2     0.900000E-01   1.00800           0
     17826 MEMB     142      PMPE     C315     CTL2    -0.180000       12.0110           0
     17827 MEMB     142      PMPE     H15X     HAL2     0.900000E-01   1.00800           0
     17828 MEMB     142      PMPE     H15Y     HAL2     0.900000E-01   1.00800           0
     17829 MEMB     142      PMPE     C316     CTL3    -0.270000       12.0110           0
     17830 MEMB     142      PMPE     H16X     HAL3     0.900000E-01   1.00800           0
     17831 MEMB     142      PMPE     H16Y     HAL3     0.900000E-01   1.00800           0
     17832 MEMB     142      PMPE     H16Z     HAL3     0.900000E-01   1.00800           0
     17833 MEMB     143      OYPE     N        NH3L    -0.300000       14.0070           0
     17834 MEMB     143      OYPE     HN1      HCL      0.330000       1.00800           0
     17835 MEMB     143      OYPE     HN2      HCL      0.330000       1.00800           0
     17836 MEMB     143      OYPE     HN3      HCL      0.330000       1.00800           0
     17837 MEMB     143      OYPE     C12      CTL2     0.130000       12.0110           0
     17838 MEMB     143      OYPE     H12A     HAL2     0.900000E-01   1.00800           0
     17839 MEMB     143      OYPE     H12B     HAL2     0.900000E-01   1.00800           0
     17840 MEMB     143      OYPE     C11      CTL2    -0.800000E-01   12.0110           0
     17841 MEMB     143      OYPE     H11A     HAL2     0.900000E-01   1.00800           0
     17842 MEMB     143      OYPE     H11B     HAL2     0.900000E-01   1.00800           0
     17843 MEMB     143      OYPE     P        PL        1.50000       30.9740           0
     17844 MEMB     143      OYPE     O13      O2L     -0.780000       15.9994           0
     17845 MEMB     143      OYPE     O14      O2L     -0.780000       15.9994           0
     17846 MEMB     143      OYPE     O11      OSLP    -0.570000       15.9994           0
     17847 MEMB     143      OYPE     O12      OSLP    -0.570000       15.9994           0
     17848 MEMB     143      OYPE     C1       CTL2    -0.800000E-01   12.0110           0
     17849 MEMB     143      OYPE     HA       HAL2     0.900000E-01   1.00800           0
     17850 MEMB     143      OYPE     HB       HAL2     0.900000E-01   1.00800           0
     17851 MEMB     143      OYPE     C2       CTL1     0.170000       12.0110           0
     17852 MEMB     143      OYPE     HS       HAL1     0.900000E-01   1.00800           0
     17853 MEMB     143      OYPE     O21      OSL     -0.490000       15.9994           0
     17854 MEMB     143      OYPE     C21      CL       0.900000       12.0110           0
     17855 MEMB     143      OYPE     O22      OBL     -0.630000       15.9994           0
     17856 MEMB     143      OYPE     C22      CTL2    -0.220000       12.0110           0
     17857 MEMB     143      OYPE     H2R      HAL2     0.900000E-01   1.00800           0
     17858 MEMB     143      OYPE     H2S      HAL2     0.900000E-01   1.00800           0
     17859 MEMB     143      OYPE     C3       CTL2     0.800000E-01   12.0110           0
     17860 MEMB     143      OYPE     HX       HAL2     0.900000E-01   1.00800           0
     17861 MEMB     143      OYPE     HY       HAL2     0.900000E-01   1.00800           0
     17862 MEMB     143      OYPE     O31      OSL     -0.490000       15.9994           0
     17863 MEMB     143      OYPE     C31      CL       0.900000       12.0110           0
     17864 MEMB     143      OYPE     O32      OBL     -0.630000       15.9994           0
     17865 MEMB     143      OYPE     C32      CTL2    -0.220000       12.0110           0
     17866 MEMB     143      OYPE     H2X      HAL2     0.900000E-01   1.00800           0
     17867 MEMB     143      OYPE     H2Y      HAL2     0.900000E-01   1.00800           0
     17868 MEMB     143      OYPE     C23      CTL2    -0.180000       12.0110           0
     17869 MEMB     143      OYPE     H3R      HAL2     0.900000E-01   1.00800           0
     17870 MEMB     143      OYPE     H3S      HAL2     0.900000E-01   1.00800           0
     17871 MEMB     143      OYPE     C24      CTL2    -0.180000       12.0110           0
     17872 MEMB     143      OYPE     H4R      HAL2     0.900000E-01   1.00800           0
     17873 MEMB     143      OYPE     H4S      HAL2     0.900000E-01   1.00800           0
     17874 MEMB     143      OYPE     C25      CTL2    -0.180000       12.0110           0
     17875 MEMB     143      OYPE     H5R      HAL2     0.900000E-01   1.00800           0
     17876 MEMB     143      OYPE     H5S      HAL2     0.900000E-01   1.00800           0
     17877 MEMB     143      OYPE     C26      CTL2    -0.180000       12.0110           0
     17878 MEMB     143      OYPE     H6R      HAL2     0.900000E-01   1.00800           0
     17879 MEMB     143      OYPE     H6S      HAL2     0.900000E-01   1.00800           0
     17880 MEMB     143      OYPE     C27      CTL2    -0.180000       12.0110           0
     17881 MEMB     143      OYPE     H7R      HAL2     0.900000E-01   1.00800           0
     17882 MEMB     143      OYPE     H7S      HAL2     0.900000E-01   1.00800           0
     17883 MEMB     143      OYPE     C28      CTL2    -0.180000       12.0110           0
     17884 MEMB     143      OYPE     H8R      HAL2     0.900000E-01   1.00800           0
     17885 MEMB     143      OYPE     H8S      HAL2     0.900000E-01   1.00800           0
     17886 MEMB     143      OYPE     C29      CEL1    -0.150000       12.0110           0
     17887 MEMB     143      OYPE     H9R      HEL1     0.150000       1.00800           0
     17888 MEMB     143      OYPE     C210     CEL1    -0.150000       12.0110           0
     17889 MEMB     143      OYPE     H10R     HEL1     0.150000       1.00800           0
     17890 MEMB     143      OYPE     C211     CTL2    -0.180000       12.0110           0
     17891 MEMB     143      OYPE     H11R     HAL2     0.900000E-01   1.00800           0
     17892 MEMB     143      OYPE     H11S     HAL2     0.900000E-01   1.00800           0
     17893 MEMB     143      OYPE     C212     CTL2    -0.180000       12.0110           0
     17894 MEMB     143      OYPE     H12R     HAL2     0.900000E-01   1.00800           0
     17895 MEMB     143      OYPE     H12S     HAL2     0.900000E-01   1.00800           0
     17896 MEMB     143      OYPE     C213     CTL2    -0.180000       12.0110           0
     17897 MEMB     143      OYPE     H13R     HAL2     0.900000E-01   1.00800           0
     17898 MEMB     143      OYPE     H13S     HAL2     0.900000E-01   1.00800           0
     17899 MEMB     143      OYPE     C214     CTL2    -0.180000       12.0110           0
     17900 MEMB     143      OYPE     H14R     HAL2     0.900000E-01   1.00800           0
     17901 MEMB     143      OYPE     H14S     HAL2     0.900000E-01   1.00800           0
     17902 MEMB     143      OYPE     C215     CTL2    -0.180000       12.0110           0
     17903 MEMB     143      OYPE     H15R     HAL2     0.900000E-01   1.00800           0
     17904 MEMB     143      OYPE     H15S     HAL2     0.900000E-01   1.00800           0
     17905 MEMB     143      OYPE     C216     CTL3    -0.270000       12.0110           0
     17906 MEMB     143      OYPE     H16R     HAL3     0.900000E-01   1.00800           0
     17907 MEMB     143      OYPE     H16S     HAL3     0.900000E-01   1.00800           0
     17908 MEMB     143      OYPE     H16T     HAL3     0.900000E-01   1.00800           0
     17909 MEMB     143      OYPE     C33      CTL2    -0.180000       12.0110           0
     17910 MEMB     143      OYPE     H3X      HAL2     0.900000E-01   1.00800           0
     17911 MEMB     143      OYPE     H3Y      HAL2     0.900000E-01   1.00800           0
     17912 MEMB     143      OYPE     C34      CTL2    -0.180000       12.0110           0
     17913 MEMB     143      OYPE     H4X      HAL2     0.900000E-01   1.00800           0
     17914 MEMB     143      OYPE     H4Y      HAL2     0.900000E-01   1.00800           0
     17915 MEMB     143      OYPE     C35      CTL2    -0.180000       12.0110           0
     17916 MEMB     143      OYPE     H5X      HAL2     0.900000E-01   1.00800           0
     17917 MEMB     143      OYPE     H5Y      HAL2     0.900000E-01   1.00800           0
     17918 MEMB     143      OYPE     C36      CTL2    -0.180000       12.0110           0
     17919 MEMB     143      OYPE     H6X      HAL2     0.900000E-01   1.00800           0
     17920 MEMB     143      OYPE     H6Y      HAL2     0.900000E-01   1.00800           0
     17921 MEMB     143      OYPE     C37      CTL2    -0.180000       12.0110           0
     17922 MEMB     143      OYPE     H7X      HAL2     0.900000E-01   1.00800           0
     17923 MEMB     143      OYPE     H7Y      HAL2     0.900000E-01   1.00800           0
     17924 MEMB     143      OYPE     C38      CTL2    -0.180000       12.0110           0
     17925 MEMB     143      OYPE     H8X      HAL2     0.900000E-01   1.00800           0
     17926 MEMB     143      OYPE     H8Y      HAL2     0.900000E-01   1.00800           0
     17927 MEMB     143      OYPE     C39      CEL1    -0.150000       12.0110           0
     17928 MEMB     143      OYPE     H9X      HEL1     0.150000       1.00800           0
     17929 MEMB     143      OYPE     C310     CEL1    -0.150000       12.0110           0
     17930 MEMB     143      OYPE     H10X     HEL1     0.150000       1.00800           0
     17931 MEMB     143      OYPE     C311     CTL2    -0.180000       12.0110           0
     17932 MEMB     143      OYPE     H11X     HAL2     0.900000E-01   1.00800           0
     17933 MEMB     143      OYPE     H11Y     HAL2     0.900000E-01   1.00800           0
     17934 MEMB     143      OYPE     C312     CTL2    -0.180000       12.0110           0
     17935 MEMB     143      OYPE     H12X     HAL2     0.900000E-01   1.00800           0
     17936 MEMB     143      OYPE     H12Y     HAL2     0.900000E-01   1.00800           0
     17937 MEMB     143      OYPE     C313     CTL2    -0.180000       12.0110           0
     17938 MEMB     143      OYPE     H13X     HAL2     0.900000E-01   1.00800           0
     17939 MEMB     143      OYPE     H13Y     HAL2     0.900000E-01   1.00800           0
     17940 MEMB     143      OYPE     C314     CTL2    -0.180000       12.0110           0
     17941 MEMB     143      OYPE     H14X     HAL2     0.900000E-01   1.00800           0
     17942 MEMB     143      OYPE     H14Y     HAL2     0.900000E-01   1.00800           0
     17943 MEMB     143      OYPE     C315     CTL2    -0.180000       12.0110           0
     17944 MEMB     143      OYPE     H15X     HAL2     0.900000E-01   1.00800           0
     17945 MEMB     143      OYPE     H15Y     HAL2     0.900000E-01   1.00800           0
     17946 MEMB     143      OYPE     C316     CTL2    -0.180000       12.0110           0
     17947 MEMB     143      OYPE     H16X     HAL2     0.900000E-01   1.00800           0
     17948 MEMB     143      OYPE     H16Y     HAL2     0.900000E-01   1.00800           0
     17949 MEMB     143      OYPE     C317     CTL2    -0.180000       12.0110           0
     17950 MEMB     143      OYPE     H17X     HAL2     0.900000E-01   1.00800           0
     17951 MEMB     143      OYPE     H17Y     HAL2     0.900000E-01   1.00800           0
     17952 MEMB     143      OYPE     C318     CTL3    -0.270000       12.0110           0
     17953 MEMB     143      OYPE     H18X     HAL3     0.900000E-01   1.00800           0
     17954 MEMB     143      OYPE     H18Y     HAL3     0.900000E-01   1.00800           0
     17955 MEMB     143      OYPE     H18Z     HAL3     0.900000E-01   1.00800           0
     17956 MEMB     144      POPE     N        NH3L    -0.300000       14.0070           0
     17957 MEMB     144      POPE     HN1      HCL      0.330000       1.00800           0
     17958 MEMB     144      POPE     HN2      HCL      0.330000       1.00800           0
     17959 MEMB     144      POPE     HN3      HCL      0.330000       1.00800           0
     17960 MEMB     144      POPE     C12      CTL2     0.130000       12.0110           0
     17961 MEMB     144      POPE     H12A     HAL2     0.900000E-01   1.00800           0
     17962 MEMB     144      POPE     H12B     HAL2     0.900000E-01   1.00800           0
     17963 MEMB     144      POPE     C11      CTL2    -0.800000E-01   12.0110           0
     17964 MEMB     144      POPE     H11A     HAL2     0.900000E-01   1.00800           0
     17965 MEMB     144      POPE     H11B     HAL2     0.900000E-01   1.00800           0
     17966 MEMB     144      POPE     P        PL        1.50000       30.9740           0
     17967 MEMB     144      POPE     O13      O2L     -0.780000       15.9994           0
     17968 MEMB     144      POPE     O14      O2L     -0.780000       15.9994           0
     17969 MEMB     144      POPE     O11      OSLP    -0.570000       15.9994           0
     17970 MEMB     144      POPE     O12      OSLP    -0.570000       15.9994           0
     17971 MEMB     144      POPE     C1       CTL2    -0.800000E-01   12.0110           0
     17972 MEMB     144      POPE     HA       HAL2     0.900000E-01   1.00800           0
     17973 MEMB     144      POPE     HB       HAL2     0.900000E-01   1.00800           0
     17974 MEMB     144      POPE     C2       CTL1     0.170000       12.0110           0
     17975 MEMB     144      POPE     HS       HAL1     0.900000E-01   1.00800           0
     17976 MEMB     144      POPE     O21      OSL     -0.490000       15.9994           0
     17977 MEMB     144      POPE     C21      CL       0.900000       12.0110           0
     17978 MEMB     144      POPE     O22      OBL     -0.630000       15.9994           0
     17979 MEMB     144      POPE     C22      CTL2    -0.220000       12.0110           0
     17980 MEMB     144      POPE     H2R      HAL2     0.900000E-01   1.00800           0
     17981 MEMB     144      POPE     H2S      HAL2     0.900000E-01   1.00800           0
     17982 MEMB     144      POPE     C3       CTL2     0.800000E-01   12.0110           0
     17983 MEMB     144      POPE     HX       HAL2     0.900000E-01   1.00800           0
     17984 MEMB     144      POPE     HY       HAL2     0.900000E-01   1.00800           0
     17985 MEMB     144      POPE     O31      OSL     -0.490000       15.9994           0
     17986 MEMB     144      POPE     C31      CL       0.900000       12.0110           0
     17987 MEMB     144      POPE     O32      OBL     -0.630000       15.9994           0
     17988 MEMB     144      POPE     C32      CTL2    -0.220000       12.0110           0
     17989 MEMB     144      POPE     H2X      HAL2     0.900000E-01   1.00800           0
     17990 MEMB     144      POPE     H2Y      HAL2     0.900000E-01   1.00800           0
     17991 MEMB     144      POPE     C23      CTL2    -0.180000       12.0110           0
     17992 MEMB     144      POPE     H3R      HAL2     0.900000E-01   1.00800           0
     17993 MEMB     144      POPE     H3S      HAL2     0.900000E-01   1.00800           0
     17994 MEMB     144      POPE     C24      CTL2    -0.180000       12.0110           0
     17995 MEMB     144      POPE     H4R      HAL2     0.900000E-01   1.00800           0
     17996 MEMB     144      POPE     H4S      HAL2     0.900000E-01   1.00800           0
     17997 MEMB     144      POPE     C25      CTL2    -0.180000       12.0110           0
     17998 MEMB     144      POPE     H5R      HAL2     0.900000E-01   1.00800           0
     17999 MEMB     144      POPE     H5S      HAL2     0.900000E-01   1.00800           0
     18000 MEMB     144      POPE     C26      CTL2    -0.180000       12.0110           0
     18001 MEMB     144      POPE     H6R      HAL2     0.900000E-01   1.00800           0
     18002 MEMB     144      POPE     H6S      HAL2     0.900000E-01   1.00800           0
     18003 MEMB     144      POPE     C27      CTL2    -0.180000       12.0110           0
     18004 MEMB     144      POPE     H7R      HAL2     0.900000E-01   1.00800           0
     18005 MEMB     144      POPE     H7S      HAL2     0.900000E-01   1.00800           0
     18006 MEMB     144      POPE     C28      CTL2    -0.180000       12.0110           0
     18007 MEMB     144      POPE     H8R      HAL2     0.900000E-01   1.00800           0
     18008 MEMB     144      POPE     H8S      HAL2     0.900000E-01   1.00800           0
     18009 MEMB     144      POPE     C29      CEL1    -0.150000       12.0110           0
     18010 MEMB     144      POPE     H91      HEL1     0.150000       1.00800           0
     18011 MEMB     144      POPE     C210     CEL1    -0.150000       12.0110           0
     18012 MEMB     144      POPE     H101     HEL1     0.150000       1.00800           0
     18013 MEMB     144      POPE     C211     CTL2    -0.180000       12.0110           0
     18014 MEMB     144      POPE     H11R     HAL2     0.900000E-01   1.00800           0
     18015 MEMB     144      POPE     H11S     HAL2     0.900000E-01   1.00800           0
     18016 MEMB     144      POPE     C212     CTL2    -0.180000       12.0110           0
     18017 MEMB     144      POPE     H12R     HAL2     0.900000E-01   1.00800           0
     18018 MEMB     144      POPE     H12S     HAL2     0.900000E-01   1.00800           0
     18019 MEMB     144      POPE     C213     CTL2    -0.180000       12.0110           0
     18020 MEMB     144      POPE     H13R     HAL2     0.900000E-01   1.00800           0
     18021 MEMB     144      POPE     H13S     HAL2     0.900000E-01   1.00800           0
     18022 MEMB     144      POPE     C214     CTL2    -0.180000       12.0110           0
     18023 MEMB     144      POPE     H14R     HAL2     0.900000E-01   1.00800           0
     18024 MEMB     144      POPE     H14S     HAL2     0.900000E-01   1.00800           0
     18025 MEMB     144      POPE     C215     CTL2    -0.180000       12.0110           0
     18026 MEMB     144      POPE     H15R     HAL2     0.900000E-01   1.00800           0
     18027 MEMB     144      POPE     H15S     HAL2     0.900000E-01   1.00800           0
     18028 MEMB     144      POPE     C216     CTL2    -0.180000       12.0110           0
     18029 MEMB     144      POPE     H16R     HAL2     0.900000E-01   1.00800           0
     18030 MEMB     144      POPE     H16S     HAL2     0.900000E-01   1.00800           0
     18031 MEMB     144      POPE     C217     CTL2    -0.180000       12.0110           0
     18032 MEMB     144      POPE     H17R     HAL2     0.900000E-01   1.00800           0
     18033 MEMB     144      POPE     H17S     HAL2     0.900000E-01   1.00800           0
     18034 MEMB     144      POPE     C218     CTL3    -0.270000       12.0110           0
     18035 MEMB     144      POPE     H18R     HAL3     0.900000E-01   1.00800           0
     18036 MEMB     144      POPE     H18S     HAL3     0.900000E-01   1.00800           0
     18037 MEMB     144      POPE     H18T     HAL3     0.900000E-01   1.00800           0
     18038 MEMB     144      POPE     C33      CTL2    -0.180000       12.0110           0
     18039 MEMB     144      POPE     H3X      HAL2     0.900000E-01   1.00800           0
     18040 MEMB     144      POPE     H3Y      HAL2     0.900000E-01   1.00800           0
     18041 MEMB     144      POPE     C34      CTL2    -0.180000       12.0110           0
     18042 MEMB     144      POPE     H4X      HAL2     0.900000E-01   1.00800           0
     18043 MEMB     144      POPE     H4Y      HAL2     0.900000E-01   1.00800           0
     18044 MEMB     144      POPE     C35      CTL2    -0.180000       12.0110           0
     18045 MEMB     144      POPE     H5X      HAL2     0.900000E-01   1.00800           0
     18046 MEMB     144      POPE     H5Y      HAL2     0.900000E-01   1.00800           0
     18047 MEMB     144      POPE     C36      CTL2    -0.180000       12.0110           0
     18048 MEMB     144      POPE     H6X      HAL2     0.900000E-01   1.00800           0
     18049 MEMB     144      POPE     H6Y      HAL2     0.900000E-01   1.00800           0
     18050 MEMB     144      POPE     C37      CTL2    -0.180000       12.0110           0
     18051 MEMB     144      POPE     H7X      HAL2     0.900000E-01   1.00800           0
     18052 MEMB     144      POPE     H7Y      HAL2     0.900000E-01   1.00800           0
     18053 MEMB     144      POPE     C38      CTL2    -0.180000       12.0110           0
     18054 MEMB     144      POPE     H8X      HAL2     0.900000E-01   1.00800           0
     18055 MEMB     144      POPE     H8Y      HAL2     0.900000E-01   1.00800           0
     18056 MEMB     144      POPE     C39      CTL2    -0.180000       12.0110           0
     18057 MEMB     144      POPE     H9X      HAL2     0.900000E-01   1.00800           0
     18058 MEMB     144      POPE     H9Y      HAL2     0.900000E-01   1.00800           0
     18059 MEMB     144      POPE     C310     CTL2    -0.180000       12.0110           0
     18060 MEMB     144      POPE     H10X     HAL2     0.900000E-01   1.00800           0
     18061 MEMB     144      POPE     H10Y     HAL2     0.900000E-01   1.00800           0
     18062 MEMB     144      POPE     C311     CTL2    -0.180000       12.0110           0
     18063 MEMB     144      POPE     H11X     HAL2     0.900000E-01   1.00800           0
     18064 MEMB     144      POPE     H11Y     HAL2     0.900000E-01   1.00800           0
     18065 MEMB     144      POPE     C312     CTL2    -0.180000       12.0110           0
     18066 MEMB     144      POPE     H12X     HAL2     0.900000E-01   1.00800           0
     18067 MEMB     144      POPE     H12Y     HAL2     0.900000E-01   1.00800           0
     18068 MEMB     144      POPE     C313     CTL2    -0.180000       12.0110           0
     18069 MEMB     144      POPE     H13X     HAL2     0.900000E-01   1.00800           0
     18070 MEMB     144      POPE     H13Y     HAL2     0.900000E-01   1.00800           0
     18071 MEMB     144      POPE     C314     CTL2    -0.180000       12.0110           0
     18072 MEMB     144      POPE     H14X     HAL2     0.900000E-01   1.00800           0
     18073 MEMB     144      POPE     H14Y     HAL2     0.900000E-01   1.00800           0
     18074 MEMB     144      POPE     C315     CTL2    -0.180000       12.0110           0
     18075 MEMB     144      POPE     H15X     HAL2     0.900000E-01   1.00800           0
     18076 MEMB     144      POPE     H15Y     HAL2     0.900000E-01   1.00800           0
     18077 MEMB     144      POPE     C316     CTL3    -0.270000       12.0110           0
     18078 MEMB     144      POPE     H16X     HAL3     0.900000E-01   1.00800           0
     18079 MEMB     144      POPE     H16Y     HAL3     0.900000E-01   1.00800           0
     18080 MEMB     144      POPE     H16Z     HAL3     0.900000E-01   1.00800           0
     18081 MEMB     145      PMPG     C13      CTL2     0.500000E-01   12.0110           0
     18082 MEMB     145      PMPG     H13A     HAL2     0.900000E-01   1.00800           0
     18083 MEMB     145      PMPG     H13B     HAL2     0.900000E-01   1.00800           0
     18084 MEMB     145      PMPG     OC3      OHL     -0.660000       15.9994           0
     18085 MEMB     145      PMPG     HO3      HOL      0.430000       1.00800           0
     18086 MEMB     145      PMPG     C12      CTL1     0.140000       12.0110           0
     18087 MEMB     145      PMPG     H12A     HAL1     0.900000E-01   1.00800           0
     18088 MEMB     145      PMPG     OC2      OHL     -0.660000       15.9994           0
     18089 MEMB     145      PMPG     HO2      HOL      0.430000       1.00800           0
     18090 MEMB     145      PMPG     C11      CTL2    -0.800000E-01   12.0110           0
     18091 MEMB     145      PMPG     H11A     HAL2     0.900000E-01   1.00800           0
     18092 MEMB     145      PMPG     H11B     HAL2     0.900000E-01   1.00800           0
     18093 MEMB     145      PMPG     P        PL        1.50000       30.9740           0
     18094 MEMB     145      PMPG     O13      O2L     -0.780000       15.9994           0
     18095 MEMB     145      PMPG     O14      O2L     -0.780000       15.9994           0
     18096 MEMB     145      PMPG     O11      OSLP    -0.570000       15.9994           0
     18097 MEMB     145      PMPG     O12      OSLP    -0.570000       15.9994           0
     18098 MEMB     145      PMPG     C1       CTL2    -0.800000E-01   12.0110           0
     18099 MEMB     145      PMPG     HA       HAL2     0.900000E-01   1.00800           0
     18100 MEMB     145      PMPG     HB       HAL2     0.900000E-01   1.00800           0
     18101 MEMB     145      PMPG     C2       CTL1     0.170000       12.0110           0
     18102 MEMB     145      PMPG     HS       HAL1     0.900000E-01   1.00800           0
     18103 MEMB     145      PMPG     O21      OSL     -0.490000       15.9994           0
     18104 MEMB     145      PMPG     C21      CL       0.900000       12.0110           0
     18105 MEMB     145      PMPG     O22      OBL     -0.630000       15.9994           0
     18106 MEMB     145      PMPG     C22      CTL2    -0.220000       12.0110           0
     18107 MEMB     145      PMPG     H2R      HAL2     0.900000E-01   1.00800           0
     18108 MEMB     145      PMPG     H2S      HAL2     0.900000E-01   1.00800           0
     18109 MEMB     145      PMPG     C3       CTL2     0.800000E-01   12.0110           0
     18110 MEMB     145      PMPG     HX       HAL2     0.900000E-01   1.00800           0
     18111 MEMB     145      PMPG     HY       HAL2     0.900000E-01   1.00800           0
     18112 MEMB     145      PMPG     O31      OSL     -0.490000       15.9994           0
     18113 MEMB     145      PMPG     C31      CL       0.900000       12.0110           0
     18114 MEMB     145      PMPG     O32      OBL     -0.630000       15.9994           0
     18115 MEMB     145      PMPG     C32      CTL2    -0.220000       12.0110           0
     18116 MEMB     145      PMPG     H2X      HAL2     0.900000E-01   1.00800           0
     18117 MEMB     145      PMPG     H2Y      HAL2     0.900000E-01   1.00800           0
     18118 MEMB     145      PMPG     C23      CTL2    -0.180000       12.0110           0
     18119 MEMB     145      PMPG     H3R      HAL2     0.900000E-01   1.00800           0
     18120 MEMB     145      PMPG     H3S      HAL2     0.900000E-01   1.00800           0
     18121 MEMB     145      PMPG     C24      CTL2    -0.180000       12.0110           0
     18122 MEMB     145      PMPG     H4R      HAL2     0.900000E-01   1.00800           0
     18123 MEMB     145      PMPG     H4S      HAL2     0.900000E-01   1.00800           0
     18124 MEMB     145      PMPG     C25      CTL2    -0.180000       12.0110           0
     18125 MEMB     145      PMPG     H5R      HAL2     0.900000E-01   1.00800           0
     18126 MEMB     145      PMPG     H5S      HAL2     0.900000E-01   1.00800           0
     18127 MEMB     145      PMPG     C26      CTL2    -0.180000       12.0110           0
     18128 MEMB     145      PMPG     H6R      HAL2     0.900000E-01   1.00800           0
     18129 MEMB     145      PMPG     H6S      HAL2     0.900000E-01   1.00800           0
     18130 MEMB     145      PMPG     C27      CTL2    -0.180000       12.0110           0
     18131 MEMB     145      PMPG     H7R      HAL2     0.900000E-01   1.00800           0
     18132 MEMB     145      PMPG     H7S      HAL2     0.900000E-01   1.00800           0
     18133 MEMB     145      PMPG     C28      CTL2    -0.180000       12.0110           0
     18134 MEMB     145      PMPG     H8R      HAL2     0.900000E-01   1.00800           0
     18135 MEMB     145      PMPG     H8S      HAL2     0.900000E-01   1.00800           0
     18136 MEMB     145      PMPG     C29      CG3RC1  -0.900000E-01   12.0110           0
     18137 MEMB     145      PMPG     H9R      HGA1     0.900000E-01   1.00800           0
     18138 MEMB     145      PMPG     C217     CG3C31  -0.180000       12.0110           0
     18139 MEMB     145      PMPG     H17R     HGA2     0.900000E-01   1.00800           0
     18140 MEMB     145      PMPG     H17S     HGA2     0.900000E-01   1.00800           0
     18141 MEMB     145      PMPG     C210     CG3RC1  -0.900000E-01   12.0110           0
     18142 MEMB     145      PMPG     H10R     HGA1     0.900000E-01   1.00800           0
     18143 MEMB     145      PMPG     C211     CTL2    -0.180000       12.0110           0
     18144 MEMB     145      PMPG     H11R     HAL2     0.900000E-01   1.00800           0
     18145 MEMB     145      PMPG     H11S     HAL2     0.900000E-01   1.00800           0
     18146 MEMB     145      PMPG     C212     CTL2    -0.180000       12.0110           0
     18147 MEMB     145      PMPG     H12R     HAL2     0.900000E-01   1.00800           0
     18148 MEMB     145      PMPG     H12S     HAL2     0.900000E-01   1.00800           0
     18149 MEMB     145      PMPG     C213     CTL2    -0.180000       12.0110           0
     18150 MEMB     145      PMPG     H13R     HAL2     0.900000E-01   1.00800           0
     18151 MEMB     145      PMPG     H13S     HAL2     0.900000E-01   1.00800           0
     18152 MEMB     145      PMPG     C214     CTL2    -0.180000       12.0110           0
     18153 MEMB     145      PMPG     H14R     HAL2     0.900000E-01   1.00800           0
     18154 MEMB     145      PMPG     H14S     HAL2     0.900000E-01   1.00800           0
     18155 MEMB     145      PMPG     C215     CTL2    -0.180000       12.0110           0
     18156 MEMB     145      PMPG     H15R     HAL2     0.900000E-01   1.00800           0
     18157 MEMB     145      PMPG     H15S     HAL2     0.900000E-01   1.00800           0
     18158 MEMB     145      PMPG     C216     CTL3    -0.270000       12.0110           0
     18159 MEMB     145      PMPG     H16R     HAL3     0.900000E-01   1.00800           0
     18160 MEMB     145      PMPG     H16S     HAL3     0.900000E-01   1.00800           0
     18161 MEMB     145      PMPG     H16T     HAL3     0.900000E-01   1.00800           0
     18162 MEMB     145      PMPG     C33      CTL2    -0.180000       12.0110           0
     18163 MEMB     145      PMPG     H3X      HAL2     0.900000E-01   1.00800           0
     18164 MEMB     145      PMPG     H3Y      HAL2     0.900000E-01   1.00800           0
     18165 MEMB     145      PMPG     C34      CTL2    -0.180000       12.0110           0
     18166 MEMB     145      PMPG     H4X      HAL2     0.900000E-01   1.00800           0
     18167 MEMB     145      PMPG     H4Y      HAL2     0.900000E-01   1.00800           0
     18168 MEMB     145      PMPG     C35      CTL2    -0.180000       12.0110           0
     18169 MEMB     145      PMPG     H5X      HAL2     0.900000E-01   1.00800           0
     18170 MEMB     145      PMPG     H5Y      HAL2     0.900000E-01   1.00800           0
     18171 MEMB     145      PMPG     C36      CTL2    -0.180000       12.0110           0
     18172 MEMB     145      PMPG     H6X      HAL2     0.900000E-01   1.00800           0
     18173 MEMB     145      PMPG     H6Y      HAL2     0.900000E-01   1.00800           0
     18174 MEMB     145      PMPG     C37      CTL2    -0.180000       12.0110           0
     18175 MEMB     145      PMPG     H7X      HAL2     0.900000E-01   1.00800           0
     18176 MEMB     145      PMPG     H7Y      HAL2     0.900000E-01   1.00800           0
     18177 MEMB     145      PMPG     C38      CTL2    -0.180000       12.0110           0
     18178 MEMB     145      PMPG     H8X      HAL2     0.900000E-01   1.00800           0
     18179 MEMB     145      PMPG     H8Y      HAL2     0.900000E-01   1.00800           0
     18180 MEMB     145      PMPG     C39      CTL2    -0.180000       12.0110           0
     18181 MEMB     145      PMPG     H9X      HAL2     0.900000E-01   1.00800           0
     18182 MEMB     145      PMPG     H9Y      HAL2     0.900000E-01   1.00800           0
     18183 MEMB     145      PMPG     C310     CTL2    -0.180000       12.0110           0
     18184 MEMB     145      PMPG     H10X     HAL2     0.900000E-01   1.00800           0
     18185 MEMB     145      PMPG     H10Y     HAL2     0.900000E-01   1.00800           0
     18186 MEMB     145      PMPG     C311     CTL2    -0.180000       12.0110           0
     18187 MEMB     145      PMPG     H11X     HAL2     0.900000E-01   1.00800           0
     18188 MEMB     145      PMPG     H11Y     HAL2     0.900000E-01   1.00800           0
     18189 MEMB     145      PMPG     C312     CTL2    -0.180000       12.0110           0
     18190 MEMB     145      PMPG     H12X     HAL2     0.900000E-01   1.00800           0
     18191 MEMB     145      PMPG     H12Y     HAL2     0.900000E-01   1.00800           0
     18192 MEMB     145      PMPG     C313     CTL2    -0.180000       12.0110           0
     18193 MEMB     145      PMPG     H13X     HAL2     0.900000E-01   1.00800           0
     18194 MEMB     145      PMPG     H13Y     HAL2     0.900000E-01   1.00800           0
     18195 MEMB     145      PMPG     C314     CTL2    -0.180000       12.0110           0
     18196 MEMB     145      PMPG     H14X     HAL2     0.900000E-01   1.00800           0
     18197 MEMB     145      PMPG     H14Y     HAL2     0.900000E-01   1.00800           0
     18198 MEMB     145      PMPG     C315     CTL2    -0.180000       12.0110           0
     18199 MEMB     145      PMPG     H15X     HAL2     0.900000E-01   1.00800           0
     18200 MEMB     145      PMPG     H15Y     HAL2     0.900000E-01   1.00800           0
     18201 MEMB     145      PMPG     C316     CTL3    -0.270000       12.0110           0
     18202 MEMB     145      PMPG     H16X     HAL3     0.900000E-01   1.00800           0
     18203 MEMB     145      PMPG     H16Y     HAL3     0.900000E-01   1.00800           0
     18204 MEMB     145      PMPG     H16Z     HAL3     0.900000E-01   1.00800           0
     18205 MEMB     146      PMPE     N        NH3L    -0.300000       14.0070           0
     18206 MEMB     146      PMPE     HN1      HCL      0.330000       1.00800           0
     18207 MEMB     146      PMPE     HN2      HCL      0.330000       1.00800           0
     18208 MEMB     146      PMPE     HN3      HCL      0.330000       1.00800           0
     18209 MEMB     146      PMPE     C12      CTL2     0.130000       12.0110           0
     18210 MEMB     146      PMPE     H12A     HAL2     0.900000E-01   1.00800           0
     18211 MEMB     146      PMPE     H12B     HAL2     0.900000E-01   1.00800           0
     18212 MEMB     146      PMPE     C11      CTL2    -0.800000E-01   12.0110           0
     18213 MEMB     146      PMPE     H11A     HAL2     0.900000E-01   1.00800           0
     18214 MEMB     146      PMPE     H11B     HAL2     0.900000E-01   1.00800           0
     18215 MEMB     146      PMPE     P        PL        1.50000       30.9740           0
     18216 MEMB     146      PMPE     O13      O2L     -0.780000       15.9994           0
     18217 MEMB     146      PMPE     O14      O2L     -0.780000       15.9994           0
     18218 MEMB     146      PMPE     O11      OSLP    -0.570000       15.9994           0
     18219 MEMB     146      PMPE     O12      OSLP    -0.570000       15.9994           0
     18220 MEMB     146      PMPE     C1       CTL2    -0.800000E-01   12.0110           0
     18221 MEMB     146      PMPE     HA       HAL2     0.900000E-01   1.00800           0
     18222 MEMB     146      PMPE     HB       HAL2     0.900000E-01   1.00800           0
     18223 MEMB     146      PMPE     C2       CTL1     0.170000       12.0110           0
     18224 MEMB     146      PMPE     HS       HAL1     0.900000E-01   1.00800           0
     18225 MEMB     146      PMPE     O21      OSL     -0.490000       15.9994           0
     18226 MEMB     146      PMPE     C21      CL       0.900000       12.0110           0
     18227 MEMB     146      PMPE     O22      OBL     -0.630000       15.9994           0
     18228 MEMB     146      PMPE     C22      CTL2    -0.220000       12.0110           0
     18229 MEMB     146      PMPE     H2R      HAL2     0.900000E-01   1.00800           0
     18230 MEMB     146      PMPE     H2S      HAL2     0.900000E-01   1.00800           0
     18231 MEMB     146      PMPE     C3       CTL2     0.800000E-01   12.0110           0
     18232 MEMB     146      PMPE     HX       HAL2     0.900000E-01   1.00800           0
     18233 MEMB     146      PMPE     HY       HAL2     0.900000E-01   1.00800           0
     18234 MEMB     146      PMPE     O31      OSL     -0.490000       15.9994           0
     18235 MEMB     146      PMPE     C31      CL       0.900000       12.0110           0
     18236 MEMB     146      PMPE     O32      OBL     -0.630000       15.9994           0
     18237 MEMB     146      PMPE     C32      CTL2    -0.220000       12.0110           0
     18238 MEMB     146      PMPE     H2X      HAL2     0.900000E-01   1.00800           0
     18239 MEMB     146      PMPE     H2Y      HAL2     0.900000E-01   1.00800           0
     18240 MEMB     146      PMPE     C23      CTL2    -0.180000       12.0110           0
     18241 MEMB     146      PMPE     H3R      HAL2     0.900000E-01   1.00800           0
     18242 MEMB     146      PMPE     H3S      HAL2     0.900000E-01   1.00800           0
     18243 MEMB     146      PMPE     C24      CTL2    -0.180000       12.0110           0
     18244 MEMB     146      PMPE     H4R      HAL2     0.900000E-01   1.00800           0
     18245 MEMB     146      PMPE     H4S      HAL2     0.900000E-01   1.00800           0
     18246 MEMB     146      PMPE     C25      CTL2    -0.180000       12.0110           0
     18247 MEMB     146      PMPE     H5R      HAL2     0.900000E-01   1.00800           0
     18248 MEMB     146      PMPE     H5S      HAL2     0.900000E-01   1.00800           0
     18249 MEMB     146      PMPE     C26      CTL2    -0.180000       12.0110           0
     18250 MEMB     146      PMPE     H6R      HAL2     0.900000E-01   1.00800           0
     18251 MEMB     146      PMPE     H6S      HAL2     0.900000E-01   1.00800           0
     18252 MEMB     146      PMPE     C27      CTL2    -0.180000       12.0110           0
     18253 MEMB     146      PMPE     H7R      HAL2     0.900000E-01   1.00800           0
     18254 MEMB     146      PMPE     H7S      HAL2     0.900000E-01   1.00800           0
     18255 MEMB     146      PMPE     C28      CTL2    -0.180000       12.0110           0
     18256 MEMB     146      PMPE     H8R      HAL2     0.900000E-01   1.00800           0
     18257 MEMB     146      PMPE     H8S      HAL2     0.900000E-01   1.00800           0
     18258 MEMB     146      PMPE     C29      CG3RC1  -0.900000E-01   12.0110           0
     18259 MEMB     146      PMPE     H9R      HGA1     0.900000E-01   1.00800           0
     18260 MEMB     146      PMPE     C217     CG3C31  -0.180000       12.0110           0
     18261 MEMB     146      PMPE     H17R     HGA2     0.900000E-01   1.00800           0
     18262 MEMB     146      PMPE     H17S     HGA2     0.900000E-01   1.00800           0
     18263 MEMB     146      PMPE     C210     CG3RC1  -0.900000E-01   12.0110           0
     18264 MEMB     146      PMPE     H10R     HGA1     0.900000E-01   1.00800           0
     18265 MEMB     146      PMPE     C211     CTL2    -0.180000       12.0110           0
     18266 MEMB     146      PMPE     H11R     HAL2     0.900000E-01   1.00800           0
     18267 MEMB     146      PMPE     H11S     HAL2     0.900000E-01   1.00800           0
     18268 MEMB     146      PMPE     C212     CTL2    -0.180000       12.0110           0
     18269 MEMB     146      PMPE     H12R     HAL2     0.900000E-01   1.00800           0
     18270 MEMB     146      PMPE     H12S     HAL2     0.900000E-01   1.00800           0
     18271 MEMB     146      PMPE     C213     CTL2    -0.180000       12.0110           0
     18272 MEMB     146      PMPE     H13R     HAL2     0.900000E-01   1.00800           0
     18273 MEMB     146      PMPE     H13S     HAL2     0.900000E-01   1.00800           0
     18274 MEMB     146      PMPE     C214     CTL2    -0.180000       12.0110           0
     18275 MEMB     146      PMPE     H14R     HAL2     0.900000E-01   1.00800           0
     18276 MEMB     146      PMPE     H14S     HAL2     0.900000E-01   1.00800           0
     18277 MEMB     146      PMPE     C215     CTL2    -0.180000       12.0110           0
     18278 MEMB     146      PMPE     H15R     HAL2     0.900000E-01   1.00800           0
     18279 MEMB     146      PMPE     H15S     HAL2     0.900000E-01   1.00800           0
     18280 MEMB     146      PMPE     C216     CTL3    -0.270000       12.0110           0
     18281 MEMB     146      PMPE     H16R     HAL3     0.900000E-01   1.00800           0
     18282 MEMB     146      PMPE     H16S     HAL3     0.900000E-01   1.00800           0
     18283 MEMB     146      PMPE     H16T     HAL3     0.900000E-01   1.00800           0
     18284 MEMB     146      PMPE     C33      CTL2    -0.180000       12.0110           0
     18285 MEMB     146      PMPE     H3X      HAL2     0.900000E-01   1.00800           0
     18286 MEMB     146      PMPE     H3Y      HAL2     0.900000E-01   1.00800           0
     18287 MEMB     146      PMPE     C34      CTL2    -0.180000       12.0110           0
     18288 MEMB     146      PMPE     H4X      HAL2     0.900000E-01   1.00800           0
     18289 MEMB     146      PMPE     H4Y      HAL2     0.900000E-01   1.00800           0
     18290 MEMB     146      PMPE     C35      CTL2    -0.180000       12.0110           0
     18291 MEMB     146      PMPE     H5X      HAL2     0.900000E-01   1.00800           0
     18292 MEMB     146      PMPE     H5Y      HAL2     0.900000E-01   1.00800           0
     18293 MEMB     146      PMPE     C36      CTL2    -0.180000       12.0110           0
     18294 MEMB     146      PMPE     H6X      HAL2     0.900000E-01   1.00800           0
     18295 MEMB     146      PMPE     H6Y      HAL2     0.900000E-01   1.00800           0
     18296 MEMB     146      PMPE     C37      CTL2    -0.180000       12.0110           0
     18297 MEMB     146      PMPE     H7X      HAL2     0.900000E-01   1.00800           0
     18298 MEMB     146      PMPE     H7Y      HAL2     0.900000E-01   1.00800           0
     18299 MEMB     146      PMPE     C38      CTL2    -0.180000       12.0110           0
     18300 MEMB     146      PMPE     H8X      HAL2     0.900000E-01   1.00800           0
     18301 MEMB     146      PMPE     H8Y      HAL2     0.900000E-01   1.00800           0
     18302 MEMB     146      PMPE     C39      CTL2    -0.180000       12.0110           0
     18303 MEMB     146      PMPE     H9X      HAL2     0.900000E-01   1.00800           0
     18304 MEMB     146      PMPE     H9Y      HAL2     0.900000E-01   1.00800           0
     18305 MEMB     146      PMPE     C310     CTL2    -0.180000       12.0110           0
     18306 MEMB     146      PMPE     H10X     HAL2     0.900000E-01   1.00800           0
     18307 MEMB     146      PMPE     H10Y     HAL2     0.900000E-01   1.00800           0
     18308 MEMB     146      PMPE     C311     CTL2    -0.180000       12.0110           0
     18309 MEMB     146      PMPE     H11X     HAL2     0.900000E-01   1.00800           0
     18310 MEMB     146      PMPE     H11Y     HAL2     0.900000E-01   1.00800           0
     18311 MEMB     146      PMPE     C312     CTL2    -0.180000       12.0110           0
     18312 MEMB     146      PMPE     H12X     HAL2     0.900000E-01   1.00800           0
     18313 MEMB     146      PMPE     H12Y     HAL2     0.900000E-01   1.00800           0
     18314 MEMB     146      PMPE     C313     CTL2    -0.180000       12.0110           0
     18315 MEMB     146      PMPE     H13X     HAL2     0.900000E-01   1.00800           0
     18316 MEMB     146      PMPE     H13Y     HAL2     0.900000E-01   1.00800           0
     18317 MEMB     146      PMPE     C314     CTL2    -0.180000       12.0110           0
     18318 MEMB     146      PMPE     H14X     HAL2     0.900000E-01   1.00800           0
     18319 MEMB     146      PMPE     H14Y     HAL2     0.900000E-01   1.00800           0
     18320 MEMB     146      PMPE     C315     CTL2    -0.180000       12.0110           0
     18321 MEMB     146      PMPE     H15X     HAL2     0.900000E-01   1.00800           0
     18322 MEMB     146      PMPE     H15Y     HAL2     0.900000E-01   1.00800           0
     18323 MEMB     146      PMPE     C316     CTL3    -0.270000       12.0110           0
     18324 MEMB     146      PMPE     H16X     HAL3     0.900000E-01   1.00800           0
     18325 MEMB     146      PMPE     H16Y     HAL3     0.900000E-01   1.00800           0
     18326 MEMB     146      PMPE     H16Z     HAL3     0.900000E-01   1.00800           0
     18327 MEMB     147      PMPE     N        NH3L    -0.300000       14.0070           0
     18328 MEMB     147      PMPE     HN1      HCL      0.330000       1.00800           0
     18329 MEMB     147      PMPE     HN2      HCL      0.330000       1.00800           0
     18330 MEMB     147      PMPE     HN3      HCL      0.330000       1.00800           0
     18331 MEMB     147      PMPE     C12      CTL2     0.130000       12.0110           0
     18332 MEMB     147      PMPE     H12A     HAL2     0.900000E-01   1.00800           0
     18333 MEMB     147      PMPE     H12B     HAL2     0.900000E-01   1.00800           0
     18334 MEMB     147      PMPE     C11      CTL2    -0.800000E-01   12.0110           0
     18335 MEMB     147      PMPE     H11A     HAL2     0.900000E-01   1.00800           0
     18336 MEMB     147      PMPE     H11B     HAL2     0.900000E-01   1.00800           0
     18337 MEMB     147      PMPE     P        PL        1.50000       30.9740           0
     18338 MEMB     147      PMPE     O13      O2L     -0.780000       15.9994           0
     18339 MEMB     147      PMPE     O14      O2L     -0.780000       15.9994           0
     18340 MEMB     147      PMPE     O11      OSLP    -0.570000       15.9994           0
     18341 MEMB     147      PMPE     O12      OSLP    -0.570000       15.9994           0
     18342 MEMB     147      PMPE     C1       CTL2    -0.800000E-01   12.0110           0
     18343 MEMB     147      PMPE     HA       HAL2     0.900000E-01   1.00800           0
     18344 MEMB     147      PMPE     HB       HAL2     0.900000E-01   1.00800           0
     18345 MEMB     147      PMPE     C2       CTL1     0.170000       12.0110           0
     18346 MEMB     147      PMPE     HS       HAL1     0.900000E-01   1.00800           0
     18347 MEMB     147      PMPE     O21      OSL     -0.490000       15.9994           0
     18348 MEMB     147      PMPE     C21      CL       0.900000       12.0110           0
     18349 MEMB     147      PMPE     O22      OBL     -0.630000       15.9994           0
     18350 MEMB     147      PMPE     C22      CTL2    -0.220000       12.0110           0
     18351 MEMB     147      PMPE     H2R      HAL2     0.900000E-01   1.00800           0
     18352 MEMB     147      PMPE     H2S      HAL2     0.900000E-01   1.00800           0
     18353 MEMB     147      PMPE     C3       CTL2     0.800000E-01   12.0110           0
     18354 MEMB     147      PMPE     HX       HAL2     0.900000E-01   1.00800           0
     18355 MEMB     147      PMPE     HY       HAL2     0.900000E-01   1.00800           0
     18356 MEMB     147      PMPE     O31      OSL     -0.490000       15.9994           0
     18357 MEMB     147      PMPE     C31      CL       0.900000       12.0110           0
     18358 MEMB     147      PMPE     O32      OBL     -0.630000       15.9994           0
     18359 MEMB     147      PMPE     C32      CTL2    -0.220000       12.0110           0
     18360 MEMB     147      PMPE     H2X      HAL2     0.900000E-01   1.00800           0
     18361 MEMB     147      PMPE     H2Y      HAL2     0.900000E-01   1.00800           0
     18362 MEMB     147      PMPE     C23      CTL2    -0.180000       12.0110           0
     18363 MEMB     147      PMPE     H3R      HAL2     0.900000E-01   1.00800           0
     18364 MEMB     147      PMPE     H3S      HAL2     0.900000E-01   1.00800           0
     18365 MEMB     147      PMPE     C24      CTL2    -0.180000       12.0110           0
     18366 MEMB     147      PMPE     H4R      HAL2     0.900000E-01   1.00800           0
     18367 MEMB     147      PMPE     H4S      HAL2     0.900000E-01   1.00800           0
     18368 MEMB     147      PMPE     C25      CTL2    -0.180000       12.0110           0
     18369 MEMB     147      PMPE     H5R      HAL2     0.900000E-01   1.00800           0
     18370 MEMB     147      PMPE     H5S      HAL2     0.900000E-01   1.00800           0
     18371 MEMB     147      PMPE     C26      CTL2    -0.180000       12.0110           0
     18372 MEMB     147      PMPE     H6R      HAL2     0.900000E-01   1.00800           0
     18373 MEMB     147      PMPE     H6S      HAL2     0.900000E-01   1.00800           0
     18374 MEMB     147      PMPE     C27      CTL2    -0.180000       12.0110           0
     18375 MEMB     147      PMPE     H7R      HAL2     0.900000E-01   1.00800           0
     18376 MEMB     147      PMPE     H7S      HAL2     0.900000E-01   1.00800           0
     18377 MEMB     147      PMPE     C28      CTL2    -0.180000       12.0110           0
     18378 MEMB     147      PMPE     H8R      HAL2     0.900000E-01   1.00800           0
     18379 MEMB     147      PMPE     H8S      HAL2     0.900000E-01   1.00800           0
     18380 MEMB     147      PMPE     C29      CG3RC1  -0.900000E-01   12.0110           0
     18381 MEMB     147      PMPE     H9R      HGA1     0.900000E-01   1.00800           0
     18382 MEMB     147      PMPE     C217     CG3C31  -0.180000       12.0110           0
     18383 MEMB     147      PMPE     H17R     HGA2     0.900000E-01   1.00800           0
     18384 MEMB     147      PMPE     H17S     HGA2     0.900000E-01   1.00800           0
     18385 MEMB     147      PMPE     C210     CG3RC1  -0.900000E-01   12.0110           0
     18386 MEMB     147      PMPE     H10R     HGA1     0.900000E-01   1.00800           0
     18387 MEMB     147      PMPE     C211     CTL2    -0.180000       12.0110           0
     18388 MEMB     147      PMPE     H11R     HAL2     0.900000E-01   1.00800           0
     18389 MEMB     147      PMPE     H11S     HAL2     0.900000E-01   1.00800           0
     18390 MEMB     147      PMPE     C212     CTL2    -0.180000       12.0110           0
     18391 MEMB     147      PMPE     H12R     HAL2     0.900000E-01   1.00800           0
     18392 MEMB     147      PMPE     H12S     HAL2     0.900000E-01   1.00800           0
     18393 MEMB     147      PMPE     C213     CTL2    -0.180000       12.0110           0
     18394 MEMB     147      PMPE     H13R     HAL2     0.900000E-01   1.00800           0
     18395 MEMB     147      PMPE     H13S     HAL2     0.900000E-01   1.00800           0
     18396 MEMB     147      PMPE     C214     CTL2    -0.180000       12.0110           0
     18397 MEMB     147      PMPE     H14R     HAL2     0.900000E-01   1.00800           0
     18398 MEMB     147      PMPE     H14S     HAL2     0.900000E-01   1.00800           0
     18399 MEMB     147      PMPE     C215     CTL2    -0.180000       12.0110           0
     18400 MEMB     147      PMPE     H15R     HAL2     0.900000E-01   1.00800           0
     18401 MEMB     147      PMPE     H15S     HAL2     0.900000E-01   1.00800           0
     18402 MEMB     147      PMPE     C216     CTL3    -0.270000       12.0110           0
     18403 MEMB     147      PMPE     H16R     HAL3     0.900000E-01   1.00800           0
     18404 MEMB     147      PMPE     H16S     HAL3     0.900000E-01   1.00800           0
     18405 MEMB     147      PMPE     H16T     HAL3     0.900000E-01   1.00800           0
     18406 MEMB     147      PMPE     C33      CTL2    -0.180000       12.0110           0
     18407 MEMB     147      PMPE     H3X      HAL2     0.900000E-01   1.00800           0
     18408 MEMB     147      PMPE     H3Y      HAL2     0.900000E-01   1.00800           0
     18409 MEMB     147      PMPE     C34      CTL2    -0.180000       12.0110           0
     18410 MEMB     147      PMPE     H4X      HAL2     0.900000E-01   1.00800           0
     18411 MEMB     147      PMPE     H4Y      HAL2     0.900000E-01   1.00800           0
     18412 MEMB     147      PMPE     C35      CTL2    -0.180000       12.0110           0
     18413 MEMB     147      PMPE     H5X      HAL2     0.900000E-01   1.00800           0
     18414 MEMB     147      PMPE     H5Y      HAL2     0.900000E-01   1.00800           0
     18415 MEMB     147      PMPE     C36      CTL2    -0.180000       12.0110           0
     18416 MEMB     147      PMPE     H6X      HAL2     0.900000E-01   1.00800           0
     18417 MEMB     147      PMPE     H6Y      HAL2     0.900000E-01   1.00800           0
     18418 MEMB     147      PMPE     C37      CTL2    -0.180000       12.0110           0
     18419 MEMB     147      PMPE     H7X      HAL2     0.900000E-01   1.00800           0
     18420 MEMB     147      PMPE     H7Y      HAL2     0.900000E-01   1.00800           0
     18421 MEMB     147      PMPE     C38      CTL2    -0.180000       12.0110           0
     18422 MEMB     147      PMPE     H8X      HAL2     0.900000E-01   1.00800           0
     18423 MEMB     147      PMPE     H8Y      HAL2     0.900000E-01   1.00800           0
     18424 MEMB     147      PMPE     C39      CTL2    -0.180000       12.0110           0
     18425 MEMB     147      PMPE     H9X      HAL2     0.900000E-01   1.00800           0
     18426 MEMB     147      PMPE     H9Y      HAL2     0.900000E-01   1.00800           0
     18427 MEMB     147      PMPE     C310     CTL2    -0.180000       12.0110           0
     18428 MEMB     147      PMPE     H10X     HAL2     0.900000E-01   1.00800           0
     18429 MEMB     147      PMPE     H10Y     HAL2     0.900000E-01   1.00800           0
     18430 MEMB     147      PMPE     C311     CTL2    -0.180000       12.0110           0
     18431 MEMB     147      PMPE     H11X     HAL2     0.900000E-01   1.00800           0
     18432 MEMB     147      PMPE     H11Y     HAL2     0.900000E-01   1.00800           0
     18433 MEMB     147      PMPE     C312     CTL2    -0.180000       12.0110           0
     18434 MEMB     147      PMPE     H12X     HAL2     0.900000E-01   1.00800           0
     18435 MEMB     147      PMPE     H12Y     HAL2     0.900000E-01   1.00800           0
     18436 MEMB     147      PMPE     C313     CTL2    -0.180000       12.0110           0
     18437 MEMB     147      PMPE     H13X     HAL2     0.900000E-01   1.00800           0
     18438 MEMB     147      PMPE     H13Y     HAL2     0.900000E-01   1.00800           0
     18439 MEMB     147      PMPE     C314     CTL2    -0.180000       12.0110           0
     18440 MEMB     147      PMPE     H14X     HAL2     0.900000E-01   1.00800           0
     18441 MEMB     147      PMPE     H14Y     HAL2     0.900000E-01   1.00800           0
     18442 MEMB     147      PMPE     C315     CTL2    -0.180000       12.0110           0
     18443 MEMB     147      PMPE     H15X     HAL2     0.900000E-01   1.00800           0
     18444 MEMB     147      PMPE     H15Y     HAL2     0.900000E-01   1.00800           0
     18445 MEMB     147      PMPE     C316     CTL3    -0.270000       12.0110           0
     18446 MEMB     147      PMPE     H16X     HAL3     0.900000E-01   1.00800           0
     18447 MEMB     147      PMPE     H16Y     HAL3     0.900000E-01   1.00800           0
     18448 MEMB     147      PMPE     H16Z     HAL3     0.900000E-01   1.00800           0
     18449 MEMB     148      PMPE     N        NH3L    -0.300000       14.0070           0
     18450 MEMB     148      PMPE     HN1      HCL      0.330000       1.00800           0
     18451 MEMB     148      PMPE     HN2      HCL      0.330000       1.00800           0
     18452 MEMB     148      PMPE     HN3      HCL      0.330000       1.00800           0
     18453 MEMB     148      PMPE     C12      CTL2     0.130000       12.0110           0
     18454 MEMB     148      PMPE     H12A     HAL2     0.900000E-01   1.00800           0
     18455 MEMB     148      PMPE     H12B     HAL2     0.900000E-01   1.00800           0
     18456 MEMB     148      PMPE     C11      CTL2    -0.800000E-01   12.0110           0
     18457 MEMB     148      PMPE     H11A     HAL2     0.900000E-01   1.00800           0
     18458 MEMB     148      PMPE     H11B     HAL2     0.900000E-01   1.00800           0
     18459 MEMB     148      PMPE     P        PL        1.50000       30.9740           0
     18460 MEMB     148      PMPE     O13      O2L     -0.780000       15.9994           0
     18461 MEMB     148      PMPE     O14      O2L     -0.780000       15.9994           0
     18462 MEMB     148      PMPE     O11      OSLP    -0.570000       15.9994           0
     18463 MEMB     148      PMPE     O12      OSLP    -0.570000       15.9994           0
     18464 MEMB     148      PMPE     C1       CTL2    -0.800000E-01   12.0110           0
     18465 MEMB     148      PMPE     HA       HAL2     0.900000E-01   1.00800           0
     18466 MEMB     148      PMPE     HB       HAL2     0.900000E-01   1.00800           0
     18467 MEMB     148      PMPE     C2       CTL1     0.170000       12.0110           0
     18468 MEMB     148      PMPE     HS       HAL1     0.900000E-01   1.00800           0
     18469 MEMB     148      PMPE     O21      OSL     -0.490000       15.9994           0
     18470 MEMB     148      PMPE     C21      CL       0.900000       12.0110           0
     18471 MEMB     148      PMPE     O22      OBL     -0.630000       15.9994           0
     18472 MEMB     148      PMPE     C22      CTL2    -0.220000       12.0110           0
     18473 MEMB     148      PMPE     H2R      HAL2     0.900000E-01   1.00800           0
     18474 MEMB     148      PMPE     H2S      HAL2     0.900000E-01   1.00800           0
     18475 MEMB     148      PMPE     C3       CTL2     0.800000E-01   12.0110           0
     18476 MEMB     148      PMPE     HX       HAL2     0.900000E-01   1.00800           0
     18477 MEMB     148      PMPE     HY       HAL2     0.900000E-01   1.00800           0
     18478 MEMB     148      PMPE     O31      OSL     -0.490000       15.9994           0
     18479 MEMB     148      PMPE     C31      CL       0.900000       12.0110           0
     18480 MEMB     148      PMPE     O32      OBL     -0.630000       15.9994           0
     18481 MEMB     148      PMPE     C32      CTL2    -0.220000       12.0110           0
     18482 MEMB     148      PMPE     H2X      HAL2     0.900000E-01   1.00800           0
     18483 MEMB     148      PMPE     H2Y      HAL2     0.900000E-01   1.00800           0
     18484 MEMB     148      PMPE     C23      CTL2    -0.180000       12.0110           0
     18485 MEMB     148      PMPE     H3R      HAL2     0.900000E-01   1.00800           0
     18486 MEMB     148      PMPE     H3S      HAL2     0.900000E-01   1.00800           0
     18487 MEMB     148      PMPE     C24      CTL2    -0.180000       12.0110           0
     18488 MEMB     148      PMPE     H4R      HAL2     0.900000E-01   1.00800           0
     18489 MEMB     148      PMPE     H4S      HAL2     0.900000E-01   1.00800           0
     18490 MEMB     148      PMPE     C25      CTL2    -0.180000       12.0110           0
     18491 MEMB     148      PMPE     H5R      HAL2     0.900000E-01   1.00800           0
     18492 MEMB     148      PMPE     H5S      HAL2     0.900000E-01   1.00800           0
     18493 MEMB     148      PMPE     C26      CTL2    -0.180000       12.0110           0
     18494 MEMB     148      PMPE     H6R      HAL2     0.900000E-01   1.00800           0
     18495 MEMB     148      PMPE     H6S      HAL2     0.900000E-01   1.00800           0
     18496 MEMB     148      PMPE     C27      CTL2    -0.180000       12.0110           0
     18497 MEMB     148      PMPE     H7R      HAL2     0.900000E-01   1.00800           0
     18498 MEMB     148      PMPE     H7S      HAL2     0.900000E-01   1.00800           0
     18499 MEMB     148      PMPE     C28      CTL2    -0.180000       12.0110           0
     18500 MEMB     148      PMPE     H8R      HAL2     0.900000E-01   1.00800           0
     18501 MEMB     148      PMPE     H8S      HAL2     0.900000E-01   1.00800           0
     18502 MEMB     148      PMPE     C29      CG3RC1  -0.900000E-01   12.0110           0
     18503 MEMB     148      PMPE     H9R      HGA1     0.900000E-01   1.00800           0
     18504 MEMB     148      PMPE     C217     CG3C31  -0.180000       12.0110           0
     18505 MEMB     148      PMPE     H17R     HGA2     0.900000E-01   1.00800           0
     18506 MEMB     148      PMPE     H17S     HGA2     0.900000E-01   1.00800           0
     18507 MEMB     148      PMPE     C210     CG3RC1  -0.900000E-01   12.0110           0
     18508 MEMB     148      PMPE     H10R     HGA1     0.900000E-01   1.00800           0
     18509 MEMB     148      PMPE     C211     CTL2    -0.180000       12.0110           0
     18510 MEMB     148      PMPE     H11R     HAL2     0.900000E-01   1.00800           0
     18511 MEMB     148      PMPE     H11S     HAL2     0.900000E-01   1.00800           0
     18512 MEMB     148      PMPE     C212     CTL2    -0.180000       12.0110           0
     18513 MEMB     148      PMPE     H12R     HAL2     0.900000E-01   1.00800           0
     18514 MEMB     148      PMPE     H12S     HAL2     0.900000E-01   1.00800           0
     18515 MEMB     148      PMPE     C213     CTL2    -0.180000       12.0110           0
     18516 MEMB     148      PMPE     H13R     HAL2     0.900000E-01   1.00800           0
     18517 MEMB     148      PMPE     H13S     HAL2     0.900000E-01   1.00800           0
     18518 MEMB     148      PMPE     C214     CTL2    -0.180000       12.0110           0
     18519 MEMB     148      PMPE     H14R     HAL2     0.900000E-01   1.00800           0
     18520 MEMB     148      PMPE     H14S     HAL2     0.900000E-01   1.00800           0
     18521 MEMB     148      PMPE     C215     CTL2    -0.180000       12.0110           0
     18522 MEMB     148      PMPE     H15R     HAL2     0.900000E-01   1.00800           0
     18523 MEMB     148      PMPE     H15S     HAL2     0.900000E-01   1.00800           0
     18524 MEMB     148      PMPE     C216     CTL3    -0.270000       12.0110           0
     18525 MEMB     148      PMPE     H16R     HAL3     0.900000E-01   1.00800           0
     18526 MEMB     148      PMPE     H16S     HAL3     0.900000E-01   1.00800           0
     18527 MEMB     148      PMPE     H16T     HAL3     0.900000E-01   1.00800           0
     18528 MEMB     148      PMPE     C33      CTL2    -0.180000       12.0110           0
     18529 MEMB     148      PMPE     H3X      HAL2     0.900000E-01   1.00800           0
     18530 MEMB     148      PMPE     H3Y      HAL2     0.900000E-01   1.00800           0
     18531 MEMB     148      PMPE     C34      CTL2    -0.180000       12.0110           0
     18532 MEMB     148      PMPE     H4X      HAL2     0.900000E-01   1.00800           0
     18533 MEMB     148      PMPE     H4Y      HAL2     0.900000E-01   1.00800           0
     18534 MEMB     148      PMPE     C35      CTL2    -0.180000       12.0110           0
     18535 MEMB     148      PMPE     H5X      HAL2     0.900000E-01   1.00800           0
     18536 MEMB     148      PMPE     H5Y      HAL2     0.900000E-01   1.00800           0
     18537 MEMB     148      PMPE     C36      CTL2    -0.180000       12.0110           0
     18538 MEMB     148      PMPE     H6X      HAL2     0.900000E-01   1.00800           0
     18539 MEMB     148      PMPE     H6Y      HAL2     0.900000E-01   1.00800           0
     18540 MEMB     148      PMPE     C37      CTL2    -0.180000       12.0110           0
     18541 MEMB     148      PMPE     H7X      HAL2     0.900000E-01   1.00800           0
     18542 MEMB     148      PMPE     H7Y      HAL2     0.900000E-01   1.00800           0
     18543 MEMB     148      PMPE     C38      CTL2    -0.180000       12.0110           0
     18544 MEMB     148      PMPE     H8X      HAL2     0.900000E-01   1.00800           0
     18545 MEMB     148      PMPE     H8Y      HAL2     0.900000E-01   1.00800           0
     18546 MEMB     148      PMPE     C39      CTL2    -0.180000       12.0110           0
     18547 MEMB     148      PMPE     H9X      HAL2     0.900000E-01   1.00800           0
     18548 MEMB     148      PMPE     H9Y      HAL2     0.900000E-01   1.00800           0
     18549 MEMB     148      PMPE     C310     CTL2    -0.180000       12.0110           0
     18550 MEMB     148      PMPE     H10X     HAL2     0.900000E-01   1.00800           0
     18551 MEMB     148      PMPE     H10Y     HAL2     0.900000E-01   1.00800           0
     18552 MEMB     148      PMPE     C311     CTL2    -0.180000       12.0110           0
     18553 MEMB     148      PMPE     H11X     HAL2     0.900000E-01   1.00800           0
     18554 MEMB     148      PMPE     H11Y     HAL2     0.900000E-01   1.00800           0
     18555 MEMB     148      PMPE     C312     CTL2    -0.180000       12.0110           0
     18556 MEMB     148      PMPE     H12X     HAL2     0.900000E-01   1.00800           0
     18557 MEMB     148      PMPE     H12Y     HAL2     0.900000E-01   1.00800           0
     18558 MEMB     148      PMPE     C313     CTL2    -0.180000       12.0110           0
     18559 MEMB     148      PMPE     H13X     HAL2     0.900000E-01   1.00800           0
     18560 MEMB     148      PMPE     H13Y     HAL2     0.900000E-01   1.00800           0
     18561 MEMB     148      PMPE     C314     CTL2    -0.180000       12.0110           0
     18562 MEMB     148      PMPE     H14X     HAL2     0.900000E-01   1.00800           0
     18563 MEMB     148      PMPE     H14Y     HAL2     0.900000E-01   1.00800           0
     18564 MEMB     148      PMPE     C315     CTL2    -0.180000       12.0110           0
     18565 MEMB     148      PMPE     H15X     HAL2     0.900000E-01   1.00800           0
     18566 MEMB     148      PMPE     H15Y     HAL2     0.900000E-01   1.00800           0
     18567 MEMB     148      PMPE     C316     CTL3    -0.270000       12.0110           0
     18568 MEMB     148      PMPE     H16X     HAL3     0.900000E-01   1.00800           0
     18569 MEMB     148      PMPE     H16Y     HAL3     0.900000E-01   1.00800           0
     18570 MEMB     148      PMPE     H16Z     HAL3     0.900000E-01   1.00800           0
     18571 MEMB     149      PMPE     N        NH3L    -0.300000       14.0070           0
     18572 MEMB     149      PMPE     HN1      HCL      0.330000       1.00800           0
     18573 MEMB     149      PMPE     HN2      HCL      0.330000       1.00800           0
     18574 MEMB     149      PMPE     HN3      HCL      0.330000       1.00800           0
     18575 MEMB     149      PMPE     C12      CTL2     0.130000       12.0110           0
     18576 MEMB     149      PMPE     H12A     HAL2     0.900000E-01   1.00800           0
     18577 MEMB     149      PMPE     H12B     HAL2     0.900000E-01   1.00800           0
     18578 MEMB     149      PMPE     C11      CTL2    -0.800000E-01   12.0110           0
     18579 MEMB     149      PMPE     H11A     HAL2     0.900000E-01   1.00800           0
     18580 MEMB     149      PMPE     H11B     HAL2     0.900000E-01   1.00800           0
     18581 MEMB     149      PMPE     P        PL        1.50000       30.9740           0
     18582 MEMB     149      PMPE     O13      O2L     -0.780000       15.9994           0
     18583 MEMB     149      PMPE     O14      O2L     -0.780000       15.9994           0
     18584 MEMB     149      PMPE     O11      OSLP    -0.570000       15.9994           0
     18585 MEMB     149      PMPE     O12      OSLP    -0.570000       15.9994           0
     18586 MEMB     149      PMPE     C1       CTL2    -0.800000E-01   12.0110           0
     18587 MEMB     149      PMPE     HA       HAL2     0.900000E-01   1.00800           0
     18588 MEMB     149      PMPE     HB       HAL2     0.900000E-01   1.00800           0
     18589 MEMB     149      PMPE     C2       CTL1     0.170000       12.0110           0
     18590 MEMB     149      PMPE     HS       HAL1     0.900000E-01   1.00800           0
     18591 MEMB     149      PMPE     O21      OSL     -0.490000       15.9994           0
     18592 MEMB     149      PMPE     C21      CL       0.900000       12.0110           0
     18593 MEMB     149      PMPE     O22      OBL     -0.630000       15.9994           0
     18594 MEMB     149      PMPE     C22      CTL2    -0.220000       12.0110           0
     18595 MEMB     149      PMPE     H2R      HAL2     0.900000E-01   1.00800           0
     18596 MEMB     149      PMPE     H2S      HAL2     0.900000E-01   1.00800           0
     18597 MEMB     149      PMPE     C3       CTL2     0.800000E-01   12.0110           0
     18598 MEMB     149      PMPE     HX       HAL2     0.900000E-01   1.00800           0
     18599 MEMB     149      PMPE     HY       HAL2     0.900000E-01   1.00800           0
     18600 MEMB     149      PMPE     O31      OSL     -0.490000       15.9994           0
     18601 MEMB     149      PMPE     C31      CL       0.900000       12.0110           0
     18602 MEMB     149      PMPE     O32      OBL     -0.630000       15.9994           0
     18603 MEMB     149      PMPE     C32      CTL2    -0.220000       12.0110           0
     18604 MEMB     149      PMPE     H2X      HAL2     0.900000E-01   1.00800           0
     18605 MEMB     149      PMPE     H2Y      HAL2     0.900000E-01   1.00800           0
     18606 MEMB     149      PMPE     C23      CTL2    -0.180000       12.0110           0
     18607 MEMB     149      PMPE     H3R      HAL2     0.900000E-01   1.00800           0
     18608 MEMB     149      PMPE     H3S      HAL2     0.900000E-01   1.00800           0
     18609 MEMB     149      PMPE     C24      CTL2    -0.180000       12.0110           0
     18610 MEMB     149      PMPE     H4R      HAL2     0.900000E-01   1.00800           0
     18611 MEMB     149      PMPE     H4S      HAL2     0.900000E-01   1.00800           0
     18612 MEMB     149      PMPE     C25      CTL2    -0.180000       12.0110           0
     18613 MEMB     149      PMPE     H5R      HAL2     0.900000E-01   1.00800           0
     18614 MEMB     149      PMPE     H5S      HAL2     0.900000E-01   1.00800           0
     18615 MEMB     149      PMPE     C26      CTL2    -0.180000       12.0110           0
     18616 MEMB     149      PMPE     H6R      HAL2     0.900000E-01   1.00800           0
     18617 MEMB     149      PMPE     H6S      HAL2     0.900000E-01   1.00800           0
     18618 MEMB     149      PMPE     C27      CTL2    -0.180000       12.0110           0
     18619 MEMB     149      PMPE     H7R      HAL2     0.900000E-01   1.00800           0
     18620 MEMB     149      PMPE     H7S      HAL2     0.900000E-01   1.00800           0
     18621 MEMB     149      PMPE     C28      CTL2    -0.180000       12.0110           0
     18622 MEMB     149      PMPE     H8R      HAL2     0.900000E-01   1.00800           0
     18623 MEMB     149      PMPE     H8S      HAL2     0.900000E-01   1.00800           0
     18624 MEMB     149      PMPE     C29      CG3RC1  -0.900000E-01   12.0110           0
     18625 MEMB     149      PMPE     H9R      HGA1     0.900000E-01   1.00800           0
     18626 MEMB     149      PMPE     C217     CG3C31  -0.180000       12.0110           0
     18627 MEMB     149      PMPE     H17R     HGA2     0.900000E-01   1.00800           0
     18628 MEMB     149      PMPE     H17S     HGA2     0.900000E-01   1.00800           0
     18629 MEMB     149      PMPE     C210     CG3RC1  -0.900000E-01   12.0110           0
     18630 MEMB     149      PMPE     H10R     HGA1     0.900000E-01   1.00800           0
     18631 MEMB     149      PMPE     C211     CTL2    -0.180000       12.0110           0
     18632 MEMB     149      PMPE     H11R     HAL2     0.900000E-01   1.00800           0
     18633 MEMB     149      PMPE     H11S     HAL2     0.900000E-01   1.00800           0
     18634 MEMB     149      PMPE     C212     CTL2    -0.180000       12.0110           0
     18635 MEMB     149      PMPE     H12R     HAL2     0.900000E-01   1.00800           0
     18636 MEMB     149      PMPE     H12S     HAL2     0.900000E-01   1.00800           0
     18637 MEMB     149      PMPE     C213     CTL2    -0.180000       12.0110           0
     18638 MEMB     149      PMPE     H13R     HAL2     0.900000E-01   1.00800           0
     18639 MEMB     149      PMPE     H13S     HAL2     0.900000E-01   1.00800           0
     18640 MEMB     149      PMPE     C214     CTL2    -0.180000       12.0110           0
     18641 MEMB     149      PMPE     H14R     HAL2     0.900000E-01   1.00800           0
     18642 MEMB     149      PMPE     H14S     HAL2     0.900000E-01   1.00800           0
     18643 MEMB     149      PMPE     C215     CTL2    -0.180000       12.0110           0
     18644 MEMB     149      PMPE     H15R     HAL2     0.900000E-01   1.00800           0
     18645 MEMB     149      PMPE     H15S     HAL2     0.900000E-01   1.00800           0
     18646 MEMB     149      PMPE     C216     CTL3    -0.270000       12.0110           0
     18647 MEMB     149      PMPE     H16R     HAL3     0.900000E-01   1.00800           0
     18648 MEMB     149      PMPE     H16S     HAL3     0.900000E-01   1.00800           0
     18649 MEMB     149      PMPE     H16T     HAL3     0.900000E-01   1.00800           0
     18650 MEMB     149      PMPE     C33      CTL2    -0.180000       12.0110           0
     18651 MEMB     149      PMPE     H3X      HAL2     0.900000E-01   1.00800           0
     18652 MEMB     149      PMPE     H3Y      HAL2     0.900000E-01   1.00800           0
     18653 MEMB     149      PMPE     C34      CTL2    -0.180000       12.0110           0
     18654 MEMB     149      PMPE     H4X      HAL2     0.900000E-01   1.00800           0
     18655 MEMB     149      PMPE     H4Y      HAL2     0.900000E-01   1.00800           0
     18656 MEMB     149      PMPE     C35      CTL2    -0.180000       12.0110           0
     18657 MEMB     149      PMPE     H5X      HAL2     0.900000E-01   1.00800           0
     18658 MEMB     149      PMPE     H5Y      HAL2     0.900000E-01   1.00800           0
     18659 MEMB     149      PMPE     C36      CTL2    -0.180000       12.0110           0
     18660 MEMB     149      PMPE     H6X      HAL2     0.900000E-01   1.00800           0
     18661 MEMB     149      PMPE     H6Y      HAL2     0.900000E-01   1.00800           0
     18662 MEMB     149      PMPE     C37      CTL2    -0.180000       12.0110           0
     18663 MEMB     149      PMPE     H7X      HAL2     0.900000E-01   1.00800           0
     18664 MEMB     149      PMPE     H7Y      HAL2     0.900000E-01   1.00800           0
     18665 MEMB     149      PMPE     C38      CTL2    -0.180000       12.0110           0
     18666 MEMB     149      PMPE     H8X      HAL2     0.900000E-01   1.00800           0
     18667 MEMB     149      PMPE     H8Y      HAL2     0.900000E-01   1.00800           0
     18668 MEMB     149      PMPE     C39      CTL2    -0.180000       12.0110           0
     18669 MEMB     149      PMPE     H9X      HAL2     0.900000E-01   1.00800           0
     18670 MEMB     149      PMPE     H9Y      HAL2     0.900000E-01   1.00800           0
     18671 MEMB     149      PMPE     C310     CTL2    -0.180000       12.0110           0
     18672 MEMB     149      PMPE     H10X     HAL2     0.900000E-01   1.00800           0
     18673 MEMB     149      PMPE     H10Y     HAL2     0.900000E-01   1.00800           0
     18674 MEMB     149      PMPE     C311     CTL2    -0.180000       12.0110           0
     18675 MEMB     149      PMPE     H11X     HAL2     0.900000E-01   1.00800           0
     18676 MEMB     149      PMPE     H11Y     HAL2     0.900000E-01   1.00800           0
     18677 MEMB     149      PMPE     C312     CTL2    -0.180000       12.0110           0
     18678 MEMB     149      PMPE     H12X     HAL2     0.900000E-01   1.00800           0
     18679 MEMB     149      PMPE     H12Y     HAL2     0.900000E-01   1.00800           0
     18680 MEMB     149      PMPE     C313     CTL2    -0.180000       12.0110           0
     18681 MEMB     149      PMPE     H13X     HAL2     0.900000E-01   1.00800           0
     18682 MEMB     149      PMPE     H13Y     HAL2     0.900000E-01   1.00800           0
     18683 MEMB     149      PMPE     C314     CTL2    -0.180000       12.0110           0
     18684 MEMB     149      PMPE     H14X     HAL2     0.900000E-01   1.00800           0
     18685 MEMB     149      PMPE     H14Y     HAL2     0.900000E-01   1.00800           0
     18686 MEMB     149      PMPE     C315     CTL2    -0.180000       12.0110           0
     18687 MEMB     149      PMPE     H15X     HAL2     0.900000E-01   1.00800           0
     18688 MEMB     149      PMPE     H15Y     HAL2     0.900000E-01   1.00800           0
     18689 MEMB     149      PMPE     C316     CTL3    -0.270000       12.0110           0
     18690 MEMB     149      PMPE     H16X     HAL3     0.900000E-01   1.00800           0
     18691 MEMB     149      PMPE     H16Y     HAL3     0.900000E-01   1.00800           0
     18692 MEMB     149      PMPE     H16Z     HAL3     0.900000E-01   1.00800           0
     18693 MEMB     150      PYPG     C13      CTL2     0.500000E-01   12.0110           0
     18694 MEMB     150      PYPG     H13A     HAL2     0.900000E-01   1.00800           0
     18695 MEMB     150      PYPG     H13B     HAL2     0.900000E-01   1.00800           0
     18696 MEMB     150      PYPG     OC3      OHL     -0.660000       15.9994           0
     18697 MEMB     150      PYPG     HO3      HOL      0.430000       1.00800           0
     18698 MEMB     150      PYPG     C12      CTL1     0.140000       12.0110           0
     18699 MEMB     150      PYPG     H12A     HAL1     0.900000E-01   1.00800           0
     18700 MEMB     150      PYPG     OC2      OHL     -0.660000       15.9994           0
     18701 MEMB     150      PYPG     HO2      HOL      0.430000       1.00800           0
     18702 MEMB     150      PYPG     C11      CTL2    -0.800000E-01   12.0110           0
     18703 MEMB     150      PYPG     H11A     HAL2     0.900000E-01   1.00800           0
     18704 MEMB     150      PYPG     H11B     HAL2     0.900000E-01   1.00800           0
     18705 MEMB     150      PYPG     P        PL        1.50000       30.9740           0
     18706 MEMB     150      PYPG     O13      O2L     -0.780000       15.9994           0
     18707 MEMB     150      PYPG     O14      O2L     -0.780000       15.9994           0
     18708 MEMB     150      PYPG     O11      OSLP    -0.570000       15.9994           0
     18709 MEMB     150      PYPG     O12      OSLP    -0.570000       15.9994           0
     18710 MEMB     150      PYPG     C1       CTL2    -0.800000E-01   12.0110           0
     18711 MEMB     150      PYPG     HA       HAL2     0.900000E-01   1.00800           0
     18712 MEMB     150      PYPG     HB       HAL2     0.900000E-01   1.00800           0
     18713 MEMB     150      PYPG     C2       CTL1     0.170000       12.0110           0
     18714 MEMB     150      PYPG     HS       HAL1     0.900000E-01   1.00800           0
     18715 MEMB     150      PYPG     O21      OSL     -0.490000       15.9994           0
     18716 MEMB     150      PYPG     C21      CL       0.900000       12.0110           0
     18717 MEMB     150      PYPG     O22      OBL     -0.630000       15.9994           0
     18718 MEMB     150      PYPG     C22      CTL2    -0.220000       12.0110           0
     18719 MEMB     150      PYPG     H2R      HAL2     0.900000E-01   1.00800           0
     18720 MEMB     150      PYPG     H2S      HAL2     0.900000E-01   1.00800           0
     18721 MEMB     150      PYPG     C3       CTL2     0.800000E-01   12.0110           0
     18722 MEMB     150      PYPG     HX       HAL2     0.900000E-01   1.00800           0
     18723 MEMB     150      PYPG     HY       HAL2     0.900000E-01   1.00800           0
     18724 MEMB     150      PYPG     O31      OSL     -0.490000       15.9994           0
     18725 MEMB     150      PYPG     C31      CL       0.900000       12.0110           0
     18726 MEMB     150      PYPG     O32      OBL     -0.630000       15.9994           0
     18727 MEMB     150      PYPG     C32      CTL2    -0.220000       12.0110           0
     18728 MEMB     150      PYPG     H2X      HAL2     0.900000E-01   1.00800           0
     18729 MEMB     150      PYPG     H2Y      HAL2     0.900000E-01   1.00800           0
     18730 MEMB     150      PYPG     C23      CTL2    -0.180000       12.0110           0
     18731 MEMB     150      PYPG     H3R      HAL2     0.900000E-01   1.00800           0
     18732 MEMB     150      PYPG     H3S      HAL2     0.900000E-01   1.00800           0
     18733 MEMB     150      PYPG     C24      CTL2    -0.180000       12.0110           0
     18734 MEMB     150      PYPG     H4R      HAL2     0.900000E-01   1.00800           0
     18735 MEMB     150      PYPG     H4S      HAL2     0.900000E-01   1.00800           0
     18736 MEMB     150      PYPG     C25      CTL2    -0.180000       12.0110           0
     18737 MEMB     150      PYPG     H5R      HAL2     0.900000E-01   1.00800           0
     18738 MEMB     150      PYPG     H5S      HAL2     0.900000E-01   1.00800           0
     18739 MEMB     150      PYPG     C26      CTL2    -0.180000       12.0110           0
     18740 MEMB     150      PYPG     H6R      HAL2     0.900000E-01   1.00800           0
     18741 MEMB     150      PYPG     H6S      HAL2     0.900000E-01   1.00800           0
     18742 MEMB     150      PYPG     C27      CTL2    -0.180000       12.0110           0
     18743 MEMB     150      PYPG     H7R      HAL2     0.900000E-01   1.00800           0
     18744 MEMB     150      PYPG     H7S      HAL2     0.900000E-01   1.00800           0
     18745 MEMB     150      PYPG     C28      CTL2    -0.180000       12.0110           0
     18746 MEMB     150      PYPG     H8R      HAL2     0.900000E-01   1.00800           0
     18747 MEMB     150      PYPG     H8S      HAL2     0.900000E-01   1.00800           0
     18748 MEMB     150      PYPG     C29      CEL1    -0.150000       12.0110           0
     18749 MEMB     150      PYPG     H9R      HEL1     0.150000       1.00800           0
     18750 MEMB     150      PYPG     C210     CEL1    -0.150000       12.0110           0
     18751 MEMB     150      PYPG     H10R     HEL1     0.150000       1.00800           0
     18752 MEMB     150      PYPG     C211     CTL2    -0.180000       12.0110           0
     18753 MEMB     150      PYPG     H11R     HAL2     0.900000E-01   1.00800           0
     18754 MEMB     150      PYPG     H11S     HAL2     0.900000E-01   1.00800           0
     18755 MEMB     150      PYPG     C212     CTL2    -0.180000       12.0110           0
     18756 MEMB     150      PYPG     H12R     HAL2     0.900000E-01   1.00800           0
     18757 MEMB     150      PYPG     H12S     HAL2     0.900000E-01   1.00800           0
     18758 MEMB     150      PYPG     C213     CTL2    -0.180000       12.0110           0
     18759 MEMB     150      PYPG     H13R     HAL2     0.900000E-01   1.00800           0
     18760 MEMB     150      PYPG     H13S     HAL2     0.900000E-01   1.00800           0
     18761 MEMB     150      PYPG     C214     CTL2    -0.180000       12.0110           0
     18762 MEMB     150      PYPG     H14R     HAL2     0.900000E-01   1.00800           0
     18763 MEMB     150      PYPG     H14S     HAL2     0.900000E-01   1.00800           0
     18764 MEMB     150      PYPG     C215     CTL2    -0.180000       12.0110           0
     18765 MEMB     150      PYPG     H15R     HAL2     0.900000E-01   1.00800           0
     18766 MEMB     150      PYPG     H15S     HAL2     0.900000E-01   1.00800           0
     18767 MEMB     150      PYPG     C216     CTL3    -0.270000       12.0110           0
     18768 MEMB     150      PYPG     H16R     HAL3     0.900000E-01   1.00800           0
     18769 MEMB     150      PYPG     H16S     HAL3     0.900000E-01   1.00800           0
     18770 MEMB     150      PYPG     H16T     HAL3     0.900000E-01   1.00800           0
     18771 MEMB     150      PYPG     C33      CTL2    -0.180000       12.0110           0
     18772 MEMB     150      PYPG     H3X      HAL2     0.900000E-01   1.00800           0
     18773 MEMB     150      PYPG     H3Y      HAL2     0.900000E-01   1.00800           0
     18774 MEMB     150      PYPG     C34      CTL2    -0.180000       12.0110           0
     18775 MEMB     150      PYPG     H4X      HAL2     0.900000E-01   1.00800           0
     18776 MEMB     150      PYPG     H4Y      HAL2     0.900000E-01   1.00800           0
     18777 MEMB     150      PYPG     C35      CTL2    -0.180000       12.0110           0
     18778 MEMB     150      PYPG     H5X      HAL2     0.900000E-01   1.00800           0
     18779 MEMB     150      PYPG     H5Y      HAL2     0.900000E-01   1.00800           0
     18780 MEMB     150      PYPG     C36      CTL2    -0.180000       12.0110           0
     18781 MEMB     150      PYPG     H6X      HAL2     0.900000E-01   1.00800           0
     18782 MEMB     150      PYPG     H6Y      HAL2     0.900000E-01   1.00800           0
     18783 MEMB     150      PYPG     C37      CTL2    -0.180000       12.0110           0
     18784 MEMB     150      PYPG     H7X      HAL2     0.900000E-01   1.00800           0
     18785 MEMB     150      PYPG     H7Y      HAL2     0.900000E-01   1.00800           0
     18786 MEMB     150      PYPG     C38      CTL2    -0.180000       12.0110           0
     18787 MEMB     150      PYPG     H8X      HAL2     0.900000E-01   1.00800           0
     18788 MEMB     150      PYPG     H8Y      HAL2     0.900000E-01   1.00800           0
     18789 MEMB     150      PYPG     C39      CTL2    -0.180000       12.0110           0
     18790 MEMB     150      PYPG     H9X      HAL2     0.900000E-01   1.00800           0
     18791 MEMB     150      PYPG     H9Y      HAL2     0.900000E-01   1.00800           0
     18792 MEMB     150      PYPG     C310     CTL2    -0.180000       12.0110           0
     18793 MEMB     150      PYPG     H10X     HAL2     0.900000E-01   1.00800           0
     18794 MEMB     150      PYPG     H10Y     HAL2     0.900000E-01   1.00800           0
     18795 MEMB     150      PYPG     C311     CTL2    -0.180000       12.0110           0
     18796 MEMB     150      PYPG     H11X     HAL2     0.900000E-01   1.00800           0
     18797 MEMB     150      PYPG     H11Y     HAL2     0.900000E-01   1.00800           0
     18798 MEMB     150      PYPG     C312     CTL2    -0.180000       12.0110           0
     18799 MEMB     150      PYPG     H12X     HAL2     0.900000E-01   1.00800           0
     18800 MEMB     150      PYPG     H12Y     HAL2     0.900000E-01   1.00800           0
     18801 MEMB     150      PYPG     C313     CTL2    -0.180000       12.0110           0
     18802 MEMB     150      PYPG     H13X     HAL2     0.900000E-01   1.00800           0
     18803 MEMB     150      PYPG     H13Y     HAL2     0.900000E-01   1.00800           0
     18804 MEMB     150      PYPG     C314     CTL2    -0.180000       12.0110           0
     18805 MEMB     150      PYPG     H14X     HAL2     0.900000E-01   1.00800           0
     18806 MEMB     150      PYPG     H14Y     HAL2     0.900000E-01   1.00800           0
     18807 MEMB     150      PYPG     C315     CTL2    -0.180000       12.0110           0
     18808 MEMB     150      PYPG     H15X     HAL2     0.900000E-01   1.00800           0
     18809 MEMB     150      PYPG     H15Y     HAL2     0.900000E-01   1.00800           0
     18810 MEMB     150      PYPG     C316     CTL3    -0.270000       12.0110           0
     18811 MEMB     150      PYPG     H16X     HAL3     0.900000E-01   1.00800           0
     18812 MEMB     150      PYPG     H16Y     HAL3     0.900000E-01   1.00800           0
     18813 MEMB     150      PYPG     H16Z     HAL3     0.900000E-01   1.00800           0
     18814 MEMB     151      OYPE     N        NH3L    -0.300000       14.0070           0
     18815 MEMB     151      OYPE     HN1      HCL      0.330000       1.00800           0
     18816 MEMB     151      OYPE     HN2      HCL      0.330000       1.00800           0
     18817 MEMB     151      OYPE     HN3      HCL      0.330000       1.00800           0
     18818 MEMB     151      OYPE     C12      CTL2     0.130000       12.0110           0
     18819 MEMB     151      OYPE     H12A     HAL2     0.900000E-01   1.00800           0
     18820 MEMB     151      OYPE     H12B     HAL2     0.900000E-01   1.00800           0
     18821 MEMB     151      OYPE     C11      CTL2    -0.800000E-01   12.0110           0
     18822 MEMB     151      OYPE     H11A     HAL2     0.900000E-01   1.00800           0
     18823 MEMB     151      OYPE     H11B     HAL2     0.900000E-01   1.00800           0
     18824 MEMB     151      OYPE     P        PL        1.50000       30.9740           0
     18825 MEMB     151      OYPE     O13      O2L     -0.780000       15.9994           0
     18826 MEMB     151      OYPE     O14      O2L     -0.780000       15.9994           0
     18827 MEMB     151      OYPE     O11      OSLP    -0.570000       15.9994           0
     18828 MEMB     151      OYPE     O12      OSLP    -0.570000       15.9994           0
     18829 MEMB     151      OYPE     C1       CTL2    -0.800000E-01   12.0110           0
     18830 MEMB     151      OYPE     HA       HAL2     0.900000E-01   1.00800           0
     18831 MEMB     151      OYPE     HB       HAL2     0.900000E-01   1.00800           0
     18832 MEMB     151      OYPE     C2       CTL1     0.170000       12.0110           0
     18833 MEMB     151      OYPE     HS       HAL1     0.900000E-01   1.00800           0
     18834 MEMB     151      OYPE     O21      OSL     -0.490000       15.9994           0
     18835 MEMB     151      OYPE     C21      CL       0.900000       12.0110           0
     18836 MEMB     151      OYPE     O22      OBL     -0.630000       15.9994           0
     18837 MEMB     151      OYPE     C22      CTL2    -0.220000       12.0110           0
     18838 MEMB     151      OYPE     H2R      HAL2     0.900000E-01   1.00800           0
     18839 MEMB     151      OYPE     H2S      HAL2     0.900000E-01   1.00800           0
     18840 MEMB     151      OYPE     C3       CTL2     0.800000E-01   12.0110           0
     18841 MEMB     151      OYPE     HX       HAL2     0.900000E-01   1.00800           0
     18842 MEMB     151      OYPE     HY       HAL2     0.900000E-01   1.00800           0
     18843 MEMB     151      OYPE     O31      OSL     -0.490000       15.9994           0
     18844 MEMB     151      OYPE     C31      CL       0.900000       12.0110           0
     18845 MEMB     151      OYPE     O32      OBL     -0.630000       15.9994           0
     18846 MEMB     151      OYPE     C32      CTL2    -0.220000       12.0110           0
     18847 MEMB     151      OYPE     H2X      HAL2     0.900000E-01   1.00800           0
     18848 MEMB     151      OYPE     H2Y      HAL2     0.900000E-01   1.00800           0
     18849 MEMB     151      OYPE     C23      CTL2    -0.180000       12.0110           0
     18850 MEMB     151      OYPE     H3R      HAL2     0.900000E-01   1.00800           0
     18851 MEMB     151      OYPE     H3S      HAL2     0.900000E-01   1.00800           0
     18852 MEMB     151      OYPE     C24      CTL2    -0.180000       12.0110           0
     18853 MEMB     151      OYPE     H4R      HAL2     0.900000E-01   1.00800           0
     18854 MEMB     151      OYPE     H4S      HAL2     0.900000E-01   1.00800           0
     18855 MEMB     151      OYPE     C25      CTL2    -0.180000       12.0110           0
     18856 MEMB     151      OYPE     H5R      HAL2     0.900000E-01   1.00800           0
     18857 MEMB     151      OYPE     H5S      HAL2     0.900000E-01   1.00800           0
     18858 MEMB     151      OYPE     C26      CTL2    -0.180000       12.0110           0
     18859 MEMB     151      OYPE     H6R      HAL2     0.900000E-01   1.00800           0
     18860 MEMB     151      OYPE     H6S      HAL2     0.900000E-01   1.00800           0
     18861 MEMB     151      OYPE     C27      CTL2    -0.180000       12.0110           0
     18862 MEMB     151      OYPE     H7R      HAL2     0.900000E-01   1.00800           0
     18863 MEMB     151      OYPE     H7S      HAL2     0.900000E-01   1.00800           0
     18864 MEMB     151      OYPE     C28      CTL2    -0.180000       12.0110           0
     18865 MEMB     151      OYPE     H8R      HAL2     0.900000E-01   1.00800           0
     18866 MEMB     151      OYPE     H8S      HAL2     0.900000E-01   1.00800           0
     18867 MEMB     151      OYPE     C29      CEL1    -0.150000       12.0110           0
     18868 MEMB     151      OYPE     H9R      HEL1     0.150000       1.00800           0
     18869 MEMB     151      OYPE     C210     CEL1    -0.150000       12.0110           0
     18870 MEMB     151      OYPE     H10R     HEL1     0.150000       1.00800           0
     18871 MEMB     151      OYPE     C211     CTL2    -0.180000       12.0110           0
     18872 MEMB     151      OYPE     H11R     HAL2     0.900000E-01   1.00800           0
     18873 MEMB     151      OYPE     H11S     HAL2     0.900000E-01   1.00800           0
     18874 MEMB     151      OYPE     C212     CTL2    -0.180000       12.0110           0
     18875 MEMB     151      OYPE     H12R     HAL2     0.900000E-01   1.00800           0
     18876 MEMB     151      OYPE     H12S     HAL2     0.900000E-01   1.00800           0
     18877 MEMB     151      OYPE     C213     CTL2    -0.180000       12.0110           0
     18878 MEMB     151      OYPE     H13R     HAL2     0.900000E-01   1.00800           0
     18879 MEMB     151      OYPE     H13S     HAL2     0.900000E-01   1.00800           0
     18880 MEMB     151      OYPE     C214     CTL2    -0.180000       12.0110           0
     18881 MEMB     151      OYPE     H14R     HAL2     0.900000E-01   1.00800           0
     18882 MEMB     151      OYPE     H14S     HAL2     0.900000E-01   1.00800           0
     18883 MEMB     151      OYPE     C215     CTL2    -0.180000       12.0110           0
     18884 MEMB     151      OYPE     H15R     HAL2     0.900000E-01   1.00800           0
     18885 MEMB     151      OYPE     H15S     HAL2     0.900000E-01   1.00800           0
     18886 MEMB     151      OYPE     C216     CTL3    -0.270000       12.0110           0
     18887 MEMB     151      OYPE     H16R     HAL3     0.900000E-01   1.00800           0
     18888 MEMB     151      OYPE     H16S     HAL3     0.900000E-01   1.00800           0
     18889 MEMB     151      OYPE     H16T     HAL3     0.900000E-01   1.00800           0
     18890 MEMB     151      OYPE     C33      CTL2    -0.180000       12.0110           0
     18891 MEMB     151      OYPE     H3X      HAL2     0.900000E-01   1.00800           0
     18892 MEMB     151      OYPE     H3Y      HAL2     0.900000E-01   1.00800           0
     18893 MEMB     151      OYPE     C34      CTL2    -0.180000       12.0110           0
     18894 MEMB     151      OYPE     H4X      HAL2     0.900000E-01   1.00800           0
     18895 MEMB     151      OYPE     H4Y      HAL2     0.900000E-01   1.00800           0
     18896 MEMB     151      OYPE     C35      CTL2    -0.180000       12.0110           0
     18897 MEMB     151      OYPE     H5X      HAL2     0.900000E-01   1.00800           0
     18898 MEMB     151      OYPE     H5Y      HAL2     0.900000E-01   1.00800           0
     18899 MEMB     151      OYPE     C36      CTL2    -0.180000       12.0110           0
     18900 MEMB     151      OYPE     H6X      HAL2     0.900000E-01   1.00800           0
     18901 MEMB     151      OYPE     H6Y      HAL2     0.900000E-01   1.00800           0
     18902 MEMB     151      OYPE     C37      CTL2    -0.180000       12.0110           0
     18903 MEMB     151      OYPE     H7X      HAL2     0.900000E-01   1.00800           0
     18904 MEMB     151      OYPE     H7Y      HAL2     0.900000E-01   1.00800           0
     18905 MEMB     151      OYPE     C38      CTL2    -0.180000       12.0110           0
     18906 MEMB     151      OYPE     H8X      HAL2     0.900000E-01   1.00800           0
     18907 MEMB     151      OYPE     H8Y      HAL2     0.900000E-01   1.00800           0
     18908 MEMB     151      OYPE     C39      CEL1    -0.150000       12.0110           0
     18909 MEMB     151      OYPE     H9X      HEL1     0.150000       1.00800           0
     18910 MEMB     151      OYPE     C310     CEL1    -0.150000       12.0110           0
     18911 MEMB     151      OYPE     H10X     HEL1     0.150000       1.00800           0
     18912 MEMB     151      OYPE     C311     CTL2    -0.180000       12.0110           0
     18913 MEMB     151      OYPE     H11X     HAL2     0.900000E-01   1.00800           0
     18914 MEMB     151      OYPE     H11Y     HAL2     0.900000E-01   1.00800           0
     18915 MEMB     151      OYPE     C312     CTL2    -0.180000       12.0110           0
     18916 MEMB     151      OYPE     H12X     HAL2     0.900000E-01   1.00800           0
     18917 MEMB     151      OYPE     H12Y     HAL2     0.900000E-01   1.00800           0
     18918 MEMB     151      OYPE     C313     CTL2    -0.180000       12.0110           0
     18919 MEMB     151      OYPE     H13X     HAL2     0.900000E-01   1.00800           0
     18920 MEMB     151      OYPE     H13Y     HAL2     0.900000E-01   1.00800           0
     18921 MEMB     151      OYPE     C314     CTL2    -0.180000       12.0110           0
     18922 MEMB     151      OYPE     H14X     HAL2     0.900000E-01   1.00800           0
     18923 MEMB     151      OYPE     H14Y     HAL2     0.900000E-01   1.00800           0
     18924 MEMB     151      OYPE     C315     CTL2    -0.180000       12.0110           0
     18925 MEMB     151      OYPE     H15X     HAL2     0.900000E-01   1.00800           0
     18926 MEMB     151      OYPE     H15Y     HAL2     0.900000E-01   1.00800           0
     18927 MEMB     151      OYPE     C316     CTL2    -0.180000       12.0110           0
     18928 MEMB     151      OYPE     H16X     HAL2     0.900000E-01   1.00800           0
     18929 MEMB     151      OYPE     H16Y     HAL2     0.900000E-01   1.00800           0
     18930 MEMB     151      OYPE     C317     CTL2    -0.180000       12.0110           0
     18931 MEMB     151      OYPE     H17X     HAL2     0.900000E-01   1.00800           0
     18932 MEMB     151      OYPE     H17Y     HAL2     0.900000E-01   1.00800           0
     18933 MEMB     151      OYPE     C318     CTL3    -0.270000       12.0110           0
     18934 MEMB     151      OYPE     H18X     HAL3     0.900000E-01   1.00800           0
     18935 MEMB     151      OYPE     H18Y     HAL3     0.900000E-01   1.00800           0
     18936 MEMB     151      OYPE     H18Z     HAL3     0.900000E-01   1.00800           0
     18937 MEMB     152      PYPG     C13      CTL2     0.500000E-01   12.0110           0
     18938 MEMB     152      PYPG     H13A     HAL2     0.900000E-01   1.00800           0
     18939 MEMB     152      PYPG     H13B     HAL2     0.900000E-01   1.00800           0
     18940 MEMB     152      PYPG     OC3      OHL     -0.660000       15.9994           0
     18941 MEMB     152      PYPG     HO3      HOL      0.430000       1.00800           0
     18942 MEMB     152      PYPG     C12      CTL1     0.140000       12.0110           0
     18943 MEMB     152      PYPG     H12A     HAL1     0.900000E-01   1.00800           0
     18944 MEMB     152      PYPG     OC2      OHL     -0.660000       15.9994           0
     18945 MEMB     152      PYPG     HO2      HOL      0.430000       1.00800           0
     18946 MEMB     152      PYPG     C11      CTL2    -0.800000E-01   12.0110           0
     18947 MEMB     152      PYPG     H11A     HAL2     0.900000E-01   1.00800           0
     18948 MEMB     152      PYPG     H11B     HAL2     0.900000E-01   1.00800           0
     18949 MEMB     152      PYPG     P        PL        1.50000       30.9740           0
     18950 MEMB     152      PYPG     O13      O2L     -0.780000       15.9994           0
     18951 MEMB     152      PYPG     O14      O2L     -0.780000       15.9994           0
     18952 MEMB     152      PYPG     O11      OSLP    -0.570000       15.9994           0
     18953 MEMB     152      PYPG     O12      OSLP    -0.570000       15.9994           0
     18954 MEMB     152      PYPG     C1       CTL2    -0.800000E-01   12.0110           0
     18955 MEMB     152      PYPG     HA       HAL2     0.900000E-01   1.00800           0
     18956 MEMB     152      PYPG     HB       HAL2     0.900000E-01   1.00800           0
     18957 MEMB     152      PYPG     C2       CTL1     0.170000       12.0110           0
     18958 MEMB     152      PYPG     HS       HAL1     0.900000E-01   1.00800           0
     18959 MEMB     152      PYPG     O21      OSL     -0.490000       15.9994           0
     18960 MEMB     152      PYPG     C21      CL       0.900000       12.0110           0
     18961 MEMB     152      PYPG     O22      OBL     -0.630000       15.9994           0
     18962 MEMB     152      PYPG     C22      CTL2    -0.220000       12.0110           0
     18963 MEMB     152      PYPG     H2R      HAL2     0.900000E-01   1.00800           0
     18964 MEMB     152      PYPG     H2S      HAL2     0.900000E-01   1.00800           0
     18965 MEMB     152      PYPG     C3       CTL2     0.800000E-01   12.0110           0
     18966 MEMB     152      PYPG     HX       HAL2     0.900000E-01   1.00800           0
     18967 MEMB     152      PYPG     HY       HAL2     0.900000E-01   1.00800           0
     18968 MEMB     152      PYPG     O31      OSL     -0.490000       15.9994           0
     18969 MEMB     152      PYPG     C31      CL       0.900000       12.0110           0
     18970 MEMB     152      PYPG     O32      OBL     -0.630000       15.9994           0
     18971 MEMB     152      PYPG     C32      CTL2    -0.220000       12.0110           0
     18972 MEMB     152      PYPG     H2X      HAL2     0.900000E-01   1.00800           0
     18973 MEMB     152      PYPG     H2Y      HAL2     0.900000E-01   1.00800           0
     18974 MEMB     152      PYPG     C23      CTL2    -0.180000       12.0110           0
     18975 MEMB     152      PYPG     H3R      HAL2     0.900000E-01   1.00800           0
     18976 MEMB     152      PYPG     H3S      HAL2     0.900000E-01   1.00800           0
     18977 MEMB     152      PYPG     C24      CTL2    -0.180000       12.0110           0
     18978 MEMB     152      PYPG     H4R      HAL2     0.900000E-01   1.00800           0
     18979 MEMB     152      PYPG     H4S      HAL2     0.900000E-01   1.00800           0
     18980 MEMB     152      PYPG     C25      CTL2    -0.180000       12.0110           0
     18981 MEMB     152      PYPG     H5R      HAL2     0.900000E-01   1.00800           0
     18982 MEMB     152      PYPG     H5S      HAL2     0.900000E-01   1.00800           0
     18983 MEMB     152      PYPG     C26      CTL2    -0.180000       12.0110           0
     18984 MEMB     152      PYPG     H6R      HAL2     0.900000E-01   1.00800           0
     18985 MEMB     152      PYPG     H6S      HAL2     0.900000E-01   1.00800           0
     18986 MEMB     152      PYPG     C27      CTL2    -0.180000       12.0110           0
     18987 MEMB     152      PYPG     H7R      HAL2     0.900000E-01   1.00800           0
     18988 MEMB     152      PYPG     H7S      HAL2     0.900000E-01   1.00800           0
     18989 MEMB     152      PYPG     C28      CTL2    -0.180000       12.0110           0
     18990 MEMB     152      PYPG     H8R      HAL2     0.900000E-01   1.00800           0
     18991 MEMB     152      PYPG     H8S      HAL2     0.900000E-01   1.00800           0
     18992 MEMB     152      PYPG     C29      CEL1    -0.150000       12.0110           0
     18993 MEMB     152      PYPG     H9R      HEL1     0.150000       1.00800           0
     18994 MEMB     152      PYPG     C210     CEL1    -0.150000       12.0110           0
     18995 MEMB     152      PYPG     H10R     HEL1     0.150000       1.00800           0
     18996 MEMB     152      PYPG     C211     CTL2    -0.180000       12.0110           0
     18997 MEMB     152      PYPG     H11R     HAL2     0.900000E-01   1.00800           0
     18998 MEMB     152      PYPG     H11S     HAL2     0.900000E-01   1.00800           0
     18999 MEMB     152      PYPG     C212     CTL2    -0.180000       12.0110           0
     19000 MEMB     152      PYPG     H12R     HAL2     0.900000E-01   1.00800           0
     19001 MEMB     152      PYPG     H12S     HAL2     0.900000E-01   1.00800           0
     19002 MEMB     152      PYPG     C213     CTL2    -0.180000       12.0110           0
     19003 MEMB     152      PYPG     H13R     HAL2     0.900000E-01   1.00800           0
     19004 MEMB     152      PYPG     H13S     HAL2     0.900000E-01   1.00800           0
     19005 MEMB     152      PYPG     C214     CTL2    -0.180000       12.0110           0
     19006 MEMB     152      PYPG     H14R     HAL2     0.900000E-01   1.00800           0
     19007 MEMB     152      PYPG     H14S     HAL2     0.900000E-01   1.00800           0
     19008 MEMB     152      PYPG     C215     CTL2    -0.180000       12.0110           0
     19009 MEMB     152      PYPG     H15R     HAL2     0.900000E-01   1.00800           0
     19010 MEMB     152      PYPG     H15S     HAL2     0.900000E-01   1.00800           0
     19011 MEMB     152      PYPG     C216     CTL3    -0.270000       12.0110           0
     19012 MEMB     152      PYPG     H16R     HAL3     0.900000E-01   1.00800           0
     19013 MEMB     152      PYPG     H16S     HAL3     0.900000E-01   1.00800           0
     19014 MEMB     152      PYPG     H16T     HAL3     0.900000E-01   1.00800           0
     19015 MEMB     152      PYPG     C33      CTL2    -0.180000       12.0110           0
     19016 MEMB     152      PYPG     H3X      HAL2     0.900000E-01   1.00800           0
     19017 MEMB     152      PYPG     H3Y      HAL2     0.900000E-01   1.00800           0
     19018 MEMB     152      PYPG     C34      CTL2    -0.180000       12.0110           0
     19019 MEMB     152      PYPG     H4X      HAL2     0.900000E-01   1.00800           0
     19020 MEMB     152      PYPG     H4Y      HAL2     0.900000E-01   1.00800           0
     19021 MEMB     152      PYPG     C35      CTL2    -0.180000       12.0110           0
     19022 MEMB     152      PYPG     H5X      HAL2     0.900000E-01   1.00800           0
     19023 MEMB     152      PYPG     H5Y      HAL2     0.900000E-01   1.00800           0
     19024 MEMB     152      PYPG     C36      CTL2    -0.180000       12.0110           0
     19025 MEMB     152      PYPG     H6X      HAL2     0.900000E-01   1.00800           0
     19026 MEMB     152      PYPG     H6Y      HAL2     0.900000E-01   1.00800           0
     19027 MEMB     152      PYPG     C37      CTL2    -0.180000       12.0110           0
     19028 MEMB     152      PYPG     H7X      HAL2     0.900000E-01   1.00800           0
     19029 MEMB     152      PYPG     H7Y      HAL2     0.900000E-01   1.00800           0
     19030 MEMB     152      PYPG     C38      CTL2    -0.180000       12.0110           0
     19031 MEMB     152      PYPG     H8X      HAL2     0.900000E-01   1.00800           0
     19032 MEMB     152      PYPG     H8Y      HAL2     0.900000E-01   1.00800           0
     19033 MEMB     152      PYPG     C39      CTL2    -0.180000       12.0110           0
     19034 MEMB     152      PYPG     H9X      HAL2     0.900000E-01   1.00800           0
     19035 MEMB     152      PYPG     H9Y      HAL2     0.900000E-01   1.00800           0
     19036 MEMB     152      PYPG     C310     CTL2    -0.180000       12.0110           0
     19037 MEMB     152      PYPG     H10X     HAL2     0.900000E-01   1.00800           0
     19038 MEMB     152      PYPG     H10Y     HAL2     0.900000E-01   1.00800           0
     19039 MEMB     152      PYPG     C311     CTL2    -0.180000       12.0110           0
     19040 MEMB     152      PYPG     H11X     HAL2     0.900000E-01   1.00800           0
     19041 MEMB     152      PYPG     H11Y     HAL2     0.900000E-01   1.00800           0
     19042 MEMB     152      PYPG     C312     CTL2    -0.180000       12.0110           0
     19043 MEMB     152      PYPG     H12X     HAL2     0.900000E-01   1.00800           0
     19044 MEMB     152      PYPG     H12Y     HAL2     0.900000E-01   1.00800           0
     19045 MEMB     152      PYPG     C313     CTL2    -0.180000       12.0110           0
     19046 MEMB     152      PYPG     H13X     HAL2     0.900000E-01   1.00800           0
     19047 MEMB     152      PYPG     H13Y     HAL2     0.900000E-01   1.00800           0
     19048 MEMB     152      PYPG     C314     CTL2    -0.180000       12.0110           0
     19049 MEMB     152      PYPG     H14X     HAL2     0.900000E-01   1.00800           0
     19050 MEMB     152      PYPG     H14Y     HAL2     0.900000E-01   1.00800           0
     19051 MEMB     152      PYPG     C315     CTL2    -0.180000       12.0110           0
     19052 MEMB     152      PYPG     H15X     HAL2     0.900000E-01   1.00800           0
     19053 MEMB     152      PYPG     H15Y     HAL2     0.900000E-01   1.00800           0
     19054 MEMB     152      PYPG     C316     CTL3    -0.270000       12.0110           0
     19055 MEMB     152      PYPG     H16X     HAL3     0.900000E-01   1.00800           0
     19056 MEMB     152      PYPG     H16Y     HAL3     0.900000E-01   1.00800           0
     19057 MEMB     152      PYPG     H16Z     HAL3     0.900000E-01   1.00800           0
     19058 MEMB     153      PMPE     N        NH3L    -0.300000       14.0070           0
     19059 MEMB     153      PMPE     HN1      HCL      0.330000       1.00800           0
     19060 MEMB     153      PMPE     HN2      HCL      0.330000       1.00800           0
     19061 MEMB     153      PMPE     HN3      HCL      0.330000       1.00800           0
     19062 MEMB     153      PMPE     C12      CTL2     0.130000       12.0110           0
     19063 MEMB     153      PMPE     H12A     HAL2     0.900000E-01   1.00800           0
     19064 MEMB     153      PMPE     H12B     HAL2     0.900000E-01   1.00800           0
     19065 MEMB     153      PMPE     C11      CTL2    -0.800000E-01   12.0110           0
     19066 MEMB     153      PMPE     H11A     HAL2     0.900000E-01   1.00800           0
     19067 MEMB     153      PMPE     H11B     HAL2     0.900000E-01   1.00800           0
     19068 MEMB     153      PMPE     P        PL        1.50000       30.9740           0
     19069 MEMB     153      PMPE     O13      O2L     -0.780000       15.9994           0
     19070 MEMB     153      PMPE     O14      O2L     -0.780000       15.9994           0
     19071 MEMB     153      PMPE     O11      OSLP    -0.570000       15.9994           0
     19072 MEMB     153      PMPE     O12      OSLP    -0.570000       15.9994           0
     19073 MEMB     153      PMPE     C1       CTL2    -0.800000E-01   12.0110           0
     19074 MEMB     153      PMPE     HA       HAL2     0.900000E-01   1.00800           0
     19075 MEMB     153      PMPE     HB       HAL2     0.900000E-01   1.00800           0
     19076 MEMB     153      PMPE     C2       CTL1     0.170000       12.0110           0
     19077 MEMB     153      PMPE     HS       HAL1     0.900000E-01   1.00800           0
     19078 MEMB     153      PMPE     O21      OSL     -0.490000       15.9994           0
     19079 MEMB     153      PMPE     C21      CL       0.900000       12.0110           0
     19080 MEMB     153      PMPE     O22      OBL     -0.630000       15.9994           0
     19081 MEMB     153      PMPE     C22      CTL2    -0.220000       12.0110           0
     19082 MEMB     153      PMPE     H2R      HAL2     0.900000E-01   1.00800           0
     19083 MEMB     153      PMPE     H2S      HAL2     0.900000E-01   1.00800           0
     19084 MEMB     153      PMPE     C3       CTL2     0.800000E-01   12.0110           0
     19085 MEMB     153      PMPE     HX       HAL2     0.900000E-01   1.00800           0
     19086 MEMB     153      PMPE     HY       HAL2     0.900000E-01   1.00800           0
     19087 MEMB     153      PMPE     O31      OSL     -0.490000       15.9994           0
     19088 MEMB     153      PMPE     C31      CL       0.900000       12.0110           0
     19089 MEMB     153      PMPE     O32      OBL     -0.630000       15.9994           0
     19090 MEMB     153      PMPE     C32      CTL2    -0.220000       12.0110           0
     19091 MEMB     153      PMPE     H2X      HAL2     0.900000E-01   1.00800           0
     19092 MEMB     153      PMPE     H2Y      HAL2     0.900000E-01   1.00800           0
     19093 MEMB     153      PMPE     C23      CTL2    -0.180000       12.0110           0
     19094 MEMB     153      PMPE     H3R      HAL2     0.900000E-01   1.00800           0
     19095 MEMB     153      PMPE     H3S      HAL2     0.900000E-01   1.00800           0
     19096 MEMB     153      PMPE     C24      CTL2    -0.180000       12.0110           0
     19097 MEMB     153      PMPE     H4R      HAL2     0.900000E-01   1.00800           0
     19098 MEMB     153      PMPE     H4S      HAL2     0.900000E-01   1.00800           0
     19099 MEMB     153      PMPE     C25      CTL2    -0.180000       12.0110           0
     19100 MEMB     153      PMPE     H5R      HAL2     0.900000E-01   1.00800           0
     19101 MEMB     153      PMPE     H5S      HAL2     0.900000E-01   1.00800           0
     19102 MEMB     153      PMPE     C26      CTL2    -0.180000       12.0110           0
     19103 MEMB     153      PMPE     H6R      HAL2     0.900000E-01   1.00800           0
     19104 MEMB     153      PMPE     H6S      HAL2     0.900000E-01   1.00800           0
     19105 MEMB     153      PMPE     C27      CTL2    -0.180000       12.0110           0
     19106 MEMB     153      PMPE     H7R      HAL2     0.900000E-01   1.00800           0
     19107 MEMB     153      PMPE     H7S      HAL2     0.900000E-01   1.00800           0
     19108 MEMB     153      PMPE     C28      CTL2    -0.180000       12.0110           0
     19109 MEMB     153      PMPE     H8R      HAL2     0.900000E-01   1.00800           0
     19110 MEMB     153      PMPE     H8S      HAL2     0.900000E-01   1.00800           0
     19111 MEMB     153      PMPE     C29      CG3RC1  -0.900000E-01   12.0110           0
     19112 MEMB     153      PMPE     H9R      HGA1     0.900000E-01   1.00800           0
     19113 MEMB     153      PMPE     C217     CG3C31  -0.180000       12.0110           0
     19114 MEMB     153      PMPE     H17R     HGA2     0.900000E-01   1.00800           0
     19115 MEMB     153      PMPE     H17S     HGA2     0.900000E-01   1.00800           0
     19116 MEMB     153      PMPE     C210     CG3RC1  -0.900000E-01   12.0110           0
     19117 MEMB     153      PMPE     H10R     HGA1     0.900000E-01   1.00800           0
     19118 MEMB     153      PMPE     C211     CTL2    -0.180000       12.0110           0
     19119 MEMB     153      PMPE     H11R     HAL2     0.900000E-01   1.00800           0
     19120 MEMB     153      PMPE     H11S     HAL2     0.900000E-01   1.00800           0
     19121 MEMB     153      PMPE     C212     CTL2    -0.180000       12.0110           0
     19122 MEMB     153      PMPE     H12R     HAL2     0.900000E-01   1.00800           0
     19123 MEMB     153      PMPE     H12S     HAL2     0.900000E-01   1.00800           0
     19124 MEMB     153      PMPE     C213     CTL2    -0.180000       12.0110           0
     19125 MEMB     153      PMPE     H13R     HAL2     0.900000E-01   1.00800           0
     19126 MEMB     153      PMPE     H13S     HAL2     0.900000E-01   1.00800           0
     19127 MEMB     153      PMPE     C214     CTL2    -0.180000       12.0110           0
     19128 MEMB     153      PMPE     H14R     HAL2     0.900000E-01   1.00800           0
     19129 MEMB     153      PMPE     H14S     HAL2     0.900000E-01   1.00800           0
     19130 MEMB     153      PMPE     C215     CTL2    -0.180000       12.0110           0
     19131 MEMB     153      PMPE     H15R     HAL2     0.900000E-01   1.00800           0
     19132 MEMB     153      PMPE     H15S     HAL2     0.900000E-01   1.00800           0
     19133 MEMB     153      PMPE     C216     CTL3    -0.270000       12.0110           0
     19134 MEMB     153      PMPE     H16R     HAL3     0.900000E-01   1.00800           0
     19135 MEMB     153      PMPE     H16S     HAL3     0.900000E-01   1.00800           0
     19136 MEMB     153      PMPE     H16T     HAL3     0.900000E-01   1.00800           0
     19137 MEMB     153      PMPE     C33      CTL2    -0.180000       12.0110           0
     19138 MEMB     153      PMPE     H3X      HAL2     0.900000E-01   1.00800           0
     19139 MEMB     153      PMPE     H3Y      HAL2     0.900000E-01   1.00800           0
     19140 MEMB     153      PMPE     C34      CTL2    -0.180000       12.0110           0
     19141 MEMB     153      PMPE     H4X      HAL2     0.900000E-01   1.00800           0
     19142 MEMB     153      PMPE     H4Y      HAL2     0.900000E-01   1.00800           0
     19143 MEMB     153      PMPE     C35      CTL2    -0.180000       12.0110           0
     19144 MEMB     153      PMPE     H5X      HAL2     0.900000E-01   1.00800           0
     19145 MEMB     153      PMPE     H5Y      HAL2     0.900000E-01   1.00800           0
     19146 MEMB     153      PMPE     C36      CTL2    -0.180000       12.0110           0
     19147 MEMB     153      PMPE     H6X      HAL2     0.900000E-01   1.00800           0
     19148 MEMB     153      PMPE     H6Y      HAL2     0.900000E-01   1.00800           0
     19149 MEMB     153      PMPE     C37      CTL2    -0.180000       12.0110           0
     19150 MEMB     153      PMPE     H7X      HAL2     0.900000E-01   1.00800           0
     19151 MEMB     153      PMPE     H7Y      HAL2     0.900000E-01   1.00800           0
     19152 MEMB     153      PMPE     C38      CTL2    -0.180000       12.0110           0
     19153 MEMB     153      PMPE     H8X      HAL2     0.900000E-01   1.00800           0
     19154 MEMB     153      PMPE     H8Y      HAL2     0.900000E-01   1.00800           0
     19155 MEMB     153      PMPE     C39      CTL2    -0.180000       12.0110           0
     19156 MEMB     153      PMPE     H9X      HAL2     0.900000E-01   1.00800           0
     19157 MEMB     153      PMPE     H9Y      HAL2     0.900000E-01   1.00800           0
     19158 MEMB     153      PMPE     C310     CTL2    -0.180000       12.0110           0
     19159 MEMB     153      PMPE     H10X     HAL2     0.900000E-01   1.00800           0
     19160 MEMB     153      PMPE     H10Y     HAL2     0.900000E-01   1.00800           0
     19161 MEMB     153      PMPE     C311     CTL2    -0.180000       12.0110           0
     19162 MEMB     153      PMPE     H11X     HAL2     0.900000E-01   1.00800           0
     19163 MEMB     153      PMPE     H11Y     HAL2     0.900000E-01   1.00800           0
     19164 MEMB     153      PMPE     C312     CTL2    -0.180000       12.0110           0
     19165 MEMB     153      PMPE     H12X     HAL2     0.900000E-01   1.00800           0
     19166 MEMB     153      PMPE     H12Y     HAL2     0.900000E-01   1.00800           0
     19167 MEMB     153      PMPE     C313     CTL2    -0.180000       12.0110           0
     19168 MEMB     153      PMPE     H13X     HAL2     0.900000E-01   1.00800           0
     19169 MEMB     153      PMPE     H13Y     HAL2     0.900000E-01   1.00800           0
     19170 MEMB     153      PMPE     C314     CTL2    -0.180000       12.0110           0
     19171 MEMB     153      PMPE     H14X     HAL2     0.900000E-01   1.00800           0
     19172 MEMB     153      PMPE     H14Y     HAL2     0.900000E-01   1.00800           0
     19173 MEMB     153      PMPE     C315     CTL2    -0.180000       12.0110           0
     19174 MEMB     153      PMPE     H15X     HAL2     0.900000E-01   1.00800           0
     19175 MEMB     153      PMPE     H15Y     HAL2     0.900000E-01   1.00800           0
     19176 MEMB     153      PMPE     C316     CTL3    -0.270000       12.0110           0
     19177 MEMB     153      PMPE     H16X     HAL3     0.900000E-01   1.00800           0
     19178 MEMB     153      PMPE     H16Y     HAL3     0.900000E-01   1.00800           0
     19179 MEMB     153      PMPE     H16Z     HAL3     0.900000E-01   1.00800           0
     19180 MEMB     154      OYPE     N        NH3L    -0.300000       14.0070           0
     19181 MEMB     154      OYPE     HN1      HCL      0.330000       1.00800           0
     19182 MEMB     154      OYPE     HN2      HCL      0.330000       1.00800           0
     19183 MEMB     154      OYPE     HN3      HCL      0.330000       1.00800           0
     19184 MEMB     154      OYPE     C12      CTL2     0.130000       12.0110           0
     19185 MEMB     154      OYPE     H12A     HAL2     0.900000E-01   1.00800           0
     19186 MEMB     154      OYPE     H12B     HAL2     0.900000E-01   1.00800           0
     19187 MEMB     154      OYPE     C11      CTL2    -0.800000E-01   12.0110           0
     19188 MEMB     154      OYPE     H11A     HAL2     0.900000E-01   1.00800           0
     19189 MEMB     154      OYPE     H11B     HAL2     0.900000E-01   1.00800           0
     19190 MEMB     154      OYPE     P        PL        1.50000       30.9740           0
     19191 MEMB     154      OYPE     O13      O2L     -0.780000       15.9994           0
     19192 MEMB     154      OYPE     O14      O2L     -0.780000       15.9994           0
     19193 MEMB     154      OYPE     O11      OSLP    -0.570000       15.9994           0
     19194 MEMB     154      OYPE     O12      OSLP    -0.570000       15.9994           0
     19195 MEMB     154      OYPE     C1       CTL2    -0.800000E-01   12.0110           0
     19196 MEMB     154      OYPE     HA       HAL2     0.900000E-01   1.00800           0
     19197 MEMB     154      OYPE     HB       HAL2     0.900000E-01   1.00800           0
     19198 MEMB     154      OYPE     C2       CTL1     0.170000       12.0110           0
     19199 MEMB     154      OYPE     HS       HAL1     0.900000E-01   1.00800           0
     19200 MEMB     154      OYPE     O21      OSL     -0.490000       15.9994           0
     19201 MEMB     154      OYPE     C21      CL       0.900000       12.0110           0
     19202 MEMB     154      OYPE     O22      OBL     -0.630000       15.9994           0
     19203 MEMB     154      OYPE     C22      CTL2    -0.220000       12.0110           0
     19204 MEMB     154      OYPE     H2R      HAL2     0.900000E-01   1.00800           0
     19205 MEMB     154      OYPE     H2S      HAL2     0.900000E-01   1.00800           0
     19206 MEMB     154      OYPE     C3       CTL2     0.800000E-01   12.0110           0
     19207 MEMB     154      OYPE     HX       HAL2     0.900000E-01   1.00800           0
     19208 MEMB     154      OYPE     HY       HAL2     0.900000E-01   1.00800           0
     19209 MEMB     154      OYPE     O31      OSL     -0.490000       15.9994           0
     19210 MEMB     154      OYPE     C31      CL       0.900000       12.0110           0
     19211 MEMB     154      OYPE     O32      OBL     -0.630000       15.9994           0
     19212 MEMB     154      OYPE     C32      CTL2    -0.220000       12.0110           0
     19213 MEMB     154      OYPE     H2X      HAL2     0.900000E-01   1.00800           0
     19214 MEMB     154      OYPE     H2Y      HAL2     0.900000E-01   1.00800           0
     19215 MEMB     154      OYPE     C23      CTL2    -0.180000       12.0110           0
     19216 MEMB     154      OYPE     H3R      HAL2     0.900000E-01   1.00800           0
     19217 MEMB     154      OYPE     H3S      HAL2     0.900000E-01   1.00800           0
     19218 MEMB     154      OYPE     C24      CTL2    -0.180000       12.0110           0
     19219 MEMB     154      OYPE     H4R      HAL2     0.900000E-01   1.00800           0
     19220 MEMB     154      OYPE     H4S      HAL2     0.900000E-01   1.00800           0
     19221 MEMB     154      OYPE     C25      CTL2    -0.180000       12.0110           0
     19222 MEMB     154      OYPE     H5R      HAL2     0.900000E-01   1.00800           0
     19223 MEMB     154      OYPE     H5S      HAL2     0.900000E-01   1.00800           0
     19224 MEMB     154      OYPE     C26      CTL2    -0.180000       12.0110           0
     19225 MEMB     154      OYPE     H6R      HAL2     0.900000E-01   1.00800           0
     19226 MEMB     154      OYPE     H6S      HAL2     0.900000E-01   1.00800           0
     19227 MEMB     154      OYPE     C27      CTL2    -0.180000       12.0110           0
     19228 MEMB     154      OYPE     H7R      HAL2     0.900000E-01   1.00800           0
     19229 MEMB     154      OYPE     H7S      HAL2     0.900000E-01   1.00800           0
     19230 MEMB     154      OYPE     C28      CTL2    -0.180000       12.0110           0
     19231 MEMB     154      OYPE     H8R      HAL2     0.900000E-01   1.00800           0
     19232 MEMB     154      OYPE     H8S      HAL2     0.900000E-01   1.00800           0
     19233 MEMB     154      OYPE     C29      CEL1    -0.150000       12.0110           0
     19234 MEMB     154      OYPE     H9R      HEL1     0.150000       1.00800           0
     19235 MEMB     154      OYPE     C210     CEL1    -0.150000       12.0110           0
     19236 MEMB     154      OYPE     H10R     HEL1     0.150000       1.00800           0
     19237 MEMB     154      OYPE     C211     CTL2    -0.180000       12.0110           0
     19238 MEMB     154      OYPE     H11R     HAL2     0.900000E-01   1.00800           0
     19239 MEMB     154      OYPE     H11S     HAL2     0.900000E-01   1.00800           0
     19240 MEMB     154      OYPE     C212     CTL2    -0.180000       12.0110           0
     19241 MEMB     154      OYPE     H12R     HAL2     0.900000E-01   1.00800           0
     19242 MEMB     154      OYPE     H12S     HAL2     0.900000E-01   1.00800           0
     19243 MEMB     154      OYPE     C213     CTL2    -0.180000       12.0110           0
     19244 MEMB     154      OYPE     H13R     HAL2     0.900000E-01   1.00800           0
     19245 MEMB     154      OYPE     H13S     HAL2     0.900000E-01   1.00800           0
     19246 MEMB     154      OYPE     C214     CTL2    -0.180000       12.0110           0
     19247 MEMB     154      OYPE     H14R     HAL2     0.900000E-01   1.00800           0
     19248 MEMB     154      OYPE     H14S     HAL2     0.900000E-01   1.00800           0
     19249 MEMB     154      OYPE     C215     CTL2    -0.180000       12.0110           0
     19250 MEMB     154      OYPE     H15R     HAL2     0.900000E-01   1.00800           0
     19251 MEMB     154      OYPE     H15S     HAL2     0.900000E-01   1.00800           0
     19252 MEMB     154      OYPE     C216     CTL3    -0.270000       12.0110           0
     19253 MEMB     154      OYPE     H16R     HAL3     0.900000E-01   1.00800           0
     19254 MEMB     154      OYPE     H16S     HAL3     0.900000E-01   1.00800           0
     19255 MEMB     154      OYPE     H16T     HAL3     0.900000E-01   1.00800           0
     19256 MEMB     154      OYPE     C33      CTL2    -0.180000       12.0110           0
     19257 MEMB     154      OYPE     H3X      HAL2     0.900000E-01   1.00800           0
     19258 MEMB     154      OYPE     H3Y      HAL2     0.900000E-01   1.00800           0
     19259 MEMB     154      OYPE     C34      CTL2    -0.180000       12.0110           0
     19260 MEMB     154      OYPE     H4X      HAL2     0.900000E-01   1.00800           0
     19261 MEMB     154      OYPE     H4Y      HAL2     0.900000E-01   1.00800           0
     19262 MEMB     154      OYPE     C35      CTL2    -0.180000       12.0110           0
     19263 MEMB     154      OYPE     H5X      HAL2     0.900000E-01   1.00800           0
     19264 MEMB     154      OYPE     H5Y      HAL2     0.900000E-01   1.00800           0
     19265 MEMB     154      OYPE     C36      CTL2    -0.180000       12.0110           0
     19266 MEMB     154      OYPE     H6X      HAL2     0.900000E-01   1.00800           0
     19267 MEMB     154      OYPE     H6Y      HAL2     0.900000E-01   1.00800           0
     19268 MEMB     154      OYPE     C37      CTL2    -0.180000       12.0110           0
     19269 MEMB     154      OYPE     H7X      HAL2     0.900000E-01   1.00800           0
     19270 MEMB     154      OYPE     H7Y      HAL2     0.900000E-01   1.00800           0
     19271 MEMB     154      OYPE     C38      CTL2    -0.180000       12.0110           0
     19272 MEMB     154      OYPE     H8X      HAL2     0.900000E-01   1.00800           0
     19273 MEMB     154      OYPE     H8Y      HAL2     0.900000E-01   1.00800           0
     19274 MEMB     154      OYPE     C39      CEL1    -0.150000       12.0110           0
     19275 MEMB     154      OYPE     H9X      HEL1     0.150000       1.00800           0
     19276 MEMB     154      OYPE     C310     CEL1    -0.150000       12.0110           0
     19277 MEMB     154      OYPE     H10X     HEL1     0.150000       1.00800           0
     19278 MEMB     154      OYPE     C311     CTL2    -0.180000       12.0110           0
     19279 MEMB     154      OYPE     H11X     HAL2     0.900000E-01   1.00800           0
     19280 MEMB     154      OYPE     H11Y     HAL2     0.900000E-01   1.00800           0
     19281 MEMB     154      OYPE     C312     CTL2    -0.180000       12.0110           0
     19282 MEMB     154      OYPE     H12X     HAL2     0.900000E-01   1.00800           0
     19283 MEMB     154      OYPE     H12Y     HAL2     0.900000E-01   1.00800           0
     19284 MEMB     154      OYPE     C313     CTL2    -0.180000       12.0110           0
     19285 MEMB     154      OYPE     H13X     HAL2     0.900000E-01   1.00800           0
     19286 MEMB     154      OYPE     H13Y     HAL2     0.900000E-01   1.00800           0
     19287 MEMB     154      OYPE     C314     CTL2    -0.180000       12.0110           0
     19288 MEMB     154      OYPE     H14X     HAL2     0.900000E-01   1.00800           0
     19289 MEMB     154      OYPE     H14Y     HAL2     0.900000E-01   1.00800           0
     19290 MEMB     154      OYPE     C315     CTL2    -0.180000       12.0110           0
     19291 MEMB     154      OYPE     H15X     HAL2     0.900000E-01   1.00800           0
     19292 MEMB     154      OYPE     H15Y     HAL2     0.900000E-01   1.00800           0
     19293 MEMB     154      OYPE     C316     CTL2    -0.180000       12.0110           0
     19294 MEMB     154      OYPE     H16X     HAL2     0.900000E-01   1.00800           0
     19295 MEMB     154      OYPE     H16Y     HAL2     0.900000E-01   1.00800           0
     19296 MEMB     154      OYPE     C317     CTL2    -0.180000       12.0110           0
     19297 MEMB     154      OYPE     H17X     HAL2     0.900000E-01   1.00800           0
     19298 MEMB     154      OYPE     H17Y     HAL2     0.900000E-01   1.00800           0
     19299 MEMB     154      OYPE     C318     CTL3    -0.270000       12.0110           0
     19300 MEMB     154      OYPE     H18X     HAL3     0.900000E-01   1.00800           0
     19301 MEMB     154      OYPE     H18Y     HAL3     0.900000E-01   1.00800           0
     19302 MEMB     154      OYPE     H18Z     HAL3     0.900000E-01   1.00800           0
     19303 MEMB     155      QMPE     N        NH3L    -0.300000       14.0070           0
     19304 MEMB     155      QMPE     HN1      HCL      0.330000       1.00800           0
     19305 MEMB     155      QMPE     HN2      HCL      0.330000       1.00800           0
     19306 MEMB     155      QMPE     HN3      HCL      0.330000       1.00800           0
     19307 MEMB     155      QMPE     C12      CTL2     0.130000       12.0110           0
     19308 MEMB     155      QMPE     H12A     HAL2     0.900000E-01   1.00800           0
     19309 MEMB     155      QMPE     H12B     HAL2     0.900000E-01   1.00800           0
     19310 MEMB     155      QMPE     C11      CTL2    -0.800000E-01   12.0110           0
     19311 MEMB     155      QMPE     H11A     HAL2     0.900000E-01   1.00800           0
     19312 MEMB     155      QMPE     H11B     HAL2     0.900000E-01   1.00800           0
     19313 MEMB     155      QMPE     P        PL        1.50000       30.9740           0
     19314 MEMB     155      QMPE     O13      O2L     -0.780000       15.9994           0
     19315 MEMB     155      QMPE     O14      O2L     -0.780000       15.9994           0
     19316 MEMB     155      QMPE     O11      OSLP    -0.570000       15.9994           0
     19317 MEMB     155      QMPE     O12      OSLP    -0.570000       15.9994           0
     19318 MEMB     155      QMPE     C1       CTL2    -0.800000E-01   12.0110           0
     19319 MEMB     155      QMPE     HA       HAL2     0.900000E-01   1.00800           0
     19320 MEMB     155      QMPE     HB       HAL2     0.900000E-01   1.00800           0
     19321 MEMB     155      QMPE     C2       CTL1     0.170000       12.0110           0
     19322 MEMB     155      QMPE     HS       HAL1     0.900000E-01   1.00800           0
     19323 MEMB     155      QMPE     O21      OSL     -0.490000       15.9994           0
     19324 MEMB     155      QMPE     C21      CL       0.900000       12.0110           0
     19325 MEMB     155      QMPE     O22      OBL     -0.630000       15.9994           0
     19326 MEMB     155      QMPE     C22      CTL2    -0.220000       12.0110           0
     19327 MEMB     155      QMPE     H2R      HAL2     0.900000E-01   1.00800           0
     19328 MEMB     155      QMPE     H2S      HAL2     0.900000E-01   1.00800           0
     19329 MEMB     155      QMPE     C3       CTL2     0.800000E-01   12.0110           0
     19330 MEMB     155      QMPE     HX       HAL2     0.900000E-01   1.00800           0
     19331 MEMB     155      QMPE     HY       HAL2     0.900000E-01   1.00800           0
     19332 MEMB     155      QMPE     O31      OSL     -0.490000       15.9994           0
     19333 MEMB     155      QMPE     C31      CL       0.900000       12.0110           0
     19334 MEMB     155      QMPE     O32      OBL     -0.630000       15.9994           0
     19335 MEMB     155      QMPE     C32      CTL2    -0.220000       12.0110           0
     19336 MEMB     155      QMPE     H2X      HAL2     0.900000E-01   1.00800           0
     19337 MEMB     155      QMPE     H2Y      HAL2     0.900000E-01   1.00800           0
     19338 MEMB     155      QMPE     C23      CTL2    -0.180000       12.0110           0
     19339 MEMB     155      QMPE     H3R      HAL2     0.900000E-01   1.00800           0
     19340 MEMB     155      QMPE     H3S      HAL2     0.900000E-01   1.00800           0
     19341 MEMB     155      QMPE     C24      CTL2    -0.180000       12.0110           0
     19342 MEMB     155      QMPE     H4R      HAL2     0.900000E-01   1.00800           0
     19343 MEMB     155      QMPE     H4S      HAL2     0.900000E-01   1.00800           0
     19344 MEMB     155      QMPE     C25      CTL2    -0.180000       12.0110           0
     19345 MEMB     155      QMPE     H5R      HAL2     0.900000E-01   1.00800           0
     19346 MEMB     155      QMPE     H5S      HAL2     0.900000E-01   1.00800           0
     19347 MEMB     155      QMPE     C26      CTL2    -0.180000       12.0110           0
     19348 MEMB     155      QMPE     H6R      HAL2     0.900000E-01   1.00800           0
     19349 MEMB     155      QMPE     H6S      HAL2     0.900000E-01   1.00800           0
     19350 MEMB     155      QMPE     C27      CTL2    -0.180000       12.0110           0
     19351 MEMB     155      QMPE     H7R      HAL2     0.900000E-01   1.00800           0
     19352 MEMB     155      QMPE     H7S      HAL2     0.900000E-01   1.00800           0
     19353 MEMB     155      QMPE     C28      CTL2    -0.180000       12.0110           0
     19354 MEMB     155      QMPE     H8R      HAL2     0.900000E-01   1.00800           0
     19355 MEMB     155      QMPE     H8S      HAL2     0.900000E-01   1.00800           0
     19356 MEMB     155      QMPE     C29      CG3RC1  -0.900000E-01   12.0110           0
     19357 MEMB     155      QMPE     H9R      HGA1     0.900000E-01   1.00800           0
     19358 MEMB     155      QMPE     C217     CG3C31  -0.180000       12.0110           0
     19359 MEMB     155      QMPE     H17R     HGA2     0.900000E-01   1.00800           0
     19360 MEMB     155      QMPE     H17S     HGA2     0.900000E-01   1.00800           0
     19361 MEMB     155      QMPE     C210     CG3RC1  -0.900000E-01   12.0110           0
     19362 MEMB     155      QMPE     H10R     HGA1     0.900000E-01   1.00800           0
     19363 MEMB     155      QMPE     C211     CTL2    -0.180000       12.0110           0
     19364 MEMB     155      QMPE     H11R     HAL2     0.900000E-01   1.00800           0
     19365 MEMB     155      QMPE     H11S     HAL2     0.900000E-01   1.00800           0
     19366 MEMB     155      QMPE     C212     CTL2    -0.180000       12.0110           0
     19367 MEMB     155      QMPE     H12R     HAL2     0.900000E-01   1.00800           0
     19368 MEMB     155      QMPE     H12S     HAL2     0.900000E-01   1.00800           0
     19369 MEMB     155      QMPE     C213     CTL2    -0.180000       12.0110           0
     19370 MEMB     155      QMPE     H13R     HAL2     0.900000E-01   1.00800           0
     19371 MEMB     155      QMPE     H13S     HAL2     0.900000E-01   1.00800           0
     19372 MEMB     155      QMPE     C214     CTL2    -0.180000       12.0110           0
     19373 MEMB     155      QMPE     H14R     HAL2     0.900000E-01   1.00800           0
     19374 MEMB     155      QMPE     H14S     HAL2     0.900000E-01   1.00800           0
     19375 MEMB     155      QMPE     C215     CTL2    -0.180000       12.0110           0
     19376 MEMB     155      QMPE     H15R     HAL2     0.900000E-01   1.00800           0
     19377 MEMB     155      QMPE     H15S     HAL2     0.900000E-01   1.00800           0
     19378 MEMB     155      QMPE     C216     CTL3    -0.270000       12.0110           0
     19379 MEMB     155      QMPE     H16R     HAL3     0.900000E-01   1.00800           0
     19380 MEMB     155      QMPE     H16S     HAL3     0.900000E-01   1.00800           0
     19381 MEMB     155      QMPE     H16T     HAL3     0.900000E-01   1.00800           0
     19382 MEMB     155      QMPE     C33      CTL2    -0.180000       12.0110           0
     19383 MEMB     155      QMPE     H3X      HAL2     0.900000E-01   1.00800           0
     19384 MEMB     155      QMPE     H3Y      HAL2     0.900000E-01   1.00800           0
     19385 MEMB     155      QMPE     C34      CTL2    -0.180000       12.0110           0
     19386 MEMB     155      QMPE     H4X      HAL2     0.900000E-01   1.00800           0
     19387 MEMB     155      QMPE     H4Y      HAL2     0.900000E-01   1.00800           0
     19388 MEMB     155      QMPE     C35      CTL2    -0.180000       12.0110           0
     19389 MEMB     155      QMPE     H5X      HAL2     0.900000E-01   1.00800           0
     19390 MEMB     155      QMPE     H5Y      HAL2     0.900000E-01   1.00800           0
     19391 MEMB     155      QMPE     C36      CTL2    -0.180000       12.0110           0
     19392 MEMB     155      QMPE     H6X      HAL2     0.900000E-01   1.00800           0
     19393 MEMB     155      QMPE     H6Y      HAL2     0.900000E-01   1.00800           0
     19394 MEMB     155      QMPE     C37      CTL2    -0.180000       12.0110           0
     19395 MEMB     155      QMPE     H7X      HAL2     0.900000E-01   1.00800           0
     19396 MEMB     155      QMPE     H7Y      HAL2     0.900000E-01   1.00800           0
     19397 MEMB     155      QMPE     C38      CTL2    -0.180000       12.0110           0
     19398 MEMB     155      QMPE     H8X      HAL2     0.900000E-01   1.00800           0
     19399 MEMB     155      QMPE     H8Y      HAL2     0.900000E-01   1.00800           0
     19400 MEMB     155      QMPE     C39      CTL2    -0.180000       12.0110           0
     19401 MEMB     155      QMPE     H9X      HAL2     0.900000E-01   1.00800           0
     19402 MEMB     155      QMPE     H9Y      HAL2     0.900000E-01   1.00800           0
     19403 MEMB     155      QMPE     C310     CTL2    -0.180000       12.0110           0
     19404 MEMB     155      QMPE     H10X     HAL2     0.900000E-01   1.00800           0
     19405 MEMB     155      QMPE     H10Y     HAL2     0.900000E-01   1.00800           0
     19406 MEMB     155      QMPE     C311     CTL2    -0.180000       12.0110           0
     19407 MEMB     155      QMPE     H11X     HAL2     0.900000E-01   1.00800           0
     19408 MEMB     155      QMPE     H11Y     HAL2     0.900000E-01   1.00800           0
     19409 MEMB     155      QMPE     C312     CTL2    -0.180000       12.0110           0
     19410 MEMB     155      QMPE     H12X     HAL2     0.900000E-01   1.00800           0
     19411 MEMB     155      QMPE     H12Y     HAL2     0.900000E-01   1.00800           0
     19412 MEMB     155      QMPE     C313     CTL2    -0.180000       12.0110           0
     19413 MEMB     155      QMPE     H13X     HAL2     0.900000E-01   1.00800           0
     19414 MEMB     155      QMPE     H13Y     HAL2     0.900000E-01   1.00800           0
     19415 MEMB     155      QMPE     C314     CTL2    -0.180000       12.0110           0
     19416 MEMB     155      QMPE     H14X     HAL2     0.900000E-01   1.00800           0
     19417 MEMB     155      QMPE     H14Y     HAL2     0.900000E-01   1.00800           0
     19418 MEMB     155      QMPE     C315     CTL3    -0.270000       12.0110           0
     19419 MEMB     155      QMPE     H15X     HAL3     0.900000E-01   1.00800           0
     19420 MEMB     155      QMPE     H15Y     HAL3     0.900000E-01   1.00800           0
     19421 MEMB     155      QMPE     H15Z     HAL3     0.900000E-01   1.00800           0
     19422 MEMB     156      PMPE     N        NH3L    -0.300000       14.0070           0
     19423 MEMB     156      PMPE     HN1      HCL      0.330000       1.00800           0
     19424 MEMB     156      PMPE     HN2      HCL      0.330000       1.00800           0
     19425 MEMB     156      PMPE     HN3      HCL      0.330000       1.00800           0
     19426 MEMB     156      PMPE     C12      CTL2     0.130000       12.0110           0
     19427 MEMB     156      PMPE     H12A     HAL2     0.900000E-01   1.00800           0
     19428 MEMB     156      PMPE     H12B     HAL2     0.900000E-01   1.00800           0
     19429 MEMB     156      PMPE     C11      CTL2    -0.800000E-01   12.0110           0
     19430 MEMB     156      PMPE     H11A     HAL2     0.900000E-01   1.00800           0
     19431 MEMB     156      PMPE     H11B     HAL2     0.900000E-01   1.00800           0
     19432 MEMB     156      PMPE     P        PL        1.50000       30.9740           0
     19433 MEMB     156      PMPE     O13      O2L     -0.780000       15.9994           0
     19434 MEMB     156      PMPE     O14      O2L     -0.780000       15.9994           0
     19435 MEMB     156      PMPE     O11      OSLP    -0.570000       15.9994           0
     19436 MEMB     156      PMPE     O12      OSLP    -0.570000       15.9994           0
     19437 MEMB     156      PMPE     C1       CTL2    -0.800000E-01   12.0110           0
     19438 MEMB     156      PMPE     HA       HAL2     0.900000E-01   1.00800           0
     19439 MEMB     156      PMPE     HB       HAL2     0.900000E-01   1.00800           0
     19440 MEMB     156      PMPE     C2       CTL1     0.170000       12.0110           0
     19441 MEMB     156      PMPE     HS       HAL1     0.900000E-01   1.00800           0
     19442 MEMB     156      PMPE     O21      OSL     -0.490000       15.9994           0
     19443 MEMB     156      PMPE     C21      CL       0.900000       12.0110           0
     19444 MEMB     156      PMPE     O22      OBL     -0.630000       15.9994           0
     19445 MEMB     156      PMPE     C22      CTL2    -0.220000       12.0110           0
     19446 MEMB     156      PMPE     H2R      HAL2     0.900000E-01   1.00800           0
     19447 MEMB     156      PMPE     H2S      HAL2     0.900000E-01   1.00800           0
     19448 MEMB     156      PMPE     C3       CTL2     0.800000E-01   12.0110           0
     19449 MEMB     156      PMPE     HX       HAL2     0.900000E-01   1.00800           0
     19450 MEMB     156      PMPE     HY       HAL2     0.900000E-01   1.00800           0
     19451 MEMB     156      PMPE     O31      OSL     -0.490000       15.9994           0
     19452 MEMB     156      PMPE     C31      CL       0.900000       12.0110           0
     19453 MEMB     156      PMPE     O32      OBL     -0.630000       15.9994           0
     19454 MEMB     156      PMPE     C32      CTL2    -0.220000       12.0110           0
     19455 MEMB     156      PMPE     H2X      HAL2     0.900000E-01   1.00800           0
     19456 MEMB     156      PMPE     H2Y      HAL2     0.900000E-01   1.00800           0
     19457 MEMB     156      PMPE     C23      CTL2    -0.180000       12.0110           0
     19458 MEMB     156      PMPE     H3R      HAL2     0.900000E-01   1.00800           0
     19459 MEMB     156      PMPE     H3S      HAL2     0.900000E-01   1.00800           0
     19460 MEMB     156      PMPE     C24      CTL2    -0.180000       12.0110           0
     19461 MEMB     156      PMPE     H4R      HAL2     0.900000E-01   1.00800           0
     19462 MEMB     156      PMPE     H4S      HAL2     0.900000E-01   1.00800           0
     19463 MEMB     156      PMPE     C25      CTL2    -0.180000       12.0110           0
     19464 MEMB     156      PMPE     H5R      HAL2     0.900000E-01   1.00800           0
     19465 MEMB     156      PMPE     H5S      HAL2     0.900000E-01   1.00800           0
     19466 MEMB     156      PMPE     C26      CTL2    -0.180000       12.0110           0
     19467 MEMB     156      PMPE     H6R      HAL2     0.900000E-01   1.00800           0
     19468 MEMB     156      PMPE     H6S      HAL2     0.900000E-01   1.00800           0
     19469 MEMB     156      PMPE     C27      CTL2    -0.180000       12.0110           0
     19470 MEMB     156      PMPE     H7R      HAL2     0.900000E-01   1.00800           0
     19471 MEMB     156      PMPE     H7S      HAL2     0.900000E-01   1.00800           0
     19472 MEMB     156      PMPE     C28      CTL2    -0.180000       12.0110           0
     19473 MEMB     156      PMPE     H8R      HAL2     0.900000E-01   1.00800           0
     19474 MEMB     156      PMPE     H8S      HAL2     0.900000E-01   1.00800           0
     19475 MEMB     156      PMPE     C29      CG3RC1  -0.900000E-01   12.0110           0
     19476 MEMB     156      PMPE     H9R      HGA1     0.900000E-01   1.00800           0
     19477 MEMB     156      PMPE     C217     CG3C31  -0.180000       12.0110           0
     19478 MEMB     156      PMPE     H17R     HGA2     0.900000E-01   1.00800           0
     19479 MEMB     156      PMPE     H17S     HGA2     0.900000E-01   1.00800           0
     19480 MEMB     156      PMPE     C210     CG3RC1  -0.900000E-01   12.0110           0
     19481 MEMB     156      PMPE     H10R     HGA1     0.900000E-01   1.00800           0
     19482 MEMB     156      PMPE     C211     CTL2    -0.180000       12.0110           0
     19483 MEMB     156      PMPE     H11R     HAL2     0.900000E-01   1.00800           0
     19484 MEMB     156      PMPE     H11S     HAL2     0.900000E-01   1.00800           0
     19485 MEMB     156      PMPE     C212     CTL2    -0.180000       12.0110           0
     19486 MEMB     156      PMPE     H12R     HAL2     0.900000E-01   1.00800           0
     19487 MEMB     156      PMPE     H12S     HAL2     0.900000E-01   1.00800           0
     19488 MEMB     156      PMPE     C213     CTL2    -0.180000       12.0110           0
     19489 MEMB     156      PMPE     H13R     HAL2     0.900000E-01   1.00800           0
     19490 MEMB     156      PMPE     H13S     HAL2     0.900000E-01   1.00800           0
     19491 MEMB     156      PMPE     C214     CTL2    -0.180000       12.0110           0
     19492 MEMB     156      PMPE     H14R     HAL2     0.900000E-01   1.00800           0
     19493 MEMB     156      PMPE     H14S     HAL2     0.900000E-01   1.00800           0
     19494 MEMB     156      PMPE     C215     CTL2    -0.180000       12.0110           0
     19495 MEMB     156      PMPE     H15R     HAL2     0.900000E-01   1.00800           0
     19496 MEMB     156      PMPE     H15S     HAL2     0.900000E-01   1.00800           0
     19497 MEMB     156      PMPE     C216     CTL3    -0.270000       12.0110           0
     19498 MEMB     156      PMPE     H16R     HAL3     0.900000E-01   1.00800           0
     19499 MEMB     156      PMPE     H16S     HAL3     0.900000E-01   1.00800           0
     19500 MEMB     156      PMPE     H16T     HAL3     0.900000E-01   1.00800           0
     19501 MEMB     156      PMPE     C33      CTL2    -0.180000       12.0110           0
     19502 MEMB     156      PMPE     H3X      HAL2     0.900000E-01   1.00800           0
     19503 MEMB     156      PMPE     H3Y      HAL2     0.900000E-01   1.00800           0
     19504 MEMB     156      PMPE     C34      CTL2    -0.180000       12.0110           0
     19505 MEMB     156      PMPE     H4X      HAL2     0.900000E-01   1.00800           0
     19506 MEMB     156      PMPE     H4Y      HAL2     0.900000E-01   1.00800           0
     19507 MEMB     156      PMPE     C35      CTL2    -0.180000       12.0110           0
     19508 MEMB     156      PMPE     H5X      HAL2     0.900000E-01   1.00800           0
     19509 MEMB     156      PMPE     H5Y      HAL2     0.900000E-01   1.00800           0
     19510 MEMB     156      PMPE     C36      CTL2    -0.180000       12.0110           0
     19511 MEMB     156      PMPE     H6X      HAL2     0.900000E-01   1.00800           0
     19512 MEMB     156      PMPE     H6Y      HAL2     0.900000E-01   1.00800           0
     19513 MEMB     156      PMPE     C37      CTL2    -0.180000       12.0110           0
     19514 MEMB     156      PMPE     H7X      HAL2     0.900000E-01   1.00800           0
     19515 MEMB     156      PMPE     H7Y      HAL2     0.900000E-01   1.00800           0
     19516 MEMB     156      PMPE     C38      CTL2    -0.180000       12.0110           0
     19517 MEMB     156      PMPE     H8X      HAL2     0.900000E-01   1.00800           0
     19518 MEMB     156      PMPE     H8Y      HAL2     0.900000E-01   1.00800           0
     19519 MEMB     156      PMPE     C39      CTL2    -0.180000       12.0110           0
     19520 MEMB     156      PMPE     H9X      HAL2     0.900000E-01   1.00800           0
     19521 MEMB     156      PMPE     H9Y      HAL2     0.900000E-01   1.00800           0
     19522 MEMB     156      PMPE     C310     CTL2    -0.180000       12.0110           0
     19523 MEMB     156      PMPE     H10X     HAL2     0.900000E-01   1.00800           0
     19524 MEMB     156      PMPE     H10Y     HAL2     0.900000E-01   1.00800           0
     19525 MEMB     156      PMPE     C311     CTL2    -0.180000       12.0110           0
     19526 MEMB     156      PMPE     H11X     HAL2     0.900000E-01   1.00800           0
     19527 MEMB     156      PMPE     H11Y     HAL2     0.900000E-01   1.00800           0
     19528 MEMB     156      PMPE     C312     CTL2    -0.180000       12.0110           0
     19529 MEMB     156      PMPE     H12X     HAL2     0.900000E-01   1.00800           0
     19530 MEMB     156      PMPE     H12Y     HAL2     0.900000E-01   1.00800           0
     19531 MEMB     156      PMPE     C313     CTL2    -0.180000       12.0110           0
     19532 MEMB     156      PMPE     H13X     HAL2     0.900000E-01   1.00800           0
     19533 MEMB     156      PMPE     H13Y     HAL2     0.900000E-01   1.00800           0
     19534 MEMB     156      PMPE     C314     CTL2    -0.180000       12.0110           0
     19535 MEMB     156      PMPE     H14X     HAL2     0.900000E-01   1.00800           0
     19536 MEMB     156      PMPE     H14Y     HAL2     0.900000E-01   1.00800           0
     19537 MEMB     156      PMPE     C315     CTL2    -0.180000       12.0110           0
     19538 MEMB     156      PMPE     H15X     HAL2     0.900000E-01   1.00800           0
     19539 MEMB     156      PMPE     H15Y     HAL2     0.900000E-01   1.00800           0
     19540 MEMB     156      PMPE     C316     CTL3    -0.270000       12.0110           0
     19541 MEMB     156      PMPE     H16X     HAL3     0.900000E-01   1.00800           0
     19542 MEMB     156      PMPE     H16Y     HAL3     0.900000E-01   1.00800           0
     19543 MEMB     156      PMPE     H16Z     HAL3     0.900000E-01   1.00800           0
     19544 MEMB     157      PMPE     N        NH3L    -0.300000       14.0070           0
     19545 MEMB     157      PMPE     HN1      HCL      0.330000       1.00800           0
     19546 MEMB     157      PMPE     HN2      HCL      0.330000       1.00800           0
     19547 MEMB     157      PMPE     HN3      HCL      0.330000       1.00800           0
     19548 MEMB     157      PMPE     C12      CTL2     0.130000       12.0110           0
     19549 MEMB     157      PMPE     H12A     HAL2     0.900000E-01   1.00800           0
     19550 MEMB     157      PMPE     H12B     HAL2     0.900000E-01   1.00800           0
     19551 MEMB     157      PMPE     C11      CTL2    -0.800000E-01   12.0110           0
     19552 MEMB     157      PMPE     H11A     HAL2     0.900000E-01   1.00800           0
     19553 MEMB     157      PMPE     H11B     HAL2     0.900000E-01   1.00800           0
     19554 MEMB     157      PMPE     P        PL        1.50000       30.9740           0
     19555 MEMB     157      PMPE     O13      O2L     -0.780000       15.9994           0
     19556 MEMB     157      PMPE     O14      O2L     -0.780000       15.9994           0
     19557 MEMB     157      PMPE     O11      OSLP    -0.570000       15.9994           0
     19558 MEMB     157      PMPE     O12      OSLP    -0.570000       15.9994           0
     19559 MEMB     157      PMPE     C1       CTL2    -0.800000E-01   12.0110           0
     19560 MEMB     157      PMPE     HA       HAL2     0.900000E-01   1.00800           0
     19561 MEMB     157      PMPE     HB       HAL2     0.900000E-01   1.00800           0
     19562 MEMB     157      PMPE     C2       CTL1     0.170000       12.0110           0
     19563 MEMB     157      PMPE     HS       HAL1     0.900000E-01   1.00800           0
     19564 MEMB     157      PMPE     O21      OSL     -0.490000       15.9994           0
     19565 MEMB     157      PMPE     C21      CL       0.900000       12.0110           0
     19566 MEMB     157      PMPE     O22      OBL     -0.630000       15.9994           0
     19567 MEMB     157      PMPE     C22      CTL2    -0.220000       12.0110           0
     19568 MEMB     157      PMPE     H2R      HAL2     0.900000E-01   1.00800           0
     19569 MEMB     157      PMPE     H2S      HAL2     0.900000E-01   1.00800           0
     19570 MEMB     157      PMPE     C3       CTL2     0.800000E-01   12.0110           0
     19571 MEMB     157      PMPE     HX       HAL2     0.900000E-01   1.00800           0
     19572 MEMB     157      PMPE     HY       HAL2     0.900000E-01   1.00800           0
     19573 MEMB     157      PMPE     O31      OSL     -0.490000       15.9994           0
     19574 MEMB     157      PMPE     C31      CL       0.900000       12.0110           0
     19575 MEMB     157      PMPE     O32      OBL     -0.630000       15.9994           0
     19576 MEMB     157      PMPE     C32      CTL2    -0.220000       12.0110           0
     19577 MEMB     157      PMPE     H2X      HAL2     0.900000E-01   1.00800           0
     19578 MEMB     157      PMPE     H2Y      HAL2     0.900000E-01   1.00800           0
     19579 MEMB     157      PMPE     C23      CTL2    -0.180000       12.0110           0
     19580 MEMB     157      PMPE     H3R      HAL2     0.900000E-01   1.00800           0
     19581 MEMB     157      PMPE     H3S      HAL2     0.900000E-01   1.00800           0
     19582 MEMB     157      PMPE     C24      CTL2    -0.180000       12.0110           0
     19583 MEMB     157      PMPE     H4R      HAL2     0.900000E-01   1.00800           0
     19584 MEMB     157      PMPE     H4S      HAL2     0.900000E-01   1.00800           0
     19585 MEMB     157      PMPE     C25      CTL2    -0.180000       12.0110           0
     19586 MEMB     157      PMPE     H5R      HAL2     0.900000E-01   1.00800           0
     19587 MEMB     157      PMPE     H5S      HAL2     0.900000E-01   1.00800           0
     19588 MEMB     157      PMPE     C26      CTL2    -0.180000       12.0110           0
     19589 MEMB     157      PMPE     H6R      HAL2     0.900000E-01   1.00800           0
     19590 MEMB     157      PMPE     H6S      HAL2     0.900000E-01   1.00800           0
     19591 MEMB     157      PMPE     C27      CTL2    -0.180000       12.0110           0
     19592 MEMB     157      PMPE     H7R      HAL2     0.900000E-01   1.00800           0
     19593 MEMB     157      PMPE     H7S      HAL2     0.900000E-01   1.00800           0
     19594 MEMB     157      PMPE     C28      CTL2    -0.180000       12.0110           0
     19595 MEMB     157      PMPE     H8R      HAL2     0.900000E-01   1.00800           0
     19596 MEMB     157      PMPE     H8S      HAL2     0.900000E-01   1.00800           0
     19597 MEMB     157      PMPE     C29      CG3RC1  -0.900000E-01   12.0110           0
     19598 MEMB     157      PMPE     H9R      HGA1     0.900000E-01   1.00800           0
     19599 MEMB     157      PMPE     C217     CG3C31  -0.180000       12.0110           0
     19600 MEMB     157      PMPE     H17R     HGA2     0.900000E-01   1.00800           0
     19601 MEMB     157      PMPE     H17S     HGA2     0.900000E-01   1.00800           0
     19602 MEMB     157      PMPE     C210     CG3RC1  -0.900000E-01   12.0110           0
     19603 MEMB     157      PMPE     H10R     HGA1     0.900000E-01   1.00800           0
     19604 MEMB     157      PMPE     C211     CTL2    -0.180000       12.0110           0
     19605 MEMB     157      PMPE     H11R     HAL2     0.900000E-01   1.00800           0
     19606 MEMB     157      PMPE     H11S     HAL2     0.900000E-01   1.00800           0
     19607 MEMB     157      PMPE     C212     CTL2    -0.180000       12.0110           0
     19608 MEMB     157      PMPE     H12R     HAL2     0.900000E-01   1.00800           0
     19609 MEMB     157      PMPE     H12S     HAL2     0.900000E-01   1.00800           0
     19610 MEMB     157      PMPE     C213     CTL2    -0.180000       12.0110           0
     19611 MEMB     157      PMPE     H13R     HAL2     0.900000E-01   1.00800           0
     19612 MEMB     157      PMPE     H13S     HAL2     0.900000E-01   1.00800           0
     19613 MEMB     157      PMPE     C214     CTL2    -0.180000       12.0110           0
     19614 MEMB     157      PMPE     H14R     HAL2     0.900000E-01   1.00800           0
     19615 MEMB     157      PMPE     H14S     HAL2     0.900000E-01   1.00800           0
     19616 MEMB     157      PMPE     C215     CTL2    -0.180000       12.0110           0
     19617 MEMB     157      PMPE     H15R     HAL2     0.900000E-01   1.00800           0
     19618 MEMB     157      PMPE     H15S     HAL2     0.900000E-01   1.00800           0
     19619 MEMB     157      PMPE     C216     CTL3    -0.270000       12.0110           0
     19620 MEMB     157      PMPE     H16R     HAL3     0.900000E-01   1.00800           0
     19621 MEMB     157      PMPE     H16S     HAL3     0.900000E-01   1.00800           0
     19622 MEMB     157      PMPE     H16T     HAL3     0.900000E-01   1.00800           0
     19623 MEMB     157      PMPE     C33      CTL2    -0.180000       12.0110           0
     19624 MEMB     157      PMPE     H3X      HAL2     0.900000E-01   1.00800           0
     19625 MEMB     157      PMPE     H3Y      HAL2     0.900000E-01   1.00800           0
     19626 MEMB     157      PMPE     C34      CTL2    -0.180000       12.0110           0
     19627 MEMB     157      PMPE     H4X      HAL2     0.900000E-01   1.00800           0
     19628 MEMB     157      PMPE     H4Y      HAL2     0.900000E-01   1.00800           0
     19629 MEMB     157      PMPE     C35      CTL2    -0.180000       12.0110           0
     19630 MEMB     157      PMPE     H5X      HAL2     0.900000E-01   1.00800           0
     19631 MEMB     157      PMPE     H5Y      HAL2     0.900000E-01   1.00800           0
     19632 MEMB     157      PMPE     C36      CTL2    -0.180000       12.0110           0
     19633 MEMB     157      PMPE     H6X      HAL2     0.900000E-01   1.00800           0
     19634 MEMB     157      PMPE     H6Y      HAL2     0.900000E-01   1.00800           0
     19635 MEMB     157      PMPE     C37      CTL2    -0.180000       12.0110           0
     19636 MEMB     157      PMPE     H7X      HAL2     0.900000E-01   1.00800           0
     19637 MEMB     157      PMPE     H7Y      HAL2     0.900000E-01   1.00800           0
     19638 MEMB     157      PMPE     C38      CTL2    -0.180000       12.0110           0
     19639 MEMB     157      PMPE     H8X      HAL2     0.900000E-01   1.00800           0
     19640 MEMB     157      PMPE     H8Y      HAL2     0.900000E-01   1.00800           0
     19641 MEMB     157      PMPE     C39      CTL2    -0.180000       12.0110           0
     19642 MEMB     157      PMPE     H9X      HAL2     0.900000E-01   1.00800           0
     19643 MEMB     157      PMPE     H9Y      HAL2     0.900000E-01   1.00800           0
     19644 MEMB     157      PMPE     C310     CTL2    -0.180000       12.0110           0
     19645 MEMB     157      PMPE     H10X     HAL2     0.900000E-01   1.00800           0
     19646 MEMB     157      PMPE     H10Y     HAL2     0.900000E-01   1.00800           0
     19647 MEMB     157      PMPE     C311     CTL2    -0.180000       12.0110           0
     19648 MEMB     157      PMPE     H11X     HAL2     0.900000E-01   1.00800           0
     19649 MEMB     157      PMPE     H11Y     HAL2     0.900000E-01   1.00800           0
     19650 MEMB     157      PMPE     C312     CTL2    -0.180000       12.0110           0
     19651 MEMB     157      PMPE     H12X     HAL2     0.900000E-01   1.00800           0
     19652 MEMB     157      PMPE     H12Y     HAL2     0.900000E-01   1.00800           0
     19653 MEMB     157      PMPE     C313     CTL2    -0.180000       12.0110           0
     19654 MEMB     157      PMPE     H13X     HAL2     0.900000E-01   1.00800           0
     19655 MEMB     157      PMPE     H13Y     HAL2     0.900000E-01   1.00800           0
     19656 MEMB     157      PMPE     C314     CTL2    -0.180000       12.0110           0
     19657 MEMB     157      PMPE     H14X     HAL2     0.900000E-01   1.00800           0
     19658 MEMB     157      PMPE     H14Y     HAL2     0.900000E-01   1.00800           0
     19659 MEMB     157      PMPE     C315     CTL2    -0.180000       12.0110           0
     19660 MEMB     157      PMPE     H15X     HAL2     0.900000E-01   1.00800           0
     19661 MEMB     157      PMPE     H15Y     HAL2     0.900000E-01   1.00800           0
     19662 MEMB     157      PMPE     C316     CTL3    -0.270000       12.0110           0
     19663 MEMB     157      PMPE     H16X     HAL3     0.900000E-01   1.00800           0
     19664 MEMB     157      PMPE     H16Y     HAL3     0.900000E-01   1.00800           0
     19665 MEMB     157      PMPE     H16Z     HAL3     0.900000E-01   1.00800           0
     19666 MEMB     158      QMPE     N        NH3L    -0.300000       14.0070           0
     19667 MEMB     158      QMPE     HN1      HCL      0.330000       1.00800           0
     19668 MEMB     158      QMPE     HN2      HCL      0.330000       1.00800           0
     19669 MEMB     158      QMPE     HN3      HCL      0.330000       1.00800           0
     19670 MEMB     158      QMPE     C12      CTL2     0.130000       12.0110           0
     19671 MEMB     158      QMPE     H12A     HAL2     0.900000E-01   1.00800           0
     19672 MEMB     158      QMPE     H12B     HAL2     0.900000E-01   1.00800           0
     19673 MEMB     158      QMPE     C11      CTL2    -0.800000E-01   12.0110           0
     19674 MEMB     158      QMPE     H11A     HAL2     0.900000E-01   1.00800           0
     19675 MEMB     158      QMPE     H11B     HAL2     0.900000E-01   1.00800           0
     19676 MEMB     158      QMPE     P        PL        1.50000       30.9740           0
     19677 MEMB     158      QMPE     O13      O2L     -0.780000       15.9994           0
     19678 MEMB     158      QMPE     O14      O2L     -0.780000       15.9994           0
     19679 MEMB     158      QMPE     O11      OSLP    -0.570000       15.9994           0
     19680 MEMB     158      QMPE     O12      OSLP    -0.570000       15.9994           0
     19681 MEMB     158      QMPE     C1       CTL2    -0.800000E-01   12.0110           0
     19682 MEMB     158      QMPE     HA       HAL2     0.900000E-01   1.00800           0
     19683 MEMB     158      QMPE     HB       HAL2     0.900000E-01   1.00800           0
     19684 MEMB     158      QMPE     C2       CTL1     0.170000       12.0110           0
     19685 MEMB     158      QMPE     HS       HAL1     0.900000E-01   1.00800           0
     19686 MEMB     158      QMPE     O21      OSL     -0.490000       15.9994           0
     19687 MEMB     158      QMPE     C21      CL       0.900000       12.0110           0
     19688 MEMB     158      QMPE     O22      OBL     -0.630000       15.9994           0
     19689 MEMB     158      QMPE     C22      CTL2    -0.220000       12.0110           0
     19690 MEMB     158      QMPE     H2R      HAL2     0.900000E-01   1.00800           0
     19691 MEMB     158      QMPE     H2S      HAL2     0.900000E-01   1.00800           0
     19692 MEMB     158      QMPE     C3       CTL2     0.800000E-01   12.0110           0
     19693 MEMB     158      QMPE     HX       HAL2     0.900000E-01   1.00800           0
     19694 MEMB     158      QMPE     HY       HAL2     0.900000E-01   1.00800           0
     19695 MEMB     158      QMPE     O31      OSL     -0.490000       15.9994           0
     19696 MEMB     158      QMPE     C31      CL       0.900000       12.0110           0
     19697 MEMB     158      QMPE     O32      OBL     -0.630000       15.9994           0
     19698 MEMB     158      QMPE     C32      CTL2    -0.220000       12.0110           0
     19699 MEMB     158      QMPE     H2X      HAL2     0.900000E-01   1.00800           0
     19700 MEMB     158      QMPE     H2Y      HAL2     0.900000E-01   1.00800           0
     19701 MEMB     158      QMPE     C23      CTL2    -0.180000       12.0110           0
     19702 MEMB     158      QMPE     H3R      HAL2     0.900000E-01   1.00800           0
     19703 MEMB     158      QMPE     H3S      HAL2     0.900000E-01   1.00800           0
     19704 MEMB     158      QMPE     C24      CTL2    -0.180000       12.0110           0
     19705 MEMB     158      QMPE     H4R      HAL2     0.900000E-01   1.00800           0
     19706 MEMB     158      QMPE     H4S      HAL2     0.900000E-01   1.00800           0
     19707 MEMB     158      QMPE     C25      CTL2    -0.180000       12.0110           0
     19708 MEMB     158      QMPE     H5R      HAL2     0.900000E-01   1.00800           0
     19709 MEMB     158      QMPE     H5S      HAL2     0.900000E-01   1.00800           0
     19710 MEMB     158      QMPE     C26      CTL2    -0.180000       12.0110           0
     19711 MEMB     158      QMPE     H6R      HAL2     0.900000E-01   1.00800           0
     19712 MEMB     158      QMPE     H6S      HAL2     0.900000E-01   1.00800           0
     19713 MEMB     158      QMPE     C27      CTL2    -0.180000       12.0110           0
     19714 MEMB     158      QMPE     H7R      HAL2     0.900000E-01   1.00800           0
     19715 MEMB     158      QMPE     H7S      HAL2     0.900000E-01   1.00800           0
     19716 MEMB     158      QMPE     C28      CTL2    -0.180000       12.0110           0
     19717 MEMB     158      QMPE     H8R      HAL2     0.900000E-01   1.00800           0
     19718 MEMB     158      QMPE     H8S      HAL2     0.900000E-01   1.00800           0
     19719 MEMB     158      QMPE     C29      CG3RC1  -0.900000E-01   12.0110           0
     19720 MEMB     158      QMPE     H9R      HGA1     0.900000E-01   1.00800           0
     19721 MEMB     158      QMPE     C217     CG3C31  -0.180000       12.0110           0
     19722 MEMB     158      QMPE     H17R     HGA2     0.900000E-01   1.00800           0
     19723 MEMB     158      QMPE     H17S     HGA2     0.900000E-01   1.00800           0
     19724 MEMB     158      QMPE     C210     CG3RC1  -0.900000E-01   12.0110           0
     19725 MEMB     158      QMPE     H10R     HGA1     0.900000E-01   1.00800           0
     19726 MEMB     158      QMPE     C211     CTL2    -0.180000       12.0110           0
     19727 MEMB     158      QMPE     H11R     HAL2     0.900000E-01   1.00800           0
     19728 MEMB     158      QMPE     H11S     HAL2     0.900000E-01   1.00800           0
     19729 MEMB     158      QMPE     C212     CTL2    -0.180000       12.0110           0
     19730 MEMB     158      QMPE     H12R     HAL2     0.900000E-01   1.00800           0
     19731 MEMB     158      QMPE     H12S     HAL2     0.900000E-01   1.00800           0
     19732 MEMB     158      QMPE     C213     CTL2    -0.180000       12.0110           0
     19733 MEMB     158      QMPE     H13R     HAL2     0.900000E-01   1.00800           0
     19734 MEMB     158      QMPE     H13S     HAL2     0.900000E-01   1.00800           0
     19735 MEMB     158      QMPE     C214     CTL2    -0.180000       12.0110           0
     19736 MEMB     158      QMPE     H14R     HAL2     0.900000E-01   1.00800           0
     19737 MEMB     158      QMPE     H14S     HAL2     0.900000E-01   1.00800           0
     19738 MEMB     158      QMPE     C215     CTL2    -0.180000       12.0110           0
     19739 MEMB     158      QMPE     H15R     HAL2     0.900000E-01   1.00800           0
     19740 MEMB     158      QMPE     H15S     HAL2     0.900000E-01   1.00800           0
     19741 MEMB     158      QMPE     C216     CTL3    -0.270000       12.0110           0
     19742 MEMB     158      QMPE     H16R     HAL3     0.900000E-01   1.00800           0
     19743 MEMB     158      QMPE     H16S     HAL3     0.900000E-01   1.00800           0
     19744 MEMB     158      QMPE     H16T     HAL3     0.900000E-01   1.00800           0
     19745 MEMB     158      QMPE     C33      CTL2    -0.180000       12.0110           0
     19746 MEMB     158      QMPE     H3X      HAL2     0.900000E-01   1.00800           0
     19747 MEMB     158      QMPE     H3Y      HAL2     0.900000E-01   1.00800           0
     19748 MEMB     158      QMPE     C34      CTL2    -0.180000       12.0110           0
     19749 MEMB     158      QMPE     H4X      HAL2     0.900000E-01   1.00800           0
     19750 MEMB     158      QMPE     H4Y      HAL2     0.900000E-01   1.00800           0
     19751 MEMB     158      QMPE     C35      CTL2    -0.180000       12.0110           0
     19752 MEMB     158      QMPE     H5X      HAL2     0.900000E-01   1.00800           0
     19753 MEMB     158      QMPE     H5Y      HAL2     0.900000E-01   1.00800           0
     19754 MEMB     158      QMPE     C36      CTL2    -0.180000       12.0110           0
     19755 MEMB     158      QMPE     H6X      HAL2     0.900000E-01   1.00800           0
     19756 MEMB     158      QMPE     H6Y      HAL2     0.900000E-01   1.00800           0
     19757 MEMB     158      QMPE     C37      CTL2    -0.180000       12.0110           0
     19758 MEMB     158      QMPE     H7X      HAL2     0.900000E-01   1.00800           0
     19759 MEMB     158      QMPE     H7Y      HAL2     0.900000E-01   1.00800           0
     19760 MEMB     158      QMPE     C38      CTL2    -0.180000       12.0110           0
     19761 MEMB     158      QMPE     H8X      HAL2     0.900000E-01   1.00800           0
     19762 MEMB     158      QMPE     H8Y      HAL2     0.900000E-01   1.00800           0
     19763 MEMB     158      QMPE     C39      CTL2    -0.180000       12.0110           0
     19764 MEMB     158      QMPE     H9X      HAL2     0.900000E-01   1.00800           0
     19765 MEMB     158      QMPE     H9Y      HAL2     0.900000E-01   1.00800           0
     19766 MEMB     158      QMPE     C310     CTL2    -0.180000       12.0110           0
     19767 MEMB     158      QMPE     H10X     HAL2     0.900000E-01   1.00800           0
     19768 MEMB     158      QMPE     H10Y     HAL2     0.900000E-01   1.00800           0
     19769 MEMB     158      QMPE     C311     CTL2    -0.180000       12.0110           0
     19770 MEMB     158      QMPE     H11X     HAL2     0.900000E-01   1.00800           0
     19771 MEMB     158      QMPE     H11Y     HAL2     0.900000E-01   1.00800           0
     19772 MEMB     158      QMPE     C312     CTL2    -0.180000       12.0110           0
     19773 MEMB     158      QMPE     H12X     HAL2     0.900000E-01   1.00800           0
     19774 MEMB     158      QMPE     H12Y     HAL2     0.900000E-01   1.00800           0
     19775 MEMB     158      QMPE     C313     CTL2    -0.180000       12.0110           0
     19776 MEMB     158      QMPE     H13X     HAL2     0.900000E-01   1.00800           0
     19777 MEMB     158      QMPE     H13Y     HAL2     0.900000E-01   1.00800           0
     19778 MEMB     158      QMPE     C314     CTL2    -0.180000       12.0110           0
     19779 MEMB     158      QMPE     H14X     HAL2     0.900000E-01   1.00800           0
     19780 MEMB     158      QMPE     H14Y     HAL2     0.900000E-01   1.00800           0
     19781 MEMB     158      QMPE     C315     CTL3    -0.270000       12.0110           0
     19782 MEMB     158      QMPE     H15X     HAL3     0.900000E-01   1.00800           0
     19783 MEMB     158      QMPE     H15Y     HAL3     0.900000E-01   1.00800           0
     19784 MEMB     158      QMPE     H15Z     HAL3     0.900000E-01   1.00800           0
     19785 MEMB     159      PMPE     N        NH3L    -0.300000       14.0070           0
     19786 MEMB     159      PMPE     HN1      HCL      0.330000       1.00800           0
     19787 MEMB     159      PMPE     HN2      HCL      0.330000       1.00800           0
     19788 MEMB     159      PMPE     HN3      HCL      0.330000       1.00800           0
     19789 MEMB     159      PMPE     C12      CTL2     0.130000       12.0110           0
     19790 MEMB     159      PMPE     H12A     HAL2     0.900000E-01   1.00800           0
     19791 MEMB     159      PMPE     H12B     HAL2     0.900000E-01   1.00800           0
     19792 MEMB     159      PMPE     C11      CTL2    -0.800000E-01   12.0110           0
     19793 MEMB     159      PMPE     H11A     HAL2     0.900000E-01   1.00800           0
     19794 MEMB     159      PMPE     H11B     HAL2     0.900000E-01   1.00800           0
     19795 MEMB     159      PMPE     P        PL        1.50000       30.9740           0
     19796 MEMB     159      PMPE     O13      O2L     -0.780000       15.9994           0
     19797 MEMB     159      PMPE     O14      O2L     -0.780000       15.9994           0
     19798 MEMB     159      PMPE     O11      OSLP    -0.570000       15.9994           0
     19799 MEMB     159      PMPE     O12      OSLP    -0.570000       15.9994           0
     19800 MEMB     159      PMPE     C1       CTL2    -0.800000E-01   12.0110           0
     19801 MEMB     159      PMPE     HA       HAL2     0.900000E-01   1.00800           0
     19802 MEMB     159      PMPE     HB       HAL2     0.900000E-01   1.00800           0
     19803 MEMB     159      PMPE     C2       CTL1     0.170000       12.0110           0
     19804 MEMB     159      PMPE     HS       HAL1     0.900000E-01   1.00800           0
     19805 MEMB     159      PMPE     O21      OSL     -0.490000       15.9994           0
     19806 MEMB     159      PMPE     C21      CL       0.900000       12.0110           0
     19807 MEMB     159      PMPE     O22      OBL     -0.630000       15.9994           0
     19808 MEMB     159      PMPE     C22      CTL2    -0.220000       12.0110           0
     19809 MEMB     159      PMPE     H2R      HAL2     0.900000E-01   1.00800           0
     19810 MEMB     159      PMPE     H2S      HAL2     0.900000E-01   1.00800           0
     19811 MEMB     159      PMPE     C3       CTL2     0.800000E-01   12.0110           0
     19812 MEMB     159      PMPE     HX       HAL2     0.900000E-01   1.00800           0
     19813 MEMB     159      PMPE     HY       HAL2     0.900000E-01   1.00800           0
     19814 MEMB     159      PMPE     O31      OSL     -0.490000       15.9994           0
     19815 MEMB     159      PMPE     C31      CL       0.900000       12.0110           0
     19816 MEMB     159      PMPE     O32      OBL     -0.630000       15.9994           0
     19817 MEMB     159      PMPE     C32      CTL2    -0.220000       12.0110           0
     19818 MEMB     159      PMPE     H2X      HAL2     0.900000E-01   1.00800           0
     19819 MEMB     159      PMPE     H2Y      HAL2     0.900000E-01   1.00800           0
     19820 MEMB     159      PMPE     C23      CTL2    -0.180000       12.0110           0
     19821 MEMB     159      PMPE     H3R      HAL2     0.900000E-01   1.00800           0
     19822 MEMB     159      PMPE     H3S      HAL2     0.900000E-01   1.00800           0
     19823 MEMB     159      PMPE     C24      CTL2    -0.180000       12.0110           0
     19824 MEMB     159      PMPE     H4R      HAL2     0.900000E-01   1.00800           0
     19825 MEMB     159      PMPE     H4S      HAL2     0.900000E-01   1.00800           0
     19826 MEMB     159      PMPE     C25      CTL2    -0.180000       12.0110           0
     19827 MEMB     159      PMPE     H5R      HAL2     0.900000E-01   1.00800           0
     19828 MEMB     159      PMPE     H5S      HAL2     0.900000E-01   1.00800           0
     19829 MEMB     159      PMPE     C26      CTL2    -0.180000       12.0110           0
     19830 MEMB     159      PMPE     H6R      HAL2     0.900000E-01   1.00800           0
     19831 MEMB     159      PMPE     H6S      HAL2     0.900000E-01   1.00800           0
     19832 MEMB     159      PMPE     C27      CTL2    -0.180000       12.0110           0
     19833 MEMB     159      PMPE     H7R      HAL2     0.900000E-01   1.00800           0
     19834 MEMB     159      PMPE     H7S      HAL2     0.900000E-01   1.00800           0
     19835 MEMB     159      PMPE     C28      CTL2    -0.180000       12.0110           0
     19836 MEMB     159      PMPE     H8R      HAL2     0.900000E-01   1.00800           0
     19837 MEMB     159      PMPE     H8S      HAL2     0.900000E-01   1.00800           0
     19838 MEMB     159      PMPE     C29      CG3RC1  -0.900000E-01   12.0110           0
     19839 MEMB     159      PMPE     H9R      HGA1     0.900000E-01   1.00800           0
     19840 MEMB     159      PMPE     C217     CG3C31  -0.180000       12.0110           0
     19841 MEMB     159      PMPE     H17R     HGA2     0.900000E-01   1.00800           0
     19842 MEMB     159      PMPE     H17S     HGA2     0.900000E-01   1.00800           0
     19843 MEMB     159      PMPE     C210     CG3RC1  -0.900000E-01   12.0110           0
     19844 MEMB     159      PMPE     H10R     HGA1     0.900000E-01   1.00800           0
     19845 MEMB     159      PMPE     C211     CTL2    -0.180000       12.0110           0
     19846 MEMB     159      PMPE     H11R     HAL2     0.900000E-01   1.00800           0
     19847 MEMB     159      PMPE     H11S     HAL2     0.900000E-01   1.00800           0
     19848 MEMB     159      PMPE     C212     CTL2    -0.180000       12.0110           0
     19849 MEMB     159      PMPE     H12R     HAL2     0.900000E-01   1.00800           0
     19850 MEMB     159      PMPE     H12S     HAL2     0.900000E-01   1.00800           0
     19851 MEMB     159      PMPE     C213     CTL2    -0.180000       12.0110           0
     19852 MEMB     159      PMPE     H13R     HAL2     0.900000E-01   1.00800           0
     19853 MEMB     159      PMPE     H13S     HAL2     0.900000E-01   1.00800           0
     19854 MEMB     159      PMPE     C214     CTL2    -0.180000       12.0110           0
     19855 MEMB     159      PMPE     H14R     HAL2     0.900000E-01   1.00800           0
     19856 MEMB     159      PMPE     H14S     HAL2     0.900000E-01   1.00800           0
     19857 MEMB     159      PMPE     C215     CTL2    -0.180000       12.0110           0
     19858 MEMB     159      PMPE     H15R     HAL2     0.900000E-01   1.00800           0
     19859 MEMB     159      PMPE     H15S     HAL2     0.900000E-01   1.00800           0
     19860 MEMB     159      PMPE     C216     CTL3    -0.270000       12.0110           0
     19861 MEMB     159      PMPE     H16R     HAL3     0.900000E-01   1.00800           0
     19862 MEMB     159      PMPE     H16S     HAL3     0.900000E-01   1.00800           0
     19863 MEMB     159      PMPE     H16T     HAL3     0.900000E-01   1.00800           0
     19864 MEMB     159      PMPE     C33      CTL2    -0.180000       12.0110           0
     19865 MEMB     159      PMPE     H3X      HAL2     0.900000E-01   1.00800           0
     19866 MEMB     159      PMPE     H3Y      HAL2     0.900000E-01   1.00800           0
     19867 MEMB     159      PMPE     C34      CTL2    -0.180000       12.0110           0
     19868 MEMB     159      PMPE     H4X      HAL2     0.900000E-01   1.00800           0
     19869 MEMB     159      PMPE     H4Y      HAL2     0.900000E-01   1.00800           0
     19870 MEMB     159      PMPE     C35      CTL2    -0.180000       12.0110           0
     19871 MEMB     159      PMPE     H5X      HAL2     0.900000E-01   1.00800           0
     19872 MEMB     159      PMPE     H5Y      HAL2     0.900000E-01   1.00800           0
     19873 MEMB     159      PMPE     C36      CTL2    -0.180000       12.0110           0
     19874 MEMB     159      PMPE     H6X      HAL2     0.900000E-01   1.00800           0
     19875 MEMB     159      PMPE     H6Y      HAL2     0.900000E-01   1.00800           0
     19876 MEMB     159      PMPE     C37      CTL2    -0.180000       12.0110           0
     19877 MEMB     159      PMPE     H7X      HAL2     0.900000E-01   1.00800           0
     19878 MEMB     159      PMPE     H7Y      HAL2     0.900000E-01   1.00800           0
     19879 MEMB     159      PMPE     C38      CTL2    -0.180000       12.0110           0
     19880 MEMB     159      PMPE     H8X      HAL2     0.900000E-01   1.00800           0
     19881 MEMB     159      PMPE     H8Y      HAL2     0.900000E-01   1.00800           0
     19882 MEMB     159      PMPE     C39      CTL2    -0.180000       12.0110           0
     19883 MEMB     159      PMPE     H9X      HAL2     0.900000E-01   1.00800           0
     19884 MEMB     159      PMPE     H9Y      HAL2     0.900000E-01   1.00800           0
     19885 MEMB     159      PMPE     C310     CTL2    -0.180000       12.0110           0
     19886 MEMB     159      PMPE     H10X     HAL2     0.900000E-01   1.00800           0
     19887 MEMB     159      PMPE     H10Y     HAL2     0.900000E-01   1.00800           0
     19888 MEMB     159      PMPE     C311     CTL2    -0.180000       12.0110           0
     19889 MEMB     159      PMPE     H11X     HAL2     0.900000E-01   1.00800           0
     19890 MEMB     159      PMPE     H11Y     HAL2     0.900000E-01   1.00800           0
     19891 MEMB     159      PMPE     C312     CTL2    -0.180000       12.0110           0
     19892 MEMB     159      PMPE     H12X     HAL2     0.900000E-01   1.00800           0
     19893 MEMB     159      PMPE     H12Y     HAL2     0.900000E-01   1.00800           0
     19894 MEMB     159      PMPE     C313     CTL2    -0.180000       12.0110           0
     19895 MEMB     159      PMPE     H13X     HAL2     0.900000E-01   1.00800           0
     19896 MEMB     159      PMPE     H13Y     HAL2     0.900000E-01   1.00800           0
     19897 MEMB     159      PMPE     C314     CTL2    -0.180000       12.0110           0
     19898 MEMB     159      PMPE     H14X     HAL2     0.900000E-01   1.00800           0
     19899 MEMB     159      PMPE     H14Y     HAL2     0.900000E-01   1.00800           0
     19900 MEMB     159      PMPE     C315     CTL2    -0.180000       12.0110           0
     19901 MEMB     159      PMPE     H15X     HAL2     0.900000E-01   1.00800           0
     19902 MEMB     159      PMPE     H15Y     HAL2     0.900000E-01   1.00800           0
     19903 MEMB     159      PMPE     C316     CTL3    -0.270000       12.0110           0
     19904 MEMB     159      PMPE     H16X     HAL3     0.900000E-01   1.00800           0
     19905 MEMB     159      PMPE     H16Y     HAL3     0.900000E-01   1.00800           0
     19906 MEMB     159      PMPE     H16Z     HAL3     0.900000E-01   1.00800           0
     19907 MEMB     160      POPE     N        NH3L    -0.300000       14.0070           0
     19908 MEMB     160      POPE     HN1      HCL      0.330000       1.00800           0
     19909 MEMB     160      POPE     HN2      HCL      0.330000       1.00800           0
     19910 MEMB     160      POPE     HN3      HCL      0.330000       1.00800           0
     19911 MEMB     160      POPE     C12      CTL2     0.130000       12.0110           0
     19912 MEMB     160      POPE     H12A     HAL2     0.900000E-01   1.00800           0
     19913 MEMB     160      POPE     H12B     HAL2     0.900000E-01   1.00800           0
     19914 MEMB     160      POPE     C11      CTL2    -0.800000E-01   12.0110           0
     19915 MEMB     160      POPE     H11A     HAL2     0.900000E-01   1.00800           0
     19916 MEMB     160      POPE     H11B     HAL2     0.900000E-01   1.00800           0
     19917 MEMB     160      POPE     P        PL        1.50000       30.9740           0
     19918 MEMB     160      POPE     O13      O2L     -0.780000       15.9994           0
     19919 MEMB     160      POPE     O14      O2L     -0.780000       15.9994           0
     19920 MEMB     160      POPE     O11      OSLP    -0.570000       15.9994           0
     19921 MEMB     160      POPE     O12      OSLP    -0.570000       15.9994           0
     19922 MEMB     160      POPE     C1       CTL2    -0.800000E-01   12.0110           0
     19923 MEMB     160      POPE     HA       HAL2     0.900000E-01   1.00800           0
     19924 MEMB     160      POPE     HB       HAL2     0.900000E-01   1.00800           0
     19925 MEMB     160      POPE     C2       CTL1     0.170000       12.0110           0
     19926 MEMB     160      POPE     HS       HAL1     0.900000E-01   1.00800           0
     19927 MEMB     160      POPE     O21      OSL     -0.490000       15.9994           0
     19928 MEMB     160      POPE     C21      CL       0.900000       12.0110           0
     19929 MEMB     160      POPE     O22      OBL     -0.630000       15.9994           0
     19930 MEMB     160      POPE     C22      CTL2    -0.220000       12.0110           0
     19931 MEMB     160      POPE     H2R      HAL2     0.900000E-01   1.00800           0
     19932 MEMB     160      POPE     H2S      HAL2     0.900000E-01   1.00800           0
     19933 MEMB     160      POPE     C3       CTL2     0.800000E-01   12.0110           0
     19934 MEMB     160      POPE     HX       HAL2     0.900000E-01   1.00800           0
     19935 MEMB     160      POPE     HY       HAL2     0.900000E-01   1.00800           0
     19936 MEMB     160      POPE     O31      OSL     -0.490000       15.9994           0
     19937 MEMB     160      POPE     C31      CL       0.900000       12.0110           0
     19938 MEMB     160      POPE     O32      OBL     -0.630000       15.9994           0
     19939 MEMB     160      POPE     C32      CTL2    -0.220000       12.0110           0
     19940 MEMB     160      POPE     H2X      HAL2     0.900000E-01   1.00800           0
     19941 MEMB     160      POPE     H2Y      HAL2     0.900000E-01   1.00800           0
     19942 MEMB     160      POPE     C23      CTL2    -0.180000       12.0110           0
     19943 MEMB     160      POPE     H3R      HAL2     0.900000E-01   1.00800           0
     19944 MEMB     160      POPE     H3S      HAL2     0.900000E-01   1.00800           0
     19945 MEMB     160      POPE     C24      CTL2    -0.180000       12.0110           0
     19946 MEMB     160      POPE     H4R      HAL2     0.900000E-01   1.00800           0
     19947 MEMB     160      POPE     H4S      HAL2     0.900000E-01   1.00800           0
     19948 MEMB     160      POPE     C25      CTL2    -0.180000       12.0110           0
     19949 MEMB     160      POPE     H5R      HAL2     0.900000E-01   1.00800           0
     19950 MEMB     160      POPE     H5S      HAL2     0.900000E-01   1.00800           0
     19951 MEMB     160      POPE     C26      CTL2    -0.180000       12.0110           0
     19952 MEMB     160      POPE     H6R      HAL2     0.900000E-01   1.00800           0
     19953 MEMB     160      POPE     H6S      HAL2     0.900000E-01   1.00800           0
     19954 MEMB     160      POPE     C27      CTL2    -0.180000       12.0110           0
     19955 MEMB     160      POPE     H7R      HAL2     0.900000E-01   1.00800           0
     19956 MEMB     160      POPE     H7S      HAL2     0.900000E-01   1.00800           0
     19957 MEMB     160      POPE     C28      CTL2    -0.180000       12.0110           0
     19958 MEMB     160      POPE     H8R      HAL2     0.900000E-01   1.00800           0
     19959 MEMB     160      POPE     H8S      HAL2     0.900000E-01   1.00800           0
     19960 MEMB     160      POPE     C29      CEL1    -0.150000       12.0110           0
     19961 MEMB     160      POPE     H91      HEL1     0.150000       1.00800           0
     19962 MEMB     160      POPE     C210     CEL1    -0.150000       12.0110           0
     19963 MEMB     160      POPE     H101     HEL1     0.150000       1.00800           0
     19964 MEMB     160      POPE     C211     CTL2    -0.180000       12.0110           0
     19965 MEMB     160      POPE     H11R     HAL2     0.900000E-01   1.00800           0
     19966 MEMB     160      POPE     H11S     HAL2     0.900000E-01   1.00800           0
     19967 MEMB     160      POPE     C212     CTL2    -0.180000       12.0110           0
     19968 MEMB     160      POPE     H12R     HAL2     0.900000E-01   1.00800           0
     19969 MEMB     160      POPE     H12S     HAL2     0.900000E-01   1.00800           0
     19970 MEMB     160      POPE     C213     CTL2    -0.180000       12.0110           0
     19971 MEMB     160      POPE     H13R     HAL2     0.900000E-01   1.00800           0
     19972 MEMB     160      POPE     H13S     HAL2     0.900000E-01   1.00800           0
     19973 MEMB     160      POPE     C214     CTL2    -0.180000       12.0110           0
     19974 MEMB     160      POPE     H14R     HAL2     0.900000E-01   1.00800           0
     19975 MEMB     160      POPE     H14S     HAL2     0.900000E-01   1.00800           0
     19976 MEMB     160      POPE     C215     CTL2    -0.180000       12.0110           0
     19977 MEMB     160      POPE     H15R     HAL2     0.900000E-01   1.00800           0
     19978 MEMB     160      POPE     H15S     HAL2     0.900000E-01   1.00800           0
     19979 MEMB     160      POPE     C216     CTL2    -0.180000       12.0110           0
     19980 MEMB     160      POPE     H16R     HAL2     0.900000E-01   1.00800           0
     19981 MEMB     160      POPE     H16S     HAL2     0.900000E-01   1.00800           0
     19982 MEMB     160      POPE     C217     CTL2    -0.180000       12.0110           0
     19983 MEMB     160      POPE     H17R     HAL2     0.900000E-01   1.00800           0
     19984 MEMB     160      POPE     H17S     HAL2     0.900000E-01   1.00800           0
     19985 MEMB     160      POPE     C218     CTL3    -0.270000       12.0110           0
     19986 MEMB     160      POPE     H18R     HAL3     0.900000E-01   1.00800           0
     19987 MEMB     160      POPE     H18S     HAL3     0.900000E-01   1.00800           0
     19988 MEMB     160      POPE     H18T     HAL3     0.900000E-01   1.00800           0
     19989 MEMB     160      POPE     C33      CTL2    -0.180000       12.0110           0
     19990 MEMB     160      POPE     H3X      HAL2     0.900000E-01   1.00800           0
     19991 MEMB     160      POPE     H3Y      HAL2     0.900000E-01   1.00800           0
     19992 MEMB     160      POPE     C34      CTL2    -0.180000       12.0110           0
     19993 MEMB     160      POPE     H4X      HAL2     0.900000E-01   1.00800           0
     19994 MEMB     160      POPE     H4Y      HAL2     0.900000E-01   1.00800           0
     19995 MEMB     160      POPE     C35      CTL2    -0.180000       12.0110           0
     19996 MEMB     160      POPE     H5X      HAL2     0.900000E-01   1.00800           0
     19997 MEMB     160      POPE     H5Y      HAL2     0.900000E-01   1.00800           0
     19998 MEMB     160      POPE     C36      CTL2    -0.180000       12.0110           0
     19999 MEMB     160      POPE     H6X      HAL2     0.900000E-01   1.00800           0
     20000 MEMB     160      POPE     H6Y      HAL2     0.900000E-01   1.00800           0
     20001 MEMB     160      POPE     C37      CTL2    -0.180000       12.0110           0
     20002 MEMB     160      POPE     H7X      HAL2     0.900000E-01   1.00800           0
     20003 MEMB     160      POPE     H7Y      HAL2     0.900000E-01   1.00800           0
     20004 MEMB     160      POPE     C38      CTL2    -0.180000       12.0110           0
     20005 MEMB     160      POPE     H8X      HAL2     0.900000E-01   1.00800           0
     20006 MEMB     160      POPE     H8Y      HAL2     0.900000E-01   1.00800           0
     20007 MEMB     160      POPE     C39      CTL2    -0.180000       12.0110           0
     20008 MEMB     160      POPE     H9X      HAL2     0.900000E-01   1.00800           0
     20009 MEMB     160      POPE     H9Y      HAL2     0.900000E-01   1.00800           0
     20010 MEMB     160      POPE     C310     CTL2    -0.180000       12.0110           0
     20011 MEMB     160      POPE     H10X     HAL2     0.900000E-01   1.00800           0
     20012 MEMB     160      POPE     H10Y     HAL2     0.900000E-01   1.00800           0
     20013 MEMB     160      POPE     C311     CTL2    -0.180000       12.0110           0
     20014 MEMB     160      POPE     H11X     HAL2     0.900000E-01   1.00800           0
     20015 MEMB     160      POPE     H11Y     HAL2     0.900000E-01   1.00800           0
     20016 MEMB     160      POPE     C312     CTL2    -0.180000       12.0110           0
     20017 MEMB     160      POPE     H12X     HAL2     0.900000E-01   1.00800           0
     20018 MEMB     160      POPE     H12Y     HAL2     0.900000E-01   1.00800           0
     20019 MEMB     160      POPE     C313     CTL2    -0.180000       12.0110           0
     20020 MEMB     160      POPE     H13X     HAL2     0.900000E-01   1.00800           0
     20021 MEMB     160      POPE     H13Y     HAL2     0.900000E-01   1.00800           0
     20022 MEMB     160      POPE     C314     CTL2    -0.180000       12.0110           0
     20023 MEMB     160      POPE     H14X     HAL2     0.900000E-01   1.00800           0
     20024 MEMB     160      POPE     H14Y     HAL2     0.900000E-01   1.00800           0
     20025 MEMB     160      POPE     C315     CTL2    -0.180000       12.0110           0
     20026 MEMB     160      POPE     H15X     HAL2     0.900000E-01   1.00800           0
     20027 MEMB     160      POPE     H15Y     HAL2     0.900000E-01   1.00800           0
     20028 MEMB     160      POPE     C316     CTL3    -0.270000       12.0110           0
     20029 MEMB     160      POPE     H16X     HAL3     0.900000E-01   1.00800           0
     20030 MEMB     160      POPE     H16Y     HAL3     0.900000E-01   1.00800           0
     20031 MEMB     160      POPE     H16Z     HAL3     0.900000E-01   1.00800           0
     20032 MEMB     161      PMPG     C13      CTL2     0.500000E-01   12.0110           0
     20033 MEMB     161      PMPG     H13A     HAL2     0.900000E-01   1.00800           0
     20034 MEMB     161      PMPG     H13B     HAL2     0.900000E-01   1.00800           0
     20035 MEMB     161      PMPG     OC3      OHL     -0.660000       15.9994           0
     20036 MEMB     161      PMPG     HO3      HOL      0.430000       1.00800           0
     20037 MEMB     161      PMPG     C12      CTL1     0.140000       12.0110           0
     20038 MEMB     161      PMPG     H12A     HAL1     0.900000E-01   1.00800           0
     20039 MEMB     161      PMPG     OC2      OHL     -0.660000       15.9994           0
     20040 MEMB     161      PMPG     HO2      HOL      0.430000       1.00800           0
     20041 MEMB     161      PMPG     C11      CTL2    -0.800000E-01   12.0110           0
     20042 MEMB     161      PMPG     H11A     HAL2     0.900000E-01   1.00800           0
     20043 MEMB     161      PMPG     H11B     HAL2     0.900000E-01   1.00800           0
     20044 MEMB     161      PMPG     P        PL        1.50000       30.9740           0
     20045 MEMB     161      PMPG     O13      O2L     -0.780000       15.9994           0
     20046 MEMB     161      PMPG     O14      O2L     -0.780000       15.9994           0
     20047 MEMB     161      PMPG     O11      OSLP    -0.570000       15.9994           0
     20048 MEMB     161      PMPG     O12      OSLP    -0.570000       15.9994           0
     20049 MEMB     161      PMPG     C1       CTL2    -0.800000E-01   12.0110           0
     20050 MEMB     161      PMPG     HA       HAL2     0.900000E-01   1.00800           0
     20051 MEMB     161      PMPG     HB       HAL2     0.900000E-01   1.00800           0
     20052 MEMB     161      PMPG     C2       CTL1     0.170000       12.0110           0
     20053 MEMB     161      PMPG     HS       HAL1     0.900000E-01   1.00800           0
     20054 MEMB     161      PMPG     O21      OSL     -0.490000       15.9994           0
     20055 MEMB     161      PMPG     C21      CL       0.900000       12.0110           0
     20056 MEMB     161      PMPG     O22      OBL     -0.630000       15.9994           0
     20057 MEMB     161      PMPG     C22      CTL2    -0.220000       12.0110           0
     20058 MEMB     161      PMPG     H2R      HAL2     0.900000E-01   1.00800           0
     20059 MEMB     161      PMPG     H2S      HAL2     0.900000E-01   1.00800           0
     20060 MEMB     161      PMPG     C3       CTL2     0.800000E-01   12.0110           0
     20061 MEMB     161      PMPG     HX       HAL2     0.900000E-01   1.00800           0
     20062 MEMB     161      PMPG     HY       HAL2     0.900000E-01   1.00800           0
     20063 MEMB     161      PMPG     O31      OSL     -0.490000       15.9994           0
     20064 MEMB     161      PMPG     C31      CL       0.900000       12.0110           0
     20065 MEMB     161      PMPG     O32      OBL     -0.630000       15.9994           0
     20066 MEMB     161      PMPG     C32      CTL2    -0.220000       12.0110           0
     20067 MEMB     161      PMPG     H2X      HAL2     0.900000E-01   1.00800           0
     20068 MEMB     161      PMPG     H2Y      HAL2     0.900000E-01   1.00800           0
     20069 MEMB     161      PMPG     C23      CTL2    -0.180000       12.0110           0
     20070 MEMB     161      PMPG     H3R      HAL2     0.900000E-01   1.00800           0
     20071 MEMB     161      PMPG     H3S      HAL2     0.900000E-01   1.00800           0
     20072 MEMB     161      PMPG     C24      CTL2    -0.180000       12.0110           0
     20073 MEMB     161      PMPG     H4R      HAL2     0.900000E-01   1.00800           0
     20074 MEMB     161      PMPG     H4S      HAL2     0.900000E-01   1.00800           0
     20075 MEMB     161      PMPG     C25      CTL2    -0.180000       12.0110           0
     20076 MEMB     161      PMPG     H5R      HAL2     0.900000E-01   1.00800           0
     20077 MEMB     161      PMPG     H5S      HAL2     0.900000E-01   1.00800           0
     20078 MEMB     161      PMPG     C26      CTL2    -0.180000       12.0110           0
     20079 MEMB     161      PMPG     H6R      HAL2     0.900000E-01   1.00800           0
     20080 MEMB     161      PMPG     H6S      HAL2     0.900000E-01   1.00800           0
     20081 MEMB     161      PMPG     C27      CTL2    -0.180000       12.0110           0
     20082 MEMB     161      PMPG     H7R      HAL2     0.900000E-01   1.00800           0
     20083 MEMB     161      PMPG     H7S      HAL2     0.900000E-01   1.00800           0
     20084 MEMB     161      PMPG     C28      CTL2    -0.180000       12.0110           0
     20085 MEMB     161      PMPG     H8R      HAL2     0.900000E-01   1.00800           0
     20086 MEMB     161      PMPG     H8S      HAL2     0.900000E-01   1.00800           0
     20087 MEMB     161      PMPG     C29      CG3RC1  -0.900000E-01   12.0110           0
     20088 MEMB     161      PMPG     H9R      HGA1     0.900000E-01   1.00800           0
     20089 MEMB     161      PMPG     C217     CG3C31  -0.180000       12.0110           0
     20090 MEMB     161      PMPG     H17R     HGA2     0.900000E-01   1.00800           0
     20091 MEMB     161      PMPG     H17S     HGA2     0.900000E-01   1.00800           0
     20092 MEMB     161      PMPG     C210     CG3RC1  -0.900000E-01   12.0110           0
     20093 MEMB     161      PMPG     H10R     HGA1     0.900000E-01   1.00800           0
     20094 MEMB     161      PMPG     C211     CTL2    -0.180000       12.0110           0
     20095 MEMB     161      PMPG     H11R     HAL2     0.900000E-01   1.00800           0
     20096 MEMB     161      PMPG     H11S     HAL2     0.900000E-01   1.00800           0
     20097 MEMB     161      PMPG     C212     CTL2    -0.180000       12.0110           0
     20098 MEMB     161      PMPG     H12R     HAL2     0.900000E-01   1.00800           0
     20099 MEMB     161      PMPG     H12S     HAL2     0.900000E-01   1.00800           0
     20100 MEMB     161      PMPG     C213     CTL2    -0.180000       12.0110           0
     20101 MEMB     161      PMPG     H13R     HAL2     0.900000E-01   1.00800           0
     20102 MEMB     161      PMPG     H13S     HAL2     0.900000E-01   1.00800           0
     20103 MEMB     161      PMPG     C214     CTL2    -0.180000       12.0110           0
     20104 MEMB     161      PMPG     H14R     HAL2     0.900000E-01   1.00800           0
     20105 MEMB     161      PMPG     H14S     HAL2     0.900000E-01   1.00800           0
     20106 MEMB     161      PMPG     C215     CTL2    -0.180000       12.0110           0
     20107 MEMB     161      PMPG     H15R     HAL2     0.900000E-01   1.00800           0
     20108 MEMB     161      PMPG     H15S     HAL2     0.900000E-01   1.00800           0
     20109 MEMB     161      PMPG     C216     CTL3    -0.270000       12.0110           0
     20110 MEMB     161      PMPG     H16R     HAL3     0.900000E-01   1.00800           0
     20111 MEMB     161      PMPG     H16S     HAL3     0.900000E-01   1.00800           0
     20112 MEMB     161      PMPG     H16T     HAL3     0.900000E-01   1.00800           0
     20113 MEMB     161      PMPG     C33      CTL2    -0.180000       12.0110           0
     20114 MEMB     161      PMPG     H3X      HAL2     0.900000E-01   1.00800           0
     20115 MEMB     161      PMPG     H3Y      HAL2     0.900000E-01   1.00800           0
     20116 MEMB     161      PMPG     C34      CTL2    -0.180000       12.0110           0
     20117 MEMB     161      PMPG     H4X      HAL2     0.900000E-01   1.00800           0
     20118 MEMB     161      PMPG     H4Y      HAL2     0.900000E-01   1.00800           0
     20119 MEMB     161      PMPG     C35      CTL2    -0.180000       12.0110           0
     20120 MEMB     161      PMPG     H5X      HAL2     0.900000E-01   1.00800           0
     20121 MEMB     161      PMPG     H5Y      HAL2     0.900000E-01   1.00800           0
     20122 MEMB     161      PMPG     C36      CTL2    -0.180000       12.0110           0
     20123 MEMB     161      PMPG     H6X      HAL2     0.900000E-01   1.00800           0
     20124 MEMB     161      PMPG     H6Y      HAL2     0.900000E-01   1.00800           0
     20125 MEMB     161      PMPG     C37      CTL2    -0.180000       12.0110           0
     20126 MEMB     161      PMPG     H7X      HAL2     0.900000E-01   1.00800           0
     20127 MEMB     161      PMPG     H7Y      HAL2     0.900000E-01   1.00800           0
     20128 MEMB     161      PMPG     C38      CTL2    -0.180000       12.0110           0
     20129 MEMB     161      PMPG     H8X      HAL2     0.900000E-01   1.00800           0
     20130 MEMB     161      PMPG     H8Y      HAL2     0.900000E-01   1.00800           0
     20131 MEMB     161      PMPG     C39      CTL2    -0.180000       12.0110           0
     20132 MEMB     161      PMPG     H9X      HAL2     0.900000E-01   1.00800           0
     20133 MEMB     161      PMPG     H9Y      HAL2     0.900000E-01   1.00800           0
     20134 MEMB     161      PMPG     C310     CTL2    -0.180000       12.0110           0
     20135 MEMB     161      PMPG     H10X     HAL2     0.900000E-01   1.00800           0
     20136 MEMB     161      PMPG     H10Y     HAL2     0.900000E-01   1.00800           0
     20137 MEMB     161      PMPG     C311     CTL2    -0.180000       12.0110           0
     20138 MEMB     161      PMPG     H11X     HAL2     0.900000E-01   1.00800           0
     20139 MEMB     161      PMPG     H11Y     HAL2     0.900000E-01   1.00800           0
     20140 MEMB     161      PMPG     C312     CTL2    -0.180000       12.0110           0
     20141 MEMB     161      PMPG     H12X     HAL2     0.900000E-01   1.00800           0
     20142 MEMB     161      PMPG     H12Y     HAL2     0.900000E-01   1.00800           0
     20143 MEMB     161      PMPG     C313     CTL2    -0.180000       12.0110           0
     20144 MEMB     161      PMPG     H13X     HAL2     0.900000E-01   1.00800           0
     20145 MEMB     161      PMPG     H13Y     HAL2     0.900000E-01   1.00800           0
     20146 MEMB     161      PMPG     C314     CTL2    -0.180000       12.0110           0
     20147 MEMB     161      PMPG     H14X     HAL2     0.900000E-01   1.00800           0
     20148 MEMB     161      PMPG     H14Y     HAL2     0.900000E-01   1.00800           0
     20149 MEMB     161      PMPG     C315     CTL2    -0.180000       12.0110           0
     20150 MEMB     161      PMPG     H15X     HAL2     0.900000E-01   1.00800           0
     20151 MEMB     161      PMPG     H15Y     HAL2     0.900000E-01   1.00800           0
     20152 MEMB     161      PMPG     C316     CTL3    -0.270000       12.0110           0
     20153 MEMB     161      PMPG     H16X     HAL3     0.900000E-01   1.00800           0
     20154 MEMB     161      PMPG     H16Y     HAL3     0.900000E-01   1.00800           0
     20155 MEMB     161      PMPG     H16Z     HAL3     0.900000E-01   1.00800           0
     20156 MEMB     162      QMPE     N        NH3L    -0.300000       14.0070           0
     20157 MEMB     162      QMPE     HN1      HCL      0.330000       1.00800           0
     20158 MEMB     162      QMPE     HN2      HCL      0.330000       1.00800           0
     20159 MEMB     162      QMPE     HN3      HCL      0.330000       1.00800           0
     20160 MEMB     162      QMPE     C12      CTL2     0.130000       12.0110           0
     20161 MEMB     162      QMPE     H12A     HAL2     0.900000E-01   1.00800           0
     20162 MEMB     162      QMPE     H12B     HAL2     0.900000E-01   1.00800           0
     20163 MEMB     162      QMPE     C11      CTL2    -0.800000E-01   12.0110           0
     20164 MEMB     162      QMPE     H11A     HAL2     0.900000E-01   1.00800           0
     20165 MEMB     162      QMPE     H11B     HAL2     0.900000E-01   1.00800           0
     20166 MEMB     162      QMPE     P        PL        1.50000       30.9740           0
     20167 MEMB     162      QMPE     O13      O2L     -0.780000       15.9994           0
     20168 MEMB     162      QMPE     O14      O2L     -0.780000       15.9994           0
     20169 MEMB     162      QMPE     O11      OSLP    -0.570000       15.9994           0
     20170 MEMB     162      QMPE     O12      OSLP    -0.570000       15.9994           0
     20171 MEMB     162      QMPE     C1       CTL2    -0.800000E-01   12.0110           0
     20172 MEMB     162      QMPE     HA       HAL2     0.900000E-01   1.00800           0
     20173 MEMB     162      QMPE     HB       HAL2     0.900000E-01   1.00800           0
     20174 MEMB     162      QMPE     C2       CTL1     0.170000       12.0110           0
     20175 MEMB     162      QMPE     HS       HAL1     0.900000E-01   1.00800           0
     20176 MEMB     162      QMPE     O21      OSL     -0.490000       15.9994           0
     20177 MEMB     162      QMPE     C21      CL       0.900000       12.0110           0
     20178 MEMB     162      QMPE     O22      OBL     -0.630000       15.9994           0
     20179 MEMB     162      QMPE     C22      CTL2    -0.220000       12.0110           0
     20180 MEMB     162      QMPE     H2R      HAL2     0.900000E-01   1.00800           0
     20181 MEMB     162      QMPE     H2S      HAL2     0.900000E-01   1.00800           0
     20182 MEMB     162      QMPE     C3       CTL2     0.800000E-01   12.0110           0
     20183 MEMB     162      QMPE     HX       HAL2     0.900000E-01   1.00800           0
     20184 MEMB     162      QMPE     HY       HAL2     0.900000E-01   1.00800           0
     20185 MEMB     162      QMPE     O31      OSL     -0.490000       15.9994           0
     20186 MEMB     162      QMPE     C31      CL       0.900000       12.0110           0
     20187 MEMB     162      QMPE     O32      OBL     -0.630000       15.9994           0
     20188 MEMB     162      QMPE     C32      CTL2    -0.220000       12.0110           0
     20189 MEMB     162      QMPE     H2X      HAL2     0.900000E-01   1.00800           0
     20190 MEMB     162      QMPE     H2Y      HAL2     0.900000E-01   1.00800           0
     20191 MEMB     162      QMPE     C23      CTL2    -0.180000       12.0110           0
     20192 MEMB     162      QMPE     H3R      HAL2     0.900000E-01   1.00800           0
     20193 MEMB     162      QMPE     H3S      HAL2     0.900000E-01   1.00800           0
     20194 MEMB     162      QMPE     C24      CTL2    -0.180000       12.0110           0
     20195 MEMB     162      QMPE     H4R      HAL2     0.900000E-01   1.00800           0
     20196 MEMB     162      QMPE     H4S      HAL2     0.900000E-01   1.00800           0
     20197 MEMB     162      QMPE     C25      CTL2    -0.180000       12.0110           0
     20198 MEMB     162      QMPE     H5R      HAL2     0.900000E-01   1.00800           0
     20199 MEMB     162      QMPE     H5S      HAL2     0.900000E-01   1.00800           0
     20200 MEMB     162      QMPE     C26      CTL2    -0.180000       12.0110           0
     20201 MEMB     162      QMPE     H6R      HAL2     0.900000E-01   1.00800           0
     20202 MEMB     162      QMPE     H6S      HAL2     0.900000E-01   1.00800           0
     20203 MEMB     162      QMPE     C27      CTL2    -0.180000       12.0110           0
     20204 MEMB     162      QMPE     H7R      HAL2     0.900000E-01   1.00800           0
     20205 MEMB     162      QMPE     H7S      HAL2     0.900000E-01   1.00800           0
     20206 MEMB     162      QMPE     C28      CTL2    -0.180000       12.0110           0
     20207 MEMB     162      QMPE     H8R      HAL2     0.900000E-01   1.00800           0
     20208 MEMB     162      QMPE     H8S      HAL2     0.900000E-01   1.00800           0
     20209 MEMB     162      QMPE     C29      CG3RC1  -0.900000E-01   12.0110           0
     20210 MEMB     162      QMPE     H9R      HGA1     0.900000E-01   1.00800           0
     20211 MEMB     162      QMPE     C217     CG3C31  -0.180000       12.0110           0
     20212 MEMB     162      QMPE     H17R     HGA2     0.900000E-01   1.00800           0
     20213 MEMB     162      QMPE     H17S     HGA2     0.900000E-01   1.00800           0
     20214 MEMB     162      QMPE     C210     CG3RC1  -0.900000E-01   12.0110           0
     20215 MEMB     162      QMPE     H10R     HGA1     0.900000E-01   1.00800           0
     20216 MEMB     162      QMPE     C211     CTL2    -0.180000       12.0110           0
     20217 MEMB     162      QMPE     H11R     HAL2     0.900000E-01   1.00800           0
     20218 MEMB     162      QMPE     H11S     HAL2     0.900000E-01   1.00800           0
     20219 MEMB     162      QMPE     C212     CTL2    -0.180000       12.0110           0
     20220 MEMB     162      QMPE     H12R     HAL2     0.900000E-01   1.00800           0
     20221 MEMB     162      QMPE     H12S     HAL2     0.900000E-01   1.00800           0
     20222 MEMB     162      QMPE     C213     CTL2    -0.180000       12.0110           0
     20223 MEMB     162      QMPE     H13R     HAL2     0.900000E-01   1.00800           0
     20224 MEMB     162      QMPE     H13S     HAL2     0.900000E-01   1.00800           0
     20225 MEMB     162      QMPE     C214     CTL2    -0.180000       12.0110           0
     20226 MEMB     162      QMPE     H14R     HAL2     0.900000E-01   1.00800           0
     20227 MEMB     162      QMPE     H14S     HAL2     0.900000E-01   1.00800           0
     20228 MEMB     162      QMPE     C215     CTL2    -0.180000       12.0110           0
     20229 MEMB     162      QMPE     H15R     HAL2     0.900000E-01   1.00800           0
     20230 MEMB     162      QMPE     H15S     HAL2     0.900000E-01   1.00800           0
     20231 MEMB     162      QMPE     C216     CTL3    -0.270000       12.0110           0
     20232 MEMB     162      QMPE     H16R     HAL3     0.900000E-01   1.00800           0
     20233 MEMB     162      QMPE     H16S     HAL3     0.900000E-01   1.00800           0
     20234 MEMB     162      QMPE     H16T     HAL3     0.900000E-01   1.00800           0
     20235 MEMB     162      QMPE     C33      CTL2    -0.180000       12.0110           0
     20236 MEMB     162      QMPE     H3X      HAL2     0.900000E-01   1.00800           0
     20237 MEMB     162      QMPE     H3Y      HAL2     0.900000E-01   1.00800           0
     20238 MEMB     162      QMPE     C34      CTL2    -0.180000       12.0110           0
     20239 MEMB     162      QMPE     H4X      HAL2     0.900000E-01   1.00800           0
     20240 MEMB     162      QMPE     H4Y      HAL2     0.900000E-01   1.00800           0
     20241 MEMB     162      QMPE     C35      CTL2    -0.180000       12.0110           0
     20242 MEMB     162      QMPE     H5X      HAL2     0.900000E-01   1.00800           0
     20243 MEMB     162      QMPE     H5Y      HAL2     0.900000E-01   1.00800           0
     20244 MEMB     162      QMPE     C36      CTL2    -0.180000       12.0110           0
     20245 MEMB     162      QMPE     H6X      HAL2     0.900000E-01   1.00800           0
     20246 MEMB     162      QMPE     H6Y      HAL2     0.900000E-01   1.00800           0
     20247 MEMB     162      QMPE     C37      CTL2    -0.180000       12.0110           0
     20248 MEMB     162      QMPE     H7X      HAL2     0.900000E-01   1.00800           0
     20249 MEMB     162      QMPE     H7Y      HAL2     0.900000E-01   1.00800           0
     20250 MEMB     162      QMPE     C38      CTL2    -0.180000       12.0110           0
     20251 MEMB     162      QMPE     H8X      HAL2     0.900000E-01   1.00800           0
     20252 MEMB     162      QMPE     H8Y      HAL2     0.900000E-01   1.00800           0
     20253 MEMB     162      QMPE     C39      CTL2    -0.180000       12.0110           0
     20254 MEMB     162      QMPE     H9X      HAL2     0.900000E-01   1.00800           0
     20255 MEMB     162      QMPE     H9Y      HAL2     0.900000E-01   1.00800           0
     20256 MEMB     162      QMPE     C310     CTL2    -0.180000       12.0110           0
     20257 MEMB     162      QMPE     H10X     HAL2     0.900000E-01   1.00800           0
     20258 MEMB     162      QMPE     H10Y     HAL2     0.900000E-01   1.00800           0
     20259 MEMB     162      QMPE     C311     CTL2    -0.180000       12.0110           0
     20260 MEMB     162      QMPE     H11X     HAL2     0.900000E-01   1.00800           0
     20261 MEMB     162      QMPE     H11Y     HAL2     0.900000E-01   1.00800           0
     20262 MEMB     162      QMPE     C312     CTL2    -0.180000       12.0110           0
     20263 MEMB     162      QMPE     H12X     HAL2     0.900000E-01   1.00800           0
     20264 MEMB     162      QMPE     H12Y     HAL2     0.900000E-01   1.00800           0
     20265 MEMB     162      QMPE     C313     CTL2    -0.180000       12.0110           0
     20266 MEMB     162      QMPE     H13X     HAL2     0.900000E-01   1.00800           0
     20267 MEMB     162      QMPE     H13Y     HAL2     0.900000E-01   1.00800           0
     20268 MEMB     162      QMPE     C314     CTL2    -0.180000       12.0110           0
     20269 MEMB     162      QMPE     H14X     HAL2     0.900000E-01   1.00800           0
     20270 MEMB     162      QMPE     H14Y     HAL2     0.900000E-01   1.00800           0
     20271 MEMB     162      QMPE     C315     CTL3    -0.270000       12.0110           0
     20272 MEMB     162      QMPE     H15X     HAL3     0.900000E-01   1.00800           0
     20273 MEMB     162      QMPE     H15Y     HAL3     0.900000E-01   1.00800           0
     20274 MEMB     162      QMPE     H15Z     HAL3     0.900000E-01   1.00800           0
     20275 MEMB     163      PMPE     N        NH3L    -0.300000       14.0070           0
     20276 MEMB     163      PMPE     HN1      HCL      0.330000       1.00800           0
     20277 MEMB     163      PMPE     HN2      HCL      0.330000       1.00800           0
     20278 MEMB     163      PMPE     HN3      HCL      0.330000       1.00800           0
     20279 MEMB     163      PMPE     C12      CTL2     0.130000       12.0110           0
     20280 MEMB     163      PMPE     H12A     HAL2     0.900000E-01   1.00800           0
     20281 MEMB     163      PMPE     H12B     HAL2     0.900000E-01   1.00800           0
     20282 MEMB     163      PMPE     C11      CTL2    -0.800000E-01   12.0110           0
     20283 MEMB     163      PMPE     H11A     HAL2     0.900000E-01   1.00800           0
     20284 MEMB     163      PMPE     H11B     HAL2     0.900000E-01   1.00800           0
     20285 MEMB     163      PMPE     P        PL        1.50000       30.9740           0
     20286 MEMB     163      PMPE     O13      O2L     -0.780000       15.9994           0
     20287 MEMB     163      PMPE     O14      O2L     -0.780000       15.9994           0
     20288 MEMB     163      PMPE     O11      OSLP    -0.570000       15.9994           0
     20289 MEMB     163      PMPE     O12      OSLP    -0.570000       15.9994           0
     20290 MEMB     163      PMPE     C1       CTL2    -0.800000E-01   12.0110           0
     20291 MEMB     163      PMPE     HA       HAL2     0.900000E-01   1.00800           0
     20292 MEMB     163      PMPE     HB       HAL2     0.900000E-01   1.00800           0
     20293 MEMB     163      PMPE     C2       CTL1     0.170000       12.0110           0
     20294 MEMB     163      PMPE     HS       HAL1     0.900000E-01   1.00800           0
     20295 MEMB     163      PMPE     O21      OSL     -0.490000       15.9994           0
     20296 MEMB     163      PMPE     C21      CL       0.900000       12.0110           0
     20297 MEMB     163      PMPE     O22      OBL     -0.630000       15.9994           0
     20298 MEMB     163      PMPE     C22      CTL2    -0.220000       12.0110           0
     20299 MEMB     163      PMPE     H2R      HAL2     0.900000E-01   1.00800           0
     20300 MEMB     163      PMPE     H2S      HAL2     0.900000E-01   1.00800           0
     20301 MEMB     163      PMPE     C3       CTL2     0.800000E-01   12.0110           0
     20302 MEMB     163      PMPE     HX       HAL2     0.900000E-01   1.00800           0
     20303 MEMB     163      PMPE     HY       HAL2     0.900000E-01   1.00800           0
     20304 MEMB     163      PMPE     O31      OSL     -0.490000       15.9994           0
     20305 MEMB     163      PMPE     C31      CL       0.900000       12.0110           0
     20306 MEMB     163      PMPE     O32      OBL     -0.630000       15.9994           0
     20307 MEMB     163      PMPE     C32      CTL2    -0.220000       12.0110           0
     20308 MEMB     163      PMPE     H2X      HAL2     0.900000E-01   1.00800           0
     20309 MEMB     163      PMPE     H2Y      HAL2     0.900000E-01   1.00800           0
     20310 MEMB     163      PMPE     C23      CTL2    -0.180000       12.0110           0
     20311 MEMB     163      PMPE     H3R      HAL2     0.900000E-01   1.00800           0
     20312 MEMB     163      PMPE     H3S      HAL2     0.900000E-01   1.00800           0
     20313 MEMB     163      PMPE     C24      CTL2    -0.180000       12.0110           0
     20314 MEMB     163      PMPE     H4R      HAL2     0.900000E-01   1.00800           0
     20315 MEMB     163      PMPE     H4S      HAL2     0.900000E-01   1.00800           0
     20316 MEMB     163      PMPE     C25      CTL2    -0.180000       12.0110           0
     20317 MEMB     163      PMPE     H5R      HAL2     0.900000E-01   1.00800           0
     20318 MEMB     163      PMPE     H5S      HAL2     0.900000E-01   1.00800           0
     20319 MEMB     163      PMPE     C26      CTL2    -0.180000       12.0110           0
     20320 MEMB     163      PMPE     H6R      HAL2     0.900000E-01   1.00800           0
     20321 MEMB     163      PMPE     H6S      HAL2     0.900000E-01   1.00800           0
     20322 MEMB     163      PMPE     C27      CTL2    -0.180000       12.0110           0
     20323 MEMB     163      PMPE     H7R      HAL2     0.900000E-01   1.00800           0
     20324 MEMB     163      PMPE     H7S      HAL2     0.900000E-01   1.00800           0
     20325 MEMB     163      PMPE     C28      CTL2    -0.180000       12.0110           0
     20326 MEMB     163      PMPE     H8R      HAL2     0.900000E-01   1.00800           0
     20327 MEMB     163      PMPE     H8S      HAL2     0.900000E-01   1.00800           0
     20328 MEMB     163      PMPE     C29      CG3RC1  -0.900000E-01   12.0110           0
     20329 MEMB     163      PMPE     H9R      HGA1     0.900000E-01   1.00800           0
     20330 MEMB     163      PMPE     C217     CG3C31  -0.180000       12.0110           0
     20331 MEMB     163      PMPE     H17R     HGA2     0.900000E-01   1.00800           0
     20332 MEMB     163      PMPE     H17S     HGA2     0.900000E-01   1.00800           0
     20333 MEMB     163      PMPE     C210     CG3RC1  -0.900000E-01   12.0110           0
     20334 MEMB     163      PMPE     H10R     HGA1     0.900000E-01   1.00800           0
     20335 MEMB     163      PMPE     C211     CTL2    -0.180000       12.0110           0
     20336 MEMB     163      PMPE     H11R     HAL2     0.900000E-01   1.00800           0
     20337 MEMB     163      PMPE     H11S     HAL2     0.900000E-01   1.00800           0
     20338 MEMB     163      PMPE     C212     CTL2    -0.180000       12.0110           0
     20339 MEMB     163      PMPE     H12R     HAL2     0.900000E-01   1.00800           0
     20340 MEMB     163      PMPE     H12S     HAL2     0.900000E-01   1.00800           0
     20341 MEMB     163      PMPE     C213     CTL2    -0.180000       12.0110           0
     20342 MEMB     163      PMPE     H13R     HAL2     0.900000E-01   1.00800           0
     20343 MEMB     163      PMPE     H13S     HAL2     0.900000E-01   1.00800           0
     20344 MEMB     163      PMPE     C214     CTL2    -0.180000       12.0110           0
     20345 MEMB     163      PMPE     H14R     HAL2     0.900000E-01   1.00800           0
     20346 MEMB     163      PMPE     H14S     HAL2     0.900000E-01   1.00800           0
     20347 MEMB     163      PMPE     C215     CTL2    -0.180000       12.0110           0
     20348 MEMB     163      PMPE     H15R     HAL2     0.900000E-01   1.00800           0
     20349 MEMB     163      PMPE     H15S     HAL2     0.900000E-01   1.00800           0
     20350 MEMB     163      PMPE     C216     CTL3    -0.270000       12.0110           0
     20351 MEMB     163      PMPE     H16R     HAL3     0.900000E-01   1.00800           0
     20352 MEMB     163      PMPE     H16S     HAL3     0.900000E-01   1.00800           0
     20353 MEMB     163      PMPE     H16T     HAL3     0.900000E-01   1.00800           0
     20354 MEMB     163      PMPE     C33      CTL2    -0.180000       12.0110           0
     20355 MEMB     163      PMPE     H3X      HAL2     0.900000E-01   1.00800           0
     20356 MEMB     163      PMPE     H3Y      HAL2     0.900000E-01   1.00800           0
     20357 MEMB     163      PMPE     C34      CTL2    -0.180000       12.0110           0
     20358 MEMB     163      PMPE     H4X      HAL2     0.900000E-01   1.00800           0
     20359 MEMB     163      PMPE     H4Y      HAL2     0.900000E-01   1.00800           0
     20360 MEMB     163      PMPE     C35      CTL2    -0.180000       12.0110           0
     20361 MEMB     163      PMPE     H5X      HAL2     0.900000E-01   1.00800           0
     20362 MEMB     163      PMPE     H5Y      HAL2     0.900000E-01   1.00800           0
     20363 MEMB     163      PMPE     C36      CTL2    -0.180000       12.0110           0
     20364 MEMB     163      PMPE     H6X      HAL2     0.900000E-01   1.00800           0
     20365 MEMB     163      PMPE     H6Y      HAL2     0.900000E-01   1.00800           0
     20366 MEMB     163      PMPE     C37      CTL2    -0.180000       12.0110           0
     20367 MEMB     163      PMPE     H7X      HAL2     0.900000E-01   1.00800           0
     20368 MEMB     163      PMPE     H7Y      HAL2     0.900000E-01   1.00800           0
     20369 MEMB     163      PMPE     C38      CTL2    -0.180000       12.0110           0
     20370 MEMB     163      PMPE     H8X      HAL2     0.900000E-01   1.00800           0
     20371 MEMB     163      PMPE     H8Y      HAL2     0.900000E-01   1.00800           0
     20372 MEMB     163      PMPE     C39      CTL2    -0.180000       12.0110           0
     20373 MEMB     163      PMPE     H9X      HAL2     0.900000E-01   1.00800           0
     20374 MEMB     163      PMPE     H9Y      HAL2     0.900000E-01   1.00800           0
     20375 MEMB     163      PMPE     C310     CTL2    -0.180000       12.0110           0
     20376 MEMB     163      PMPE     H10X     HAL2     0.900000E-01   1.00800           0
     20377 MEMB     163      PMPE     H10Y     HAL2     0.900000E-01   1.00800           0
     20378 MEMB     163      PMPE     C311     CTL2    -0.180000       12.0110           0
     20379 MEMB     163      PMPE     H11X     HAL2     0.900000E-01   1.00800           0
     20380 MEMB     163      PMPE     H11Y     HAL2     0.900000E-01   1.00800           0
     20381 MEMB     163      PMPE     C312     CTL2    -0.180000       12.0110           0
     20382 MEMB     163      PMPE     H12X     HAL2     0.900000E-01   1.00800           0
     20383 MEMB     163      PMPE     H12Y     HAL2     0.900000E-01   1.00800           0
     20384 MEMB     163      PMPE     C313     CTL2    -0.180000       12.0110           0
     20385 MEMB     163      PMPE     H13X     HAL2     0.900000E-01   1.00800           0
     20386 MEMB     163      PMPE     H13Y     HAL2     0.900000E-01   1.00800           0
     20387 MEMB     163      PMPE     C314     CTL2    -0.180000       12.0110           0
     20388 MEMB     163      PMPE     H14X     HAL2     0.900000E-01   1.00800           0
     20389 MEMB     163      PMPE     H14Y     HAL2     0.900000E-01   1.00800           0
     20390 MEMB     163      PMPE     C315     CTL2    -0.180000       12.0110           0
     20391 MEMB     163      PMPE     H15X     HAL2     0.900000E-01   1.00800           0
     20392 MEMB     163      PMPE     H15Y     HAL2     0.900000E-01   1.00800           0
     20393 MEMB     163      PMPE     C316     CTL3    -0.270000       12.0110           0
     20394 MEMB     163      PMPE     H16X     HAL3     0.900000E-01   1.00800           0
     20395 MEMB     163      PMPE     H16Y     HAL3     0.900000E-01   1.00800           0
     20396 MEMB     163      PMPE     H16Z     HAL3     0.900000E-01   1.00800           0
     20397 MEMB     164      PMPE     N        NH3L    -0.300000       14.0070           0
     20398 MEMB     164      PMPE     HN1      HCL      0.330000       1.00800           0
     20399 MEMB     164      PMPE     HN2      HCL      0.330000       1.00800           0
     20400 MEMB     164      PMPE     HN3      HCL      0.330000       1.00800           0
     20401 MEMB     164      PMPE     C12      CTL2     0.130000       12.0110           0
     20402 MEMB     164      PMPE     H12A     HAL2     0.900000E-01   1.00800           0
     20403 MEMB     164      PMPE     H12B     HAL2     0.900000E-01   1.00800           0
     20404 MEMB     164      PMPE     C11      CTL2    -0.800000E-01   12.0110           0
     20405 MEMB     164      PMPE     H11A     HAL2     0.900000E-01   1.00800           0
     20406 MEMB     164      PMPE     H11B     HAL2     0.900000E-01   1.00800           0
     20407 MEMB     164      PMPE     P        PL        1.50000       30.9740           0
     20408 MEMB     164      PMPE     O13      O2L     -0.780000       15.9994           0
     20409 MEMB     164      PMPE     O14      O2L     -0.780000       15.9994           0
     20410 MEMB     164      PMPE     O11      OSLP    -0.570000       15.9994           0
     20411 MEMB     164      PMPE     O12      OSLP    -0.570000       15.9994           0
     20412 MEMB     164      PMPE     C1       CTL2    -0.800000E-01   12.0110           0
     20413 MEMB     164      PMPE     HA       HAL2     0.900000E-01   1.00800           0
     20414 MEMB     164      PMPE     HB       HAL2     0.900000E-01   1.00800           0
     20415 MEMB     164      PMPE     C2       CTL1     0.170000       12.0110           0
     20416 MEMB     164      PMPE     HS       HAL1     0.900000E-01   1.00800           0
     20417 MEMB     164      PMPE     O21      OSL     -0.490000       15.9994           0
     20418 MEMB     164      PMPE     C21      CL       0.900000       12.0110           0
     20419 MEMB     164      PMPE     O22      OBL     -0.630000       15.9994           0
     20420 MEMB     164      PMPE     C22      CTL2    -0.220000       12.0110           0
     20421 MEMB     164      PMPE     H2R      HAL2     0.900000E-01   1.00800           0
     20422 MEMB     164      PMPE     H2S      HAL2     0.900000E-01   1.00800           0
     20423 MEMB     164      PMPE     C3       CTL2     0.800000E-01   12.0110           0
     20424 MEMB     164      PMPE     HX       HAL2     0.900000E-01   1.00800           0
     20425 MEMB     164      PMPE     HY       HAL2     0.900000E-01   1.00800           0
     20426 MEMB     164      PMPE     O31      OSL     -0.490000       15.9994           0
     20427 MEMB     164      PMPE     C31      CL       0.900000       12.0110           0
     20428 MEMB     164      PMPE     O32      OBL     -0.630000       15.9994           0
     20429 MEMB     164      PMPE     C32      CTL2    -0.220000       12.0110           0
     20430 MEMB     164      PMPE     H2X      HAL2     0.900000E-01   1.00800           0
     20431 MEMB     164      PMPE     H2Y      HAL2     0.900000E-01   1.00800           0
     20432 MEMB     164      PMPE     C23      CTL2    -0.180000       12.0110           0
     20433 MEMB     164      PMPE     H3R      HAL2     0.900000E-01   1.00800           0
     20434 MEMB     164      PMPE     H3S      HAL2     0.900000E-01   1.00800           0
     20435 MEMB     164      PMPE     C24      CTL2    -0.180000       12.0110           0
     20436 MEMB     164      PMPE     H4R      HAL2     0.900000E-01   1.00800           0
     20437 MEMB     164      PMPE     H4S      HAL2     0.900000E-01   1.00800           0
     20438 MEMB     164      PMPE     C25      CTL2    -0.180000       12.0110           0
     20439 MEMB     164      PMPE     H5R      HAL2     0.900000E-01   1.00800           0
     20440 MEMB     164      PMPE     H5S      HAL2     0.900000E-01   1.00800           0
     20441 MEMB     164      PMPE     C26      CTL2    -0.180000       12.0110           0
     20442 MEMB     164      PMPE     H6R      HAL2     0.900000E-01   1.00800           0
     20443 MEMB     164      PMPE     H6S      HAL2     0.900000E-01   1.00800           0
     20444 MEMB     164      PMPE     C27      CTL2    -0.180000       12.0110           0
     20445 MEMB     164      PMPE     H7R      HAL2     0.900000E-01   1.00800           0
     20446 MEMB     164      PMPE     H7S      HAL2     0.900000E-01   1.00800           0
     20447 MEMB     164      PMPE     C28      CTL2    -0.180000       12.0110           0
     20448 MEMB     164      PMPE     H8R      HAL2     0.900000E-01   1.00800           0
     20449 MEMB     164      PMPE     H8S      HAL2     0.900000E-01   1.00800           0
     20450 MEMB     164      PMPE     C29      CG3RC1  -0.900000E-01   12.0110           0
     20451 MEMB     164      PMPE     H9R      HGA1     0.900000E-01   1.00800           0
     20452 MEMB     164      PMPE     C217     CG3C31  -0.180000       12.0110           0
     20453 MEMB     164      PMPE     H17R     HGA2     0.900000E-01   1.00800           0
     20454 MEMB     164      PMPE     H17S     HGA2     0.900000E-01   1.00800           0
     20455 MEMB     164      PMPE     C210     CG3RC1  -0.900000E-01   12.0110           0
     20456 MEMB     164      PMPE     H10R     HGA1     0.900000E-01   1.00800           0
     20457 MEMB     164      PMPE     C211     CTL2    -0.180000       12.0110           0
     20458 MEMB     164      PMPE     H11R     HAL2     0.900000E-01   1.00800           0
     20459 MEMB     164      PMPE     H11S     HAL2     0.900000E-01   1.00800           0
     20460 MEMB     164      PMPE     C212     CTL2    -0.180000       12.0110           0
     20461 MEMB     164      PMPE     H12R     HAL2     0.900000E-01   1.00800           0
     20462 MEMB     164      PMPE     H12S     HAL2     0.900000E-01   1.00800           0
     20463 MEMB     164      PMPE     C213     CTL2    -0.180000       12.0110           0
     20464 MEMB     164      PMPE     H13R     HAL2     0.900000E-01   1.00800           0
     20465 MEMB     164      PMPE     H13S     HAL2     0.900000E-01   1.00800           0
     20466 MEMB     164      PMPE     C214     CTL2    -0.180000       12.0110           0
     20467 MEMB     164      PMPE     H14R     HAL2     0.900000E-01   1.00800           0
     20468 MEMB     164      PMPE     H14S     HAL2     0.900000E-01   1.00800           0
     20469 MEMB     164      PMPE     C215     CTL2    -0.180000       12.0110           0
     20470 MEMB     164      PMPE     H15R     HAL2     0.900000E-01   1.00800           0
     20471 MEMB     164      PMPE     H15S     HAL2     0.900000E-01   1.00800           0
     20472 MEMB     164      PMPE     C216     CTL3    -0.270000       12.0110           0
     20473 MEMB     164      PMPE     H16R     HAL3     0.900000E-01   1.00800           0
     20474 MEMB     164      PMPE     H16S     HAL3     0.900000E-01   1.00800           0
     20475 MEMB     164      PMPE     H16T     HAL3     0.900000E-01   1.00800           0
     20476 MEMB     164      PMPE     C33      CTL2    -0.180000       12.0110           0
     20477 MEMB     164      PMPE     H3X      HAL2     0.900000E-01   1.00800           0
     20478 MEMB     164      PMPE     H3Y      HAL2     0.900000E-01   1.00800           0
     20479 MEMB     164      PMPE     C34      CTL2    -0.180000       12.0110           0
     20480 MEMB     164      PMPE     H4X      HAL2     0.900000E-01   1.00800           0
     20481 MEMB     164      PMPE     H4Y      HAL2     0.900000E-01   1.00800           0
     20482 MEMB     164      PMPE     C35      CTL2    -0.180000       12.0110           0
     20483 MEMB     164      PMPE     H5X      HAL2     0.900000E-01   1.00800           0
     20484 MEMB     164      PMPE     H5Y      HAL2     0.900000E-01   1.00800           0
     20485 MEMB     164      PMPE     C36      CTL2    -0.180000       12.0110           0
     20486 MEMB     164      PMPE     H6X      HAL2     0.900000E-01   1.00800           0
     20487 MEMB     164      PMPE     H6Y      HAL2     0.900000E-01   1.00800           0
     20488 MEMB     164      PMPE     C37      CTL2    -0.180000       12.0110           0
     20489 MEMB     164      PMPE     H7X      HAL2     0.900000E-01   1.00800           0
     20490 MEMB     164      PMPE     H7Y      HAL2     0.900000E-01   1.00800           0
     20491 MEMB     164      PMPE     C38      CTL2    -0.180000       12.0110           0
     20492 MEMB     164      PMPE     H8X      HAL2     0.900000E-01   1.00800           0
     20493 MEMB     164      PMPE     H8Y      HAL2     0.900000E-01   1.00800           0
     20494 MEMB     164      PMPE     C39      CTL2    -0.180000       12.0110           0
     20495 MEMB     164      PMPE     H9X      HAL2     0.900000E-01   1.00800           0
     20496 MEMB     164      PMPE     H9Y      HAL2     0.900000E-01   1.00800           0
     20497 MEMB     164      PMPE     C310     CTL2    -0.180000       12.0110           0
     20498 MEMB     164      PMPE     H10X     HAL2     0.900000E-01   1.00800           0
     20499 MEMB     164      PMPE     H10Y     HAL2     0.900000E-01   1.00800           0
     20500 MEMB     164      PMPE     C311     CTL2    -0.180000       12.0110           0
     20501 MEMB     164      PMPE     H11X     HAL2     0.900000E-01   1.00800           0
     20502 MEMB     164      PMPE     H11Y     HAL2     0.900000E-01   1.00800           0
     20503 MEMB     164      PMPE     C312     CTL2    -0.180000       12.0110           0
     20504 MEMB     164      PMPE     H12X     HAL2     0.900000E-01   1.00800           0
     20505 MEMB     164      PMPE     H12Y     HAL2     0.900000E-01   1.00800           0
     20506 MEMB     164      PMPE     C313     CTL2    -0.180000       12.0110           0
     20507 MEMB     164      PMPE     H13X     HAL2     0.900000E-01   1.00800           0
     20508 MEMB     164      PMPE     H13Y     HAL2     0.900000E-01   1.00800           0
     20509 MEMB     164      PMPE     C314     CTL2    -0.180000       12.0110           0
     20510 MEMB     164      PMPE     H14X     HAL2     0.900000E-01   1.00800           0
     20511 MEMB     164      PMPE     H14Y     HAL2     0.900000E-01   1.00800           0
     20512 MEMB     164      PMPE     C315     CTL2    -0.180000       12.0110           0
     20513 MEMB     164      PMPE     H15X     HAL2     0.900000E-01   1.00800           0
     20514 MEMB     164      PMPE     H15Y     HAL2     0.900000E-01   1.00800           0
     20515 MEMB     164      PMPE     C316     CTL3    -0.270000       12.0110           0
     20516 MEMB     164      PMPE     H16X     HAL3     0.900000E-01   1.00800           0
     20517 MEMB     164      PMPE     H16Y     HAL3     0.900000E-01   1.00800           0
     20518 MEMB     164      PMPE     H16Z     HAL3     0.900000E-01   1.00800           0
     20519 MEMB     165      PMPE     N        NH3L    -0.300000       14.0070           0
     20520 MEMB     165      PMPE     HN1      HCL      0.330000       1.00800           0
     20521 MEMB     165      PMPE     HN2      HCL      0.330000       1.00800           0
     20522 MEMB     165      PMPE     HN3      HCL      0.330000       1.00800           0
     20523 MEMB     165      PMPE     C12      CTL2     0.130000       12.0110           0
     20524 MEMB     165      PMPE     H12A     HAL2     0.900000E-01   1.00800           0
     20525 MEMB     165      PMPE     H12B     HAL2     0.900000E-01   1.00800           0
     20526 MEMB     165      PMPE     C11      CTL2    -0.800000E-01   12.0110           0
     20527 MEMB     165      PMPE     H11A     HAL2     0.900000E-01   1.00800           0
     20528 MEMB     165      PMPE     H11B     HAL2     0.900000E-01   1.00800           0
     20529 MEMB     165      PMPE     P        PL        1.50000       30.9740           0
     20530 MEMB     165      PMPE     O13      O2L     -0.780000       15.9994           0
     20531 MEMB     165      PMPE     O14      O2L     -0.780000       15.9994           0
     20532 MEMB     165      PMPE     O11      OSLP    -0.570000       15.9994           0
     20533 MEMB     165      PMPE     O12      OSLP    -0.570000       15.9994           0
     20534 MEMB     165      PMPE     C1       CTL2    -0.800000E-01   12.0110           0
     20535 MEMB     165      PMPE     HA       HAL2     0.900000E-01   1.00800           0
     20536 MEMB     165      PMPE     HB       HAL2     0.900000E-01   1.00800           0
     20537 MEMB     165      PMPE     C2       CTL1     0.170000       12.0110           0
     20538 MEMB     165      PMPE     HS       HAL1     0.900000E-01   1.00800           0
     20539 MEMB     165      PMPE     O21      OSL     -0.490000       15.9994           0
     20540 MEMB     165      PMPE     C21      CL       0.900000       12.0110           0
     20541 MEMB     165      PMPE     O22      OBL     -0.630000       15.9994           0
     20542 MEMB     165      PMPE     C22      CTL2    -0.220000       12.0110           0
     20543 MEMB     165      PMPE     H2R      HAL2     0.900000E-01   1.00800           0
     20544 MEMB     165      PMPE     H2S      HAL2     0.900000E-01   1.00800           0
     20545 MEMB     165      PMPE     C3       CTL2     0.800000E-01   12.0110           0
     20546 MEMB     165      PMPE     HX       HAL2     0.900000E-01   1.00800           0
     20547 MEMB     165      PMPE     HY       HAL2     0.900000E-01   1.00800           0
     20548 MEMB     165      PMPE     O31      OSL     -0.490000       15.9994           0
     20549 MEMB     165      PMPE     C31      CL       0.900000       12.0110           0
     20550 MEMB     165      PMPE     O32      OBL     -0.630000       15.9994           0
     20551 MEMB     165      PMPE     C32      CTL2    -0.220000       12.0110           0
     20552 MEMB     165      PMPE     H2X      HAL2     0.900000E-01   1.00800           0
     20553 MEMB     165      PMPE     H2Y      HAL2     0.900000E-01   1.00800           0
     20554 MEMB     165      PMPE     C23      CTL2    -0.180000       12.0110           0
     20555 MEMB     165      PMPE     H3R      HAL2     0.900000E-01   1.00800           0
     20556 MEMB     165      PMPE     H3S      HAL2     0.900000E-01   1.00800           0
     20557 MEMB     165      PMPE     C24      CTL2    -0.180000       12.0110           0
     20558 MEMB     165      PMPE     H4R      HAL2     0.900000E-01   1.00800           0
     20559 MEMB     165      PMPE     H4S      HAL2     0.900000E-01   1.00800           0
     20560 MEMB     165      PMPE     C25      CTL2    -0.180000       12.0110           0
     20561 MEMB     165      PMPE     H5R      HAL2     0.900000E-01   1.00800           0
     20562 MEMB     165      PMPE     H5S      HAL2     0.900000E-01   1.00800           0
     20563 MEMB     165      PMPE     C26      CTL2    -0.180000       12.0110           0
     20564 MEMB     165      PMPE     H6R      HAL2     0.900000E-01   1.00800           0
     20565 MEMB     165      PMPE     H6S      HAL2     0.900000E-01   1.00800           0
     20566 MEMB     165      PMPE     C27      CTL2    -0.180000       12.0110           0
     20567 MEMB     165      PMPE     H7R      HAL2     0.900000E-01   1.00800           0
     20568 MEMB     165      PMPE     H7S      HAL2     0.900000E-01   1.00800           0
     20569 MEMB     165      PMPE     C28      CTL2    -0.180000       12.0110           0
     20570 MEMB     165      PMPE     H8R      HAL2     0.900000E-01   1.00800           0
     20571 MEMB     165      PMPE     H8S      HAL2     0.900000E-01   1.00800           0
     20572 MEMB     165      PMPE     C29      CG3RC1  -0.900000E-01   12.0110           0
     20573 MEMB     165      PMPE     H9R      HGA1     0.900000E-01   1.00800           0
     20574 MEMB     165      PMPE     C217     CG3C31  -0.180000       12.0110           0
     20575 MEMB     165      PMPE     H17R     HGA2     0.900000E-01   1.00800           0
     20576 MEMB     165      PMPE     H17S     HGA2     0.900000E-01   1.00800           0
     20577 MEMB     165      PMPE     C210     CG3RC1  -0.900000E-01   12.0110           0
     20578 MEMB     165      PMPE     H10R     HGA1     0.900000E-01   1.00800           0
     20579 MEMB     165      PMPE     C211     CTL2    -0.180000       12.0110           0
     20580 MEMB     165      PMPE     H11R     HAL2     0.900000E-01   1.00800           0
     20581 MEMB     165      PMPE     H11S     HAL2     0.900000E-01   1.00800           0
     20582 MEMB     165      PMPE     C212     CTL2    -0.180000       12.0110           0
     20583 MEMB     165      PMPE     H12R     HAL2     0.900000E-01   1.00800           0
     20584 MEMB     165      PMPE     H12S     HAL2     0.900000E-01   1.00800           0
     20585 MEMB     165      PMPE     C213     CTL2    -0.180000       12.0110           0
     20586 MEMB     165      PMPE     H13R     HAL2     0.900000E-01   1.00800           0
     20587 MEMB     165      PMPE     H13S     HAL2     0.900000E-01   1.00800           0
     20588 MEMB     165      PMPE     C214     CTL2    -0.180000       12.0110           0
     20589 MEMB     165      PMPE     H14R     HAL2     0.900000E-01   1.00800           0
     20590 MEMB     165      PMPE     H14S     HAL2     0.900000E-01   1.00800           0
     20591 MEMB     165      PMPE     C215     CTL2    -0.180000       12.0110           0
     20592 MEMB     165      PMPE     H15R     HAL2     0.900000E-01   1.00800           0
     20593 MEMB     165      PMPE     H15S     HAL2     0.900000E-01   1.00800           0
     20594 MEMB     165      PMPE     C216     CTL3    -0.270000       12.0110           0
     20595 MEMB     165      PMPE     H16R     HAL3     0.900000E-01   1.00800           0
     20596 MEMB     165      PMPE     H16S     HAL3     0.900000E-01   1.00800           0
     20597 MEMB     165      PMPE     H16T     HAL3     0.900000E-01   1.00800           0
     20598 MEMB     165      PMPE     C33      CTL2    -0.180000       12.0110           0
     20599 MEMB     165      PMPE     H3X      HAL2     0.900000E-01   1.00800           0
     20600 MEMB     165      PMPE     H3Y      HAL2     0.900000E-01   1.00800           0
     20601 MEMB     165      PMPE     C34      CTL2    -0.180000       12.0110           0
     20602 MEMB     165      PMPE     H4X      HAL2     0.900000E-01   1.00800           0
     20603 MEMB     165      PMPE     H4Y      HAL2     0.900000E-01   1.00800           0
     20604 MEMB     165      PMPE     C35      CTL2    -0.180000       12.0110           0
     20605 MEMB     165      PMPE     H5X      HAL2     0.900000E-01   1.00800           0
     20606 MEMB     165      PMPE     H5Y      HAL2     0.900000E-01   1.00800           0
     20607 MEMB     165      PMPE     C36      CTL2    -0.180000       12.0110           0
     20608 MEMB     165      PMPE     H6X      HAL2     0.900000E-01   1.00800           0
     20609 MEMB     165      PMPE     H6Y      HAL2     0.900000E-01   1.00800           0
     20610 MEMB     165      PMPE     C37      CTL2    -0.180000       12.0110           0
     20611 MEMB     165      PMPE     H7X      HAL2     0.900000E-01   1.00800           0
     20612 MEMB     165      PMPE     H7Y      HAL2     0.900000E-01   1.00800           0
     20613 MEMB     165      PMPE     C38      CTL2    -0.180000       12.0110           0
     20614 MEMB     165      PMPE     H8X      HAL2     0.900000E-01   1.00800           0
     20615 MEMB     165      PMPE     H8Y      HAL2     0.900000E-01   1.00800           0
     20616 MEMB     165      PMPE     C39      CTL2    -0.180000       12.0110           0
     20617 MEMB     165      PMPE     H9X      HAL2     0.900000E-01   1.00800           0
     20618 MEMB     165      PMPE     H9Y      HAL2     0.900000E-01   1.00800           0
     20619 MEMB     165      PMPE     C310     CTL2    -0.180000       12.0110           0
     20620 MEMB     165      PMPE     H10X     HAL2     0.900000E-01   1.00800           0
     20621 MEMB     165      PMPE     H10Y     HAL2     0.900000E-01   1.00800           0
     20622 MEMB     165      PMPE     C311     CTL2    -0.180000       12.0110           0
     20623 MEMB     165      PMPE     H11X     HAL2     0.900000E-01   1.00800           0
     20624 MEMB     165      PMPE     H11Y     HAL2     0.900000E-01   1.00800           0
     20625 MEMB     165      PMPE     C312     CTL2    -0.180000       12.0110           0
     20626 MEMB     165      PMPE     H12X     HAL2     0.900000E-01   1.00800           0
     20627 MEMB     165      PMPE     H12Y     HAL2     0.900000E-01   1.00800           0
     20628 MEMB     165      PMPE     C313     CTL2    -0.180000       12.0110           0
     20629 MEMB     165      PMPE     H13X     HAL2     0.900000E-01   1.00800           0
     20630 MEMB     165      PMPE     H13Y     HAL2     0.900000E-01   1.00800           0
     20631 MEMB     165      PMPE     C314     CTL2    -0.180000       12.0110           0
     20632 MEMB     165      PMPE     H14X     HAL2     0.900000E-01   1.00800           0
     20633 MEMB     165      PMPE     H14Y     HAL2     0.900000E-01   1.00800           0
     20634 MEMB     165      PMPE     C315     CTL2    -0.180000       12.0110           0
     20635 MEMB     165      PMPE     H15X     HAL2     0.900000E-01   1.00800           0
     20636 MEMB     165      PMPE     H15Y     HAL2     0.900000E-01   1.00800           0
     20637 MEMB     165      PMPE     C316     CTL3    -0.270000       12.0110           0
     20638 MEMB     165      PMPE     H16X     HAL3     0.900000E-01   1.00800           0
     20639 MEMB     165      PMPE     H16Y     HAL3     0.900000E-01   1.00800           0
     20640 MEMB     165      PMPE     H16Z     HAL3     0.900000E-01   1.00800           0
     20641 MEMB     166      PMPE     N        NH3L    -0.300000       14.0070           0
     20642 MEMB     166      PMPE     HN1      HCL      0.330000       1.00800           0
     20643 MEMB     166      PMPE     HN2      HCL      0.330000       1.00800           0
     20644 MEMB     166      PMPE     HN3      HCL      0.330000       1.00800           0
     20645 MEMB     166      PMPE     C12      CTL2     0.130000       12.0110           0
     20646 MEMB     166      PMPE     H12A     HAL2     0.900000E-01   1.00800           0
     20647 MEMB     166      PMPE     H12B     HAL2     0.900000E-01   1.00800           0
     20648 MEMB     166      PMPE     C11      CTL2    -0.800000E-01   12.0110           0
     20649 MEMB     166      PMPE     H11A     HAL2     0.900000E-01   1.00800           0
     20650 MEMB     166      PMPE     H11B     HAL2     0.900000E-01   1.00800           0
     20651 MEMB     166      PMPE     P        PL        1.50000       30.9740           0
     20652 MEMB     166      PMPE     O13      O2L     -0.780000       15.9994           0
     20653 MEMB     166      PMPE     O14      O2L     -0.780000       15.9994           0
     20654 MEMB     166      PMPE     O11      OSLP    -0.570000       15.9994           0
     20655 MEMB     166      PMPE     O12      OSLP    -0.570000       15.9994           0
     20656 MEMB     166      PMPE     C1       CTL2    -0.800000E-01   12.0110           0
     20657 MEMB     166      PMPE     HA       HAL2     0.900000E-01   1.00800           0
     20658 MEMB     166      PMPE     HB       HAL2     0.900000E-01   1.00800           0
     20659 MEMB     166      PMPE     C2       CTL1     0.170000       12.0110           0
     20660 MEMB     166      PMPE     HS       HAL1     0.900000E-01   1.00800           0
     20661 MEMB     166      PMPE     O21      OSL     -0.490000       15.9994           0
     20662 MEMB     166      PMPE     C21      CL       0.900000       12.0110           0
     20663 MEMB     166      PMPE     O22      OBL     -0.630000       15.9994           0
     20664 MEMB     166      PMPE     C22      CTL2    -0.220000       12.0110           0
     20665 MEMB     166      PMPE     H2R      HAL2     0.900000E-01   1.00800           0
     20666 MEMB     166      PMPE     H2S      HAL2     0.900000E-01   1.00800           0
     20667 MEMB     166      PMPE     C3       CTL2     0.800000E-01   12.0110           0
     20668 MEMB     166      PMPE     HX       HAL2     0.900000E-01   1.00800           0
     20669 MEMB     166      PMPE     HY       HAL2     0.900000E-01   1.00800           0
     20670 MEMB     166      PMPE     O31      OSL     -0.490000       15.9994           0
     20671 MEMB     166      PMPE     C31      CL       0.900000       12.0110           0
     20672 MEMB     166      PMPE     O32      OBL     -0.630000       15.9994           0
     20673 MEMB     166      PMPE     C32      CTL2    -0.220000       12.0110           0
     20674 MEMB     166      PMPE     H2X      HAL2     0.900000E-01   1.00800           0
     20675 MEMB     166      PMPE     H2Y      HAL2     0.900000E-01   1.00800           0
     20676 MEMB     166      PMPE     C23      CTL2    -0.180000       12.0110           0
     20677 MEMB     166      PMPE     H3R      HAL2     0.900000E-01   1.00800           0
     20678 MEMB     166      PMPE     H3S      HAL2     0.900000E-01   1.00800           0
     20679 MEMB     166      PMPE     C24      CTL2    -0.180000       12.0110           0
     20680 MEMB     166      PMPE     H4R      HAL2     0.900000E-01   1.00800           0
     20681 MEMB     166      PMPE     H4S      HAL2     0.900000E-01   1.00800           0
     20682 MEMB     166      PMPE     C25      CTL2    -0.180000       12.0110           0
     20683 MEMB     166      PMPE     H5R      HAL2     0.900000E-01   1.00800           0
     20684 MEMB     166      PMPE     H5S      HAL2     0.900000E-01   1.00800           0
     20685 MEMB     166      PMPE     C26      CTL2    -0.180000       12.0110           0
     20686 MEMB     166      PMPE     H6R      HAL2     0.900000E-01   1.00800           0
     20687 MEMB     166      PMPE     H6S      HAL2     0.900000E-01   1.00800           0
     20688 MEMB     166      PMPE     C27      CTL2    -0.180000       12.0110           0
     20689 MEMB     166      PMPE     H7R      HAL2     0.900000E-01   1.00800           0
     20690 MEMB     166      PMPE     H7S      HAL2     0.900000E-01   1.00800           0
     20691 MEMB     166      PMPE     C28      CTL2    -0.180000       12.0110           0
     20692 MEMB     166      PMPE     H8R      HAL2     0.900000E-01   1.00800           0
     20693 MEMB     166      PMPE     H8S      HAL2     0.900000E-01   1.00800           0
     20694 MEMB     166      PMPE     C29      CG3RC1  -0.900000E-01   12.0110           0
     20695 MEMB     166      PMPE     H9R      HGA1     0.900000E-01   1.00800           0
     20696 MEMB     166      PMPE     C217     CG3C31  -0.180000       12.0110           0
     20697 MEMB     166      PMPE     H17R     HGA2     0.900000E-01   1.00800           0
     20698 MEMB     166      PMPE     H17S     HGA2     0.900000E-01   1.00800           0
     20699 MEMB     166      PMPE     C210     CG3RC1  -0.900000E-01   12.0110           0
     20700 MEMB     166      PMPE     H10R     HGA1     0.900000E-01   1.00800           0
     20701 MEMB     166      PMPE     C211     CTL2    -0.180000       12.0110           0
     20702 MEMB     166      PMPE     H11R     HAL2     0.900000E-01   1.00800           0
     20703 MEMB     166      PMPE     H11S     HAL2     0.900000E-01   1.00800           0
     20704 MEMB     166      PMPE     C212     CTL2    -0.180000       12.0110           0
     20705 MEMB     166      PMPE     H12R     HAL2     0.900000E-01   1.00800           0
     20706 MEMB     166      PMPE     H12S     HAL2     0.900000E-01   1.00800           0
     20707 MEMB     166      PMPE     C213     CTL2    -0.180000       12.0110           0
     20708 MEMB     166      PMPE     H13R     HAL2     0.900000E-01   1.00800           0
     20709 MEMB     166      PMPE     H13S     HAL2     0.900000E-01   1.00800           0
     20710 MEMB     166      PMPE     C214     CTL2    -0.180000       12.0110           0
     20711 MEMB     166      PMPE     H14R     HAL2     0.900000E-01   1.00800           0
     20712 MEMB     166      PMPE     H14S     HAL2     0.900000E-01   1.00800           0
     20713 MEMB     166      PMPE     C215     CTL2    -0.180000       12.0110           0
     20714 MEMB     166      PMPE     H15R     HAL2     0.900000E-01   1.00800           0
     20715 MEMB     166      PMPE     H15S     HAL2     0.900000E-01   1.00800           0
     20716 MEMB     166      PMPE     C216     CTL3    -0.270000       12.0110           0
     20717 MEMB     166      PMPE     H16R     HAL3     0.900000E-01   1.00800           0
     20718 MEMB     166      PMPE     H16S     HAL3     0.900000E-01   1.00800           0
     20719 MEMB     166      PMPE     H16T     HAL3     0.900000E-01   1.00800           0
     20720 MEMB     166      PMPE     C33      CTL2    -0.180000       12.0110           0
     20721 MEMB     166      PMPE     H3X      HAL2     0.900000E-01   1.00800           0
     20722 MEMB     166      PMPE     H3Y      HAL2     0.900000E-01   1.00800           0
     20723 MEMB     166      PMPE     C34      CTL2    -0.180000       12.0110           0
     20724 MEMB     166      PMPE     H4X      HAL2     0.900000E-01   1.00800           0
     20725 MEMB     166      PMPE     H4Y      HAL2     0.900000E-01   1.00800           0
     20726 MEMB     166      PMPE     C35      CTL2    -0.180000       12.0110           0
     20727 MEMB     166      PMPE     H5X      HAL2     0.900000E-01   1.00800           0
     20728 MEMB     166      PMPE     H5Y      HAL2     0.900000E-01   1.00800           0
     20729 MEMB     166      PMPE     C36      CTL2    -0.180000       12.0110           0
     20730 MEMB     166      PMPE     H6X      HAL2     0.900000E-01   1.00800           0
     20731 MEMB     166      PMPE     H6Y      HAL2     0.900000E-01   1.00800           0
     20732 MEMB     166      PMPE     C37      CTL2    -0.180000       12.0110           0
     20733 MEMB     166      PMPE     H7X      HAL2     0.900000E-01   1.00800           0
     20734 MEMB     166      PMPE     H7Y      HAL2     0.900000E-01   1.00800           0
     20735 MEMB     166      PMPE     C38      CTL2    -0.180000       12.0110           0
     20736 MEMB     166      PMPE     H8X      HAL2     0.900000E-01   1.00800           0
     20737 MEMB     166      PMPE     H8Y      HAL2     0.900000E-01   1.00800           0
     20738 MEMB     166      PMPE     C39      CTL2    -0.180000       12.0110           0
     20739 MEMB     166      PMPE     H9X      HAL2     0.900000E-01   1.00800           0
     20740 MEMB     166      PMPE     H9Y      HAL2     0.900000E-01   1.00800           0
     20741 MEMB     166      PMPE     C310     CTL2    -0.180000       12.0110           0
     20742 MEMB     166      PMPE     H10X     HAL2     0.900000E-01   1.00800           0
     20743 MEMB     166      PMPE     H10Y     HAL2     0.900000E-01   1.00800           0
     20744 MEMB     166      PMPE     C311     CTL2    -0.180000       12.0110           0
     20745 MEMB     166      PMPE     H11X     HAL2     0.900000E-01   1.00800           0
     20746 MEMB     166      PMPE     H11Y     HAL2     0.900000E-01   1.00800           0
     20747 MEMB     166      PMPE     C312     CTL2    -0.180000       12.0110           0
     20748 MEMB     166      PMPE     H12X     HAL2     0.900000E-01   1.00800           0
     20749 MEMB     166      PMPE     H12Y     HAL2     0.900000E-01   1.00800           0
     20750 MEMB     166      PMPE     C313     CTL2    -0.180000       12.0110           0
     20751 MEMB     166      PMPE     H13X     HAL2     0.900000E-01   1.00800           0
     20752 MEMB     166      PMPE     H13Y     HAL2     0.900000E-01   1.00800           0
     20753 MEMB     166      PMPE     C314     CTL2    -0.180000       12.0110           0
     20754 MEMB     166      PMPE     H14X     HAL2     0.900000E-01   1.00800           0
     20755 MEMB     166      PMPE     H14Y     HAL2     0.900000E-01   1.00800           0
     20756 MEMB     166      PMPE     C315     CTL2    -0.180000       12.0110           0
     20757 MEMB     166      PMPE     H15X     HAL2     0.900000E-01   1.00800           0
     20758 MEMB     166      PMPE     H15Y     HAL2     0.900000E-01   1.00800           0
     20759 MEMB     166      PMPE     C316     CTL3    -0.270000       12.0110           0
     20760 MEMB     166      PMPE     H16X     HAL3     0.900000E-01   1.00800           0
     20761 MEMB     166      PMPE     H16Y     HAL3     0.900000E-01   1.00800           0
     20762 MEMB     166      PMPE     H16Z     HAL3     0.900000E-01   1.00800           0
     20763 MEMB     167      PMPE     N        NH3L    -0.300000       14.0070           0
     20764 MEMB     167      PMPE     HN1      HCL      0.330000       1.00800           0
     20765 MEMB     167      PMPE     HN2      HCL      0.330000       1.00800           0
     20766 MEMB     167      PMPE     HN3      HCL      0.330000       1.00800           0
     20767 MEMB     167      PMPE     C12      CTL2     0.130000       12.0110           0
     20768 MEMB     167      PMPE     H12A     HAL2     0.900000E-01   1.00800           0
     20769 MEMB     167      PMPE     H12B     HAL2     0.900000E-01   1.00800           0
     20770 MEMB     167      PMPE     C11      CTL2    -0.800000E-01   12.0110           0
     20771 MEMB     167      PMPE     H11A     HAL2     0.900000E-01   1.00800           0
     20772 MEMB     167      PMPE     H11B     HAL2     0.900000E-01   1.00800           0
     20773 MEMB     167      PMPE     P        PL        1.50000       30.9740           0
     20774 MEMB     167      PMPE     O13      O2L     -0.780000       15.9994           0
     20775 MEMB     167      PMPE     O14      O2L     -0.780000       15.9994           0
     20776 MEMB     167      PMPE     O11      OSLP    -0.570000       15.9994           0
     20777 MEMB     167      PMPE     O12      OSLP    -0.570000       15.9994           0
     20778 MEMB     167      PMPE     C1       CTL2    -0.800000E-01   12.0110           0
     20779 MEMB     167      PMPE     HA       HAL2     0.900000E-01   1.00800           0
     20780 MEMB     167      PMPE     HB       HAL2     0.900000E-01   1.00800           0
     20781 MEMB     167      PMPE     C2       CTL1     0.170000       12.0110           0
     20782 MEMB     167      PMPE     HS       HAL1     0.900000E-01   1.00800           0
     20783 MEMB     167      PMPE     O21      OSL     -0.490000       15.9994           0
     20784 MEMB     167      PMPE     C21      CL       0.900000       12.0110           0
     20785 MEMB     167      PMPE     O22      OBL     -0.630000       15.9994           0
     20786 MEMB     167      PMPE     C22      CTL2    -0.220000       12.0110           0
     20787 MEMB     167      PMPE     H2R      HAL2     0.900000E-01   1.00800           0
     20788 MEMB     167      PMPE     H2S      HAL2     0.900000E-01   1.00800           0
     20789 MEMB     167      PMPE     C3       CTL2     0.800000E-01   12.0110           0
     20790 MEMB     167      PMPE     HX       HAL2     0.900000E-01   1.00800           0
     20791 MEMB     167      PMPE     HY       HAL2     0.900000E-01   1.00800           0
     20792 MEMB     167      PMPE     O31      OSL     -0.490000       15.9994           0
     20793 MEMB     167      PMPE     C31      CL       0.900000       12.0110           0
     20794 MEMB     167      PMPE     O32      OBL     -0.630000       15.9994           0
     20795 MEMB     167      PMPE     C32      CTL2    -0.220000       12.0110           0
     20796 MEMB     167      PMPE     H2X      HAL2     0.900000E-01   1.00800           0
     20797 MEMB     167      PMPE     H2Y      HAL2     0.900000E-01   1.00800           0
     20798 MEMB     167      PMPE     C23      CTL2    -0.180000       12.0110           0
     20799 MEMB     167      PMPE     H3R      HAL2     0.900000E-01   1.00800           0
     20800 MEMB     167      PMPE     H3S      HAL2     0.900000E-01   1.00800           0
     20801 MEMB     167      PMPE     C24      CTL2    -0.180000       12.0110           0
     20802 MEMB     167      PMPE     H4R      HAL2     0.900000E-01   1.00800           0
     20803 MEMB     167      PMPE     H4S      HAL2     0.900000E-01   1.00800           0
     20804 MEMB     167      PMPE     C25      CTL2    -0.180000       12.0110           0
     20805 MEMB     167      PMPE     H5R      HAL2     0.900000E-01   1.00800           0
     20806 MEMB     167      PMPE     H5S      HAL2     0.900000E-01   1.00800           0
     20807 MEMB     167      PMPE     C26      CTL2    -0.180000       12.0110           0
     20808 MEMB     167      PMPE     H6R      HAL2     0.900000E-01   1.00800           0
     20809 MEMB     167      PMPE     H6S      HAL2     0.900000E-01   1.00800           0
     20810 MEMB     167      PMPE     C27      CTL2    -0.180000       12.0110           0
     20811 MEMB     167      PMPE     H7R      HAL2     0.900000E-01   1.00800           0
     20812 MEMB     167      PMPE     H7S      HAL2     0.900000E-01   1.00800           0
     20813 MEMB     167      PMPE     C28      CTL2    -0.180000       12.0110           0
     20814 MEMB     167      PMPE     H8R      HAL2     0.900000E-01   1.00800           0
     20815 MEMB     167      PMPE     H8S      HAL2     0.900000E-01   1.00800           0
     20816 MEMB     167      PMPE     C29      CG3RC1  -0.900000E-01   12.0110           0
     20817 MEMB     167      PMPE     H9R      HGA1     0.900000E-01   1.00800           0
     20818 MEMB     167      PMPE     C217     CG3C31  -0.180000       12.0110           0
     20819 MEMB     167      PMPE     H17R     HGA2     0.900000E-01   1.00800           0
     20820 MEMB     167      PMPE     H17S     HGA2     0.900000E-01   1.00800           0
     20821 MEMB     167      PMPE     C210     CG3RC1  -0.900000E-01   12.0110           0
     20822 MEMB     167      PMPE     H10R     HGA1     0.900000E-01   1.00800           0
     20823 MEMB     167      PMPE     C211     CTL2    -0.180000       12.0110           0
     20824 MEMB     167      PMPE     H11R     HAL2     0.900000E-01   1.00800           0
     20825 MEMB     167      PMPE     H11S     HAL2     0.900000E-01   1.00800           0
     20826 MEMB     167      PMPE     C212     CTL2    -0.180000       12.0110           0
     20827 MEMB     167      PMPE     H12R     HAL2     0.900000E-01   1.00800           0
     20828 MEMB     167      PMPE     H12S     HAL2     0.900000E-01   1.00800           0
     20829 MEMB     167      PMPE     C213     CTL2    -0.180000       12.0110           0
     20830 MEMB     167      PMPE     H13R     HAL2     0.900000E-01   1.00800           0
     20831 MEMB     167      PMPE     H13S     HAL2     0.900000E-01   1.00800           0
     20832 MEMB     167      PMPE     C214     CTL2    -0.180000       12.0110           0
     20833 MEMB     167      PMPE     H14R     HAL2     0.900000E-01   1.00800           0
     20834 MEMB     167      PMPE     H14S     HAL2     0.900000E-01   1.00800           0
     20835 MEMB     167      PMPE     C215     CTL2    -0.180000       12.0110           0
     20836 MEMB     167      PMPE     H15R     HAL2     0.900000E-01   1.00800           0
     20837 MEMB     167      PMPE     H15S     HAL2     0.900000E-01   1.00800           0
     20838 MEMB     167      PMPE     C216     CTL3    -0.270000       12.0110           0
     20839 MEMB     167      PMPE     H16R     HAL3     0.900000E-01   1.00800           0
     20840 MEMB     167      PMPE     H16S     HAL3     0.900000E-01   1.00800           0
     20841 MEMB     167      PMPE     H16T     HAL3     0.900000E-01   1.00800           0
     20842 MEMB     167      PMPE     C33      CTL2    -0.180000       12.0110           0
     20843 MEMB     167      PMPE     H3X      HAL2     0.900000E-01   1.00800           0
     20844 MEMB     167      PMPE     H3Y      HAL2     0.900000E-01   1.00800           0
     20845 MEMB     167      PMPE     C34      CTL2    -0.180000       12.0110           0
     20846 MEMB     167      PMPE     H4X      HAL2     0.900000E-01   1.00800           0
     20847 MEMB     167      PMPE     H4Y      HAL2     0.900000E-01   1.00800           0
     20848 MEMB     167      PMPE     C35      CTL2    -0.180000       12.0110           0
     20849 MEMB     167      PMPE     H5X      HAL2     0.900000E-01   1.00800           0
     20850 MEMB     167      PMPE     H5Y      HAL2     0.900000E-01   1.00800           0
     20851 MEMB     167      PMPE     C36      CTL2    -0.180000       12.0110           0
     20852 MEMB     167      PMPE     H6X      HAL2     0.900000E-01   1.00800           0
     20853 MEMB     167      PMPE     H6Y      HAL2     0.900000E-01   1.00800           0
     20854 MEMB     167      PMPE     C37      CTL2    -0.180000       12.0110           0
     20855 MEMB     167      PMPE     H7X      HAL2     0.900000E-01   1.00800           0
     20856 MEMB     167      PMPE     H7Y      HAL2     0.900000E-01   1.00800           0
     20857 MEMB     167      PMPE     C38      CTL2    -0.180000       12.0110           0
     20858 MEMB     167      PMPE     H8X      HAL2     0.900000E-01   1.00800           0
     20859 MEMB     167      PMPE     H8Y      HAL2     0.900000E-01   1.00800           0
     20860 MEMB     167      PMPE     C39      CTL2    -0.180000       12.0110           0
     20861 MEMB     167      PMPE     H9X      HAL2     0.900000E-01   1.00800           0
     20862 MEMB     167      PMPE     H9Y      HAL2     0.900000E-01   1.00800           0
     20863 MEMB     167      PMPE     C310     CTL2    -0.180000       12.0110           0
     20864 MEMB     167      PMPE     H10X     HAL2     0.900000E-01   1.00800           0
     20865 MEMB     167      PMPE     H10Y     HAL2     0.900000E-01   1.00800           0
     20866 MEMB     167      PMPE     C311     CTL2    -0.180000       12.0110           0
     20867 MEMB     167      PMPE     H11X     HAL2     0.900000E-01   1.00800           0
     20868 MEMB     167      PMPE     H11Y     HAL2     0.900000E-01   1.00800           0
     20869 MEMB     167      PMPE     C312     CTL2    -0.180000       12.0110           0
     20870 MEMB     167      PMPE     H12X     HAL2     0.900000E-01   1.00800           0
     20871 MEMB     167      PMPE     H12Y     HAL2     0.900000E-01   1.00800           0
     20872 MEMB     167      PMPE     C313     CTL2    -0.180000       12.0110           0
     20873 MEMB     167      PMPE     H13X     HAL2     0.900000E-01   1.00800           0
     20874 MEMB     167      PMPE     H13Y     HAL2     0.900000E-01   1.00800           0
     20875 MEMB     167      PMPE     C314     CTL2    -0.180000       12.0110           0
     20876 MEMB     167      PMPE     H14X     HAL2     0.900000E-01   1.00800           0
     20877 MEMB     167      PMPE     H14Y     HAL2     0.900000E-01   1.00800           0
     20878 MEMB     167      PMPE     C315     CTL2    -0.180000       12.0110           0
     20879 MEMB     167      PMPE     H15X     HAL2     0.900000E-01   1.00800           0
     20880 MEMB     167      PMPE     H15Y     HAL2     0.900000E-01   1.00800           0
     20881 MEMB     167      PMPE     C316     CTL3    -0.270000       12.0110           0
     20882 MEMB     167      PMPE     H16X     HAL3     0.900000E-01   1.00800           0
     20883 MEMB     167      PMPE     H16Y     HAL3     0.900000E-01   1.00800           0
     20884 MEMB     167      PMPE     H16Z     HAL3     0.900000E-01   1.00800           0
     20885 MEMB     168      PMPG     C13      CTL2     0.500000E-01   12.0110           0
     20886 MEMB     168      PMPG     H13A     HAL2     0.900000E-01   1.00800           0
     20887 MEMB     168      PMPG     H13B     HAL2     0.900000E-01   1.00800           0
     20888 MEMB     168      PMPG     OC3      OHL     -0.660000       15.9994           0
     20889 MEMB     168      PMPG     HO3      HOL      0.430000       1.00800           0
     20890 MEMB     168      PMPG     C12      CTL1     0.140000       12.0110           0
     20891 MEMB     168      PMPG     H12A     HAL1     0.900000E-01   1.00800           0
     20892 MEMB     168      PMPG     OC2      OHL     -0.660000       15.9994           0
     20893 MEMB     168      PMPG     HO2      HOL      0.430000       1.00800           0
     20894 MEMB     168      PMPG     C11      CTL2    -0.800000E-01   12.0110           0
     20895 MEMB     168      PMPG     H11A     HAL2     0.900000E-01   1.00800           0
     20896 MEMB     168      PMPG     H11B     HAL2     0.900000E-01   1.00800           0
     20897 MEMB     168      PMPG     P        PL        1.50000       30.9740           0
     20898 MEMB     168      PMPG     O13      O2L     -0.780000       15.9994           0
     20899 MEMB     168      PMPG     O14      O2L     -0.780000       15.9994           0
     20900 MEMB     168      PMPG     O11      OSLP    -0.570000       15.9994           0
     20901 MEMB     168      PMPG     O12      OSLP    -0.570000       15.9994           0
     20902 MEMB     168      PMPG     C1       CTL2    -0.800000E-01   12.0110           0
     20903 MEMB     168      PMPG     HA       HAL2     0.900000E-01   1.00800           0
     20904 MEMB     168      PMPG     HB       HAL2     0.900000E-01   1.00800           0
     20905 MEMB     168      PMPG     C2       CTL1     0.170000       12.0110           0
     20906 MEMB     168      PMPG     HS       HAL1     0.900000E-01   1.00800           0
     20907 MEMB     168      PMPG     O21      OSL     -0.490000       15.9994           0
     20908 MEMB     168      PMPG     C21      CL       0.900000       12.0110           0
     20909 MEMB     168      PMPG     O22      OBL     -0.630000       15.9994           0
     20910 MEMB     168      PMPG     C22      CTL2    -0.220000       12.0110           0
     20911 MEMB     168      PMPG     H2R      HAL2     0.900000E-01   1.00800           0
     20912 MEMB     168      PMPG     H2S      HAL2     0.900000E-01   1.00800           0
     20913 MEMB     168      PMPG     C3       CTL2     0.800000E-01   12.0110           0
     20914 MEMB     168      PMPG     HX       HAL2     0.900000E-01   1.00800           0
     20915 MEMB     168      PMPG     HY       HAL2     0.900000E-01   1.00800           0
     20916 MEMB     168      PMPG     O31      OSL     -0.490000       15.9994           0
     20917 MEMB     168      PMPG     C31      CL       0.900000       12.0110           0
     20918 MEMB     168      PMPG     O32      OBL     -0.630000       15.9994           0
     20919 MEMB     168      PMPG     C32      CTL2    -0.220000       12.0110           0
     20920 MEMB     168      PMPG     H2X      HAL2     0.900000E-01   1.00800           0
     20921 MEMB     168      PMPG     H2Y      HAL2     0.900000E-01   1.00800           0
     20922 MEMB     168      PMPG     C23      CTL2    -0.180000       12.0110           0
     20923 MEMB     168      PMPG     H3R      HAL2     0.900000E-01   1.00800           0
     20924 MEMB     168      PMPG     H3S      HAL2     0.900000E-01   1.00800           0
     20925 MEMB     168      PMPG     C24      CTL2    -0.180000       12.0110           0
     20926 MEMB     168      PMPG     H4R      HAL2     0.900000E-01   1.00800           0
     20927 MEMB     168      PMPG     H4S      HAL2     0.900000E-01   1.00800           0
     20928 MEMB     168      PMPG     C25      CTL2    -0.180000       12.0110           0
     20929 MEMB     168      PMPG     H5R      HAL2     0.900000E-01   1.00800           0
     20930 MEMB     168      PMPG     H5S      HAL2     0.900000E-01   1.00800           0
     20931 MEMB     168      PMPG     C26      CTL2    -0.180000       12.0110           0
     20932 MEMB     168      PMPG     H6R      HAL2     0.900000E-01   1.00800           0
     20933 MEMB     168      PMPG     H6S      HAL2     0.900000E-01   1.00800           0
     20934 MEMB     168      PMPG     C27      CTL2    -0.180000       12.0110           0
     20935 MEMB     168      PMPG     H7R      HAL2     0.900000E-01   1.00800           0
     20936 MEMB     168      PMPG     H7S      HAL2     0.900000E-01   1.00800           0
     20937 MEMB     168      PMPG     C28      CTL2    -0.180000       12.0110           0
     20938 MEMB     168      PMPG     H8R      HAL2     0.900000E-01   1.00800           0
     20939 MEMB     168      PMPG     H8S      HAL2     0.900000E-01   1.00800           0
     20940 MEMB     168      PMPG     C29      CG3RC1  -0.900000E-01   12.0110           0
     20941 MEMB     168      PMPG     H9R      HGA1     0.900000E-01   1.00800           0
     20942 MEMB     168      PMPG     C217     CG3C31  -0.180000       12.0110           0
     20943 MEMB     168      PMPG     H17R     HGA2     0.900000E-01   1.00800           0
     20944 MEMB     168      PMPG     H17S     HGA2     0.900000E-01   1.00800           0
     20945 MEMB     168      PMPG     C210     CG3RC1  -0.900000E-01   12.0110           0
     20946 MEMB     168      PMPG     H10R     HGA1     0.900000E-01   1.00800           0
     20947 MEMB     168      PMPG     C211     CTL2    -0.180000       12.0110           0
     20948 MEMB     168      PMPG     H11R     HAL2     0.900000E-01   1.00800           0
     20949 MEMB     168      PMPG     H11S     HAL2     0.900000E-01   1.00800           0
     20950 MEMB     168      PMPG     C212     CTL2    -0.180000       12.0110           0
     20951 MEMB     168      PMPG     H12R     HAL2     0.900000E-01   1.00800           0
     20952 MEMB     168      PMPG     H12S     HAL2     0.900000E-01   1.00800           0
     20953 MEMB     168      PMPG     C213     CTL2    -0.180000       12.0110           0
     20954 MEMB     168      PMPG     H13R     HAL2     0.900000E-01   1.00800           0
     20955 MEMB     168      PMPG     H13S     HAL2     0.900000E-01   1.00800           0
     20956 MEMB     168      PMPG     C214     CTL2    -0.180000       12.0110           0
     20957 MEMB     168      PMPG     H14R     HAL2     0.900000E-01   1.00800           0
     20958 MEMB     168      PMPG     H14S     HAL2     0.900000E-01   1.00800           0
     20959 MEMB     168      PMPG     C215     CTL2    -0.180000       12.0110           0
     20960 MEMB     168      PMPG     H15R     HAL2     0.900000E-01   1.00800           0
     20961 MEMB     168      PMPG     H15S     HAL2     0.900000E-01   1.00800           0
     20962 MEMB     168      PMPG     C216     CTL3    -0.270000       12.0110           0
     20963 MEMB     168      PMPG     H16R     HAL3     0.900000E-01   1.00800           0
     20964 MEMB     168      PMPG     H16S     HAL3     0.900000E-01   1.00800           0
     20965 MEMB     168      PMPG     H16T     HAL3     0.900000E-01   1.00800           0
     20966 MEMB     168      PMPG     C33      CTL2    -0.180000       12.0110           0
     20967 MEMB     168      PMPG     H3X      HAL2     0.900000E-01   1.00800           0
     20968 MEMB     168      PMPG     H3Y      HAL2     0.900000E-01   1.00800           0
     20969 MEMB     168      PMPG     C34      CTL2    -0.180000       12.0110           0
     20970 MEMB     168      PMPG     H4X      HAL2     0.900000E-01   1.00800           0
     20971 MEMB     168      PMPG     H4Y      HAL2     0.900000E-01   1.00800           0
     20972 MEMB     168      PMPG     C35      CTL2    -0.180000       12.0110           0
     20973 MEMB     168      PMPG     H5X      HAL2     0.900000E-01   1.00800           0
     20974 MEMB     168      PMPG     H5Y      HAL2     0.900000E-01   1.00800           0
     20975 MEMB     168      PMPG     C36      CTL2    -0.180000       12.0110           0
     20976 MEMB     168      PMPG     H6X      HAL2     0.900000E-01   1.00800           0
     20977 MEMB     168      PMPG     H6Y      HAL2     0.900000E-01   1.00800           0
     20978 MEMB     168      PMPG     C37      CTL2    -0.180000       12.0110           0
     20979 MEMB     168      PMPG     H7X      HAL2     0.900000E-01   1.00800           0
     20980 MEMB     168      PMPG     H7Y      HAL2     0.900000E-01   1.00800           0
     20981 MEMB     168      PMPG     C38      CTL2    -0.180000       12.0110           0
     20982 MEMB     168      PMPG     H8X      HAL2     0.900000E-01   1.00800           0
     20983 MEMB     168      PMPG     H8Y      HAL2     0.900000E-01   1.00800           0
     20984 MEMB     168      PMPG     C39      CTL2    -0.180000       12.0110           0
     20985 MEMB     168      PMPG     H9X      HAL2     0.900000E-01   1.00800           0
     20986 MEMB     168      PMPG     H9Y      HAL2     0.900000E-01   1.00800           0
     20987 MEMB     168      PMPG     C310     CTL2    -0.180000       12.0110           0
     20988 MEMB     168      PMPG     H10X     HAL2     0.900000E-01   1.00800           0
     20989 MEMB     168      PMPG     H10Y     HAL2     0.900000E-01   1.00800           0
     20990 MEMB     168      PMPG     C311     CTL2    -0.180000       12.0110           0
     20991 MEMB     168      PMPG     H11X     HAL2     0.900000E-01   1.00800           0
     20992 MEMB     168      PMPG     H11Y     HAL2     0.900000E-01   1.00800           0
     20993 MEMB     168      PMPG     C312     CTL2    -0.180000       12.0110           0
     20994 MEMB     168      PMPG     H12X     HAL2     0.900000E-01   1.00800           0
     20995 MEMB     168      PMPG     H12Y     HAL2     0.900000E-01   1.00800           0
     20996 MEMB     168      PMPG     C313     CTL2    -0.180000       12.0110           0
     20997 MEMB     168      PMPG     H13X     HAL2     0.900000E-01   1.00800           0
     20998 MEMB     168      PMPG     H13Y     HAL2     0.900000E-01   1.00800           0
     20999 MEMB     168      PMPG     C314     CTL2    -0.180000       12.0110           0
     21000 MEMB     168      PMPG     H14X     HAL2     0.900000E-01   1.00800           0
     21001 MEMB     168      PMPG     H14Y     HAL2     0.900000E-01   1.00800           0
     21002 MEMB     168      PMPG     C315     CTL2    -0.180000       12.0110           0
     21003 MEMB     168      PMPG     H15X     HAL2     0.900000E-01   1.00800           0
     21004 MEMB     168      PMPG     H15Y     HAL2     0.900000E-01   1.00800           0
     21005 MEMB     168      PMPG     C316     CTL3    -0.270000       12.0110           0
     21006 MEMB     168      PMPG     H16X     HAL3     0.900000E-01   1.00800           0
     21007 MEMB     168      PMPG     H16Y     HAL3     0.900000E-01   1.00800           0
     21008 MEMB     168      PMPG     H16Z     HAL3     0.900000E-01   1.00800           0
     21009 MEMB     169      POPE     N        NH3L    -0.300000       14.0070           0
     21010 MEMB     169      POPE     HN1      HCL      0.330000       1.00800           0
     21011 MEMB     169      POPE     HN2      HCL      0.330000       1.00800           0
     21012 MEMB     169      POPE     HN3      HCL      0.330000       1.00800           0
     21013 MEMB     169      POPE     C12      CTL2     0.130000       12.0110           0
     21014 MEMB     169      POPE     H12A     HAL2     0.900000E-01   1.00800           0
     21015 MEMB     169      POPE     H12B     HAL2     0.900000E-01   1.00800           0
     21016 MEMB     169      POPE     C11      CTL2    -0.800000E-01   12.0110           0
     21017 MEMB     169      POPE     H11A     HAL2     0.900000E-01   1.00800           0
     21018 MEMB     169      POPE     H11B     HAL2     0.900000E-01   1.00800           0
     21019 MEMB     169      POPE     P        PL        1.50000       30.9740           0
     21020 MEMB     169      POPE     O13      O2L     -0.780000       15.9994           0
     21021 MEMB     169      POPE     O14      O2L     -0.780000       15.9994           0
     21022 MEMB     169      POPE     O11      OSLP    -0.570000       15.9994           0
     21023 MEMB     169      POPE     O12      OSLP    -0.570000       15.9994           0
     21024 MEMB     169      POPE     C1       CTL2    -0.800000E-01   12.0110           0
     21025 MEMB     169      POPE     HA       HAL2     0.900000E-01   1.00800           0
     21026 MEMB     169      POPE     HB       HAL2     0.900000E-01   1.00800           0
     21027 MEMB     169      POPE     C2       CTL1     0.170000       12.0110           0
     21028 MEMB     169      POPE     HS       HAL1     0.900000E-01   1.00800           0
     21029 MEMB     169      POPE     O21      OSL     -0.490000       15.9994           0
     21030 MEMB     169      POPE     C21      CL       0.900000       12.0110           0
     21031 MEMB     169      POPE     O22      OBL     -0.630000       15.9994           0
     21032 MEMB     169      POPE     C22      CTL2    -0.220000       12.0110           0
     21033 MEMB     169      POPE     H2R      HAL2     0.900000E-01   1.00800           0
     21034 MEMB     169      POPE     H2S      HAL2     0.900000E-01   1.00800           0
     21035 MEMB     169      POPE     C3       CTL2     0.800000E-01   12.0110           0
     21036 MEMB     169      POPE     HX       HAL2     0.900000E-01   1.00800           0
     21037 MEMB     169      POPE     HY       HAL2     0.900000E-01   1.00800           0
     21038 MEMB     169      POPE     O31      OSL     -0.490000       15.9994           0
     21039 MEMB     169      POPE     C31      CL       0.900000       12.0110           0
     21040 MEMB     169      POPE     O32      OBL     -0.630000       15.9994           0
     21041 MEMB     169      POPE     C32      CTL2    -0.220000       12.0110           0
     21042 MEMB     169      POPE     H2X      HAL2     0.900000E-01   1.00800           0
     21043 MEMB     169      POPE     H2Y      HAL2     0.900000E-01   1.00800           0
     21044 MEMB     169      POPE     C23      CTL2    -0.180000       12.0110           0
     21045 MEMB     169      POPE     H3R      HAL2     0.900000E-01   1.00800           0
     21046 MEMB     169      POPE     H3S      HAL2     0.900000E-01   1.00800           0
     21047 MEMB     169      POPE     C24      CTL2    -0.180000       12.0110           0
     21048 MEMB     169      POPE     H4R      HAL2     0.900000E-01   1.00800           0
     21049 MEMB     169      POPE     H4S      HAL2     0.900000E-01   1.00800           0
     21050 MEMB     169      POPE     C25      CTL2    -0.180000       12.0110           0
     21051 MEMB     169      POPE     H5R      HAL2     0.900000E-01   1.00800           0
     21052 MEMB     169      POPE     H5S      HAL2     0.900000E-01   1.00800           0
     21053 MEMB     169      POPE     C26      CTL2    -0.180000       12.0110           0
     21054 MEMB     169      POPE     H6R      HAL2     0.900000E-01   1.00800           0
     21055 MEMB     169      POPE     H6S      HAL2     0.900000E-01   1.00800           0
     21056 MEMB     169      POPE     C27      CTL2    -0.180000       12.0110           0
     21057 MEMB     169      POPE     H7R      HAL2     0.900000E-01   1.00800           0
     21058 MEMB     169      POPE     H7S      HAL2     0.900000E-01   1.00800           0
     21059 MEMB     169      POPE     C28      CTL2    -0.180000       12.0110           0
     21060 MEMB     169      POPE     H8R      HAL2     0.900000E-01   1.00800           0
     21061 MEMB     169      POPE     H8S      HAL2     0.900000E-01   1.00800           0
     21062 MEMB     169      POPE     C29      CEL1    -0.150000       12.0110           0
     21063 MEMB     169      POPE     H91      HEL1     0.150000       1.00800           0
     21064 MEMB     169      POPE     C210     CEL1    -0.150000       12.0110           0
     21065 MEMB     169      POPE     H101     HEL1     0.150000       1.00800           0
     21066 MEMB     169      POPE     C211     CTL2    -0.180000       12.0110           0
     21067 MEMB     169      POPE     H11R     HAL2     0.900000E-01   1.00800           0
     21068 MEMB     169      POPE     H11S     HAL2     0.900000E-01   1.00800           0
     21069 MEMB     169      POPE     C212     CTL2    -0.180000       12.0110           0
     21070 MEMB     169      POPE     H12R     HAL2     0.900000E-01   1.00800           0
     21071 MEMB     169      POPE     H12S     HAL2     0.900000E-01   1.00800           0
     21072 MEMB     169      POPE     C213     CTL2    -0.180000       12.0110           0
     21073 MEMB     169      POPE     H13R     HAL2     0.900000E-01   1.00800           0
     21074 MEMB     169      POPE     H13S     HAL2     0.900000E-01   1.00800           0
     21075 MEMB     169      POPE     C214     CTL2    -0.180000       12.0110           0
     21076 MEMB     169      POPE     H14R     HAL2     0.900000E-01   1.00800           0
     21077 MEMB     169      POPE     H14S     HAL2     0.900000E-01   1.00800           0
     21078 MEMB     169      POPE     C215     CTL2    -0.180000       12.0110           0
     21079 MEMB     169      POPE     H15R     HAL2     0.900000E-01   1.00800           0
     21080 MEMB     169      POPE     H15S     HAL2     0.900000E-01   1.00800           0
     21081 MEMB     169      POPE     C216     CTL2    -0.180000       12.0110           0
     21082 MEMB     169      POPE     H16R     HAL2     0.900000E-01   1.00800           0
     21083 MEMB     169      POPE     H16S     HAL2     0.900000E-01   1.00800           0
     21084 MEMB     169      POPE     C217     CTL2    -0.180000       12.0110           0
     21085 MEMB     169      POPE     H17R     HAL2     0.900000E-01   1.00800           0
     21086 MEMB     169      POPE     H17S     HAL2     0.900000E-01   1.00800           0
     21087 MEMB     169      POPE     C218     CTL3    -0.270000       12.0110           0
     21088 MEMB     169      POPE     H18R     HAL3     0.900000E-01   1.00800           0
     21089 MEMB     169      POPE     H18S     HAL3     0.900000E-01   1.00800           0
     21090 MEMB     169      POPE     H18T     HAL3     0.900000E-01   1.00800           0
     21091 MEMB     169      POPE     C33      CTL2    -0.180000       12.0110           0
     21092 MEMB     169      POPE     H3X      HAL2     0.900000E-01   1.00800           0
     21093 MEMB     169      POPE     H3Y      HAL2     0.900000E-01   1.00800           0
     21094 MEMB     169      POPE     C34      CTL2    -0.180000       12.0110           0
     21095 MEMB     169      POPE     H4X      HAL2     0.900000E-01   1.00800           0
     21096 MEMB     169      POPE     H4Y      HAL2     0.900000E-01   1.00800           0
     21097 MEMB     169      POPE     C35      CTL2    -0.180000       12.0110           0
     21098 MEMB     169      POPE     H5X      HAL2     0.900000E-01   1.00800           0
     21099 MEMB     169      POPE     H5Y      HAL2     0.900000E-01   1.00800           0
     21100 MEMB     169      POPE     C36      CTL2    -0.180000       12.0110           0
     21101 MEMB     169      POPE     H6X      HAL2     0.900000E-01   1.00800           0
     21102 MEMB     169      POPE     H6Y      HAL2     0.900000E-01   1.00800           0
     21103 MEMB     169      POPE     C37      CTL2    -0.180000       12.0110           0
     21104 MEMB     169      POPE     H7X      HAL2     0.900000E-01   1.00800           0
     21105 MEMB     169      POPE     H7Y      HAL2     0.900000E-01   1.00800           0
     21106 MEMB     169      POPE     C38      CTL2    -0.180000       12.0110           0
     21107 MEMB     169      POPE     H8X      HAL2     0.900000E-01   1.00800           0
     21108 MEMB     169      POPE     H8Y      HAL2     0.900000E-01   1.00800           0
     21109 MEMB     169      POPE     C39      CTL2    -0.180000       12.0110           0
     21110 MEMB     169      POPE     H9X      HAL2     0.900000E-01   1.00800           0
     21111 MEMB     169      POPE     H9Y      HAL2     0.900000E-01   1.00800           0
     21112 MEMB     169      POPE     C310     CTL2    -0.180000       12.0110           0
     21113 MEMB     169      POPE     H10X     HAL2     0.900000E-01   1.00800           0
     21114 MEMB     169      POPE     H10Y     HAL2     0.900000E-01   1.00800           0
     21115 MEMB     169      POPE     C311     CTL2    -0.180000       12.0110           0
     21116 MEMB     169      POPE     H11X     HAL2     0.900000E-01   1.00800           0
     21117 MEMB     169      POPE     H11Y     HAL2     0.900000E-01   1.00800           0
     21118 MEMB     169      POPE     C312     CTL2    -0.180000       12.0110           0
     21119 MEMB     169      POPE     H12X     HAL2     0.900000E-01   1.00800           0
     21120 MEMB     169      POPE     H12Y     HAL2     0.900000E-01   1.00800           0
     21121 MEMB     169      POPE     C313     CTL2    -0.180000       12.0110           0
     21122 MEMB     169      POPE     H13X     HAL2     0.900000E-01   1.00800           0
     21123 MEMB     169      POPE     H13Y     HAL2     0.900000E-01   1.00800           0
     21124 MEMB     169      POPE     C314     CTL2    -0.180000       12.0110           0
     21125 MEMB     169      POPE     H14X     HAL2     0.900000E-01   1.00800           0
     21126 MEMB     169      POPE     H14Y     HAL2     0.900000E-01   1.00800           0
     21127 MEMB     169      POPE     C315     CTL2    -0.180000       12.0110           0
     21128 MEMB     169      POPE     H15X     HAL2     0.900000E-01   1.00800           0
     21129 MEMB     169      POPE     H15Y     HAL2     0.900000E-01   1.00800           0
     21130 MEMB     169      POPE     C316     CTL3    -0.270000       12.0110           0
     21131 MEMB     169      POPE     H16X     HAL3     0.900000E-01   1.00800           0
     21132 MEMB     169      POPE     H16Y     HAL3     0.900000E-01   1.00800           0
     21133 MEMB     169      POPE     H16Z     HAL3     0.900000E-01   1.00800           0
     21134 MEMB     170      PMPE     N        NH3L    -0.300000       14.0070           0
     21135 MEMB     170      PMPE     HN1      HCL      0.330000       1.00800           0
     21136 MEMB     170      PMPE     HN2      HCL      0.330000       1.00800           0
     21137 MEMB     170      PMPE     HN3      HCL      0.330000       1.00800           0
     21138 MEMB     170      PMPE     C12      CTL2     0.130000       12.0110           0
     21139 MEMB     170      PMPE     H12A     HAL2     0.900000E-01   1.00800           0
     21140 MEMB     170      PMPE     H12B     HAL2     0.900000E-01   1.00800           0
     21141 MEMB     170      PMPE     C11      CTL2    -0.800000E-01   12.0110           0
     21142 MEMB     170      PMPE     H11A     HAL2     0.900000E-01   1.00800           0
     21143 MEMB     170      PMPE     H11B     HAL2     0.900000E-01   1.00800           0
     21144 MEMB     170      PMPE     P        PL        1.50000       30.9740           0
     21145 MEMB     170      PMPE     O13      O2L     -0.780000       15.9994           0
     21146 MEMB     170      PMPE     O14      O2L     -0.780000       15.9994           0
     21147 MEMB     170      PMPE     O11      OSLP    -0.570000       15.9994           0
     21148 MEMB     170      PMPE     O12      OSLP    -0.570000       15.9994           0
     21149 MEMB     170      PMPE     C1       CTL2    -0.800000E-01   12.0110           0
     21150 MEMB     170      PMPE     HA       HAL2     0.900000E-01   1.00800           0
     21151 MEMB     170      PMPE     HB       HAL2     0.900000E-01   1.00800           0
     21152 MEMB     170      PMPE     C2       CTL1     0.170000       12.0110           0
     21153 MEMB     170      PMPE     HS       HAL1     0.900000E-01   1.00800           0
     21154 MEMB     170      PMPE     O21      OSL     -0.490000       15.9994           0
     21155 MEMB     170      PMPE     C21      CL       0.900000       12.0110           0
     21156 MEMB     170      PMPE     O22      OBL     -0.630000       15.9994           0
     21157 MEMB     170      PMPE     C22      CTL2    -0.220000       12.0110           0
     21158 MEMB     170      PMPE     H2R      HAL2     0.900000E-01   1.00800           0
     21159 MEMB     170      PMPE     H2S      HAL2     0.900000E-01   1.00800           0
     21160 MEMB     170      PMPE     C3       CTL2     0.800000E-01   12.0110           0
     21161 MEMB     170      PMPE     HX       HAL2     0.900000E-01   1.00800           0
     21162 MEMB     170      PMPE     HY       HAL2     0.900000E-01   1.00800           0
     21163 MEMB     170      PMPE     O31      OSL     -0.490000       15.9994           0
     21164 MEMB     170      PMPE     C31      CL       0.900000       12.0110           0
     21165 MEMB     170      PMPE     O32      OBL     -0.630000       15.9994           0
     21166 MEMB     170      PMPE     C32      CTL2    -0.220000       12.0110           0
     21167 MEMB     170      PMPE     H2X      HAL2     0.900000E-01   1.00800           0
     21168 MEMB     170      PMPE     H2Y      HAL2     0.900000E-01   1.00800           0
     21169 MEMB     170      PMPE     C23      CTL2    -0.180000       12.0110           0
     21170 MEMB     170      PMPE     H3R      HAL2     0.900000E-01   1.00800           0
     21171 MEMB     170      PMPE     H3S      HAL2     0.900000E-01   1.00800           0
     21172 MEMB     170      PMPE     C24      CTL2    -0.180000       12.0110           0
     21173 MEMB     170      PMPE     H4R      HAL2     0.900000E-01   1.00800           0
     21174 MEMB     170      PMPE     H4S      HAL2     0.900000E-01   1.00800           0
     21175 MEMB     170      PMPE     C25      CTL2    -0.180000       12.0110           0
     21176 MEMB     170      PMPE     H5R      HAL2     0.900000E-01   1.00800           0
     21177 MEMB     170      PMPE     H5S      HAL2     0.900000E-01   1.00800           0
     21178 MEMB     170      PMPE     C26      CTL2    -0.180000       12.0110           0
     21179 MEMB     170      PMPE     H6R      HAL2     0.900000E-01   1.00800           0
     21180 MEMB     170      PMPE     H6S      HAL2     0.900000E-01   1.00800           0
     21181 MEMB     170      PMPE     C27      CTL2    -0.180000       12.0110           0
     21182 MEMB     170      PMPE     H7R      HAL2     0.900000E-01   1.00800           0
     21183 MEMB     170      PMPE     H7S      HAL2     0.900000E-01   1.00800           0
     21184 MEMB     170      PMPE     C28      CTL2    -0.180000       12.0110           0
     21185 MEMB     170      PMPE     H8R      HAL2     0.900000E-01   1.00800           0
     21186 MEMB     170      PMPE     H8S      HAL2     0.900000E-01   1.00800           0
     21187 MEMB     170      PMPE     C29      CG3RC1  -0.900000E-01   12.0110           0
     21188 MEMB     170      PMPE     H9R      HGA1     0.900000E-01   1.00800           0
     21189 MEMB     170      PMPE     C217     CG3C31  -0.180000       12.0110           0
     21190 MEMB     170      PMPE     H17R     HGA2     0.900000E-01   1.00800           0
     21191 MEMB     170      PMPE     H17S     HGA2     0.900000E-01   1.00800           0
     21192 MEMB     170      PMPE     C210     CG3RC1  -0.900000E-01   12.0110           0
     21193 MEMB     170      PMPE     H10R     HGA1     0.900000E-01   1.00800           0
     21194 MEMB     170      PMPE     C211     CTL2    -0.180000       12.0110           0
     21195 MEMB     170      PMPE     H11R     HAL2     0.900000E-01   1.00800           0
     21196 MEMB     170      PMPE     H11S     HAL2     0.900000E-01   1.00800           0
     21197 MEMB     170      PMPE     C212     CTL2    -0.180000       12.0110           0
     21198 MEMB     170      PMPE     H12R     HAL2     0.900000E-01   1.00800           0
     21199 MEMB     170      PMPE     H12S     HAL2     0.900000E-01   1.00800           0
     21200 MEMB     170      PMPE     C213     CTL2    -0.180000       12.0110           0
     21201 MEMB     170      PMPE     H13R     HAL2     0.900000E-01   1.00800           0
     21202 MEMB     170      PMPE     H13S     HAL2     0.900000E-01   1.00800           0
     21203 MEMB     170      PMPE     C214     CTL2    -0.180000       12.0110           0
     21204 MEMB     170      PMPE     H14R     HAL2     0.900000E-01   1.00800           0
     21205 MEMB     170      PMPE     H14S     HAL2     0.900000E-01   1.00800           0
     21206 MEMB     170      PMPE     C215     CTL2    -0.180000       12.0110           0
     21207 MEMB     170      PMPE     H15R     HAL2     0.900000E-01   1.00800           0
     21208 MEMB     170      PMPE     H15S     HAL2     0.900000E-01   1.00800           0
     21209 MEMB     170      PMPE     C216     CTL3    -0.270000       12.0110           0
     21210 MEMB     170      PMPE     H16R     HAL3     0.900000E-01   1.00800           0
     21211 MEMB     170      PMPE     H16S     HAL3     0.900000E-01   1.00800           0
     21212 MEMB     170      PMPE     H16T     HAL3     0.900000E-01   1.00800           0
     21213 MEMB     170      PMPE     C33      CTL2    -0.180000       12.0110           0
     21214 MEMB     170      PMPE     H3X      HAL2     0.900000E-01   1.00800           0
     21215 MEMB     170      PMPE     H3Y      HAL2     0.900000E-01   1.00800           0
     21216 MEMB     170      PMPE     C34      CTL2    -0.180000       12.0110           0
     21217 MEMB     170      PMPE     H4X      HAL2     0.900000E-01   1.00800           0
     21218 MEMB     170      PMPE     H4Y      HAL2     0.900000E-01   1.00800           0
     21219 MEMB     170      PMPE     C35      CTL2    -0.180000       12.0110           0
     21220 MEMB     170      PMPE     H5X      HAL2     0.900000E-01   1.00800           0
     21221 MEMB     170      PMPE     H5Y      HAL2     0.900000E-01   1.00800           0
     21222 MEMB     170      PMPE     C36      CTL2    -0.180000       12.0110           0
     21223 MEMB     170      PMPE     H6X      HAL2     0.900000E-01   1.00800           0
     21224 MEMB     170      PMPE     H6Y      HAL2     0.900000E-01   1.00800           0
     21225 MEMB     170      PMPE     C37      CTL2    -0.180000       12.0110           0
     21226 MEMB     170      PMPE     H7X      HAL2     0.900000E-01   1.00800           0
     21227 MEMB     170      PMPE     H7Y      HAL2     0.900000E-01   1.00800           0
     21228 MEMB     170      PMPE     C38      CTL2    -0.180000       12.0110           0
     21229 MEMB     170      PMPE     H8X      HAL2     0.900000E-01   1.00800           0
     21230 MEMB     170      PMPE     H8Y      HAL2     0.900000E-01   1.00800           0
     21231 MEMB     170      PMPE     C39      CTL2    -0.180000       12.0110           0
     21232 MEMB     170      PMPE     H9X      HAL2     0.900000E-01   1.00800           0
     21233 MEMB     170      PMPE     H9Y      HAL2     0.900000E-01   1.00800           0
     21234 MEMB     170      PMPE     C310     CTL2    -0.180000       12.0110           0
     21235 MEMB     170      PMPE     H10X     HAL2     0.900000E-01   1.00800           0
     21236 MEMB     170      PMPE     H10Y     HAL2     0.900000E-01   1.00800           0
     21237 MEMB     170      PMPE     C311     CTL2    -0.180000       12.0110           0
     21238 MEMB     170      PMPE     H11X     HAL2     0.900000E-01   1.00800           0
     21239 MEMB     170      PMPE     H11Y     HAL2     0.900000E-01   1.00800           0
     21240 MEMB     170      PMPE     C312     CTL2    -0.180000       12.0110           0
     21241 MEMB     170      PMPE     H12X     HAL2     0.900000E-01   1.00800           0
     21242 MEMB     170      PMPE     H12Y     HAL2     0.900000E-01   1.00800           0
     21243 MEMB     170      PMPE     C313     CTL2    -0.180000       12.0110           0
     21244 MEMB     170      PMPE     H13X     HAL2     0.900000E-01   1.00800           0
     21245 MEMB     170      PMPE     H13Y     HAL2     0.900000E-01   1.00800           0
     21246 MEMB     170      PMPE     C314     CTL2    -0.180000       12.0110           0
     21247 MEMB     170      PMPE     H14X     HAL2     0.900000E-01   1.00800           0
     21248 MEMB     170      PMPE     H14Y     HAL2     0.900000E-01   1.00800           0
     21249 MEMB     170      PMPE     C315     CTL2    -0.180000       12.0110           0
     21250 MEMB     170      PMPE     H15X     HAL2     0.900000E-01   1.00800           0
     21251 MEMB     170      PMPE     H15Y     HAL2     0.900000E-01   1.00800           0
     21252 MEMB     170      PMPE     C316     CTL3    -0.270000       12.0110           0
     21253 MEMB     170      PMPE     H16X     HAL3     0.900000E-01   1.00800           0
     21254 MEMB     170      PMPE     H16Y     HAL3     0.900000E-01   1.00800           0
     21255 MEMB     170      PMPE     H16Z     HAL3     0.900000E-01   1.00800           0
     21256 MEMB     171      PMPG     C13      CTL2     0.500000E-01   12.0110           0
     21257 MEMB     171      PMPG     H13A     HAL2     0.900000E-01   1.00800           0
     21258 MEMB     171      PMPG     H13B     HAL2     0.900000E-01   1.00800           0
     21259 MEMB     171      PMPG     OC3      OHL     -0.660000       15.9994           0
     21260 MEMB     171      PMPG     HO3      HOL      0.430000       1.00800           0
     21261 MEMB     171      PMPG     C12      CTL1     0.140000       12.0110           0
     21262 MEMB     171      PMPG     H12A     HAL1     0.900000E-01   1.00800           0
     21263 MEMB     171      PMPG     OC2      OHL     -0.660000       15.9994           0
     21264 MEMB     171      PMPG     HO2      HOL      0.430000       1.00800           0
     21265 MEMB     171      PMPG     C11      CTL2    -0.800000E-01   12.0110           0
     21266 MEMB     171      PMPG     H11A     HAL2     0.900000E-01   1.00800           0
     21267 MEMB     171      PMPG     H11B     HAL2     0.900000E-01   1.00800           0
     21268 MEMB     171      PMPG     P        PL        1.50000       30.9740           0
     21269 MEMB     171      PMPG     O13      O2L     -0.780000       15.9994           0
     21270 MEMB     171      PMPG     O14      O2L     -0.780000       15.9994           0
     21271 MEMB     171      PMPG     O11      OSLP    -0.570000       15.9994           0
     21272 MEMB     171      PMPG     O12      OSLP    -0.570000       15.9994           0
     21273 MEMB     171      PMPG     C1       CTL2    -0.800000E-01   12.0110           0
     21274 MEMB     171      PMPG     HA       HAL2     0.900000E-01   1.00800           0
     21275 MEMB     171      PMPG     HB       HAL2     0.900000E-01   1.00800           0
     21276 MEMB     171      PMPG     C2       CTL1     0.170000       12.0110           0
     21277 MEMB     171      PMPG     HS       HAL1     0.900000E-01   1.00800           0
     21278 MEMB     171      PMPG     O21      OSL     -0.490000       15.9994           0
     21279 MEMB     171      PMPG     C21      CL       0.900000       12.0110           0
     21280 MEMB     171      PMPG     O22      OBL     -0.630000       15.9994           0
     21281 MEMB     171      PMPG     C22      CTL2    -0.220000       12.0110           0
     21282 MEMB     171      PMPG     H2R      HAL2     0.900000E-01   1.00800           0
     21283 MEMB     171      PMPG     H2S      HAL2     0.900000E-01   1.00800           0
     21284 MEMB     171      PMPG     C3       CTL2     0.800000E-01   12.0110           0
     21285 MEMB     171      PMPG     HX       HAL2     0.900000E-01   1.00800           0
     21286 MEMB     171      PMPG     HY       HAL2     0.900000E-01   1.00800           0
     21287 MEMB     171      PMPG     O31      OSL     -0.490000       15.9994           0
     21288 MEMB     171      PMPG     C31      CL       0.900000       12.0110           0
     21289 MEMB     171      PMPG     O32      OBL     -0.630000       15.9994           0
     21290 MEMB     171      PMPG     C32      CTL2    -0.220000       12.0110           0
     21291 MEMB     171      PMPG     H2X      HAL2     0.900000E-01   1.00800           0
     21292 MEMB     171      PMPG     H2Y      HAL2     0.900000E-01   1.00800           0
     21293 MEMB     171      PMPG     C23      CTL2    -0.180000       12.0110           0
     21294 MEMB     171      PMPG     H3R      HAL2     0.900000E-01   1.00800           0
     21295 MEMB     171      PMPG     H3S      HAL2     0.900000E-01   1.00800           0
     21296 MEMB     171      PMPG     C24      CTL2    -0.180000       12.0110           0
     21297 MEMB     171      PMPG     H4R      HAL2     0.900000E-01   1.00800           0
     21298 MEMB     171      PMPG     H4S      HAL2     0.900000E-01   1.00800           0
     21299 MEMB     171      PMPG     C25      CTL2    -0.180000       12.0110           0
     21300 MEMB     171      PMPG     H5R      HAL2     0.900000E-01   1.00800           0
     21301 MEMB     171      PMPG     H5S      HAL2     0.900000E-01   1.00800           0
     21302 MEMB     171      PMPG     C26      CTL2    -0.180000       12.0110           0
     21303 MEMB     171      PMPG     H6R      HAL2     0.900000E-01   1.00800           0
     21304 MEMB     171      PMPG     H6S      HAL2     0.900000E-01   1.00800           0
     21305 MEMB     171      PMPG     C27      CTL2    -0.180000       12.0110           0
     21306 MEMB     171      PMPG     H7R      HAL2     0.900000E-01   1.00800           0
     21307 MEMB     171      PMPG     H7S      HAL2     0.900000E-01   1.00800           0
     21308 MEMB     171      PMPG     C28      CTL2    -0.180000       12.0110           0
     21309 MEMB     171      PMPG     H8R      HAL2     0.900000E-01   1.00800           0
     21310 MEMB     171      PMPG     H8S      HAL2     0.900000E-01   1.00800           0
     21311 MEMB     171      PMPG     C29      CG3RC1  -0.900000E-01   12.0110           0
     21312 MEMB     171      PMPG     H9R      HGA1     0.900000E-01   1.00800           0
     21313 MEMB     171      PMPG     C217     CG3C31  -0.180000       12.0110           0
     21314 MEMB     171      PMPG     H17R     HGA2     0.900000E-01   1.00800           0
     21315 MEMB     171      PMPG     H17S     HGA2     0.900000E-01   1.00800           0
     21316 MEMB     171      PMPG     C210     CG3RC1  -0.900000E-01   12.0110           0
     21317 MEMB     171      PMPG     H10R     HGA1     0.900000E-01   1.00800           0
     21318 MEMB     171      PMPG     C211     CTL2    -0.180000       12.0110           0
     21319 MEMB     171      PMPG     H11R     HAL2     0.900000E-01   1.00800           0
     21320 MEMB     171      PMPG     H11S     HAL2     0.900000E-01   1.00800           0
     21321 MEMB     171      PMPG     C212     CTL2    -0.180000       12.0110           0
     21322 MEMB     171      PMPG     H12R     HAL2     0.900000E-01   1.00800           0
     21323 MEMB     171      PMPG     H12S     HAL2     0.900000E-01   1.00800           0
     21324 MEMB     171      PMPG     C213     CTL2    -0.180000       12.0110           0
     21325 MEMB     171      PMPG     H13R     HAL2     0.900000E-01   1.00800           0
     21326 MEMB     171      PMPG     H13S     HAL2     0.900000E-01   1.00800           0
     21327 MEMB     171      PMPG     C214     CTL2    -0.180000       12.0110           0
     21328 MEMB     171      PMPG     H14R     HAL2     0.900000E-01   1.00800           0
     21329 MEMB     171      PMPG     H14S     HAL2     0.900000E-01   1.00800           0
     21330 MEMB     171      PMPG     C215     CTL2    -0.180000       12.0110           0
     21331 MEMB     171      PMPG     H15R     HAL2     0.900000E-01   1.00800           0
     21332 MEMB     171      PMPG     H15S     HAL2     0.900000E-01   1.00800           0
     21333 MEMB     171      PMPG     C216     CTL3    -0.270000       12.0110           0
     21334 MEMB     171      PMPG     H16R     HAL3     0.900000E-01   1.00800           0
     21335 MEMB     171      PMPG     H16S     HAL3     0.900000E-01   1.00800           0
     21336 MEMB     171      PMPG     H16T     HAL3     0.900000E-01   1.00800           0
     21337 MEMB     171      PMPG     C33      CTL2    -0.180000       12.0110           0
     21338 MEMB     171      PMPG     H3X      HAL2     0.900000E-01   1.00800           0
     21339 MEMB     171      PMPG     H3Y      HAL2     0.900000E-01   1.00800           0
     21340 MEMB     171      PMPG     C34      CTL2    -0.180000       12.0110           0
     21341 MEMB     171      PMPG     H4X      HAL2     0.900000E-01   1.00800           0
     21342 MEMB     171      PMPG     H4Y      HAL2     0.900000E-01   1.00800           0
     21343 MEMB     171      PMPG     C35      CTL2    -0.180000       12.0110           0
     21344 MEMB     171      PMPG     H5X      HAL2     0.900000E-01   1.00800           0
     21345 MEMB     171      PMPG     H5Y      HAL2     0.900000E-01   1.00800           0
     21346 MEMB     171      PMPG     C36      CTL2    -0.180000       12.0110           0
     21347 MEMB     171      PMPG     H6X      HAL2     0.900000E-01   1.00800           0
     21348 MEMB     171      PMPG     H6Y      HAL2     0.900000E-01   1.00800           0
     21349 MEMB     171      PMPG     C37      CTL2    -0.180000       12.0110           0
     21350 MEMB     171      PMPG     H7X      HAL2     0.900000E-01   1.00800           0
     21351 MEMB     171      PMPG     H7Y      HAL2     0.900000E-01   1.00800           0
     21352 MEMB     171      PMPG     C38      CTL2    -0.180000       12.0110           0
     21353 MEMB     171      PMPG     H8X      HAL2     0.900000E-01   1.00800           0
     21354 MEMB     171      PMPG     H8Y      HAL2     0.900000E-01   1.00800           0
     21355 MEMB     171      PMPG     C39      CTL2    -0.180000       12.0110           0
     21356 MEMB     171      PMPG     H9X      HAL2     0.900000E-01   1.00800           0
     21357 MEMB     171      PMPG     H9Y      HAL2     0.900000E-01   1.00800           0
     21358 MEMB     171      PMPG     C310     CTL2    -0.180000       12.0110           0
     21359 MEMB     171      PMPG     H10X     HAL2     0.900000E-01   1.00800           0
     21360 MEMB     171      PMPG     H10Y     HAL2     0.900000E-01   1.00800           0
     21361 MEMB     171      PMPG     C311     CTL2    -0.180000       12.0110           0
     21362 MEMB     171      PMPG     H11X     HAL2     0.900000E-01   1.00800           0
     21363 MEMB     171      PMPG     H11Y     HAL2     0.900000E-01   1.00800           0
     21364 MEMB     171      PMPG     C312     CTL2    -0.180000       12.0110           0
     21365 MEMB     171      PMPG     H12X     HAL2     0.900000E-01   1.00800           0
     21366 MEMB     171      PMPG     H12Y     HAL2     0.900000E-01   1.00800           0
     21367 MEMB     171      PMPG     C313     CTL2    -0.180000       12.0110           0
     21368 MEMB     171      PMPG     H13X     HAL2     0.900000E-01   1.00800           0
     21369 MEMB     171      PMPG     H13Y     HAL2     0.900000E-01   1.00800           0
     21370 MEMB     171      PMPG     C314     CTL2    -0.180000       12.0110           0
     21371 MEMB     171      PMPG     H14X     HAL2     0.900000E-01   1.00800           0
     21372 MEMB     171      PMPG     H14Y     HAL2     0.900000E-01   1.00800           0
     21373 MEMB     171      PMPG     C315     CTL2    -0.180000       12.0110           0
     21374 MEMB     171      PMPG     H15X     HAL2     0.900000E-01   1.00800           0
     21375 MEMB     171      PMPG     H15Y     HAL2     0.900000E-01   1.00800           0
     21376 MEMB     171      PMPG     C316     CTL3    -0.270000       12.0110           0
     21377 MEMB     171      PMPG     H16X     HAL3     0.900000E-01   1.00800           0
     21378 MEMB     171      PMPG     H16Y     HAL3     0.900000E-01   1.00800           0
     21379 MEMB     171      PMPG     H16Z     HAL3     0.900000E-01   1.00800           0
     21380 MEMB     172      PMPE     N        NH3L    -0.300000       14.0070           0
     21381 MEMB     172      PMPE     HN1      HCL      0.330000       1.00800           0
     21382 MEMB     172      PMPE     HN2      HCL      0.330000       1.00800           0
     21383 MEMB     172      PMPE     HN3      HCL      0.330000       1.00800           0
     21384 MEMB     172      PMPE     C12      CTL2     0.130000       12.0110           0
     21385 MEMB     172      PMPE     H12A     HAL2     0.900000E-01   1.00800           0
     21386 MEMB     172      PMPE     H12B     HAL2     0.900000E-01   1.00800           0
     21387 MEMB     172      PMPE     C11      CTL2    -0.800000E-01   12.0110           0
     21388 MEMB     172      PMPE     H11A     HAL2     0.900000E-01   1.00800           0
     21389 MEMB     172      PMPE     H11B     HAL2     0.900000E-01   1.00800           0
     21390 MEMB     172      PMPE     P        PL        1.50000       30.9740           0
     21391 MEMB     172      PMPE     O13      O2L     -0.780000       15.9994           0
     21392 MEMB     172      PMPE     O14      O2L     -0.780000       15.9994           0
     21393 MEMB     172      PMPE     O11      OSLP    -0.570000       15.9994           0
     21394 MEMB     172      PMPE     O12      OSLP    -0.570000       15.9994           0
     21395 MEMB     172      PMPE     C1       CTL2    -0.800000E-01   12.0110           0
     21396 MEMB     172      PMPE     HA       HAL2     0.900000E-01   1.00800           0
     21397 MEMB     172      PMPE     HB       HAL2     0.900000E-01   1.00800           0
     21398 MEMB     172      PMPE     C2       CTL1     0.170000       12.0110           0
     21399 MEMB     172      PMPE     HS       HAL1     0.900000E-01   1.00800           0
     21400 MEMB     172      PMPE     O21      OSL     -0.490000       15.9994           0
     21401 MEMB     172      PMPE     C21      CL       0.900000       12.0110           0
     21402 MEMB     172      PMPE     O22      OBL     -0.630000       15.9994           0
     21403 MEMB     172      PMPE     C22      CTL2    -0.220000       12.0110           0
     21404 MEMB     172      PMPE     H2R      HAL2     0.900000E-01   1.00800           0
     21405 MEMB     172      PMPE     H2S      HAL2     0.900000E-01   1.00800           0
     21406 MEMB     172      PMPE     C3       CTL2     0.800000E-01   12.0110           0
     21407 MEMB     172      PMPE     HX       HAL2     0.900000E-01   1.00800           0
     21408 MEMB     172      PMPE     HY       HAL2     0.900000E-01   1.00800           0
     21409 MEMB     172      PMPE     O31      OSL     -0.490000       15.9994           0
     21410 MEMB     172      PMPE     C31      CL       0.900000       12.0110           0
     21411 MEMB     172      PMPE     O32      OBL     -0.630000       15.9994           0
     21412 MEMB     172      PMPE     C32      CTL2    -0.220000       12.0110           0
     21413 MEMB     172      PMPE     H2X      HAL2     0.900000E-01   1.00800           0
     21414 MEMB     172      PMPE     H2Y      HAL2     0.900000E-01   1.00800           0
     21415 MEMB     172      PMPE     C23      CTL2    -0.180000       12.0110           0
     21416 MEMB     172      PMPE     H3R      HAL2     0.900000E-01   1.00800           0
     21417 MEMB     172      PMPE     H3S      HAL2     0.900000E-01   1.00800           0
     21418 MEMB     172      PMPE     C24      CTL2    -0.180000       12.0110           0
     21419 MEMB     172      PMPE     H4R      HAL2     0.900000E-01   1.00800           0
     21420 MEMB     172      PMPE     H4S      HAL2     0.900000E-01   1.00800           0
     21421 MEMB     172      PMPE     C25      CTL2    -0.180000       12.0110           0
     21422 MEMB     172      PMPE     H5R      HAL2     0.900000E-01   1.00800           0
     21423 MEMB     172      PMPE     H5S      HAL2     0.900000E-01   1.00800           0
     21424 MEMB     172      PMPE     C26      CTL2    -0.180000       12.0110           0
     21425 MEMB     172      PMPE     H6R      HAL2     0.900000E-01   1.00800           0
     21426 MEMB     172      PMPE     H6S      HAL2     0.900000E-01   1.00800           0
     21427 MEMB     172      PMPE     C27      CTL2    -0.180000       12.0110           0
     21428 MEMB     172      PMPE     H7R      HAL2     0.900000E-01   1.00800           0
     21429 MEMB     172      PMPE     H7S      HAL2     0.900000E-01   1.00800           0
     21430 MEMB     172      PMPE     C28      CTL2    -0.180000       12.0110           0
     21431 MEMB     172      PMPE     H8R      HAL2     0.900000E-01   1.00800           0
     21432 MEMB     172      PMPE     H8S      HAL2     0.900000E-01   1.00800           0
     21433 MEMB     172      PMPE     C29      CG3RC1  -0.900000E-01   12.0110           0
     21434 MEMB     172      PMPE     H9R      HGA1     0.900000E-01   1.00800           0
     21435 MEMB     172      PMPE     C217     CG3C31  -0.180000       12.0110           0
     21436 MEMB     172      PMPE     H17R     HGA2     0.900000E-01   1.00800           0
     21437 MEMB     172      PMPE     H17S     HGA2     0.900000E-01   1.00800           0
     21438 MEMB     172      PMPE     C210     CG3RC1  -0.900000E-01   12.0110           0
     21439 MEMB     172      PMPE     H10R     HGA1     0.900000E-01   1.00800           0
     21440 MEMB     172      PMPE     C211     CTL2    -0.180000       12.0110           0
     21441 MEMB     172      PMPE     H11R     HAL2     0.900000E-01   1.00800           0
     21442 MEMB     172      PMPE     H11S     HAL2     0.900000E-01   1.00800           0
     21443 MEMB     172      PMPE     C212     CTL2    -0.180000       12.0110           0
     21444 MEMB     172      PMPE     H12R     HAL2     0.900000E-01   1.00800           0
     21445 MEMB     172      PMPE     H12S     HAL2     0.900000E-01   1.00800           0
     21446 MEMB     172      PMPE     C213     CTL2    -0.180000       12.0110           0
     21447 MEMB     172      PMPE     H13R     HAL2     0.900000E-01   1.00800           0
     21448 MEMB     172      PMPE     H13S     HAL2     0.900000E-01   1.00800           0
     21449 MEMB     172      PMPE     C214     CTL2    -0.180000       12.0110           0
     21450 MEMB     172      PMPE     H14R     HAL2     0.900000E-01   1.00800           0
     21451 MEMB     172      PMPE     H14S     HAL2     0.900000E-01   1.00800           0
     21452 MEMB     172      PMPE     C215     CTL2    -0.180000       12.0110           0
     21453 MEMB     172      PMPE     H15R     HAL2     0.900000E-01   1.00800           0
     21454 MEMB     172      PMPE     H15S     HAL2     0.900000E-01   1.00800           0
     21455 MEMB     172      PMPE     C216     CTL3    -0.270000       12.0110           0
     21456 MEMB     172      PMPE     H16R     HAL3     0.900000E-01   1.00800           0
     21457 MEMB     172      PMPE     H16S     HAL3     0.900000E-01   1.00800           0
     21458 MEMB     172      PMPE     H16T     HAL3     0.900000E-01   1.00800           0
     21459 MEMB     172      PMPE     C33      CTL2    -0.180000       12.0110           0
     21460 MEMB     172      PMPE     H3X      HAL2     0.900000E-01   1.00800           0
     21461 MEMB     172      PMPE     H3Y      HAL2     0.900000E-01   1.00800           0
     21462 MEMB     172      PMPE     C34      CTL2    -0.180000       12.0110           0
     21463 MEMB     172      PMPE     H4X      HAL2     0.900000E-01   1.00800           0
     21464 MEMB     172      PMPE     H4Y      HAL2     0.900000E-01   1.00800           0
     21465 MEMB     172      PMPE     C35      CTL2    -0.180000       12.0110           0
     21466 MEMB     172      PMPE     H5X      HAL2     0.900000E-01   1.00800           0
     21467 MEMB     172      PMPE     H5Y      HAL2     0.900000E-01   1.00800           0
     21468 MEMB     172      PMPE     C36      CTL2    -0.180000       12.0110           0
     21469 MEMB     172      PMPE     H6X      HAL2     0.900000E-01   1.00800           0
     21470 MEMB     172      PMPE     H6Y      HAL2     0.900000E-01   1.00800           0
     21471 MEMB     172      PMPE     C37      CTL2    -0.180000       12.0110           0
     21472 MEMB     172      PMPE     H7X      HAL2     0.900000E-01   1.00800           0
     21473 MEMB     172      PMPE     H7Y      HAL2     0.900000E-01   1.00800           0
     21474 MEMB     172      PMPE     C38      CTL2    -0.180000       12.0110           0
     21475 MEMB     172      PMPE     H8X      HAL2     0.900000E-01   1.00800           0
     21476 MEMB     172      PMPE     H8Y      HAL2     0.900000E-01   1.00800           0
     21477 MEMB     172      PMPE     C39      CTL2    -0.180000       12.0110           0
     21478 MEMB     172      PMPE     H9X      HAL2     0.900000E-01   1.00800           0
     21479 MEMB     172      PMPE     H9Y      HAL2     0.900000E-01   1.00800           0
     21480 MEMB     172      PMPE     C310     CTL2    -0.180000       12.0110           0
     21481 MEMB     172      PMPE     H10X     HAL2     0.900000E-01   1.00800           0
     21482 MEMB     172      PMPE     H10Y     HAL2     0.900000E-01   1.00800           0
     21483 MEMB     172      PMPE     C311     CTL2    -0.180000       12.0110           0
     21484 MEMB     172      PMPE     H11X     HAL2     0.900000E-01   1.00800           0
     21485 MEMB     172      PMPE     H11Y     HAL2     0.900000E-01   1.00800           0
     21486 MEMB     172      PMPE     C312     CTL2    -0.180000       12.0110           0
     21487 MEMB     172      PMPE     H12X     HAL2     0.900000E-01   1.00800           0
     21488 MEMB     172      PMPE     H12Y     HAL2     0.900000E-01   1.00800           0
     21489 MEMB     172      PMPE     C313     CTL2    -0.180000       12.0110           0
     21490 MEMB     172      PMPE     H13X     HAL2     0.900000E-01   1.00800           0
     21491 MEMB     172      PMPE     H13Y     HAL2     0.900000E-01   1.00800           0
     21492 MEMB     172      PMPE     C314     CTL2    -0.180000       12.0110           0
     21493 MEMB     172      PMPE     H14X     HAL2     0.900000E-01   1.00800           0
     21494 MEMB     172      PMPE     H14Y     HAL2     0.900000E-01   1.00800           0
     21495 MEMB     172      PMPE     C315     CTL2    -0.180000       12.0110           0
     21496 MEMB     172      PMPE     H15X     HAL2     0.900000E-01   1.00800           0
     21497 MEMB     172      PMPE     H15Y     HAL2     0.900000E-01   1.00800           0
     21498 MEMB     172      PMPE     C316     CTL3    -0.270000       12.0110           0
     21499 MEMB     172      PMPE     H16X     HAL3     0.900000E-01   1.00800           0
     21500 MEMB     172      PMPE     H16Y     HAL3     0.900000E-01   1.00800           0
     21501 MEMB     172      PMPE     H16Z     HAL3     0.900000E-01   1.00800           0
     21502 MEMB     173      PMPE     N        NH3L    -0.300000       14.0070           0
     21503 MEMB     173      PMPE     HN1      HCL      0.330000       1.00800           0
     21504 MEMB     173      PMPE     HN2      HCL      0.330000       1.00800           0
     21505 MEMB     173      PMPE     HN3      HCL      0.330000       1.00800           0
     21506 MEMB     173      PMPE     C12      CTL2     0.130000       12.0110           0
     21507 MEMB     173      PMPE     H12A     HAL2     0.900000E-01   1.00800           0
     21508 MEMB     173      PMPE     H12B     HAL2     0.900000E-01   1.00800           0
     21509 MEMB     173      PMPE     C11      CTL2    -0.800000E-01   12.0110           0
     21510 MEMB     173      PMPE     H11A     HAL2     0.900000E-01   1.00800           0
     21511 MEMB     173      PMPE     H11B     HAL2     0.900000E-01   1.00800           0
     21512 MEMB     173      PMPE     P        PL        1.50000       30.9740           0
     21513 MEMB     173      PMPE     O13      O2L     -0.780000       15.9994           0
     21514 MEMB     173      PMPE     O14      O2L     -0.780000       15.9994           0
     21515 MEMB     173      PMPE     O11      OSLP    -0.570000       15.9994           0
     21516 MEMB     173      PMPE     O12      OSLP    -0.570000       15.9994           0
     21517 MEMB     173      PMPE     C1       CTL2    -0.800000E-01   12.0110           0
     21518 MEMB     173      PMPE     HA       HAL2     0.900000E-01   1.00800           0
     21519 MEMB     173      PMPE     HB       HAL2     0.900000E-01   1.00800           0
     21520 MEMB     173      PMPE     C2       CTL1     0.170000       12.0110           0
     21521 MEMB     173      PMPE     HS       HAL1     0.900000E-01   1.00800           0
     21522 MEMB     173      PMPE     O21      OSL     -0.490000       15.9994           0
     21523 MEMB     173      PMPE     C21      CL       0.900000       12.0110           0
     21524 MEMB     173      PMPE     O22      OBL     -0.630000       15.9994           0
     21525 MEMB     173      PMPE     C22      CTL2    -0.220000       12.0110           0
     21526 MEMB     173      PMPE     H2R      HAL2     0.900000E-01   1.00800           0
     21527 MEMB     173      PMPE     H2S      HAL2     0.900000E-01   1.00800           0
     21528 MEMB     173      PMPE     C3       CTL2     0.800000E-01   12.0110           0
     21529 MEMB     173      PMPE     HX       HAL2     0.900000E-01   1.00800           0
     21530 MEMB     173      PMPE     HY       HAL2     0.900000E-01   1.00800           0
     21531 MEMB     173      PMPE     O31      OSL     -0.490000       15.9994           0
     21532 MEMB     173      PMPE     C31      CL       0.900000       12.0110           0
     21533 MEMB     173      PMPE     O32      OBL     -0.630000       15.9994           0
     21534 MEMB     173      PMPE     C32      CTL2    -0.220000       12.0110           0
     21535 MEMB     173      PMPE     H2X      HAL2     0.900000E-01   1.00800           0
     21536 MEMB     173      PMPE     H2Y      HAL2     0.900000E-01   1.00800           0
     21537 MEMB     173      PMPE     C23      CTL2    -0.180000       12.0110           0
     21538 MEMB     173      PMPE     H3R      HAL2     0.900000E-01   1.00800           0
     21539 MEMB     173      PMPE     H3S      HAL2     0.900000E-01   1.00800           0
     21540 MEMB     173      PMPE     C24      CTL2    -0.180000       12.0110           0
     21541 MEMB     173      PMPE     H4R      HAL2     0.900000E-01   1.00800           0
     21542 MEMB     173      PMPE     H4S      HAL2     0.900000E-01   1.00800           0
     21543 MEMB     173      PMPE     C25      CTL2    -0.180000       12.0110           0
     21544 MEMB     173      PMPE     H5R      HAL2     0.900000E-01   1.00800           0
     21545 MEMB     173      PMPE     H5S      HAL2     0.900000E-01   1.00800           0
     21546 MEMB     173      PMPE     C26      CTL2    -0.180000       12.0110           0
     21547 MEMB     173      PMPE     H6R      HAL2     0.900000E-01   1.00800           0
     21548 MEMB     173      PMPE     H6S      HAL2     0.900000E-01   1.00800           0
     21549 MEMB     173      PMPE     C27      CTL2    -0.180000       12.0110           0
     21550 MEMB     173      PMPE     H7R      HAL2     0.900000E-01   1.00800           0
     21551 MEMB     173      PMPE     H7S      HAL2     0.900000E-01   1.00800           0
     21552 MEMB     173      PMPE     C28      CTL2    -0.180000       12.0110           0
     21553 MEMB     173      PMPE     H8R      HAL2     0.900000E-01   1.00800           0
     21554 MEMB     173      PMPE     H8S      HAL2     0.900000E-01   1.00800           0
     21555 MEMB     173      PMPE     C29      CG3RC1  -0.900000E-01   12.0110           0
     21556 MEMB     173      PMPE     H9R      HGA1     0.900000E-01   1.00800           0
     21557 MEMB     173      PMPE     C217     CG3C31  -0.180000       12.0110           0
     21558 MEMB     173      PMPE     H17R     HGA2     0.900000E-01   1.00800           0
     21559 MEMB     173      PMPE     H17S     HGA2     0.900000E-01   1.00800           0
     21560 MEMB     173      PMPE     C210     CG3RC1  -0.900000E-01   12.0110           0
     21561 MEMB     173      PMPE     H10R     HGA1     0.900000E-01   1.00800           0
     21562 MEMB     173      PMPE     C211     CTL2    -0.180000       12.0110           0
     21563 MEMB     173      PMPE     H11R     HAL2     0.900000E-01   1.00800           0
     21564 MEMB     173      PMPE     H11S     HAL2     0.900000E-01   1.00800           0
     21565 MEMB     173      PMPE     C212     CTL2    -0.180000       12.0110           0
     21566 MEMB     173      PMPE     H12R     HAL2     0.900000E-01   1.00800           0
     21567 MEMB     173      PMPE     H12S     HAL2     0.900000E-01   1.00800           0
     21568 MEMB     173      PMPE     C213     CTL2    -0.180000       12.0110           0
     21569 MEMB     173      PMPE     H13R     HAL2     0.900000E-01   1.00800           0
     21570 MEMB     173      PMPE     H13S     HAL2     0.900000E-01   1.00800           0
     21571 MEMB     173      PMPE     C214     CTL2    -0.180000       12.0110           0
     21572 MEMB     173      PMPE     H14R     HAL2     0.900000E-01   1.00800           0
     21573 MEMB     173      PMPE     H14S     HAL2     0.900000E-01   1.00800           0
     21574 MEMB     173      PMPE     C215     CTL2    -0.180000       12.0110           0
     21575 MEMB     173      PMPE     H15R     HAL2     0.900000E-01   1.00800           0
     21576 MEMB     173      PMPE     H15S     HAL2     0.900000E-01   1.00800           0
     21577 MEMB     173      PMPE     C216     CTL3    -0.270000       12.0110           0
     21578 MEMB     173      PMPE     H16R     HAL3     0.900000E-01   1.00800           0
     21579 MEMB     173      PMPE     H16S     HAL3     0.900000E-01   1.00800           0
     21580 MEMB     173      PMPE     H16T     HAL3     0.900000E-01   1.00800           0
     21581 MEMB     173      PMPE     C33      CTL2    -0.180000       12.0110           0
     21582 MEMB     173      PMPE     H3X      HAL2     0.900000E-01   1.00800           0
     21583 MEMB     173      PMPE     H3Y      HAL2     0.900000E-01   1.00800           0
     21584 MEMB     173      PMPE     C34      CTL2    -0.180000       12.0110           0
     21585 MEMB     173      PMPE     H4X      HAL2     0.900000E-01   1.00800           0
     21586 MEMB     173      PMPE     H4Y      HAL2     0.900000E-01   1.00800           0
     21587 MEMB     173      PMPE     C35      CTL2    -0.180000       12.0110           0
     21588 MEMB     173      PMPE     H5X      HAL2     0.900000E-01   1.00800           0
     21589 MEMB     173      PMPE     H5Y      HAL2     0.900000E-01   1.00800           0
     21590 MEMB     173      PMPE     C36      CTL2    -0.180000       12.0110           0
     21591 MEMB     173      PMPE     H6X      HAL2     0.900000E-01   1.00800           0
     21592 MEMB     173      PMPE     H6Y      HAL2     0.900000E-01   1.00800           0
     21593 MEMB     173      PMPE     C37      CTL2    -0.180000       12.0110           0
     21594 MEMB     173      PMPE     H7X      HAL2     0.900000E-01   1.00800           0
     21595 MEMB     173      PMPE     H7Y      HAL2     0.900000E-01   1.00800           0
     21596 MEMB     173      PMPE     C38      CTL2    -0.180000       12.0110           0
     21597 MEMB     173      PMPE     H8X      HAL2     0.900000E-01   1.00800           0
     21598 MEMB     173      PMPE     H8Y      HAL2     0.900000E-01   1.00800           0
     21599 MEMB     173      PMPE     C39      CTL2    -0.180000       12.0110           0
     21600 MEMB     173      PMPE     H9X      HAL2     0.900000E-01   1.00800           0
     21601 MEMB     173      PMPE     H9Y      HAL2     0.900000E-01   1.00800           0
     21602 MEMB     173      PMPE     C310     CTL2    -0.180000       12.0110           0
     21603 MEMB     173      PMPE     H10X     HAL2     0.900000E-01   1.00800           0
     21604 MEMB     173      PMPE     H10Y     HAL2     0.900000E-01   1.00800           0
     21605 MEMB     173      PMPE     C311     CTL2    -0.180000       12.0110           0
     21606 MEMB     173      PMPE     H11X     HAL2     0.900000E-01   1.00800           0
     21607 MEMB     173      PMPE     H11Y     HAL2     0.900000E-01   1.00800           0
     21608 MEMB     173      PMPE     C312     CTL2    -0.180000       12.0110           0
     21609 MEMB     173      PMPE     H12X     HAL2     0.900000E-01   1.00800           0
     21610 MEMB     173      PMPE     H12Y     HAL2     0.900000E-01   1.00800           0
     21611 MEMB     173      PMPE     C313     CTL2    -0.180000       12.0110           0
     21612 MEMB     173      PMPE     H13X     HAL2     0.900000E-01   1.00800           0
     21613 MEMB     173      PMPE     H13Y     HAL2     0.900000E-01   1.00800           0
     21614 MEMB     173      PMPE     C314     CTL2    -0.180000       12.0110           0
     21615 MEMB     173      PMPE     H14X     HAL2     0.900000E-01   1.00800           0
     21616 MEMB     173      PMPE     H14Y     HAL2     0.900000E-01   1.00800           0
     21617 MEMB     173      PMPE     C315     CTL2    -0.180000       12.0110           0
     21618 MEMB     173      PMPE     H15X     HAL2     0.900000E-01   1.00800           0
     21619 MEMB     173      PMPE     H15Y     HAL2     0.900000E-01   1.00800           0
     21620 MEMB     173      PMPE     C316     CTL3    -0.270000       12.0110           0
     21621 MEMB     173      PMPE     H16X     HAL3     0.900000E-01   1.00800           0
     21622 MEMB     173      PMPE     H16Y     HAL3     0.900000E-01   1.00800           0
     21623 MEMB     173      PMPE     H16Z     HAL3     0.900000E-01   1.00800           0
     21624 MEMB     174      PMPE     N        NH3L    -0.300000       14.0070           0
     21625 MEMB     174      PMPE     HN1      HCL      0.330000       1.00800           0
     21626 MEMB     174      PMPE     HN2      HCL      0.330000       1.00800           0
     21627 MEMB     174      PMPE     HN3      HCL      0.330000       1.00800           0
     21628 MEMB     174      PMPE     C12      CTL2     0.130000       12.0110           0
     21629 MEMB     174      PMPE     H12A     HAL2     0.900000E-01   1.00800           0
     21630 MEMB     174      PMPE     H12B     HAL2     0.900000E-01   1.00800           0
     21631 MEMB     174      PMPE     C11      CTL2    -0.800000E-01   12.0110           0
     21632 MEMB     174      PMPE     H11A     HAL2     0.900000E-01   1.00800           0
     21633 MEMB     174      PMPE     H11B     HAL2     0.900000E-01   1.00800           0
     21634 MEMB     174      PMPE     P        PL        1.50000       30.9740           0
     21635 MEMB     174      PMPE     O13      O2L     -0.780000       15.9994           0
     21636 MEMB     174      PMPE     O14      O2L     -0.780000       15.9994           0
     21637 MEMB     174      PMPE     O11      OSLP    -0.570000       15.9994           0
     21638 MEMB     174      PMPE     O12      OSLP    -0.570000       15.9994           0
     21639 MEMB     174      PMPE     C1       CTL2    -0.800000E-01   12.0110           0
     21640 MEMB     174      PMPE     HA       HAL2     0.900000E-01   1.00800           0
     21641 MEMB     174      PMPE     HB       HAL2     0.900000E-01   1.00800           0
     21642 MEMB     174      PMPE     C2       CTL1     0.170000       12.0110           0
     21643 MEMB     174      PMPE     HS       HAL1     0.900000E-01   1.00800           0
     21644 MEMB     174      PMPE     O21      OSL     -0.490000       15.9994           0
     21645 MEMB     174      PMPE     C21      CL       0.900000       12.0110           0
     21646 MEMB     174      PMPE     O22      OBL     -0.630000       15.9994           0
     21647 MEMB     174      PMPE     C22      CTL2    -0.220000       12.0110           0
     21648 MEMB     174      PMPE     H2R      HAL2     0.900000E-01   1.00800           0
     21649 MEMB     174      PMPE     H2S      HAL2     0.900000E-01   1.00800           0
     21650 MEMB     174      PMPE     C3       CTL2     0.800000E-01   12.0110           0
     21651 MEMB     174      PMPE     HX       HAL2     0.900000E-01   1.00800           0
     21652 MEMB     174      PMPE     HY       HAL2     0.900000E-01   1.00800           0
     21653 MEMB     174      PMPE     O31      OSL     -0.490000       15.9994           0
     21654 MEMB     174      PMPE     C31      CL       0.900000       12.0110           0
     21655 MEMB     174      PMPE     O32      OBL     -0.630000       15.9994           0
     21656 MEMB     174      PMPE     C32      CTL2    -0.220000       12.0110           0
     21657 MEMB     174      PMPE     H2X      HAL2     0.900000E-01   1.00800           0
     21658 MEMB     174      PMPE     H2Y      HAL2     0.900000E-01   1.00800           0
     21659 MEMB     174      PMPE     C23      CTL2    -0.180000       12.0110           0
     21660 MEMB     174      PMPE     H3R      HAL2     0.900000E-01   1.00800           0
     21661 MEMB     174      PMPE     H3S      HAL2     0.900000E-01   1.00800           0
     21662 MEMB     174      PMPE     C24      CTL2    -0.180000       12.0110           0
     21663 MEMB     174      PMPE     H4R      HAL2     0.900000E-01   1.00800           0
     21664 MEMB     174      PMPE     H4S      HAL2     0.900000E-01   1.00800           0
     21665 MEMB     174      PMPE     C25      CTL2    -0.180000       12.0110           0
     21666 MEMB     174      PMPE     H5R      HAL2     0.900000E-01   1.00800           0
     21667 MEMB     174      PMPE     H5S      HAL2     0.900000E-01   1.00800           0
     21668 MEMB     174      PMPE     C26      CTL2    -0.180000       12.0110           0
     21669 MEMB     174      PMPE     H6R      HAL2     0.900000E-01   1.00800           0
     21670 MEMB     174      PMPE     H6S      HAL2     0.900000E-01   1.00800           0
     21671 MEMB     174      PMPE     C27      CTL2    -0.180000       12.0110           0
     21672 MEMB     174      PMPE     H7R      HAL2     0.900000E-01   1.00800           0
     21673 MEMB     174      PMPE     H7S      HAL2     0.900000E-01   1.00800           0
     21674 MEMB     174      PMPE     C28      CTL2    -0.180000       12.0110           0
     21675 MEMB     174      PMPE     H8R      HAL2     0.900000E-01   1.00800           0
     21676 MEMB     174      PMPE     H8S      HAL2     0.900000E-01   1.00800           0
     21677 MEMB     174      PMPE     C29      CG3RC1  -0.900000E-01   12.0110           0
     21678 MEMB     174      PMPE     H9R      HGA1     0.900000E-01   1.00800           0
     21679 MEMB     174      PMPE     C217     CG3C31  -0.180000       12.0110           0
     21680 MEMB     174      PMPE     H17R     HGA2     0.900000E-01   1.00800           0
     21681 MEMB     174      PMPE     H17S     HGA2     0.900000E-01   1.00800           0
     21682 MEMB     174      PMPE     C210     CG3RC1  -0.900000E-01   12.0110           0
     21683 MEMB     174      PMPE     H10R     HGA1     0.900000E-01   1.00800           0
     21684 MEMB     174      PMPE     C211     CTL2    -0.180000       12.0110           0
     21685 MEMB     174      PMPE     H11R     HAL2     0.900000E-01   1.00800           0
     21686 MEMB     174      PMPE     H11S     HAL2     0.900000E-01   1.00800           0
     21687 MEMB     174      PMPE     C212     CTL2    -0.180000       12.0110           0
     21688 MEMB     174      PMPE     H12R     HAL2     0.900000E-01   1.00800           0
     21689 MEMB     174      PMPE     H12S     HAL2     0.900000E-01   1.00800           0
     21690 MEMB     174      PMPE     C213     CTL2    -0.180000       12.0110           0
     21691 MEMB     174      PMPE     H13R     HAL2     0.900000E-01   1.00800           0
     21692 MEMB     174      PMPE     H13S     HAL2     0.900000E-01   1.00800           0
     21693 MEMB     174      PMPE     C214     CTL2    -0.180000       12.0110           0
     21694 MEMB     174      PMPE     H14R     HAL2     0.900000E-01   1.00800           0
     21695 MEMB     174      PMPE     H14S     HAL2     0.900000E-01   1.00800           0
     21696 MEMB     174      PMPE     C215     CTL2    -0.180000       12.0110           0
     21697 MEMB     174      PMPE     H15R     HAL2     0.900000E-01   1.00800           0
     21698 MEMB     174      PMPE     H15S     HAL2     0.900000E-01   1.00800           0
     21699 MEMB     174      PMPE     C216     CTL3    -0.270000       12.0110           0
     21700 MEMB     174      PMPE     H16R     HAL3     0.900000E-01   1.00800           0
     21701 MEMB     174      PMPE     H16S     HAL3     0.900000E-01   1.00800           0
     21702 MEMB     174      PMPE     H16T     HAL3     0.900000E-01   1.00800           0
     21703 MEMB     174      PMPE     C33      CTL2    -0.180000       12.0110           0
     21704 MEMB     174      PMPE     H3X      HAL2     0.900000E-01   1.00800           0
     21705 MEMB     174      PMPE     H3Y      HAL2     0.900000E-01   1.00800           0
     21706 MEMB     174      PMPE     C34      CTL2    -0.180000       12.0110           0
     21707 MEMB     174      PMPE     H4X      HAL2     0.900000E-01   1.00800           0
     21708 MEMB     174      PMPE     H4Y      HAL2     0.900000E-01   1.00800           0
     21709 MEMB     174      PMPE     C35      CTL2    -0.180000       12.0110           0
     21710 MEMB     174      PMPE     H5X      HAL2     0.900000E-01   1.00800           0
     21711 MEMB     174      PMPE     H5Y      HAL2     0.900000E-01   1.00800           0
     21712 MEMB     174      PMPE     C36      CTL2    -0.180000       12.0110           0
     21713 MEMB     174      PMPE     H6X      HAL2     0.900000E-01   1.00800           0
     21714 MEMB     174      PMPE     H6Y      HAL2     0.900000E-01   1.00800           0
     21715 MEMB     174      PMPE     C37      CTL2    -0.180000       12.0110           0
     21716 MEMB     174      PMPE     H7X      HAL2     0.900000E-01   1.00800           0
     21717 MEMB     174      PMPE     H7Y      HAL2     0.900000E-01   1.00800           0
     21718 MEMB     174      PMPE     C38      CTL2    -0.180000       12.0110           0
     21719 MEMB     174      PMPE     H8X      HAL2     0.900000E-01   1.00800           0
     21720 MEMB     174      PMPE     H8Y      HAL2     0.900000E-01   1.00800           0
     21721 MEMB     174      PMPE     C39      CTL2    -0.180000       12.0110           0
     21722 MEMB     174      PMPE     H9X      HAL2     0.900000E-01   1.00800           0
     21723 MEMB     174      PMPE     H9Y      HAL2     0.900000E-01   1.00800           0
     21724 MEMB     174      PMPE     C310     CTL2    -0.180000       12.0110           0
     21725 MEMB     174      PMPE     H10X     HAL2     0.900000E-01   1.00800           0
     21726 MEMB     174      PMPE     H10Y     HAL2     0.900000E-01   1.00800           0
     21727 MEMB     174      PMPE     C311     CTL2    -0.180000       12.0110           0
     21728 MEMB     174      PMPE     H11X     HAL2     0.900000E-01   1.00800           0
     21729 MEMB     174      PMPE     H11Y     HAL2     0.900000E-01   1.00800           0
     21730 MEMB     174      PMPE     C312     CTL2    -0.180000       12.0110           0
     21731 MEMB     174      PMPE     H12X     HAL2     0.900000E-01   1.00800           0
     21732 MEMB     174      PMPE     H12Y     HAL2     0.900000E-01   1.00800           0
     21733 MEMB     174      PMPE     C313     CTL2    -0.180000       12.0110           0
     21734 MEMB     174      PMPE     H13X     HAL2     0.900000E-01   1.00800           0
     21735 MEMB     174      PMPE     H13Y     HAL2     0.900000E-01   1.00800           0
     21736 MEMB     174      PMPE     C314     CTL2    -0.180000       12.0110           0
     21737 MEMB     174      PMPE     H14X     HAL2     0.900000E-01   1.00800           0
     21738 MEMB     174      PMPE     H14Y     HAL2     0.900000E-01   1.00800           0
     21739 MEMB     174      PMPE     C315     CTL2    -0.180000       12.0110           0
     21740 MEMB     174      PMPE     H15X     HAL2     0.900000E-01   1.00800           0
     21741 MEMB     174      PMPE     H15Y     HAL2     0.900000E-01   1.00800           0
     21742 MEMB     174      PMPE     C316     CTL3    -0.270000       12.0110           0
     21743 MEMB     174      PMPE     H16X     HAL3     0.900000E-01   1.00800           0
     21744 MEMB     174      PMPE     H16Y     HAL3     0.900000E-01   1.00800           0
     21745 MEMB     174      PMPE     H16Z     HAL3     0.900000E-01   1.00800           0
     21746 MEMB     175      PMPG     C13      CTL2     0.500000E-01   12.0110           0
     21747 MEMB     175      PMPG     H13A     HAL2     0.900000E-01   1.00800           0
     21748 MEMB     175      PMPG     H13B     HAL2     0.900000E-01   1.00800           0
     21749 MEMB     175      PMPG     OC3      OHL     -0.660000       15.9994           0
     21750 MEMB     175      PMPG     HO3      HOL      0.430000       1.00800           0
     21751 MEMB     175      PMPG     C12      CTL1     0.140000       12.0110           0
     21752 MEMB     175      PMPG     H12A     HAL1     0.900000E-01   1.00800           0
     21753 MEMB     175      PMPG     OC2      OHL     -0.660000       15.9994           0
     21754 MEMB     175      PMPG     HO2      HOL      0.430000       1.00800           0
     21755 MEMB     175      PMPG     C11      CTL2    -0.800000E-01   12.0110           0
     21756 MEMB     175      PMPG     H11A     HAL2     0.900000E-01   1.00800           0
     21757 MEMB     175      PMPG     H11B     HAL2     0.900000E-01   1.00800           0
     21758 MEMB     175      PMPG     P        PL        1.50000       30.9740           0
     21759 MEMB     175      PMPG     O13      O2L     -0.780000       15.9994           0
     21760 MEMB     175      PMPG     O14      O2L     -0.780000       15.9994           0
     21761 MEMB     175      PMPG     O11      OSLP    -0.570000       15.9994           0
     21762 MEMB     175      PMPG     O12      OSLP    -0.570000       15.9994           0
     21763 MEMB     175      PMPG     C1       CTL2    -0.800000E-01   12.0110           0
     21764 MEMB     175      PMPG     HA       HAL2     0.900000E-01   1.00800           0
     21765 MEMB     175      PMPG     HB       HAL2     0.900000E-01   1.00800           0
     21766 MEMB     175      PMPG     C2       CTL1     0.170000       12.0110           0
     21767 MEMB     175      PMPG     HS       HAL1     0.900000E-01   1.00800           0
     21768 MEMB     175      PMPG     O21      OSL     -0.490000       15.9994           0
     21769 MEMB     175      PMPG     C21      CL       0.900000       12.0110           0
     21770 MEMB     175      PMPG     O22      OBL     -0.630000       15.9994           0
     21771 MEMB     175      PMPG     C22      CTL2    -0.220000       12.0110           0
     21772 MEMB     175      PMPG     H2R      HAL2     0.900000E-01   1.00800           0
     21773 MEMB     175      PMPG     H2S      HAL2     0.900000E-01   1.00800           0
     21774 MEMB     175      PMPG     C3       CTL2     0.800000E-01   12.0110           0
     21775 MEMB     175      PMPG     HX       HAL2     0.900000E-01   1.00800           0
     21776 MEMB     175      PMPG     HY       HAL2     0.900000E-01   1.00800           0
     21777 MEMB     175      PMPG     O31      OSL     -0.490000       15.9994           0
     21778 MEMB     175      PMPG     C31      CL       0.900000       12.0110           0
     21779 MEMB     175      PMPG     O32      OBL     -0.630000       15.9994           0
     21780 MEMB     175      PMPG     C32      CTL2    -0.220000       12.0110           0
     21781 MEMB     175      PMPG     H2X      HAL2     0.900000E-01   1.00800           0
     21782 MEMB     175      PMPG     H2Y      HAL2     0.900000E-01   1.00800           0
     21783 MEMB     175      PMPG     C23      CTL2    -0.180000       12.0110           0
     21784 MEMB     175      PMPG     H3R      HAL2     0.900000E-01   1.00800           0
     21785 MEMB     175      PMPG     H3S      HAL2     0.900000E-01   1.00800           0
     21786 MEMB     175      PMPG     C24      CTL2    -0.180000       12.0110           0
     21787 MEMB     175      PMPG     H4R      HAL2     0.900000E-01   1.00800           0
     21788 MEMB     175      PMPG     H4S      HAL2     0.900000E-01   1.00800           0
     21789 MEMB     175      PMPG     C25      CTL2    -0.180000       12.0110           0
     21790 MEMB     175      PMPG     H5R      HAL2     0.900000E-01   1.00800           0
     21791 MEMB     175      PMPG     H5S      HAL2     0.900000E-01   1.00800           0
     21792 MEMB     175      PMPG     C26      CTL2    -0.180000       12.0110           0
     21793 MEMB     175      PMPG     H6R      HAL2     0.900000E-01   1.00800           0
     21794 MEMB     175      PMPG     H6S      HAL2     0.900000E-01   1.00800           0
     21795 MEMB     175      PMPG     C27      CTL2    -0.180000       12.0110           0
     21796 MEMB     175      PMPG     H7R      HAL2     0.900000E-01   1.00800           0
     21797 MEMB     175      PMPG     H7S      HAL2     0.900000E-01   1.00800           0
     21798 MEMB     175      PMPG     C28      CTL2    -0.180000       12.0110           0
     21799 MEMB     175      PMPG     H8R      HAL2     0.900000E-01   1.00800           0
     21800 MEMB     175      PMPG     H8S      HAL2     0.900000E-01   1.00800           0
     21801 MEMB     175      PMPG     C29      CG3RC1  -0.900000E-01   12.0110           0
     21802 MEMB     175      PMPG     H9R      HGA1     0.900000E-01   1.00800           0
     21803 MEMB     175      PMPG     C217     CG3C31  -0.180000       12.0110           0
     21804 MEMB     175      PMPG     H17R     HGA2     0.900000E-01   1.00800           0
     21805 MEMB     175      PMPG     H17S     HGA2     0.900000E-01   1.00800           0
     21806 MEMB     175      PMPG     C210     CG3RC1  -0.900000E-01   12.0110           0
     21807 MEMB     175      PMPG     H10R     HGA1     0.900000E-01   1.00800           0
     21808 MEMB     175      PMPG     C211     CTL2    -0.180000       12.0110           0
     21809 MEMB     175      PMPG     H11R     HAL2     0.900000E-01   1.00800           0
     21810 MEMB     175      PMPG     H11S     HAL2     0.900000E-01   1.00800           0
     21811 MEMB     175      PMPG     C212     CTL2    -0.180000       12.0110           0
     21812 MEMB     175      PMPG     H12R     HAL2     0.900000E-01   1.00800           0
     21813 MEMB     175      PMPG     H12S     HAL2     0.900000E-01   1.00800           0
     21814 MEMB     175      PMPG     C213     CTL2    -0.180000       12.0110           0
     21815 MEMB     175      PMPG     H13R     HAL2     0.900000E-01   1.00800           0
     21816 MEMB     175      PMPG     H13S     HAL2     0.900000E-01   1.00800           0
     21817 MEMB     175      PMPG     C214     CTL2    -0.180000       12.0110           0
     21818 MEMB     175      PMPG     H14R     HAL2     0.900000E-01   1.00800           0
     21819 MEMB     175      PMPG     H14S     HAL2     0.900000E-01   1.00800           0
     21820 MEMB     175      PMPG     C215     CTL2    -0.180000       12.0110           0
     21821 MEMB     175      PMPG     H15R     HAL2     0.900000E-01   1.00800           0
     21822 MEMB     175      PMPG     H15S     HAL2     0.900000E-01   1.00800           0
     21823 MEMB     175      PMPG     C216     CTL3    -0.270000       12.0110           0
     21824 MEMB     175      PMPG     H16R     HAL3     0.900000E-01   1.00800           0
     21825 MEMB     175      PMPG     H16S     HAL3     0.900000E-01   1.00800           0
     21826 MEMB     175      PMPG     H16T     HAL3     0.900000E-01   1.00800           0
     21827 MEMB     175      PMPG     C33      CTL2    -0.180000       12.0110           0
     21828 MEMB     175      PMPG     H3X      HAL2     0.900000E-01   1.00800           0
     21829 MEMB     175      PMPG     H3Y      HAL2     0.900000E-01   1.00800           0
     21830 MEMB     175      PMPG     C34      CTL2    -0.180000       12.0110           0
     21831 MEMB     175      PMPG     H4X      HAL2     0.900000E-01   1.00800           0
     21832 MEMB     175      PMPG     H4Y      HAL2     0.900000E-01   1.00800           0
     21833 MEMB     175      PMPG     C35      CTL2    -0.180000       12.0110           0
     21834 MEMB     175      PMPG     H5X      HAL2     0.900000E-01   1.00800           0
     21835 MEMB     175      PMPG     H5Y      HAL2     0.900000E-01   1.00800           0
     21836 MEMB     175      PMPG     C36      CTL2    -0.180000       12.0110           0
     21837 MEMB     175      PMPG     H6X      HAL2     0.900000E-01   1.00800           0
     21838 MEMB     175      PMPG     H6Y      HAL2     0.900000E-01   1.00800           0
     21839 MEMB     175      PMPG     C37      CTL2    -0.180000       12.0110           0
     21840 MEMB     175      PMPG     H7X      HAL2     0.900000E-01   1.00800           0
     21841 MEMB     175      PMPG     H7Y      HAL2     0.900000E-01   1.00800           0
     21842 MEMB     175      PMPG     C38      CTL2    -0.180000       12.0110           0
     21843 MEMB     175      PMPG     H8X      HAL2     0.900000E-01   1.00800           0
     21844 MEMB     175      PMPG     H8Y      HAL2     0.900000E-01   1.00800           0
     21845 MEMB     175      PMPG     C39      CTL2    -0.180000       12.0110           0
     21846 MEMB     175      PMPG     H9X      HAL2     0.900000E-01   1.00800           0
     21847 MEMB     175      PMPG     H9Y      HAL2     0.900000E-01   1.00800           0
     21848 MEMB     175      PMPG     C310     CTL2    -0.180000       12.0110           0
     21849 MEMB     175      PMPG     H10X     HAL2     0.900000E-01   1.00800           0
     21850 MEMB     175      PMPG     H10Y     HAL2     0.900000E-01   1.00800           0
     21851 MEMB     175      PMPG     C311     CTL2    -0.180000       12.0110           0
     21852 MEMB     175      PMPG     H11X     HAL2     0.900000E-01   1.00800           0
     21853 MEMB     175      PMPG     H11Y     HAL2     0.900000E-01   1.00800           0
     21854 MEMB     175      PMPG     C312     CTL2    -0.180000       12.0110           0
     21855 MEMB     175      PMPG     H12X     HAL2     0.900000E-01   1.00800           0
     21856 MEMB     175      PMPG     H12Y     HAL2     0.900000E-01   1.00800           0
     21857 MEMB     175      PMPG     C313     CTL2    -0.180000       12.0110           0
     21858 MEMB     175      PMPG     H13X     HAL2     0.900000E-01   1.00800           0
     21859 MEMB     175      PMPG     H13Y     HAL2     0.900000E-01   1.00800           0
     21860 MEMB     175      PMPG     C314     CTL2    -0.180000       12.0110           0
     21861 MEMB     175      PMPG     H14X     HAL2     0.900000E-01   1.00800           0
     21862 MEMB     175      PMPG     H14Y     HAL2     0.900000E-01   1.00800           0
     21863 MEMB     175      PMPG     C315     CTL2    -0.180000       12.0110           0
     21864 MEMB     175      PMPG     H15X     HAL2     0.900000E-01   1.00800           0
     21865 MEMB     175      PMPG     H15Y     HAL2     0.900000E-01   1.00800           0
     21866 MEMB     175      PMPG     C316     CTL3    -0.270000       12.0110           0
     21867 MEMB     175      PMPG     H16X     HAL3     0.900000E-01   1.00800           0
     21868 MEMB     175      PMPG     H16Y     HAL3     0.900000E-01   1.00800           0
     21869 MEMB     175      PMPG     H16Z     HAL3     0.900000E-01   1.00800           0
     21870 MEMB     176      QMPE     N        NH3L    -0.300000       14.0070           0
     21871 MEMB     176      QMPE     HN1      HCL      0.330000       1.00800           0
     21872 MEMB     176      QMPE     HN2      HCL      0.330000       1.00800           0
     21873 MEMB     176      QMPE     HN3      HCL      0.330000       1.00800           0
     21874 MEMB     176      QMPE     C12      CTL2     0.130000       12.0110           0
     21875 MEMB     176      QMPE     H12A     HAL2     0.900000E-01   1.00800           0
     21876 MEMB     176      QMPE     H12B     HAL2     0.900000E-01   1.00800           0
     21877 MEMB     176      QMPE     C11      CTL2    -0.800000E-01   12.0110           0
     21878 MEMB     176      QMPE     H11A     HAL2     0.900000E-01   1.00800           0
     21879 MEMB     176      QMPE     H11B     HAL2     0.900000E-01   1.00800           0
     21880 MEMB     176      QMPE     P        PL        1.50000       30.9740           0
     21881 MEMB     176      QMPE     O13      O2L     -0.780000       15.9994           0
     21882 MEMB     176      QMPE     O14      O2L     -0.780000       15.9994           0
     21883 MEMB     176      QMPE     O11      OSLP    -0.570000       15.9994           0
     21884 MEMB     176      QMPE     O12      OSLP    -0.570000       15.9994           0
     21885 MEMB     176      QMPE     C1       CTL2    -0.800000E-01   12.0110           0
     21886 MEMB     176      QMPE     HA       HAL2     0.900000E-01   1.00800           0
     21887 MEMB     176      QMPE     HB       HAL2     0.900000E-01   1.00800           0
     21888 MEMB     176      QMPE     C2       CTL1     0.170000       12.0110           0
     21889 MEMB     176      QMPE     HS       HAL1     0.900000E-01   1.00800           0
     21890 MEMB     176      QMPE     O21      OSL     -0.490000       15.9994           0
     21891 MEMB     176      QMPE     C21      CL       0.900000       12.0110           0
     21892 MEMB     176      QMPE     O22      OBL     -0.630000       15.9994           0
     21893 MEMB     176      QMPE     C22      CTL2    -0.220000       12.0110           0
     21894 MEMB     176      QMPE     H2R      HAL2     0.900000E-01   1.00800           0
     21895 MEMB     176      QMPE     H2S      HAL2     0.900000E-01   1.00800           0
     21896 MEMB     176      QMPE     C3       CTL2     0.800000E-01   12.0110           0
     21897 MEMB     176      QMPE     HX       HAL2     0.900000E-01   1.00800           0
     21898 MEMB     176      QMPE     HY       HAL2     0.900000E-01   1.00800           0
     21899 MEMB     176      QMPE     O31      OSL     -0.490000       15.9994           0
     21900 MEMB     176      QMPE     C31      CL       0.900000       12.0110           0
     21901 MEMB     176      QMPE     O32      OBL     -0.630000       15.9994           0
     21902 MEMB     176      QMPE     C32      CTL2    -0.220000       12.0110           0
     21903 MEMB     176      QMPE     H2X      HAL2     0.900000E-01   1.00800           0
     21904 MEMB     176      QMPE     H2Y      HAL2     0.900000E-01   1.00800           0
     21905 MEMB     176      QMPE     C23      CTL2    -0.180000       12.0110           0
     21906 MEMB     176      QMPE     H3R      HAL2     0.900000E-01   1.00800           0
     21907 MEMB     176      QMPE     H3S      HAL2     0.900000E-01   1.00800           0
     21908 MEMB     176      QMPE     C24      CTL2    -0.180000       12.0110           0
     21909 MEMB     176      QMPE     H4R      HAL2     0.900000E-01   1.00800           0
     21910 MEMB     176      QMPE     H4S      HAL2     0.900000E-01   1.00800           0
     21911 MEMB     176      QMPE     C25      CTL2    -0.180000       12.0110           0
     21912 MEMB     176      QMPE     H5R      HAL2     0.900000E-01   1.00800           0
     21913 MEMB     176      QMPE     H5S      HAL2     0.900000E-01   1.00800           0
     21914 MEMB     176      QMPE     C26      CTL2    -0.180000       12.0110           0
     21915 MEMB     176      QMPE     H6R      HAL2     0.900000E-01   1.00800           0
     21916 MEMB     176      QMPE     H6S      HAL2     0.900000E-01   1.00800           0
     21917 MEMB     176      QMPE     C27      CTL2    -0.180000       12.0110           0
     21918 MEMB     176      QMPE     H7R      HAL2     0.900000E-01   1.00800           0
     21919 MEMB     176      QMPE     H7S      HAL2     0.900000E-01   1.00800           0
     21920 MEMB     176      QMPE     C28      CTL2    -0.180000       12.0110           0
     21921 MEMB     176      QMPE     H8R      HAL2     0.900000E-01   1.00800           0
     21922 MEMB     176      QMPE     H8S      HAL2     0.900000E-01   1.00800           0
     21923 MEMB     176      QMPE     C29      CG3RC1  -0.900000E-01   12.0110           0
     21924 MEMB     176      QMPE     H9R      HGA1     0.900000E-01   1.00800           0
     21925 MEMB     176      QMPE     C217     CG3C31  -0.180000       12.0110           0
     21926 MEMB     176      QMPE     H17R     HGA2     0.900000E-01   1.00800           0
     21927 MEMB     176      QMPE     H17S     HGA2     0.900000E-01   1.00800           0
     21928 MEMB     176      QMPE     C210     CG3RC1  -0.900000E-01   12.0110           0
     21929 MEMB     176      QMPE     H10R     HGA1     0.900000E-01   1.00800           0
     21930 MEMB     176      QMPE     C211     CTL2    -0.180000       12.0110           0
     21931 MEMB     176      QMPE     H11R     HAL2     0.900000E-01   1.00800           0
     21932 MEMB     176      QMPE     H11S     HAL2     0.900000E-01   1.00800           0
     21933 MEMB     176      QMPE     C212     CTL2    -0.180000       12.0110           0
     21934 MEMB     176      QMPE     H12R     HAL2     0.900000E-01   1.00800           0
     21935 MEMB     176      QMPE     H12S     HAL2     0.900000E-01   1.00800           0
     21936 MEMB     176      QMPE     C213     CTL2    -0.180000       12.0110           0
     21937 MEMB     176      QMPE     H13R     HAL2     0.900000E-01   1.00800           0
     21938 MEMB     176      QMPE     H13S     HAL2     0.900000E-01   1.00800           0
     21939 MEMB     176      QMPE     C214     CTL2    -0.180000       12.0110           0
     21940 MEMB     176      QMPE     H14R     HAL2     0.900000E-01   1.00800           0
     21941 MEMB     176      QMPE     H14S     HAL2     0.900000E-01   1.00800           0
     21942 MEMB     176      QMPE     C215     CTL2    -0.180000       12.0110           0
     21943 MEMB     176      QMPE     H15R     HAL2     0.900000E-01   1.00800           0
     21944 MEMB     176      QMPE     H15S     HAL2     0.900000E-01   1.00800           0
     21945 MEMB     176      QMPE     C216     CTL3    -0.270000       12.0110           0
     21946 MEMB     176      QMPE     H16R     HAL3     0.900000E-01   1.00800           0
     21947 MEMB     176      QMPE     H16S     HAL3     0.900000E-01   1.00800           0
     21948 MEMB     176      QMPE     H16T     HAL3     0.900000E-01   1.00800           0
     21949 MEMB     176      QMPE     C33      CTL2    -0.180000       12.0110           0
     21950 MEMB     176      QMPE     H3X      HAL2     0.900000E-01   1.00800           0
     21951 MEMB     176      QMPE     H3Y      HAL2     0.900000E-01   1.00800           0
     21952 MEMB     176      QMPE     C34      CTL2    -0.180000       12.0110           0
     21953 MEMB     176      QMPE     H4X      HAL2     0.900000E-01   1.00800           0
     21954 MEMB     176      QMPE     H4Y      HAL2     0.900000E-01   1.00800           0
     21955 MEMB     176      QMPE     C35      CTL2    -0.180000       12.0110           0
     21956 MEMB     176      QMPE     H5X      HAL2     0.900000E-01   1.00800           0
     21957 MEMB     176      QMPE     H5Y      HAL2     0.900000E-01   1.00800           0
     21958 MEMB     176      QMPE     C36      CTL2    -0.180000       12.0110           0
     21959 MEMB     176      QMPE     H6X      HAL2     0.900000E-01   1.00800           0
     21960 MEMB     176      QMPE     H6Y      HAL2     0.900000E-01   1.00800           0
     21961 MEMB     176      QMPE     C37      CTL2    -0.180000       12.0110           0
     21962 MEMB     176      QMPE     H7X      HAL2     0.900000E-01   1.00800           0
     21963 MEMB     176      QMPE     H7Y      HAL2     0.900000E-01   1.00800           0
     21964 MEMB     176      QMPE     C38      CTL2    -0.180000       12.0110           0
     21965 MEMB     176      QMPE     H8X      HAL2     0.900000E-01   1.00800           0
     21966 MEMB     176      QMPE     H8Y      HAL2     0.900000E-01   1.00800           0
     21967 MEMB     176      QMPE     C39      CTL2    -0.180000       12.0110           0
     21968 MEMB     176      QMPE     H9X      HAL2     0.900000E-01   1.00800           0
     21969 MEMB     176      QMPE     H9Y      HAL2     0.900000E-01   1.00800           0
     21970 MEMB     176      QMPE     C310     CTL2    -0.180000       12.0110           0
     21971 MEMB     176      QMPE     H10X     HAL2     0.900000E-01   1.00800           0
     21972 MEMB     176      QMPE     H10Y     HAL2     0.900000E-01   1.00800           0
     21973 MEMB     176      QMPE     C311     CTL2    -0.180000       12.0110           0
     21974 MEMB     176      QMPE     H11X     HAL2     0.900000E-01   1.00800           0
     21975 MEMB     176      QMPE     H11Y     HAL2     0.900000E-01   1.00800           0
     21976 MEMB     176      QMPE     C312     CTL2    -0.180000       12.0110           0
     21977 MEMB     176      QMPE     H12X     HAL2     0.900000E-01   1.00800           0
     21978 MEMB     176      QMPE     H12Y     HAL2     0.900000E-01   1.00800           0
     21979 MEMB     176      QMPE     C313     CTL2    -0.180000       12.0110           0
     21980 MEMB     176      QMPE     H13X     HAL2     0.900000E-01   1.00800           0
     21981 MEMB     176      QMPE     H13Y     HAL2     0.900000E-01   1.00800           0
     21982 MEMB     176      QMPE     C314     CTL2    -0.180000       12.0110           0
     21983 MEMB     176      QMPE     H14X     HAL2     0.900000E-01   1.00800           0
     21984 MEMB     176      QMPE     H14Y     HAL2     0.900000E-01   1.00800           0
     21985 MEMB     176      QMPE     C315     CTL3    -0.270000       12.0110           0
     21986 MEMB     176      QMPE     H15X     HAL3     0.900000E-01   1.00800           0
     21987 MEMB     176      QMPE     H15Y     HAL3     0.900000E-01   1.00800           0
     21988 MEMB     176      QMPE     H15Z     HAL3     0.900000E-01   1.00800           0
     21989 MEMB     177      PMPE     N        NH3L    -0.300000       14.0070           0
     21990 MEMB     177      PMPE     HN1      HCL      0.330000       1.00800           0
     21991 MEMB     177      PMPE     HN2      HCL      0.330000       1.00800           0
     21992 MEMB     177      PMPE     HN3      HCL      0.330000       1.00800           0
     21993 MEMB     177      PMPE     C12      CTL2     0.130000       12.0110           0
     21994 MEMB     177      PMPE     H12A     HAL2     0.900000E-01   1.00800           0
     21995 MEMB     177      PMPE     H12B     HAL2     0.900000E-01   1.00800           0
     21996 MEMB     177      PMPE     C11      CTL2    -0.800000E-01   12.0110           0
     21997 MEMB     177      PMPE     H11A     HAL2     0.900000E-01   1.00800           0
     21998 MEMB     177      PMPE     H11B     HAL2     0.900000E-01   1.00800           0
     21999 MEMB     177      PMPE     P        PL        1.50000       30.9740           0
     22000 MEMB     177      PMPE     O13      O2L     -0.780000       15.9994           0
     22001 MEMB     177      PMPE     O14      O2L     -0.780000       15.9994           0
     22002 MEMB     177      PMPE     O11      OSLP    -0.570000       15.9994           0
     22003 MEMB     177      PMPE     O12      OSLP    -0.570000       15.9994           0
     22004 MEMB     177      PMPE     C1       CTL2    -0.800000E-01   12.0110           0
     22005 MEMB     177      PMPE     HA       HAL2     0.900000E-01   1.00800           0
     22006 MEMB     177      PMPE     HB       HAL2     0.900000E-01   1.00800           0
     22007 MEMB     177      PMPE     C2       CTL1     0.170000       12.0110           0
     22008 MEMB     177      PMPE     HS       HAL1     0.900000E-01   1.00800           0
     22009 MEMB     177      PMPE     O21      OSL     -0.490000       15.9994           0
     22010 MEMB     177      PMPE     C21      CL       0.900000       12.0110           0
     22011 MEMB     177      PMPE     O22      OBL     -0.630000       15.9994           0
     22012 MEMB     177      PMPE     C22      CTL2    -0.220000       12.0110           0
     22013 MEMB     177      PMPE     H2R      HAL2     0.900000E-01   1.00800           0
     22014 MEMB     177      PMPE     H2S      HAL2     0.900000E-01   1.00800           0
     22015 MEMB     177      PMPE     C3       CTL2     0.800000E-01   12.0110           0
     22016 MEMB     177      PMPE     HX       HAL2     0.900000E-01   1.00800           0
     22017 MEMB     177      PMPE     HY       HAL2     0.900000E-01   1.00800           0
     22018 MEMB     177      PMPE     O31      OSL     -0.490000       15.9994           0
     22019 MEMB     177      PMPE     C31      CL       0.900000       12.0110           0
     22020 MEMB     177      PMPE     O32      OBL     -0.630000       15.9994           0
     22021 MEMB     177      PMPE     C32      CTL2    -0.220000       12.0110           0
     22022 MEMB     177      PMPE     H2X      HAL2     0.900000E-01   1.00800           0
     22023 MEMB     177      PMPE     H2Y      HAL2     0.900000E-01   1.00800           0
     22024 MEMB     177      PMPE     C23      CTL2    -0.180000       12.0110           0
     22025 MEMB     177      PMPE     H3R      HAL2     0.900000E-01   1.00800           0
     22026 MEMB     177      PMPE     H3S      HAL2     0.900000E-01   1.00800           0
     22027 MEMB     177      PMPE     C24      CTL2    -0.180000       12.0110           0
     22028 MEMB     177      PMPE     H4R      HAL2     0.900000E-01   1.00800           0
     22029 MEMB     177      PMPE     H4S      HAL2     0.900000E-01   1.00800           0
     22030 MEMB     177      PMPE     C25      CTL2    -0.180000       12.0110           0
     22031 MEMB     177      PMPE     H5R      HAL2     0.900000E-01   1.00800           0
     22032 MEMB     177      PMPE     H5S      HAL2     0.900000E-01   1.00800           0
     22033 MEMB     177      PMPE     C26      CTL2    -0.180000       12.0110           0
     22034 MEMB     177      PMPE     H6R      HAL2     0.900000E-01   1.00800           0
     22035 MEMB     177      PMPE     H6S      HAL2     0.900000E-01   1.00800           0
     22036 MEMB     177      PMPE     C27      CTL2    -0.180000       12.0110           0
     22037 MEMB     177      PMPE     H7R      HAL2     0.900000E-01   1.00800           0
     22038 MEMB     177      PMPE     H7S      HAL2     0.900000E-01   1.00800           0
     22039 MEMB     177      PMPE     C28      CTL2    -0.180000       12.0110           0
     22040 MEMB     177      PMPE     H8R      HAL2     0.900000E-01   1.00800           0
     22041 MEMB     177      PMPE     H8S      HAL2     0.900000E-01   1.00800           0
     22042 MEMB     177      PMPE     C29      CG3RC1  -0.900000E-01   12.0110           0
     22043 MEMB     177      PMPE     H9R      HGA1     0.900000E-01   1.00800           0
     22044 MEMB     177      PMPE     C217     CG3C31  -0.180000       12.0110           0
     22045 MEMB     177      PMPE     H17R     HGA2     0.900000E-01   1.00800           0
     22046 MEMB     177      PMPE     H17S     HGA2     0.900000E-01   1.00800           0
     22047 MEMB     177      PMPE     C210     CG3RC1  -0.900000E-01   12.0110           0
     22048 MEMB     177      PMPE     H10R     HGA1     0.900000E-01   1.00800           0
     22049 MEMB     177      PMPE     C211     CTL2    -0.180000       12.0110           0
     22050 MEMB     177      PMPE     H11R     HAL2     0.900000E-01   1.00800           0
     22051 MEMB     177      PMPE     H11S     HAL2     0.900000E-01   1.00800           0
     22052 MEMB     177      PMPE     C212     CTL2    -0.180000       12.0110           0
     22053 MEMB     177      PMPE     H12R     HAL2     0.900000E-01   1.00800           0
     22054 MEMB     177      PMPE     H12S     HAL2     0.900000E-01   1.00800           0
     22055 MEMB     177      PMPE     C213     CTL2    -0.180000       12.0110           0
     22056 MEMB     177      PMPE     H13R     HAL2     0.900000E-01   1.00800           0
     22057 MEMB     177      PMPE     H13S     HAL2     0.900000E-01   1.00800           0
     22058 MEMB     177      PMPE     C214     CTL2    -0.180000       12.0110           0
     22059 MEMB     177      PMPE     H14R     HAL2     0.900000E-01   1.00800           0
     22060 MEMB     177      PMPE     H14S     HAL2     0.900000E-01   1.00800           0
     22061 MEMB     177      PMPE     C215     CTL2    -0.180000       12.0110           0
     22062 MEMB     177      PMPE     H15R     HAL2     0.900000E-01   1.00800           0
     22063 MEMB     177      PMPE     H15S     HAL2     0.900000E-01   1.00800           0
     22064 MEMB     177      PMPE     C216     CTL3    -0.270000       12.0110           0
     22065 MEMB     177      PMPE     H16R     HAL3     0.900000E-01   1.00800           0
     22066 MEMB     177      PMPE     H16S     HAL3     0.900000E-01   1.00800           0
     22067 MEMB     177      PMPE     H16T     HAL3     0.900000E-01   1.00800           0
     22068 MEMB     177      PMPE     C33      CTL2    -0.180000       12.0110           0
     22069 MEMB     177      PMPE     H3X      HAL2     0.900000E-01   1.00800           0
     22070 MEMB     177      PMPE     H3Y      HAL2     0.900000E-01   1.00800           0
     22071 MEMB     177      PMPE     C34      CTL2    -0.180000       12.0110           0
     22072 MEMB     177      PMPE     H4X      HAL2     0.900000E-01   1.00800           0
     22073 MEMB     177      PMPE     H4Y      HAL2     0.900000E-01   1.00800           0
     22074 MEMB     177      PMPE     C35      CTL2    -0.180000       12.0110           0
     22075 MEMB     177      PMPE     H5X      HAL2     0.900000E-01   1.00800           0
     22076 MEMB     177      PMPE     H5Y      HAL2     0.900000E-01   1.00800           0
     22077 MEMB     177      PMPE     C36      CTL2    -0.180000       12.0110           0
     22078 MEMB     177      PMPE     H6X      HAL2     0.900000E-01   1.00800           0
     22079 MEMB     177      PMPE     H6Y      HAL2     0.900000E-01   1.00800           0
     22080 MEMB     177      PMPE     C37      CTL2    -0.180000       12.0110           0
     22081 MEMB     177      PMPE     H7X      HAL2     0.900000E-01   1.00800           0
     22082 MEMB     177      PMPE     H7Y      HAL2     0.900000E-01   1.00800           0
     22083 MEMB     177      PMPE     C38      CTL2    -0.180000       12.0110           0
     22084 MEMB     177      PMPE     H8X      HAL2     0.900000E-01   1.00800           0
     22085 MEMB     177      PMPE     H8Y      HAL2     0.900000E-01   1.00800           0
     22086 MEMB     177      PMPE     C39      CTL2    -0.180000       12.0110           0
     22087 MEMB     177      PMPE     H9X      HAL2     0.900000E-01   1.00800           0
     22088 MEMB     177      PMPE     H9Y      HAL2     0.900000E-01   1.00800           0
     22089 MEMB     177      PMPE     C310     CTL2    -0.180000       12.0110           0
     22090 MEMB     177      PMPE     H10X     HAL2     0.900000E-01   1.00800           0
     22091 MEMB     177      PMPE     H10Y     HAL2     0.900000E-01   1.00800           0
     22092 MEMB     177      PMPE     C311     CTL2    -0.180000       12.0110           0
     22093 MEMB     177      PMPE     H11X     HAL2     0.900000E-01   1.00800           0
     22094 MEMB     177      PMPE     H11Y     HAL2     0.900000E-01   1.00800           0
     22095 MEMB     177      PMPE     C312     CTL2    -0.180000       12.0110           0
     22096 MEMB     177      PMPE     H12X     HAL2     0.900000E-01   1.00800           0
     22097 MEMB     177      PMPE     H12Y     HAL2     0.900000E-01   1.00800           0
     22098 MEMB     177      PMPE     C313     CTL2    -0.180000       12.0110           0
     22099 MEMB     177      PMPE     H13X     HAL2     0.900000E-01   1.00800           0
     22100 MEMB     177      PMPE     H13Y     HAL2     0.900000E-01   1.00800           0
     22101 MEMB     177      PMPE     C314     CTL2    -0.180000       12.0110           0
     22102 MEMB     177      PMPE     H14X     HAL2     0.900000E-01   1.00800           0
     22103 MEMB     177      PMPE     H14Y     HAL2     0.900000E-01   1.00800           0
     22104 MEMB     177      PMPE     C315     CTL2    -0.180000       12.0110           0
     22105 MEMB     177      PMPE     H15X     HAL2     0.900000E-01   1.00800           0
     22106 MEMB     177      PMPE     H15Y     HAL2     0.900000E-01   1.00800           0
     22107 MEMB     177      PMPE     C316     CTL3    -0.270000       12.0110           0
     22108 MEMB     177      PMPE     H16X     HAL3     0.900000E-01   1.00800           0
     22109 MEMB     177      PMPE     H16Y     HAL3     0.900000E-01   1.00800           0
     22110 MEMB     177      PMPE     H16Z     HAL3     0.900000E-01   1.00800           0
     22111 MEMB     178      OYPE     N        NH3L    -0.300000       14.0070           0
     22112 MEMB     178      OYPE     HN1      HCL      0.330000       1.00800           0
     22113 MEMB     178      OYPE     HN2      HCL      0.330000       1.00800           0
     22114 MEMB     178      OYPE     HN3      HCL      0.330000       1.00800           0
     22115 MEMB     178      OYPE     C12      CTL2     0.130000       12.0110           0
     22116 MEMB     178      OYPE     H12A     HAL2     0.900000E-01   1.00800           0
     22117 MEMB     178      OYPE     H12B     HAL2     0.900000E-01   1.00800           0
     22118 MEMB     178      OYPE     C11      CTL2    -0.800000E-01   12.0110           0
     22119 MEMB     178      OYPE     H11A     HAL2     0.900000E-01   1.00800           0
     22120 MEMB     178      OYPE     H11B     HAL2     0.900000E-01   1.00800           0
     22121 MEMB     178      OYPE     P        PL        1.50000       30.9740           0
     22122 MEMB     178      OYPE     O13      O2L     -0.780000       15.9994           0
     22123 MEMB     178      OYPE     O14      O2L     -0.780000       15.9994           0
     22124 MEMB     178      OYPE     O11      OSLP    -0.570000       15.9994           0
     22125 MEMB     178      OYPE     O12      OSLP    -0.570000       15.9994           0
     22126 MEMB     178      OYPE     C1       CTL2    -0.800000E-01   12.0110           0
     22127 MEMB     178      OYPE     HA       HAL2     0.900000E-01   1.00800           0
     22128 MEMB     178      OYPE     HB       HAL2     0.900000E-01   1.00800           0
     22129 MEMB     178      OYPE     C2       CTL1     0.170000       12.0110           0
     22130 MEMB     178      OYPE     HS       HAL1     0.900000E-01   1.00800           0
     22131 MEMB     178      OYPE     O21      OSL     -0.490000       15.9994           0
     22132 MEMB     178      OYPE     C21      CL       0.900000       12.0110           0
     22133 MEMB     178      OYPE     O22      OBL     -0.630000       15.9994           0
     22134 MEMB     178      OYPE     C22      CTL2    -0.220000       12.0110           0
     22135 MEMB     178      OYPE     H2R      HAL2     0.900000E-01   1.00800           0
     22136 MEMB     178      OYPE     H2S      HAL2     0.900000E-01   1.00800           0
     22137 MEMB     178      OYPE     C3       CTL2     0.800000E-01   12.0110           0
     22138 MEMB     178      OYPE     HX       HAL2     0.900000E-01   1.00800           0
     22139 MEMB     178      OYPE     HY       HAL2     0.900000E-01   1.00800           0
     22140 MEMB     178      OYPE     O31      OSL     -0.490000       15.9994           0
     22141 MEMB     178      OYPE     C31      CL       0.900000       12.0110           0
     22142 MEMB     178      OYPE     O32      OBL     -0.630000       15.9994           0
     22143 MEMB     178      OYPE     C32      CTL2    -0.220000       12.0110           0
     22144 MEMB     178      OYPE     H2X      HAL2     0.900000E-01   1.00800           0
     22145 MEMB     178      OYPE     H2Y      HAL2     0.900000E-01   1.00800           0
     22146 MEMB     178      OYPE     C23      CTL2    -0.180000       12.0110           0
     22147 MEMB     178      OYPE     H3R      HAL2     0.900000E-01   1.00800           0
     22148 MEMB     178      OYPE     H3S      HAL2     0.900000E-01   1.00800           0
     22149 MEMB     178      OYPE     C24      CTL2    -0.180000       12.0110           0
     22150 MEMB     178      OYPE     H4R      HAL2     0.900000E-01   1.00800           0
     22151 MEMB     178      OYPE     H4S      HAL2     0.900000E-01   1.00800           0
     22152 MEMB     178      OYPE     C25      CTL2    -0.180000       12.0110           0
     22153 MEMB     178      OYPE     H5R      HAL2     0.900000E-01   1.00800           0
     22154 MEMB     178      OYPE     H5S      HAL2     0.900000E-01   1.00800           0
     22155 MEMB     178      OYPE     C26      CTL2    -0.180000       12.0110           0
     22156 MEMB     178      OYPE     H6R      HAL2     0.900000E-01   1.00800           0
     22157 MEMB     178      OYPE     H6S      HAL2     0.900000E-01   1.00800           0
     22158 MEMB     178      OYPE     C27      CTL2    -0.180000       12.0110           0
     22159 MEMB     178      OYPE     H7R      HAL2     0.900000E-01   1.00800           0
     22160 MEMB     178      OYPE     H7S      HAL2     0.900000E-01   1.00800           0
     22161 MEMB     178      OYPE     C28      CTL2    -0.180000       12.0110           0
     22162 MEMB     178      OYPE     H8R      HAL2     0.900000E-01   1.00800           0
     22163 MEMB     178      OYPE     H8S      HAL2     0.900000E-01   1.00800           0
     22164 MEMB     178      OYPE     C29      CEL1    -0.150000       12.0110           0
     22165 MEMB     178      OYPE     H9R      HEL1     0.150000       1.00800           0
     22166 MEMB     178      OYPE     C210     CEL1    -0.150000       12.0110           0
     22167 MEMB     178      OYPE     H10R     HEL1     0.150000       1.00800           0
     22168 MEMB     178      OYPE     C211     CTL2    -0.180000       12.0110           0
     22169 MEMB     178      OYPE     H11R     HAL2     0.900000E-01   1.00800           0
     22170 MEMB     178      OYPE     H11S     HAL2     0.900000E-01   1.00800           0
     22171 MEMB     178      OYPE     C212     CTL2    -0.180000       12.0110           0
     22172 MEMB     178      OYPE     H12R     HAL2     0.900000E-01   1.00800           0
     22173 MEMB     178      OYPE     H12S     HAL2     0.900000E-01   1.00800           0
     22174 MEMB     178      OYPE     C213     CTL2    -0.180000       12.0110           0
     22175 MEMB     178      OYPE     H13R     HAL2     0.900000E-01   1.00800           0
     22176 MEMB     178      OYPE     H13S     HAL2     0.900000E-01   1.00800           0
     22177 MEMB     178      OYPE     C214     CTL2    -0.180000       12.0110           0
     22178 MEMB     178      OYPE     H14R     HAL2     0.900000E-01   1.00800           0
     22179 MEMB     178      OYPE     H14S     HAL2     0.900000E-01   1.00800           0
     22180 MEMB     178      OYPE     C215     CTL2    -0.180000       12.0110           0
     22181 MEMB     178      OYPE     H15R     HAL2     0.900000E-01   1.00800           0
     22182 MEMB     178      OYPE     H15S     HAL2     0.900000E-01   1.00800           0
     22183 MEMB     178      OYPE     C216     CTL3    -0.270000       12.0110           0
     22184 MEMB     178      OYPE     H16R     HAL3     0.900000E-01   1.00800           0
     22185 MEMB     178      OYPE     H16S     HAL3     0.900000E-01   1.00800           0
     22186 MEMB     178      OYPE     H16T     HAL3     0.900000E-01   1.00800           0
     22187 MEMB     178      OYPE     C33      CTL2    -0.180000       12.0110           0
     22188 MEMB     178      OYPE     H3X      HAL2     0.900000E-01   1.00800           0
     22189 MEMB     178      OYPE     H3Y      HAL2     0.900000E-01   1.00800           0
     22190 MEMB     178      OYPE     C34      CTL2    -0.180000       12.0110           0
     22191 MEMB     178      OYPE     H4X      HAL2     0.900000E-01   1.00800           0
     22192 MEMB     178      OYPE     H4Y      HAL2     0.900000E-01   1.00800           0
     22193 MEMB     178      OYPE     C35      CTL2    -0.180000       12.0110           0
     22194 MEMB     178      OYPE     H5X      HAL2     0.900000E-01   1.00800           0
     22195 MEMB     178      OYPE     H5Y      HAL2     0.900000E-01   1.00800           0
     22196 MEMB     178      OYPE     C36      CTL2    -0.180000       12.0110           0
     22197 MEMB     178      OYPE     H6X      HAL2     0.900000E-01   1.00800           0
     22198 MEMB     178      OYPE     H6Y      HAL2     0.900000E-01   1.00800           0
     22199 MEMB     178      OYPE     C37      CTL2    -0.180000       12.0110           0
     22200 MEMB     178      OYPE     H7X      HAL2     0.900000E-01   1.00800           0
     22201 MEMB     178      OYPE     H7Y      HAL2     0.900000E-01   1.00800           0
     22202 MEMB     178      OYPE     C38      CTL2    -0.180000       12.0110           0
     22203 MEMB     178      OYPE     H8X      HAL2     0.900000E-01   1.00800           0
     22204 MEMB     178      OYPE     H8Y      HAL2     0.900000E-01   1.00800           0
     22205 MEMB     178      OYPE     C39      CEL1    -0.150000       12.0110           0
     22206 MEMB     178      OYPE     H9X      HEL1     0.150000       1.00800           0
     22207 MEMB     178      OYPE     C310     CEL1    -0.150000       12.0110           0
     22208 MEMB     178      OYPE     H10X     HEL1     0.150000       1.00800           0
     22209 MEMB     178      OYPE     C311     CTL2    -0.180000       12.0110           0
     22210 MEMB     178      OYPE     H11X     HAL2     0.900000E-01   1.00800           0
     22211 MEMB     178      OYPE     H11Y     HAL2     0.900000E-01   1.00800           0
     22212 MEMB     178      OYPE     C312     CTL2    -0.180000       12.0110           0
     22213 MEMB     178      OYPE     H12X     HAL2     0.900000E-01   1.00800           0
     22214 MEMB     178      OYPE     H12Y     HAL2     0.900000E-01   1.00800           0
     22215 MEMB     178      OYPE     C313     CTL2    -0.180000       12.0110           0
     22216 MEMB     178      OYPE     H13X     HAL2     0.900000E-01   1.00800           0
     22217 MEMB     178      OYPE     H13Y     HAL2     0.900000E-01   1.00800           0
     22218 MEMB     178      OYPE     C314     CTL2    -0.180000       12.0110           0
     22219 MEMB     178      OYPE     H14X     HAL2     0.900000E-01   1.00800           0
     22220 MEMB     178      OYPE     H14Y     HAL2     0.900000E-01   1.00800           0
     22221 MEMB     178      OYPE     C315     CTL2    -0.180000       12.0110           0
     22222 MEMB     178      OYPE     H15X     HAL2     0.900000E-01   1.00800           0
     22223 MEMB     178      OYPE     H15Y     HAL2     0.900000E-01   1.00800           0
     22224 MEMB     178      OYPE     C316     CTL2    -0.180000       12.0110           0
     22225 MEMB     178      OYPE     H16X     HAL2     0.900000E-01   1.00800           0
     22226 MEMB     178      OYPE     H16Y     HAL2     0.900000E-01   1.00800           0
     22227 MEMB     178      OYPE     C317     CTL2    -0.180000       12.0110           0
     22228 MEMB     178      OYPE     H17X     HAL2     0.900000E-01   1.00800           0
     22229 MEMB     178      OYPE     H17Y     HAL2     0.900000E-01   1.00800           0
     22230 MEMB     178      OYPE     C318     CTL3    -0.270000       12.0110           0
     22231 MEMB     178      OYPE     H18X     HAL3     0.900000E-01   1.00800           0
     22232 MEMB     178      OYPE     H18Y     HAL3     0.900000E-01   1.00800           0
     22233 MEMB     178      OYPE     H18Z     HAL3     0.900000E-01   1.00800           0
     22234 MEMB     179      QMPE     N        NH3L    -0.300000       14.0070           0
     22235 MEMB     179      QMPE     HN1      HCL      0.330000       1.00800           0
     22236 MEMB     179      QMPE     HN2      HCL      0.330000       1.00800           0
     22237 MEMB     179      QMPE     HN3      HCL      0.330000       1.00800           0
     22238 MEMB     179      QMPE     C12      CTL2     0.130000       12.0110           0
     22239 MEMB     179      QMPE     H12A     HAL2     0.900000E-01   1.00800           0
     22240 MEMB     179      QMPE     H12B     HAL2     0.900000E-01   1.00800           0
     22241 MEMB     179      QMPE     C11      CTL2    -0.800000E-01   12.0110           0
     22242 MEMB     179      QMPE     H11A     HAL2     0.900000E-01   1.00800           0
     22243 MEMB     179      QMPE     H11B     HAL2     0.900000E-01   1.00800           0
     22244 MEMB     179      QMPE     P        PL        1.50000       30.9740           0
     22245 MEMB     179      QMPE     O13      O2L     -0.780000       15.9994           0
     22246 MEMB     179      QMPE     O14      O2L     -0.780000       15.9994           0
     22247 MEMB     179      QMPE     O11      OSLP    -0.570000       15.9994           0
     22248 MEMB     179      QMPE     O12      OSLP    -0.570000       15.9994           0
     22249 MEMB     179      QMPE     C1       CTL2    -0.800000E-01   12.0110           0
     22250 MEMB     179      QMPE     HA       HAL2     0.900000E-01   1.00800           0
     22251 MEMB     179      QMPE     HB       HAL2     0.900000E-01   1.00800           0
     22252 MEMB     179      QMPE     C2       CTL1     0.170000       12.0110           0
     22253 MEMB     179      QMPE     HS       HAL1     0.900000E-01   1.00800           0
     22254 MEMB     179      QMPE     O21      OSL     -0.490000       15.9994           0
     22255 MEMB     179      QMPE     C21      CL       0.900000       12.0110           0
     22256 MEMB     179      QMPE     O22      OBL     -0.630000       15.9994           0
     22257 MEMB     179      QMPE     C22      CTL2    -0.220000       12.0110           0
     22258 MEMB     179      QMPE     H2R      HAL2     0.900000E-01   1.00800           0
     22259 MEMB     179      QMPE     H2S      HAL2     0.900000E-01   1.00800           0
     22260 MEMB     179      QMPE     C3       CTL2     0.800000E-01   12.0110           0
     22261 MEMB     179      QMPE     HX       HAL2     0.900000E-01   1.00800           0
     22262 MEMB     179      QMPE     HY       HAL2     0.900000E-01   1.00800           0
     22263 MEMB     179      QMPE     O31      OSL     -0.490000       15.9994           0
     22264 MEMB     179      QMPE     C31      CL       0.900000       12.0110           0
     22265 MEMB     179      QMPE     O32      OBL     -0.630000       15.9994           0
     22266 MEMB     179      QMPE     C32      CTL2    -0.220000       12.0110           0
     22267 MEMB     179      QMPE     H2X      HAL2     0.900000E-01   1.00800           0
     22268 MEMB     179      QMPE     H2Y      HAL2     0.900000E-01   1.00800           0
     22269 MEMB     179      QMPE     C23      CTL2    -0.180000       12.0110           0
     22270 MEMB     179      QMPE     H3R      HAL2     0.900000E-01   1.00800           0
     22271 MEMB     179      QMPE     H3S      HAL2     0.900000E-01   1.00800           0
     22272 MEMB     179      QMPE     C24      CTL2    -0.180000       12.0110           0
     22273 MEMB     179      QMPE     H4R      HAL2     0.900000E-01   1.00800           0
     22274 MEMB     179      QMPE     H4S      HAL2     0.900000E-01   1.00800           0
     22275 MEMB     179      QMPE     C25      CTL2    -0.180000       12.0110           0
     22276 MEMB     179      QMPE     H5R      HAL2     0.900000E-01   1.00800           0
     22277 MEMB     179      QMPE     H5S      HAL2     0.900000E-01   1.00800           0
     22278 MEMB     179      QMPE     C26      CTL2    -0.180000       12.0110           0
     22279 MEMB     179      QMPE     H6R      HAL2     0.900000E-01   1.00800           0
     22280 MEMB     179      QMPE     H6S      HAL2     0.900000E-01   1.00800           0
     22281 MEMB     179      QMPE     C27      CTL2    -0.180000       12.0110           0
     22282 MEMB     179      QMPE     H7R      HAL2     0.900000E-01   1.00800           0
     22283 MEMB     179      QMPE     H7S      HAL2     0.900000E-01   1.00800           0
     22284 MEMB     179      QMPE     C28      CTL2    -0.180000       12.0110           0
     22285 MEMB     179      QMPE     H8R      HAL2     0.900000E-01   1.00800           0
     22286 MEMB     179      QMPE     H8S      HAL2     0.900000E-01   1.00800           0
     22287 MEMB     179      QMPE     C29      CG3RC1  -0.900000E-01   12.0110           0
     22288 MEMB     179      QMPE     H9R      HGA1     0.900000E-01   1.00800           0
     22289 MEMB     179      QMPE     C217     CG3C31  -0.180000       12.0110           0
     22290 MEMB     179      QMPE     H17R     HGA2     0.900000E-01   1.00800           0
     22291 MEMB     179      QMPE     H17S     HGA2     0.900000E-01   1.00800           0
     22292 MEMB     179      QMPE     C210     CG3RC1  -0.900000E-01   12.0110           0
     22293 MEMB     179      QMPE     H10R     HGA1     0.900000E-01   1.00800           0
     22294 MEMB     179      QMPE     C211     CTL2    -0.180000       12.0110           0
     22295 MEMB     179      QMPE     H11R     HAL2     0.900000E-01   1.00800           0
     22296 MEMB     179      QMPE     H11S     HAL2     0.900000E-01   1.00800           0
     22297 MEMB     179      QMPE     C212     CTL2    -0.180000       12.0110           0
     22298 MEMB     179      QMPE     H12R     HAL2     0.900000E-01   1.00800           0
     22299 MEMB     179      QMPE     H12S     HAL2     0.900000E-01   1.00800           0
     22300 MEMB     179      QMPE     C213     CTL2    -0.180000       12.0110           0
     22301 MEMB     179      QMPE     H13R     HAL2     0.900000E-01   1.00800           0
     22302 MEMB     179      QMPE     H13S     HAL2     0.900000E-01   1.00800           0
     22303 MEMB     179      QMPE     C214     CTL2    -0.180000       12.0110           0
     22304 MEMB     179      QMPE     H14R     HAL2     0.900000E-01   1.00800           0
     22305 MEMB     179      QMPE     H14S     HAL2     0.900000E-01   1.00800           0
     22306 MEMB     179      QMPE     C215     CTL2    -0.180000       12.0110           0
     22307 MEMB     179      QMPE     H15R     HAL2     0.900000E-01   1.00800           0
     22308 MEMB     179      QMPE     H15S     HAL2     0.900000E-01   1.00800           0
     22309 MEMB     179      QMPE     C216     CTL3    -0.270000       12.0110           0
     22310 MEMB     179      QMPE     H16R     HAL3     0.900000E-01   1.00800           0
     22311 MEMB     179      QMPE     H16S     HAL3     0.900000E-01   1.00800           0
     22312 MEMB     179      QMPE     H16T     HAL3     0.900000E-01   1.00800           0
     22313 MEMB     179      QMPE     C33      CTL2    -0.180000       12.0110           0
     22314 MEMB     179      QMPE     H3X      HAL2     0.900000E-01   1.00800           0
     22315 MEMB     179      QMPE     H3Y      HAL2     0.900000E-01   1.00800           0
     22316 MEMB     179      QMPE     C34      CTL2    -0.180000       12.0110           0
     22317 MEMB     179      QMPE     H4X      HAL2     0.900000E-01   1.00800           0
     22318 MEMB     179      QMPE     H4Y      HAL2     0.900000E-01   1.00800           0
     22319 MEMB     179      QMPE     C35      CTL2    -0.180000       12.0110           0
     22320 MEMB     179      QMPE     H5X      HAL2     0.900000E-01   1.00800           0
     22321 MEMB     179      QMPE     H5Y      HAL2     0.900000E-01   1.00800           0
     22322 MEMB     179      QMPE     C36      CTL2    -0.180000       12.0110           0
     22323 MEMB     179      QMPE     H6X      HAL2     0.900000E-01   1.00800           0
     22324 MEMB     179      QMPE     H6Y      HAL2     0.900000E-01   1.00800           0
     22325 MEMB     179      QMPE     C37      CTL2    -0.180000       12.0110           0
     22326 MEMB     179      QMPE     H7X      HAL2     0.900000E-01   1.00800           0
     22327 MEMB     179      QMPE     H7Y      HAL2     0.900000E-01   1.00800           0
     22328 MEMB     179      QMPE     C38      CTL2    -0.180000       12.0110           0
     22329 MEMB     179      QMPE     H8X      HAL2     0.900000E-01   1.00800           0
     22330 MEMB     179      QMPE     H8Y      HAL2     0.900000E-01   1.00800           0
     22331 MEMB     179      QMPE     C39      CTL2    -0.180000       12.0110           0
     22332 MEMB     179      QMPE     H9X      HAL2     0.900000E-01   1.00800           0
     22333 MEMB     179      QMPE     H9Y      HAL2     0.900000E-01   1.00800           0
     22334 MEMB     179      QMPE     C310     CTL2    -0.180000       12.0110           0
     22335 MEMB     179      QMPE     H10X     HAL2     0.900000E-01   1.00800           0
     22336 MEMB     179      QMPE     H10Y     HAL2     0.900000E-01   1.00800           0
     22337 MEMB     179      QMPE     C311     CTL2    -0.180000       12.0110           0
     22338 MEMB     179      QMPE     H11X     HAL2     0.900000E-01   1.00800           0
     22339 MEMB     179      QMPE     H11Y     HAL2     0.900000E-01   1.00800           0
     22340 MEMB     179      QMPE     C312     CTL2    -0.180000       12.0110           0
     22341 MEMB     179      QMPE     H12X     HAL2     0.900000E-01   1.00800           0
     22342 MEMB     179      QMPE     H12Y     HAL2     0.900000E-01   1.00800           0
     22343 MEMB     179      QMPE     C313     CTL2    -0.180000       12.0110           0
     22344 MEMB     179      QMPE     H13X     HAL2     0.900000E-01   1.00800           0
     22345 MEMB     179      QMPE     H13Y     HAL2     0.900000E-01   1.00800           0
     22346 MEMB     179      QMPE     C314     CTL2    -0.180000       12.0110           0
     22347 MEMB     179      QMPE     H14X     HAL2     0.900000E-01   1.00800           0
     22348 MEMB     179      QMPE     H14Y     HAL2     0.900000E-01   1.00800           0
     22349 MEMB     179      QMPE     C315     CTL3    -0.270000       12.0110           0
     22350 MEMB     179      QMPE     H15X     HAL3     0.900000E-01   1.00800           0
     22351 MEMB     179      QMPE     H15Y     HAL3     0.900000E-01   1.00800           0
     22352 MEMB     179      QMPE     H15Z     HAL3     0.900000E-01   1.00800           0
     22353 MEMB     180      PMPE     N        NH3L    -0.300000       14.0070           0
     22354 MEMB     180      PMPE     HN1      HCL      0.330000       1.00800           0
     22355 MEMB     180      PMPE     HN2      HCL      0.330000       1.00800           0
     22356 MEMB     180      PMPE     HN3      HCL      0.330000       1.00800           0
     22357 MEMB     180      PMPE     C12      CTL2     0.130000       12.0110           0
     22358 MEMB     180      PMPE     H12A     HAL2     0.900000E-01   1.00800           0
     22359 MEMB     180      PMPE     H12B     HAL2     0.900000E-01   1.00800           0
     22360 MEMB     180      PMPE     C11      CTL2    -0.800000E-01   12.0110           0
     22361 MEMB     180      PMPE     H11A     HAL2     0.900000E-01   1.00800           0
     22362 MEMB     180      PMPE     H11B     HAL2     0.900000E-01   1.00800           0
     22363 MEMB     180      PMPE     P        PL        1.50000       30.9740           0
     22364 MEMB     180      PMPE     O13      O2L     -0.780000       15.9994           0
     22365 MEMB     180      PMPE     O14      O2L     -0.780000       15.9994           0
     22366 MEMB     180      PMPE     O11      OSLP    -0.570000       15.9994           0
     22367 MEMB     180      PMPE     O12      OSLP    -0.570000       15.9994           0
     22368 MEMB     180      PMPE     C1       CTL2    -0.800000E-01   12.0110           0
     22369 MEMB     180      PMPE     HA       HAL2     0.900000E-01   1.00800           0
     22370 MEMB     180      PMPE     HB       HAL2     0.900000E-01   1.00800           0
     22371 MEMB     180      PMPE     C2       CTL1     0.170000       12.0110           0
     22372 MEMB     180      PMPE     HS       HAL1     0.900000E-01   1.00800           0
     22373 MEMB     180      PMPE     O21      OSL     -0.490000       15.9994           0
     22374 MEMB     180      PMPE     C21      CL       0.900000       12.0110           0
     22375 MEMB     180      PMPE     O22      OBL     -0.630000       15.9994           0
     22376 MEMB     180      PMPE     C22      CTL2    -0.220000       12.0110           0
     22377 MEMB     180      PMPE     H2R      HAL2     0.900000E-01   1.00800           0
     22378 MEMB     180      PMPE     H2S      HAL2     0.900000E-01   1.00800           0
     22379 MEMB     180      PMPE     C3       CTL2     0.800000E-01   12.0110           0
     22380 MEMB     180      PMPE     HX       HAL2     0.900000E-01   1.00800           0
     22381 MEMB     180      PMPE     HY       HAL2     0.900000E-01   1.00800           0
     22382 MEMB     180      PMPE     O31      OSL     -0.490000       15.9994           0
     22383 MEMB     180      PMPE     C31      CL       0.900000       12.0110           0
     22384 MEMB     180      PMPE     O32      OBL     -0.630000       15.9994           0
     22385 MEMB     180      PMPE     C32      CTL2    -0.220000       12.0110           0
     22386 MEMB     180      PMPE     H2X      HAL2     0.900000E-01   1.00800           0
     22387 MEMB     180      PMPE     H2Y      HAL2     0.900000E-01   1.00800           0
     22388 MEMB     180      PMPE     C23      CTL2    -0.180000       12.0110           0
     22389 MEMB     180      PMPE     H3R      HAL2     0.900000E-01   1.00800           0
     22390 MEMB     180      PMPE     H3S      HAL2     0.900000E-01   1.00800           0
     22391 MEMB     180      PMPE     C24      CTL2    -0.180000       12.0110           0
     22392 MEMB     180      PMPE     H4R      HAL2     0.900000E-01   1.00800           0
     22393 MEMB     180      PMPE     H4S      HAL2     0.900000E-01   1.00800           0
     22394 MEMB     180      PMPE     C25      CTL2    -0.180000       12.0110           0
     22395 MEMB     180      PMPE     H5R      HAL2     0.900000E-01   1.00800           0
     22396 MEMB     180      PMPE     H5S      HAL2     0.900000E-01   1.00800           0
     22397 MEMB     180      PMPE     C26      CTL2    -0.180000       12.0110           0
     22398 MEMB     180      PMPE     H6R      HAL2     0.900000E-01   1.00800           0
     22399 MEMB     180      PMPE     H6S      HAL2     0.900000E-01   1.00800           0
     22400 MEMB     180      PMPE     C27      CTL2    -0.180000       12.0110           0
     22401 MEMB     180      PMPE     H7R      HAL2     0.900000E-01   1.00800           0
     22402 MEMB     180      PMPE     H7S      HAL2     0.900000E-01   1.00800           0
     22403 MEMB     180      PMPE     C28      CTL2    -0.180000       12.0110           0
     22404 MEMB     180      PMPE     H8R      HAL2     0.900000E-01   1.00800           0
     22405 MEMB     180      PMPE     H8S      HAL2     0.900000E-01   1.00800           0
     22406 MEMB     180      PMPE     C29      CG3RC1  -0.900000E-01   12.0110           0
     22407 MEMB     180      PMPE     H9R      HGA1     0.900000E-01   1.00800           0
     22408 MEMB     180      PMPE     C217     CG3C31  -0.180000       12.0110           0
     22409 MEMB     180      PMPE     H17R     HGA2     0.900000E-01   1.00800           0
     22410 MEMB     180      PMPE     H17S     HGA2     0.900000E-01   1.00800           0
     22411 MEMB     180      PMPE     C210     CG3RC1  -0.900000E-01   12.0110           0
     22412 MEMB     180      PMPE     H10R     HGA1     0.900000E-01   1.00800           0
     22413 MEMB     180      PMPE     C211     CTL2    -0.180000       12.0110           0
     22414 MEMB     180      PMPE     H11R     HAL2     0.900000E-01   1.00800           0
     22415 MEMB     180      PMPE     H11S     HAL2     0.900000E-01   1.00800           0
     22416 MEMB     180      PMPE     C212     CTL2    -0.180000       12.0110           0
     22417 MEMB     180      PMPE     H12R     HAL2     0.900000E-01   1.00800           0
     22418 MEMB     180      PMPE     H12S     HAL2     0.900000E-01   1.00800           0
     22419 MEMB     180      PMPE     C213     CTL2    -0.180000       12.0110           0
     22420 MEMB     180      PMPE     H13R     HAL2     0.900000E-01   1.00800           0
     22421 MEMB     180      PMPE     H13S     HAL2     0.900000E-01   1.00800           0
     22422 MEMB     180      PMPE     C214     CTL2    -0.180000       12.0110           0
     22423 MEMB     180      PMPE     H14R     HAL2     0.900000E-01   1.00800           0
     22424 MEMB     180      PMPE     H14S     HAL2     0.900000E-01   1.00800           0
     22425 MEMB     180      PMPE     C215     CTL2    -0.180000       12.0110           0
     22426 MEMB     180      PMPE     H15R     HAL2     0.900000E-01   1.00800           0
     22427 MEMB     180      PMPE     H15S     HAL2     0.900000E-01   1.00800           0
     22428 MEMB     180      PMPE     C216     CTL3    -0.270000       12.0110           0
     22429 MEMB     180      PMPE     H16R     HAL3     0.900000E-01   1.00800           0
     22430 MEMB     180      PMPE     H16S     HAL3     0.900000E-01   1.00800           0
     22431 MEMB     180      PMPE     H16T     HAL3     0.900000E-01   1.00800           0
     22432 MEMB     180      PMPE     C33      CTL2    -0.180000       12.0110           0
     22433 MEMB     180      PMPE     H3X      HAL2     0.900000E-01   1.00800           0
     22434 MEMB     180      PMPE     H3Y      HAL2     0.900000E-01   1.00800           0
     22435 MEMB     180      PMPE     C34      CTL2    -0.180000       12.0110           0
     22436 MEMB     180      PMPE     H4X      HAL2     0.900000E-01   1.00800           0
     22437 MEMB     180      PMPE     H4Y      HAL2     0.900000E-01   1.00800           0
     22438 MEMB     180      PMPE     C35      CTL2    -0.180000       12.0110           0
     22439 MEMB     180      PMPE     H5X      HAL2     0.900000E-01   1.00800           0
     22440 MEMB     180      PMPE     H5Y      HAL2     0.900000E-01   1.00800           0
     22441 MEMB     180      PMPE     C36      CTL2    -0.180000       12.0110           0
     22442 MEMB     180      PMPE     H6X      HAL2     0.900000E-01   1.00800           0
     22443 MEMB     180      PMPE     H6Y      HAL2     0.900000E-01   1.00800           0
     22444 MEMB     180      PMPE     C37      CTL2    -0.180000       12.0110           0
     22445 MEMB     180      PMPE     H7X      HAL2     0.900000E-01   1.00800           0
     22446 MEMB     180      PMPE     H7Y      HAL2     0.900000E-01   1.00800           0
     22447 MEMB     180      PMPE     C38      CTL2    -0.180000       12.0110           0
     22448 MEMB     180      PMPE     H8X      HAL2     0.900000E-01   1.00800           0
     22449 MEMB     180      PMPE     H8Y      HAL2     0.900000E-01   1.00800           0
     22450 MEMB     180      PMPE     C39      CTL2    -0.180000       12.0110           0
     22451 MEMB     180      PMPE     H9X      HAL2     0.900000E-01   1.00800           0
     22452 MEMB     180      PMPE     H9Y      HAL2     0.900000E-01   1.00800           0
     22453 MEMB     180      PMPE     C310     CTL2    -0.180000       12.0110           0
     22454 MEMB     180      PMPE     H10X     HAL2     0.900000E-01   1.00800           0
     22455 MEMB     180      PMPE     H10Y     HAL2     0.900000E-01   1.00800           0
     22456 MEMB     180      PMPE     C311     CTL2    -0.180000       12.0110           0
     22457 MEMB     180      PMPE     H11X     HAL2     0.900000E-01   1.00800           0
     22458 MEMB     180      PMPE     H11Y     HAL2     0.900000E-01   1.00800           0
     22459 MEMB     180      PMPE     C312     CTL2    -0.180000       12.0110           0
     22460 MEMB     180      PMPE     H12X     HAL2     0.900000E-01   1.00800           0
     22461 MEMB     180      PMPE     H12Y     HAL2     0.900000E-01   1.00800           0
     22462 MEMB     180      PMPE     C313     CTL2    -0.180000       12.0110           0
     22463 MEMB     180      PMPE     H13X     HAL2     0.900000E-01   1.00800           0
     22464 MEMB     180      PMPE     H13Y     HAL2     0.900000E-01   1.00800           0
     22465 MEMB     180      PMPE     C314     CTL2    -0.180000       12.0110           0
     22466 MEMB     180      PMPE     H14X     HAL2     0.900000E-01   1.00800           0
     22467 MEMB     180      PMPE     H14Y     HAL2     0.900000E-01   1.00800           0
     22468 MEMB     180      PMPE     C315     CTL2    -0.180000       12.0110           0
     22469 MEMB     180      PMPE     H15X     HAL2     0.900000E-01   1.00800           0
     22470 MEMB     180      PMPE     H15Y     HAL2     0.900000E-01   1.00800           0
     22471 MEMB     180      PMPE     C316     CTL3    -0.270000       12.0110           0
     22472 MEMB     180      PMPE     H16X     HAL3     0.900000E-01   1.00800           0
     22473 MEMB     180      PMPE     H16Y     HAL3     0.900000E-01   1.00800           0
     22474 MEMB     180      PMPE     H16Z     HAL3     0.900000E-01   1.00800           0
     22475 MEMB     181      QMPE     N        NH3L    -0.300000       14.0070           0
     22476 MEMB     181      QMPE     HN1      HCL      0.330000       1.00800           0
     22477 MEMB     181      QMPE     HN2      HCL      0.330000       1.00800           0
     22478 MEMB     181      QMPE     HN3      HCL      0.330000       1.00800           0
     22479 MEMB     181      QMPE     C12      CTL2     0.130000       12.0110           0
     22480 MEMB     181      QMPE     H12A     HAL2     0.900000E-01   1.00800           0
     22481 MEMB     181      QMPE     H12B     HAL2     0.900000E-01   1.00800           0
     22482 MEMB     181      QMPE     C11      CTL2    -0.800000E-01   12.0110           0
     22483 MEMB     181      QMPE     H11A     HAL2     0.900000E-01   1.00800           0
     22484 MEMB     181      QMPE     H11B     HAL2     0.900000E-01   1.00800           0
     22485 MEMB     181      QMPE     P        PL        1.50000       30.9740           0
     22486 MEMB     181      QMPE     O13      O2L     -0.780000       15.9994           0
     22487 MEMB     181      QMPE     O14      O2L     -0.780000       15.9994           0
     22488 MEMB     181      QMPE     O11      OSLP    -0.570000       15.9994           0
     22489 MEMB     181      QMPE     O12      OSLP    -0.570000       15.9994           0
     22490 MEMB     181      QMPE     C1       CTL2    -0.800000E-01   12.0110           0
     22491 MEMB     181      QMPE     HA       HAL2     0.900000E-01   1.00800           0
     22492 MEMB     181      QMPE     HB       HAL2     0.900000E-01   1.00800           0
     22493 MEMB     181      QMPE     C2       CTL1     0.170000       12.0110           0
     22494 MEMB     181      QMPE     HS       HAL1     0.900000E-01   1.00800           0
     22495 MEMB     181      QMPE     O21      OSL     -0.490000       15.9994           0
     22496 MEMB     181      QMPE     C21      CL       0.900000       12.0110           0
     22497 MEMB     181      QMPE     O22      OBL     -0.630000       15.9994           0
     22498 MEMB     181      QMPE     C22      CTL2    -0.220000       12.0110           0
     22499 MEMB     181      QMPE     H2R      HAL2     0.900000E-01   1.00800           0
     22500 MEMB     181      QMPE     H2S      HAL2     0.900000E-01   1.00800           0
     22501 MEMB     181      QMPE     C3       CTL2     0.800000E-01   12.0110           0
     22502 MEMB     181      QMPE     HX       HAL2     0.900000E-01   1.00800           0
     22503 MEMB     181      QMPE     HY       HAL2     0.900000E-01   1.00800           0
     22504 MEMB     181      QMPE     O31      OSL     -0.490000       15.9994           0
     22505 MEMB     181      QMPE     C31      CL       0.900000       12.0110           0
     22506 MEMB     181      QMPE     O32      OBL     -0.630000       15.9994           0
     22507 MEMB     181      QMPE     C32      CTL2    -0.220000       12.0110           0
     22508 MEMB     181      QMPE     H2X      HAL2     0.900000E-01   1.00800           0
     22509 MEMB     181      QMPE     H2Y      HAL2     0.900000E-01   1.00800           0
     22510 MEMB     181      QMPE     C23      CTL2    -0.180000       12.0110           0
     22511 MEMB     181      QMPE     H3R      HAL2     0.900000E-01   1.00800           0
     22512 MEMB     181      QMPE     H3S      HAL2     0.900000E-01   1.00800           0
     22513 MEMB     181      QMPE     C24      CTL2    -0.180000       12.0110           0
     22514 MEMB     181      QMPE     H4R      HAL2     0.900000E-01   1.00800           0
     22515 MEMB     181      QMPE     H4S      HAL2     0.900000E-01   1.00800           0
     22516 MEMB     181      QMPE     C25      CTL2    -0.180000       12.0110           0
     22517 MEMB     181      QMPE     H5R      HAL2     0.900000E-01   1.00800           0
     22518 MEMB     181      QMPE     H5S      HAL2     0.900000E-01   1.00800           0
     22519 MEMB     181      QMPE     C26      CTL2    -0.180000       12.0110           0
     22520 MEMB     181      QMPE     H6R      HAL2     0.900000E-01   1.00800           0
     22521 MEMB     181      QMPE     H6S      HAL2     0.900000E-01   1.00800           0
     22522 MEMB     181      QMPE     C27      CTL2    -0.180000       12.0110           0
     22523 MEMB     181      QMPE     H7R      HAL2     0.900000E-01   1.00800           0
     22524 MEMB     181      QMPE     H7S      HAL2     0.900000E-01   1.00800           0
     22525 MEMB     181      QMPE     C28      CTL2    -0.180000       12.0110           0
     22526 MEMB     181      QMPE     H8R      HAL2     0.900000E-01   1.00800           0
     22527 MEMB     181      QMPE     H8S      HAL2     0.900000E-01   1.00800           0
     22528 MEMB     181      QMPE     C29      CG3RC1  -0.900000E-01   12.0110           0
     22529 MEMB     181      QMPE     H9R      HGA1     0.900000E-01   1.00800           0
     22530 MEMB     181      QMPE     C217     CG3C31  -0.180000       12.0110           0
     22531 MEMB     181      QMPE     H17R     HGA2     0.900000E-01   1.00800           0
     22532 MEMB     181      QMPE     H17S     HGA2     0.900000E-01   1.00800           0
     22533 MEMB     181      QMPE     C210     CG3RC1  -0.900000E-01   12.0110           0
     22534 MEMB     181      QMPE     H10R     HGA1     0.900000E-01   1.00800           0
     22535 MEMB     181      QMPE     C211     CTL2    -0.180000       12.0110           0
     22536 MEMB     181      QMPE     H11R     HAL2     0.900000E-01   1.00800           0
     22537 MEMB     181      QMPE     H11S     HAL2     0.900000E-01   1.00800           0
     22538 MEMB     181      QMPE     C212     CTL2    -0.180000       12.0110           0
     22539 MEMB     181      QMPE     H12R     HAL2     0.900000E-01   1.00800           0
     22540 MEMB     181      QMPE     H12S     HAL2     0.900000E-01   1.00800           0
     22541 MEMB     181      QMPE     C213     CTL2    -0.180000       12.0110           0
     22542 MEMB     181      QMPE     H13R     HAL2     0.900000E-01   1.00800           0
     22543 MEMB     181      QMPE     H13S     HAL2     0.900000E-01   1.00800           0
     22544 MEMB     181      QMPE     C214     CTL2    -0.180000       12.0110           0
     22545 MEMB     181      QMPE     H14R     HAL2     0.900000E-01   1.00800           0
     22546 MEMB     181      QMPE     H14S     HAL2     0.900000E-01   1.00800           0
     22547 MEMB     181      QMPE     C215     CTL2    -0.180000       12.0110           0
     22548 MEMB     181      QMPE     H15R     HAL2     0.900000E-01   1.00800           0
     22549 MEMB     181      QMPE     H15S     HAL2     0.900000E-01   1.00800           0
     22550 MEMB     181      QMPE     C216     CTL3    -0.270000       12.0110           0
     22551 MEMB     181      QMPE     H16R     HAL3     0.900000E-01   1.00800           0
     22552 MEMB     181      QMPE     H16S     HAL3     0.900000E-01   1.00800           0
     22553 MEMB     181      QMPE     H16T     HAL3     0.900000E-01   1.00800           0
     22554 MEMB     181      QMPE     C33      CTL2    -0.180000       12.0110           0
     22555 MEMB     181      QMPE     H3X      HAL2     0.900000E-01   1.00800           0
     22556 MEMB     181      QMPE     H3Y      HAL2     0.900000E-01   1.00800           0
     22557 MEMB     181      QMPE     C34      CTL2    -0.180000       12.0110           0
     22558 MEMB     181      QMPE     H4X      HAL2     0.900000E-01   1.00800           0
     22559 MEMB     181      QMPE     H4Y      HAL2     0.900000E-01   1.00800           0
     22560 MEMB     181      QMPE     C35      CTL2    -0.180000       12.0110           0
     22561 MEMB     181      QMPE     H5X      HAL2     0.900000E-01   1.00800           0
     22562 MEMB     181      QMPE     H5Y      HAL2     0.900000E-01   1.00800           0
     22563 MEMB     181      QMPE     C36      CTL2    -0.180000       12.0110           0
     22564 MEMB     181      QMPE     H6X      HAL2     0.900000E-01   1.00800           0
     22565 MEMB     181      QMPE     H6Y      HAL2     0.900000E-01   1.00800           0
     22566 MEMB     181      QMPE     C37      CTL2    -0.180000       12.0110           0
     22567 MEMB     181      QMPE     H7X      HAL2     0.900000E-01   1.00800           0
     22568 MEMB     181      QMPE     H7Y      HAL2     0.900000E-01   1.00800           0
     22569 MEMB     181      QMPE     C38      CTL2    -0.180000       12.0110           0
     22570 MEMB     181      QMPE     H8X      HAL2     0.900000E-01   1.00800           0
     22571 MEMB     181      QMPE     H8Y      HAL2     0.900000E-01   1.00800           0
     22572 MEMB     181      QMPE     C39      CTL2    -0.180000       12.0110           0
     22573 MEMB     181      QMPE     H9X      HAL2     0.900000E-01   1.00800           0
     22574 MEMB     181      QMPE     H9Y      HAL2     0.900000E-01   1.00800           0
     22575 MEMB     181      QMPE     C310     CTL2    -0.180000       12.0110           0
     22576 MEMB     181      QMPE     H10X     HAL2     0.900000E-01   1.00800           0
     22577 MEMB     181      QMPE     H10Y     HAL2     0.900000E-01   1.00800           0
     22578 MEMB     181      QMPE     C311     CTL2    -0.180000       12.0110           0
     22579 MEMB     181      QMPE     H11X     HAL2     0.900000E-01   1.00800           0
     22580 MEMB     181      QMPE     H11Y     HAL2     0.900000E-01   1.00800           0
     22581 MEMB     181      QMPE     C312     CTL2    -0.180000       12.0110           0
     22582 MEMB     181      QMPE     H12X     HAL2     0.900000E-01   1.00800           0
     22583 MEMB     181      QMPE     H12Y     HAL2     0.900000E-01   1.00800           0
     22584 MEMB     181      QMPE     C313     CTL2    -0.180000       12.0110           0
     22585 MEMB     181      QMPE     H13X     HAL2     0.900000E-01   1.00800           0
     22586 MEMB     181      QMPE     H13Y     HAL2     0.900000E-01   1.00800           0
     22587 MEMB     181      QMPE     C314     CTL2    -0.180000       12.0110           0
     22588 MEMB     181      QMPE     H14X     HAL2     0.900000E-01   1.00800           0
     22589 MEMB     181      QMPE     H14Y     HAL2     0.900000E-01   1.00800           0
     22590 MEMB     181      QMPE     C315     CTL3    -0.270000       12.0110           0
     22591 MEMB     181      QMPE     H15X     HAL3     0.900000E-01   1.00800           0
     22592 MEMB     181      QMPE     H15Y     HAL3     0.900000E-01   1.00800           0
     22593 MEMB     181      QMPE     H15Z     HAL3     0.900000E-01   1.00800           0
     22594 MEMB     182      QMPE     N        NH3L    -0.300000       14.0070           0
     22595 MEMB     182      QMPE     HN1      HCL      0.330000       1.00800           0
     22596 MEMB     182      QMPE     HN2      HCL      0.330000       1.00800           0
     22597 MEMB     182      QMPE     HN3      HCL      0.330000       1.00800           0
     22598 MEMB     182      QMPE     C12      CTL2     0.130000       12.0110           0
     22599 MEMB     182      QMPE     H12A     HAL2     0.900000E-01   1.00800           0
     22600 MEMB     182      QMPE     H12B     HAL2     0.900000E-01   1.00800           0
     22601 MEMB     182      QMPE     C11      CTL2    -0.800000E-01   12.0110           0
     22602 MEMB     182      QMPE     H11A     HAL2     0.900000E-01   1.00800           0
     22603 MEMB     182      QMPE     H11B     HAL2     0.900000E-01   1.00800           0
     22604 MEMB     182      QMPE     P        PL        1.50000       30.9740           0
     22605 MEMB     182      QMPE     O13      O2L     -0.780000       15.9994           0
     22606 MEMB     182      QMPE     O14      O2L     -0.780000       15.9994           0
     22607 MEMB     182      QMPE     O11      OSLP    -0.570000       15.9994           0
     22608 MEMB     182      QMPE     O12      OSLP    -0.570000       15.9994           0
     22609 MEMB     182      QMPE     C1       CTL2    -0.800000E-01   12.0110           0
     22610 MEMB     182      QMPE     HA       HAL2     0.900000E-01   1.00800           0
     22611 MEMB     182      QMPE     HB       HAL2     0.900000E-01   1.00800           0
     22612 MEMB     182      QMPE     C2       CTL1     0.170000       12.0110           0
     22613 MEMB     182      QMPE     HS       HAL1     0.900000E-01   1.00800           0
     22614 MEMB     182      QMPE     O21      OSL     -0.490000       15.9994           0
     22615 MEMB     182      QMPE     C21      CL       0.900000       12.0110           0
     22616 MEMB     182      QMPE     O22      OBL     -0.630000       15.9994           0
     22617 MEMB     182      QMPE     C22      CTL2    -0.220000       12.0110           0
     22618 MEMB     182      QMPE     H2R      HAL2     0.900000E-01   1.00800           0
     22619 MEMB     182      QMPE     H2S      HAL2     0.900000E-01   1.00800           0
     22620 MEMB     182      QMPE     C3       CTL2     0.800000E-01   12.0110           0
     22621 MEMB     182      QMPE     HX       HAL2     0.900000E-01   1.00800           0
     22622 MEMB     182      QMPE     HY       HAL2     0.900000E-01   1.00800           0
     22623 MEMB     182      QMPE     O31      OSL     -0.490000       15.9994           0
     22624 MEMB     182      QMPE     C31      CL       0.900000       12.0110           0
     22625 MEMB     182      QMPE     O32      OBL     -0.630000       15.9994           0
     22626 MEMB     182      QMPE     C32      CTL2    -0.220000       12.0110           0
     22627 MEMB     182      QMPE     H2X      HAL2     0.900000E-01   1.00800           0
     22628 MEMB     182      QMPE     H2Y      HAL2     0.900000E-01   1.00800           0
     22629 MEMB     182      QMPE     C23      CTL2    -0.180000       12.0110           0
     22630 MEMB     182      QMPE     H3R      HAL2     0.900000E-01   1.00800           0
     22631 MEMB     182      QMPE     H3S      HAL2     0.900000E-01   1.00800           0
     22632 MEMB     182      QMPE     C24      CTL2    -0.180000       12.0110           0
     22633 MEMB     182      QMPE     H4R      HAL2     0.900000E-01   1.00800           0
     22634 MEMB     182      QMPE     H4S      HAL2     0.900000E-01   1.00800           0
     22635 MEMB     182      QMPE     C25      CTL2    -0.180000       12.0110           0
     22636 MEMB     182      QMPE     H5R      HAL2     0.900000E-01   1.00800           0
     22637 MEMB     182      QMPE     H5S      HAL2     0.900000E-01   1.00800           0
     22638 MEMB     182      QMPE     C26      CTL2    -0.180000       12.0110           0
     22639 MEMB     182      QMPE     H6R      HAL2     0.900000E-01   1.00800           0
     22640 MEMB     182      QMPE     H6S      HAL2     0.900000E-01   1.00800           0
     22641 MEMB     182      QMPE     C27      CTL2    -0.180000       12.0110           0
     22642 MEMB     182      QMPE     H7R      HAL2     0.900000E-01   1.00800           0
     22643 MEMB     182      QMPE     H7S      HAL2     0.900000E-01   1.00800           0
     22644 MEMB     182      QMPE     C28      CTL2    -0.180000       12.0110           0
     22645 MEMB     182      QMPE     H8R      HAL2     0.900000E-01   1.00800           0
     22646 MEMB     182      QMPE     H8S      HAL2     0.900000E-01   1.00800           0
     22647 MEMB     182      QMPE     C29      CG3RC1  -0.900000E-01   12.0110           0
     22648 MEMB     182      QMPE     H9R      HGA1     0.900000E-01   1.00800           0
     22649 MEMB     182      QMPE     C217     CG3C31  -0.180000       12.0110           0
     22650 MEMB     182      QMPE     H17R     HGA2     0.900000E-01   1.00800           0
     22651 MEMB     182      QMPE     H17S     HGA2     0.900000E-01   1.00800           0
     22652 MEMB     182      QMPE     C210     CG3RC1  -0.900000E-01   12.0110           0
     22653 MEMB     182      QMPE     H10R     HGA1     0.900000E-01   1.00800           0
     22654 MEMB     182      QMPE     C211     CTL2    -0.180000       12.0110           0
     22655 MEMB     182      QMPE     H11R     HAL2     0.900000E-01   1.00800           0
     22656 MEMB     182      QMPE     H11S     HAL2     0.900000E-01   1.00800           0
     22657 MEMB     182      QMPE     C212     CTL2    -0.180000       12.0110           0
     22658 MEMB     182      QMPE     H12R     HAL2     0.900000E-01   1.00800           0
     22659 MEMB     182      QMPE     H12S     HAL2     0.900000E-01   1.00800           0
     22660 MEMB     182      QMPE     C213     CTL2    -0.180000       12.0110           0
     22661 MEMB     182      QMPE     H13R     HAL2     0.900000E-01   1.00800           0
     22662 MEMB     182      QMPE     H13S     HAL2     0.900000E-01   1.00800           0
     22663 MEMB     182      QMPE     C214     CTL2    -0.180000       12.0110           0
     22664 MEMB     182      QMPE     H14R     HAL2     0.900000E-01   1.00800           0
     22665 MEMB     182      QMPE     H14S     HAL2     0.900000E-01   1.00800           0
     22666 MEMB     182      QMPE     C215     CTL2    -0.180000       12.0110           0
     22667 MEMB     182      QMPE     H15R     HAL2     0.900000E-01   1.00800           0
     22668 MEMB     182      QMPE     H15S     HAL2     0.900000E-01   1.00800           0
     22669 MEMB     182      QMPE     C216     CTL3    -0.270000       12.0110           0
     22670 MEMB     182      QMPE     H16R     HAL3     0.900000E-01   1.00800           0
     22671 MEMB     182      QMPE     H16S     HAL3     0.900000E-01   1.00800           0
     22672 MEMB     182      QMPE     H16T     HAL3     0.900000E-01   1.00800           0
     22673 MEMB     182      QMPE     C33      CTL2    -0.180000       12.0110           0
     22674 MEMB     182      QMPE     H3X      HAL2     0.900000E-01   1.00800           0
     22675 MEMB     182      QMPE     H3Y      HAL2     0.900000E-01   1.00800           0
     22676 MEMB     182      QMPE     C34      CTL2    -0.180000       12.0110           0
     22677 MEMB     182      QMPE     H4X      HAL2     0.900000E-01   1.00800           0
     22678 MEMB     182      QMPE     H4Y      HAL2     0.900000E-01   1.00800           0
     22679 MEMB     182      QMPE     C35      CTL2    -0.180000       12.0110           0
     22680 MEMB     182      QMPE     H5X      HAL2     0.900000E-01   1.00800           0
     22681 MEMB     182      QMPE     H5Y      HAL2     0.900000E-01   1.00800           0
     22682 MEMB     182      QMPE     C36      CTL2    -0.180000       12.0110           0
     22683 MEMB     182      QMPE     H6X      HAL2     0.900000E-01   1.00800           0
     22684 MEMB     182      QMPE     H6Y      HAL2     0.900000E-01   1.00800           0
     22685 MEMB     182      QMPE     C37      CTL2    -0.180000       12.0110           0
     22686 MEMB     182      QMPE     H7X      HAL2     0.900000E-01   1.00800           0
     22687 MEMB     182      QMPE     H7Y      HAL2     0.900000E-01   1.00800           0
     22688 MEMB     182      QMPE     C38      CTL2    -0.180000       12.0110           0
     22689 MEMB     182      QMPE     H8X      HAL2     0.900000E-01   1.00800           0
     22690 MEMB     182      QMPE     H8Y      HAL2     0.900000E-01   1.00800           0
     22691 MEMB     182      QMPE     C39      CTL2    -0.180000       12.0110           0
     22692 MEMB     182      QMPE     H9X      HAL2     0.900000E-01   1.00800           0
     22693 MEMB     182      QMPE     H9Y      HAL2     0.900000E-01   1.00800           0
     22694 MEMB     182      QMPE     C310     CTL2    -0.180000       12.0110           0
     22695 MEMB     182      QMPE     H10X     HAL2     0.900000E-01   1.00800           0
     22696 MEMB     182      QMPE     H10Y     HAL2     0.900000E-01   1.00800           0
     22697 MEMB     182      QMPE     C311     CTL2    -0.180000       12.0110           0
     22698 MEMB     182      QMPE     H11X     HAL2     0.900000E-01   1.00800           0
     22699 MEMB     182      QMPE     H11Y     HAL2     0.900000E-01   1.00800           0
     22700 MEMB     182      QMPE     C312     CTL2    -0.180000       12.0110           0
     22701 MEMB     182      QMPE     H12X     HAL2     0.900000E-01   1.00800           0
     22702 MEMB     182      QMPE     H12Y     HAL2     0.900000E-01   1.00800           0
     22703 MEMB     182      QMPE     C313     CTL2    -0.180000       12.0110           0
     22704 MEMB     182      QMPE     H13X     HAL2     0.900000E-01   1.00800           0
     22705 MEMB     182      QMPE     H13Y     HAL2     0.900000E-01   1.00800           0
     22706 MEMB     182      QMPE     C314     CTL2    -0.180000       12.0110           0
     22707 MEMB     182      QMPE     H14X     HAL2     0.900000E-01   1.00800           0
     22708 MEMB     182      QMPE     H14Y     HAL2     0.900000E-01   1.00800           0
     22709 MEMB     182      QMPE     C315     CTL3    -0.270000       12.0110           0
     22710 MEMB     182      QMPE     H15X     HAL3     0.900000E-01   1.00800           0
     22711 MEMB     182      QMPE     H15Y     HAL3     0.900000E-01   1.00800           0
     22712 MEMB     182      QMPE     H15Z     HAL3     0.900000E-01   1.00800           0
     22713 MEMB     183      PMPE     N        NH3L    -0.300000       14.0070           0
     22714 MEMB     183      PMPE     HN1      HCL      0.330000       1.00800           0
     22715 MEMB     183      PMPE     HN2      HCL      0.330000       1.00800           0
     22716 MEMB     183      PMPE     HN3      HCL      0.330000       1.00800           0
     22717 MEMB     183      PMPE     C12      CTL2     0.130000       12.0110           0
     22718 MEMB     183      PMPE     H12A     HAL2     0.900000E-01   1.00800           0
     22719 MEMB     183      PMPE     H12B     HAL2     0.900000E-01   1.00800           0
     22720 MEMB     183      PMPE     C11      CTL2    -0.800000E-01   12.0110           0
     22721 MEMB     183      PMPE     H11A     HAL2     0.900000E-01   1.00800           0
     22722 MEMB     183      PMPE     H11B     HAL2     0.900000E-01   1.00800           0
     22723 MEMB     183      PMPE     P        PL        1.50000       30.9740           0
     22724 MEMB     183      PMPE     O13      O2L     -0.780000       15.9994           0
     22725 MEMB     183      PMPE     O14      O2L     -0.780000       15.9994           0
     22726 MEMB     183      PMPE     O11      OSLP    -0.570000       15.9994           0
     22727 MEMB     183      PMPE     O12      OSLP    -0.570000       15.9994           0
     22728 MEMB     183      PMPE     C1       CTL2    -0.800000E-01   12.0110           0
     22729 MEMB     183      PMPE     HA       HAL2     0.900000E-01   1.00800           0
     22730 MEMB     183      PMPE     HB       HAL2     0.900000E-01   1.00800           0
     22731 MEMB     183      PMPE     C2       CTL1     0.170000       12.0110           0
     22732 MEMB     183      PMPE     HS       HAL1     0.900000E-01   1.00800           0
     22733 MEMB     183      PMPE     O21      OSL     -0.490000       15.9994           0
     22734 MEMB     183      PMPE     C21      CL       0.900000       12.0110           0
     22735 MEMB     183      PMPE     O22      OBL     -0.630000       15.9994           0
     22736 MEMB     183      PMPE     C22      CTL2    -0.220000       12.0110           0
     22737 MEMB     183      PMPE     H2R      HAL2     0.900000E-01   1.00800           0
     22738 MEMB     183      PMPE     H2S      HAL2     0.900000E-01   1.00800           0
     22739 MEMB     183      PMPE     C3       CTL2     0.800000E-01   12.0110           0
     22740 MEMB     183      PMPE     HX       HAL2     0.900000E-01   1.00800           0
     22741 MEMB     183      PMPE     HY       HAL2     0.900000E-01   1.00800           0
     22742 MEMB     183      PMPE     O31      OSL     -0.490000       15.9994           0
     22743 MEMB     183      PMPE     C31      CL       0.900000       12.0110           0
     22744 MEMB     183      PMPE     O32      OBL     -0.630000       15.9994           0
     22745 MEMB     183      PMPE     C32      CTL2    -0.220000       12.0110           0
     22746 MEMB     183      PMPE     H2X      HAL2     0.900000E-01   1.00800           0
     22747 MEMB     183      PMPE     H2Y      HAL2     0.900000E-01   1.00800           0
     22748 MEMB     183      PMPE     C23      CTL2    -0.180000       12.0110           0
     22749 MEMB     183      PMPE     H3R      HAL2     0.900000E-01   1.00800           0
     22750 MEMB     183      PMPE     H3S      HAL2     0.900000E-01   1.00800           0
     22751 MEMB     183      PMPE     C24      CTL2    -0.180000       12.0110           0
     22752 MEMB     183      PMPE     H4R      HAL2     0.900000E-01   1.00800           0
     22753 MEMB     183      PMPE     H4S      HAL2     0.900000E-01   1.00800           0
     22754 MEMB     183      PMPE     C25      CTL2    -0.180000       12.0110           0
     22755 MEMB     183      PMPE     H5R      HAL2     0.900000E-01   1.00800           0
     22756 MEMB     183      PMPE     H5S      HAL2     0.900000E-01   1.00800           0
     22757 MEMB     183      PMPE     C26      CTL2    -0.180000       12.0110           0
     22758 MEMB     183      PMPE     H6R      HAL2     0.900000E-01   1.00800           0
     22759 MEMB     183      PMPE     H6S      HAL2     0.900000E-01   1.00800           0
     22760 MEMB     183      PMPE     C27      CTL2    -0.180000       12.0110           0
     22761 MEMB     183      PMPE     H7R      HAL2     0.900000E-01   1.00800           0
     22762 MEMB     183      PMPE     H7S      HAL2     0.900000E-01   1.00800           0
     22763 MEMB     183      PMPE     C28      CTL2    -0.180000       12.0110           0
     22764 MEMB     183      PMPE     H8R      HAL2     0.900000E-01   1.00800           0
     22765 MEMB     183      PMPE     H8S      HAL2     0.900000E-01   1.00800           0
     22766 MEMB     183      PMPE     C29      CG3RC1  -0.900000E-01   12.0110           0
     22767 MEMB     183      PMPE     H9R      HGA1     0.900000E-01   1.00800           0
     22768 MEMB     183      PMPE     C217     CG3C31  -0.180000       12.0110           0
     22769 MEMB     183      PMPE     H17R     HGA2     0.900000E-01   1.00800           0
     22770 MEMB     183      PMPE     H17S     HGA2     0.900000E-01   1.00800           0
     22771 MEMB     183      PMPE     C210     CG3RC1  -0.900000E-01   12.0110           0
     22772 MEMB     183      PMPE     H10R     HGA1     0.900000E-01   1.00800           0
     22773 MEMB     183      PMPE     C211     CTL2    -0.180000       12.0110           0
     22774 MEMB     183      PMPE     H11R     HAL2     0.900000E-01   1.00800           0
     22775 MEMB     183      PMPE     H11S     HAL2     0.900000E-01   1.00800           0
     22776 MEMB     183      PMPE     C212     CTL2    -0.180000       12.0110           0
     22777 MEMB     183      PMPE     H12R     HAL2     0.900000E-01   1.00800           0
     22778 MEMB     183      PMPE     H12S     HAL2     0.900000E-01   1.00800           0
     22779 MEMB     183      PMPE     C213     CTL2    -0.180000       12.0110           0
     22780 MEMB     183      PMPE     H13R     HAL2     0.900000E-01   1.00800           0
     22781 MEMB     183      PMPE     H13S     HAL2     0.900000E-01   1.00800           0
     22782 MEMB     183      PMPE     C214     CTL2    -0.180000       12.0110           0
     22783 MEMB     183      PMPE     H14R     HAL2     0.900000E-01   1.00800           0
     22784 MEMB     183      PMPE     H14S     HAL2     0.900000E-01   1.00800           0
     22785 MEMB     183      PMPE     C215     CTL2    -0.180000       12.0110           0
     22786 MEMB     183      PMPE     H15R     HAL2     0.900000E-01   1.00800           0
     22787 MEMB     183      PMPE     H15S     HAL2     0.900000E-01   1.00800           0
     22788 MEMB     183      PMPE     C216     CTL3    -0.270000       12.0110           0
     22789 MEMB     183      PMPE     H16R     HAL3     0.900000E-01   1.00800           0
     22790 MEMB     183      PMPE     H16S     HAL3     0.900000E-01   1.00800           0
     22791 MEMB     183      PMPE     H16T     HAL3     0.900000E-01   1.00800           0
     22792 MEMB     183      PMPE     C33      CTL2    -0.180000       12.0110           0
     22793 MEMB     183      PMPE     H3X      HAL2     0.900000E-01   1.00800           0
     22794 MEMB     183      PMPE     H3Y      HAL2     0.900000E-01   1.00800           0
     22795 MEMB     183      PMPE     C34      CTL2    -0.180000       12.0110           0
     22796 MEMB     183      PMPE     H4X      HAL2     0.900000E-01   1.00800           0
     22797 MEMB     183      PMPE     H4Y      HAL2     0.900000E-01   1.00800           0
     22798 MEMB     183      PMPE     C35      CTL2    -0.180000       12.0110           0
     22799 MEMB     183      PMPE     H5X      HAL2     0.900000E-01   1.00800           0
     22800 MEMB     183      PMPE     H5Y      HAL2     0.900000E-01   1.00800           0
     22801 MEMB     183      PMPE     C36      CTL2    -0.180000       12.0110           0
     22802 MEMB     183      PMPE     H6X      HAL2     0.900000E-01   1.00800           0
     22803 MEMB     183      PMPE     H6Y      HAL2     0.900000E-01   1.00800           0
     22804 MEMB     183      PMPE     C37      CTL2    -0.180000       12.0110           0
     22805 MEMB     183      PMPE     H7X      HAL2     0.900000E-01   1.00800           0
     22806 MEMB     183      PMPE     H7Y      HAL2     0.900000E-01   1.00800           0
     22807 MEMB     183      PMPE     C38      CTL2    -0.180000       12.0110           0
     22808 MEMB     183      PMPE     H8X      HAL2     0.900000E-01   1.00800           0
     22809 MEMB     183      PMPE     H8Y      HAL2     0.900000E-01   1.00800           0
     22810 MEMB     183      PMPE     C39      CTL2    -0.180000       12.0110           0
     22811 MEMB     183      PMPE     H9X      HAL2     0.900000E-01   1.00800           0
     22812 MEMB     183      PMPE     H9Y      HAL2     0.900000E-01   1.00800           0
     22813 MEMB     183      PMPE     C310     CTL2    -0.180000       12.0110           0
     22814 MEMB     183      PMPE     H10X     HAL2     0.900000E-01   1.00800           0
     22815 MEMB     183      PMPE     H10Y     HAL2     0.900000E-01   1.00800           0
     22816 MEMB     183      PMPE     C311     CTL2    -0.180000       12.0110           0
     22817 MEMB     183      PMPE     H11X     HAL2     0.900000E-01   1.00800           0
     22818 MEMB     183      PMPE     H11Y     HAL2     0.900000E-01   1.00800           0
     22819 MEMB     183      PMPE     C312     CTL2    -0.180000       12.0110           0
     22820 MEMB     183      PMPE     H12X     HAL2     0.900000E-01   1.00800           0
     22821 MEMB     183      PMPE     H12Y     HAL2     0.900000E-01   1.00800           0
     22822 MEMB     183      PMPE     C313     CTL2    -0.180000       12.0110           0
     22823 MEMB     183      PMPE     H13X     HAL2     0.900000E-01   1.00800           0
     22824 MEMB     183      PMPE     H13Y     HAL2     0.900000E-01   1.00800           0
     22825 MEMB     183      PMPE     C314     CTL2    -0.180000       12.0110           0
     22826 MEMB     183      PMPE     H14X     HAL2     0.900000E-01   1.00800           0
     22827 MEMB     183      PMPE     H14Y     HAL2     0.900000E-01   1.00800           0
     22828 MEMB     183      PMPE     C315     CTL2    -0.180000       12.0110           0
     22829 MEMB     183      PMPE     H15X     HAL2     0.900000E-01   1.00800           0
     22830 MEMB     183      PMPE     H15Y     HAL2     0.900000E-01   1.00800           0
     22831 MEMB     183      PMPE     C316     CTL3    -0.270000       12.0110           0
     22832 MEMB     183      PMPE     H16X     HAL3     0.900000E-01   1.00800           0
     22833 MEMB     183      PMPE     H16Y     HAL3     0.900000E-01   1.00800           0
     22834 MEMB     183      PMPE     H16Z     HAL3     0.900000E-01   1.00800           0
     22835 MEMB     184      OYPE     N        NH3L    -0.300000       14.0070           0
     22836 MEMB     184      OYPE     HN1      HCL      0.330000       1.00800           0
     22837 MEMB     184      OYPE     HN2      HCL      0.330000       1.00800           0
     22838 MEMB     184      OYPE     HN3      HCL      0.330000       1.00800           0
     22839 MEMB     184      OYPE     C12      CTL2     0.130000       12.0110           0
     22840 MEMB     184      OYPE     H12A     HAL2     0.900000E-01   1.00800           0
     22841 MEMB     184      OYPE     H12B     HAL2     0.900000E-01   1.00800           0
     22842 MEMB     184      OYPE     C11      CTL2    -0.800000E-01   12.0110           0
     22843 MEMB     184      OYPE     H11A     HAL2     0.900000E-01   1.00800           0
     22844 MEMB     184      OYPE     H11B     HAL2     0.900000E-01   1.00800           0
     22845 MEMB     184      OYPE     P        PL        1.50000       30.9740           0
     22846 MEMB     184      OYPE     O13      O2L     -0.780000       15.9994           0
     22847 MEMB     184      OYPE     O14      O2L     -0.780000       15.9994           0
     22848 MEMB     184      OYPE     O11      OSLP    -0.570000       15.9994           0
     22849 MEMB     184      OYPE     O12      OSLP    -0.570000       15.9994           0
     22850 MEMB     184      OYPE     C1       CTL2    -0.800000E-01   12.0110           0
     22851 MEMB     184      OYPE     HA       HAL2     0.900000E-01   1.00800           0
     22852 MEMB     184      OYPE     HB       HAL2     0.900000E-01   1.00800           0
     22853 MEMB     184      OYPE     C2       CTL1     0.170000       12.0110           0
     22854 MEMB     184      OYPE     HS       HAL1     0.900000E-01   1.00800           0
     22855 MEMB     184      OYPE     O21      OSL     -0.490000       15.9994           0
     22856 MEMB     184      OYPE     C21      CL       0.900000       12.0110           0
     22857 MEMB     184      OYPE     O22      OBL     -0.630000       15.9994           0
     22858 MEMB     184      OYPE     C22      CTL2    -0.220000       12.0110           0
     22859 MEMB     184      OYPE     H2R      HAL2     0.900000E-01   1.00800           0
     22860 MEMB     184      OYPE     H2S      HAL2     0.900000E-01   1.00800           0
     22861 MEMB     184      OYPE     C3       CTL2     0.800000E-01   12.0110           0
     22862 MEMB     184      OYPE     HX       HAL2     0.900000E-01   1.00800           0
     22863 MEMB     184      OYPE     HY       HAL2     0.900000E-01   1.00800           0
     22864 MEMB     184      OYPE     O31      OSL     -0.490000       15.9994           0
     22865 MEMB     184      OYPE     C31      CL       0.900000       12.0110           0
     22866 MEMB     184      OYPE     O32      OBL     -0.630000       15.9994           0
     22867 MEMB     184      OYPE     C32      CTL2    -0.220000       12.0110           0
     22868 MEMB     184      OYPE     H2X      HAL2     0.900000E-01   1.00800           0
     22869 MEMB     184      OYPE     H2Y      HAL2     0.900000E-01   1.00800           0
     22870 MEMB     184      OYPE     C23      CTL2    -0.180000       12.0110           0
     22871 MEMB     184      OYPE     H3R      HAL2     0.900000E-01   1.00800           0
     22872 MEMB     184      OYPE     H3S      HAL2     0.900000E-01   1.00800           0
     22873 MEMB     184      OYPE     C24      CTL2    -0.180000       12.0110           0
     22874 MEMB     184      OYPE     H4R      HAL2     0.900000E-01   1.00800           0
     22875 MEMB     184      OYPE     H4S      HAL2     0.900000E-01   1.00800           0
     22876 MEMB     184      OYPE     C25      CTL2    -0.180000       12.0110           0
     22877 MEMB     184      OYPE     H5R      HAL2     0.900000E-01   1.00800           0
     22878 MEMB     184      OYPE     H5S      HAL2     0.900000E-01   1.00800           0
     22879 MEMB     184      OYPE     C26      CTL2    -0.180000       12.0110           0
     22880 MEMB     184      OYPE     H6R      HAL2     0.900000E-01   1.00800           0
     22881 MEMB     184      OYPE     H6S      HAL2     0.900000E-01   1.00800           0
     22882 MEMB     184      OYPE     C27      CTL2    -0.180000       12.0110           0
     22883 MEMB     184      OYPE     H7R      HAL2     0.900000E-01   1.00800           0
     22884 MEMB     184      OYPE     H7S      HAL2     0.900000E-01   1.00800           0
     22885 MEMB     184      OYPE     C28      CTL2    -0.180000       12.0110           0
     22886 MEMB     184      OYPE     H8R      HAL2     0.900000E-01   1.00800           0
     22887 MEMB     184      OYPE     H8S      HAL2     0.900000E-01   1.00800           0
     22888 MEMB     184      OYPE     C29      CEL1    -0.150000       12.0110           0
     22889 MEMB     184      OYPE     H9R      HEL1     0.150000       1.00800           0
     22890 MEMB     184      OYPE     C210     CEL1    -0.150000       12.0110           0
     22891 MEMB     184      OYPE     H10R     HEL1     0.150000       1.00800           0
     22892 MEMB     184      OYPE     C211     CTL2    -0.180000       12.0110           0
     22893 MEMB     184      OYPE     H11R     HAL2     0.900000E-01   1.00800           0
     22894 MEMB     184      OYPE     H11S     HAL2     0.900000E-01   1.00800           0
     22895 MEMB     184      OYPE     C212     CTL2    -0.180000       12.0110           0
     22896 MEMB     184      OYPE     H12R     HAL2     0.900000E-01   1.00800           0
     22897 MEMB     184      OYPE     H12S     HAL2     0.900000E-01   1.00800           0
     22898 MEMB     184      OYPE     C213     CTL2    -0.180000       12.0110           0
     22899 MEMB     184      OYPE     H13R     HAL2     0.900000E-01   1.00800           0
     22900 MEMB     184      OYPE     H13S     HAL2     0.900000E-01   1.00800           0
     22901 MEMB     184      OYPE     C214     CTL2    -0.180000       12.0110           0
     22902 MEMB     184      OYPE     H14R     HAL2     0.900000E-01   1.00800           0
     22903 MEMB     184      OYPE     H14S     HAL2     0.900000E-01   1.00800           0
     22904 MEMB     184      OYPE     C215     CTL2    -0.180000       12.0110           0
     22905 MEMB     184      OYPE     H15R     HAL2     0.900000E-01   1.00800           0
     22906 MEMB     184      OYPE     H15S     HAL2     0.900000E-01   1.00800           0
     22907 MEMB     184      OYPE     C216     CTL3    -0.270000       12.0110           0
     22908 MEMB     184      OYPE     H16R     HAL3     0.900000E-01   1.00800           0
     22909 MEMB     184      OYPE     H16S     HAL3     0.900000E-01   1.00800           0
     22910 MEMB     184      OYPE     H16T     HAL3     0.900000E-01   1.00800           0
     22911 MEMB     184      OYPE     C33      CTL2    -0.180000       12.0110           0
     22912 MEMB     184      OYPE     H3X      HAL2     0.900000E-01   1.00800           0
     22913 MEMB     184      OYPE     H3Y      HAL2     0.900000E-01   1.00800           0
     22914 MEMB     184      OYPE     C34      CTL2    -0.180000       12.0110           0
     22915 MEMB     184      OYPE     H4X      HAL2     0.900000E-01   1.00800           0
     22916 MEMB     184      OYPE     H4Y      HAL2     0.900000E-01   1.00800           0
     22917 MEMB     184      OYPE     C35      CTL2    -0.180000       12.0110           0
     22918 MEMB     184      OYPE     H5X      HAL2     0.900000E-01   1.00800           0
     22919 MEMB     184      OYPE     H5Y      HAL2     0.900000E-01   1.00800           0
     22920 MEMB     184      OYPE     C36      CTL2    -0.180000       12.0110           0
     22921 MEMB     184      OYPE     H6X      HAL2     0.900000E-01   1.00800           0
     22922 MEMB     184      OYPE     H6Y      HAL2     0.900000E-01   1.00800           0
     22923 MEMB     184      OYPE     C37      CTL2    -0.180000       12.0110           0
     22924 MEMB     184      OYPE     H7X      HAL2     0.900000E-01   1.00800           0
     22925 MEMB     184      OYPE     H7Y      HAL2     0.900000E-01   1.00800           0
     22926 MEMB     184      OYPE     C38      CTL2    -0.180000       12.0110           0
     22927 MEMB     184      OYPE     H8X      HAL2     0.900000E-01   1.00800           0
     22928 MEMB     184      OYPE     H8Y      HAL2     0.900000E-01   1.00800           0
     22929 MEMB     184      OYPE     C39      CEL1    -0.150000       12.0110           0
     22930 MEMB     184      OYPE     H9X      HEL1     0.150000       1.00800           0
     22931 MEMB     184      OYPE     C310     CEL1    -0.150000       12.0110           0
     22932 MEMB     184      OYPE     H10X     HEL1     0.150000       1.00800           0
     22933 MEMB     184      OYPE     C311     CTL2    -0.180000       12.0110           0
     22934 MEMB     184      OYPE     H11X     HAL2     0.900000E-01   1.00800           0
     22935 MEMB     184      OYPE     H11Y     HAL2     0.900000E-01   1.00800           0
     22936 MEMB     184      OYPE     C312     CTL2    -0.180000       12.0110           0
     22937 MEMB     184      OYPE     H12X     HAL2     0.900000E-01   1.00800           0
     22938 MEMB     184      OYPE     H12Y     HAL2     0.900000E-01   1.00800           0
     22939 MEMB     184      OYPE     C313     CTL2    -0.180000       12.0110           0
     22940 MEMB     184      OYPE     H13X     HAL2     0.900000E-01   1.00800           0
     22941 MEMB     184      OYPE     H13Y     HAL2     0.900000E-01   1.00800           0
     22942 MEMB     184      OYPE     C314     CTL2    -0.180000       12.0110           0
     22943 MEMB     184      OYPE     H14X     HAL2     0.900000E-01   1.00800           0
     22944 MEMB     184      OYPE     H14Y     HAL2     0.900000E-01   1.00800           0
     22945 MEMB     184      OYPE     C315     CTL2    -0.180000       12.0110           0
     22946 MEMB     184      OYPE     H15X     HAL2     0.900000E-01   1.00800           0
     22947 MEMB     184      OYPE     H15Y     HAL2     0.900000E-01   1.00800           0
     22948 MEMB     184      OYPE     C316     CTL2    -0.180000       12.0110           0
     22949 MEMB     184      OYPE     H16X     HAL2     0.900000E-01   1.00800           0
     22950 MEMB     184      OYPE     H16Y     HAL2     0.900000E-01   1.00800           0
     22951 MEMB     184      OYPE     C317     CTL2    -0.180000       12.0110           0
     22952 MEMB     184      OYPE     H17X     HAL2     0.900000E-01   1.00800           0
     22953 MEMB     184      OYPE     H17Y     HAL2     0.900000E-01   1.00800           0
     22954 MEMB     184      OYPE     C318     CTL3    -0.270000       12.0110           0
     22955 MEMB     184      OYPE     H18X     HAL3     0.900000E-01   1.00800           0
     22956 MEMB     184      OYPE     H18Y     HAL3     0.900000E-01   1.00800           0
     22957 MEMB     184      OYPE     H18Z     HAL3     0.900000E-01   1.00800           0
     22958 MEMB     185      PMPE     N        NH3L    -0.300000       14.0070           0
     22959 MEMB     185      PMPE     HN1      HCL      0.330000       1.00800           0
     22960 MEMB     185      PMPE     HN2      HCL      0.330000       1.00800           0
     22961 MEMB     185      PMPE     HN3      HCL      0.330000       1.00800           0
     22962 MEMB     185      PMPE     C12      CTL2     0.130000       12.0110           0
     22963 MEMB     185      PMPE     H12A     HAL2     0.900000E-01   1.00800           0
     22964 MEMB     185      PMPE     H12B     HAL2     0.900000E-01   1.00800           0
     22965 MEMB     185      PMPE     C11      CTL2    -0.800000E-01   12.0110           0
     22966 MEMB     185      PMPE     H11A     HAL2     0.900000E-01   1.00800           0
     22967 MEMB     185      PMPE     H11B     HAL2     0.900000E-01   1.00800           0
     22968 MEMB     185      PMPE     P        PL        1.50000       30.9740           0
     22969 MEMB     185      PMPE     O13      O2L     -0.780000       15.9994           0
     22970 MEMB     185      PMPE     O14      O2L     -0.780000       15.9994           0
     22971 MEMB     185      PMPE     O11      OSLP    -0.570000       15.9994           0
     22972 MEMB     185      PMPE     O12      OSLP    -0.570000       15.9994           0
     22973 MEMB     185      PMPE     C1       CTL2    -0.800000E-01   12.0110           0
     22974 MEMB     185      PMPE     HA       HAL2     0.900000E-01   1.00800           0
     22975 MEMB     185      PMPE     HB       HAL2     0.900000E-01   1.00800           0
     22976 MEMB     185      PMPE     C2       CTL1     0.170000       12.0110           0
     22977 MEMB     185      PMPE     HS       HAL1     0.900000E-01   1.00800           0
     22978 MEMB     185      PMPE     O21      OSL     -0.490000       15.9994           0
     22979 MEMB     185      PMPE     C21      CL       0.900000       12.0110           0
     22980 MEMB     185      PMPE     O22      OBL     -0.630000       15.9994           0
     22981 MEMB     185      PMPE     C22      CTL2    -0.220000       12.0110           0
     22982 MEMB     185      PMPE     H2R      HAL2     0.900000E-01   1.00800           0
     22983 MEMB     185      PMPE     H2S      HAL2     0.900000E-01   1.00800           0
     22984 MEMB     185      PMPE     C3       CTL2     0.800000E-01   12.0110           0
     22985 MEMB     185      PMPE     HX       HAL2     0.900000E-01   1.00800           0
     22986 MEMB     185      PMPE     HY       HAL2     0.900000E-01   1.00800           0
     22987 MEMB     185      PMPE     O31      OSL     -0.490000       15.9994           0
     22988 MEMB     185      PMPE     C31      CL       0.900000       12.0110           0
     22989 MEMB     185      PMPE     O32      OBL     -0.630000       15.9994           0
     22990 MEMB     185      PMPE     C32      CTL2    -0.220000       12.0110           0
     22991 MEMB     185      PMPE     H2X      HAL2     0.900000E-01   1.00800           0
     22992 MEMB     185      PMPE     H2Y      HAL2     0.900000E-01   1.00800           0
     22993 MEMB     185      PMPE     C23      CTL2    -0.180000       12.0110           0
     22994 MEMB     185      PMPE     H3R      HAL2     0.900000E-01   1.00800           0
     22995 MEMB     185      PMPE     H3S      HAL2     0.900000E-01   1.00800           0
     22996 MEMB     185      PMPE     C24      CTL2    -0.180000       12.0110           0
     22997 MEMB     185      PMPE     H4R      HAL2     0.900000E-01   1.00800           0
     22998 MEMB     185      PMPE     H4S      HAL2     0.900000E-01   1.00800           0
     22999 MEMB     185      PMPE     C25      CTL2    -0.180000       12.0110           0
     23000 MEMB     185      PMPE     H5R      HAL2     0.900000E-01   1.00800           0
     23001 MEMB     185      PMPE     H5S      HAL2     0.900000E-01   1.00800           0
     23002 MEMB     185      PMPE     C26      CTL2    -0.180000       12.0110           0
     23003 MEMB     185      PMPE     H6R      HAL2     0.900000E-01   1.00800           0
     23004 MEMB     185      PMPE     H6S      HAL2     0.900000E-01   1.00800           0
     23005 MEMB     185      PMPE     C27      CTL2    -0.180000       12.0110           0
     23006 MEMB     185      PMPE     H7R      HAL2     0.900000E-01   1.00800           0
     23007 MEMB     185      PMPE     H7S      HAL2     0.900000E-01   1.00800           0
     23008 MEMB     185      PMPE     C28      CTL2    -0.180000       12.0110           0
     23009 MEMB     185      PMPE     H8R      HAL2     0.900000E-01   1.00800           0
     23010 MEMB     185      PMPE     H8S      HAL2     0.900000E-01   1.00800           0
     23011 MEMB     185      PMPE     C29      CG3RC1  -0.900000E-01   12.0110           0
     23012 MEMB     185      PMPE     H9R      HGA1     0.900000E-01   1.00800           0
     23013 MEMB     185      PMPE     C217     CG3C31  -0.180000       12.0110           0
     23014 MEMB     185      PMPE     H17R     HGA2     0.900000E-01   1.00800           0
     23015 MEMB     185      PMPE     H17S     HGA2     0.900000E-01   1.00800           0
     23016 MEMB     185      PMPE     C210     CG3RC1  -0.900000E-01   12.0110           0
     23017 MEMB     185      PMPE     H10R     HGA1     0.900000E-01   1.00800           0
     23018 MEMB     185      PMPE     C211     CTL2    -0.180000       12.0110           0
     23019 MEMB     185      PMPE     H11R     HAL2     0.900000E-01   1.00800           0
     23020 MEMB     185      PMPE     H11S     HAL2     0.900000E-01   1.00800           0
     23021 MEMB     185      PMPE     C212     CTL2    -0.180000       12.0110           0
     23022 MEMB     185      PMPE     H12R     HAL2     0.900000E-01   1.00800           0
     23023 MEMB     185      PMPE     H12S     HAL2     0.900000E-01   1.00800           0
     23024 MEMB     185      PMPE     C213     CTL2    -0.180000       12.0110           0
     23025 MEMB     185      PMPE     H13R     HAL2     0.900000E-01   1.00800           0
     23026 MEMB     185      PMPE     H13S     HAL2     0.900000E-01   1.00800           0
     23027 MEMB     185      PMPE     C214     CTL2    -0.180000       12.0110           0
     23028 MEMB     185      PMPE     H14R     HAL2     0.900000E-01   1.00800           0
     23029 MEMB     185      PMPE     H14S     HAL2     0.900000E-01   1.00800           0
     23030 MEMB     185      PMPE     C215     CTL2    -0.180000       12.0110           0
     23031 MEMB     185      PMPE     H15R     HAL2     0.900000E-01   1.00800           0
     23032 MEMB     185      PMPE     H15S     HAL2     0.900000E-01   1.00800           0
     23033 MEMB     185      PMPE     C216     CTL3    -0.270000       12.0110           0
     23034 MEMB     185      PMPE     H16R     HAL3     0.900000E-01   1.00800           0
     23035 MEMB     185      PMPE     H16S     HAL3     0.900000E-01   1.00800           0
     23036 MEMB     185      PMPE     H16T     HAL3     0.900000E-01   1.00800           0
     23037 MEMB     185      PMPE     C33      CTL2    -0.180000       12.0110           0
     23038 MEMB     185      PMPE     H3X      HAL2     0.900000E-01   1.00800           0
     23039 MEMB     185      PMPE     H3Y      HAL2     0.900000E-01   1.00800           0
     23040 MEMB     185      PMPE     C34      CTL2    -0.180000       12.0110           0
     23041 MEMB     185      PMPE     H4X      HAL2     0.900000E-01   1.00800           0
     23042 MEMB     185      PMPE     H4Y      HAL2     0.900000E-01   1.00800           0
     23043 MEMB     185      PMPE     C35      CTL2    -0.180000       12.0110           0
     23044 MEMB     185      PMPE     H5X      HAL2     0.900000E-01   1.00800           0
     23045 MEMB     185      PMPE     H5Y      HAL2     0.900000E-01   1.00800           0
     23046 MEMB     185      PMPE     C36      CTL2    -0.180000       12.0110           0
     23047 MEMB     185      PMPE     H6X      HAL2     0.900000E-01   1.00800           0
     23048 MEMB     185      PMPE     H6Y      HAL2     0.900000E-01   1.00800           0
     23049 MEMB     185      PMPE     C37      CTL2    -0.180000       12.0110           0
     23050 MEMB     185      PMPE     H7X      HAL2     0.900000E-01   1.00800           0
     23051 MEMB     185      PMPE     H7Y      HAL2     0.900000E-01   1.00800           0
     23052 MEMB     185      PMPE     C38      CTL2    -0.180000       12.0110           0
     23053 MEMB     185      PMPE     H8X      HAL2     0.900000E-01   1.00800           0
     23054 MEMB     185      PMPE     H8Y      HAL2     0.900000E-01   1.00800           0
     23055 MEMB     185      PMPE     C39      CTL2    -0.180000       12.0110           0
     23056 MEMB     185      PMPE     H9X      HAL2     0.900000E-01   1.00800           0
     23057 MEMB     185      PMPE     H9Y      HAL2     0.900000E-01   1.00800           0
     23058 MEMB     185      PMPE     C310     CTL2    -0.180000       12.0110           0
     23059 MEMB     185      PMPE     H10X     HAL2     0.900000E-01   1.00800           0
     23060 MEMB     185      PMPE     H10Y     HAL2     0.900000E-01   1.00800           0
     23061 MEMB     185      PMPE     C311     CTL2    -0.180000       12.0110           0
     23062 MEMB     185      PMPE     H11X     HAL2     0.900000E-01   1.00800           0
     23063 MEMB     185      PMPE     H11Y     HAL2     0.900000E-01   1.00800           0
     23064 MEMB     185      PMPE     C312     CTL2    -0.180000       12.0110           0
     23065 MEMB     185      PMPE     H12X     HAL2     0.900000E-01   1.00800           0
     23066 MEMB     185      PMPE     H12Y     HAL2     0.900000E-01   1.00800           0
     23067 MEMB     185      PMPE     C313     CTL2    -0.180000       12.0110           0
     23068 MEMB     185      PMPE     H13X     HAL2     0.900000E-01   1.00800           0
     23069 MEMB     185      PMPE     H13Y     HAL2     0.900000E-01   1.00800           0
     23070 MEMB     185      PMPE     C314     CTL2    -0.180000       12.0110           0
     23071 MEMB     185      PMPE     H14X     HAL2     0.900000E-01   1.00800           0
     23072 MEMB     185      PMPE     H14Y     HAL2     0.900000E-01   1.00800           0
     23073 MEMB     185      PMPE     C315     CTL2    -0.180000       12.0110           0
     23074 MEMB     185      PMPE     H15X     HAL2     0.900000E-01   1.00800           0
     23075 MEMB     185      PMPE     H15Y     HAL2     0.900000E-01   1.00800           0
     23076 MEMB     185      PMPE     C316     CTL3    -0.270000       12.0110           0
     23077 MEMB     185      PMPE     H16X     HAL3     0.900000E-01   1.00800           0
     23078 MEMB     185      PMPE     H16Y     HAL3     0.900000E-01   1.00800           0
     23079 MEMB     185      PMPE     H16Z     HAL3     0.900000E-01   1.00800           0
     23080 MEMB     186      PMPE     N        NH3L    -0.300000       14.0070           0
     23081 MEMB     186      PMPE     HN1      HCL      0.330000       1.00800           0
     23082 MEMB     186      PMPE     HN2      HCL      0.330000       1.00800           0
     23083 MEMB     186      PMPE     HN3      HCL      0.330000       1.00800           0
     23084 MEMB     186      PMPE     C12      CTL2     0.130000       12.0110           0
     23085 MEMB     186      PMPE     H12A     HAL2     0.900000E-01   1.00800           0
     23086 MEMB     186      PMPE     H12B     HAL2     0.900000E-01   1.00800           0
     23087 MEMB     186      PMPE     C11      CTL2    -0.800000E-01   12.0110           0
     23088 MEMB     186      PMPE     H11A     HAL2     0.900000E-01   1.00800           0
     23089 MEMB     186      PMPE     H11B     HAL2     0.900000E-01   1.00800           0
     23090 MEMB     186      PMPE     P        PL        1.50000       30.9740           0
     23091 MEMB     186      PMPE     O13      O2L     -0.780000       15.9994           0
     23092 MEMB     186      PMPE     O14      O2L     -0.780000       15.9994           0
     23093 MEMB     186      PMPE     O11      OSLP    -0.570000       15.9994           0
     23094 MEMB     186      PMPE     O12      OSLP    -0.570000       15.9994           0
     23095 MEMB     186      PMPE     C1       CTL2    -0.800000E-01   12.0110           0
     23096 MEMB     186      PMPE     HA       HAL2     0.900000E-01   1.00800           0
     23097 MEMB     186      PMPE     HB       HAL2     0.900000E-01   1.00800           0
     23098 MEMB     186      PMPE     C2       CTL1     0.170000       12.0110           0
     23099 MEMB     186      PMPE     HS       HAL1     0.900000E-01   1.00800           0
     23100 MEMB     186      PMPE     O21      OSL     -0.490000       15.9994           0
     23101 MEMB     186      PMPE     C21      CL       0.900000       12.0110           0
     23102 MEMB     186      PMPE     O22      OBL     -0.630000       15.9994           0
     23103 MEMB     186      PMPE     C22      CTL2    -0.220000       12.0110           0
     23104 MEMB     186      PMPE     H2R      HAL2     0.900000E-01   1.00800           0
     23105 MEMB     186      PMPE     H2S      HAL2     0.900000E-01   1.00800           0
     23106 MEMB     186      PMPE     C3       CTL2     0.800000E-01   12.0110           0
     23107 MEMB     186      PMPE     HX       HAL2     0.900000E-01   1.00800           0
     23108 MEMB     186      PMPE     HY       HAL2     0.900000E-01   1.00800           0
     23109 MEMB     186      PMPE     O31      OSL     -0.490000       15.9994           0
     23110 MEMB     186      PMPE     C31      CL       0.900000       12.0110           0
     23111 MEMB     186      PMPE     O32      OBL     -0.630000       15.9994           0
     23112 MEMB     186      PMPE     C32      CTL2    -0.220000       12.0110           0
     23113 MEMB     186      PMPE     H2X      HAL2     0.900000E-01   1.00800           0
     23114 MEMB     186      PMPE     H2Y      HAL2     0.900000E-01   1.00800           0
     23115 MEMB     186      PMPE     C23      CTL2    -0.180000       12.0110           0
     23116 MEMB     186      PMPE     H3R      HAL2     0.900000E-01   1.00800           0
     23117 MEMB     186      PMPE     H3S      HAL2     0.900000E-01   1.00800           0
     23118 MEMB     186      PMPE     C24      CTL2    -0.180000       12.0110           0
     23119 MEMB     186      PMPE     H4R      HAL2     0.900000E-01   1.00800           0
     23120 MEMB     186      PMPE     H4S      HAL2     0.900000E-01   1.00800           0
     23121 MEMB     186      PMPE     C25      CTL2    -0.180000       12.0110           0
     23122 MEMB     186      PMPE     H5R      HAL2     0.900000E-01   1.00800           0
     23123 MEMB     186      PMPE     H5S      HAL2     0.900000E-01   1.00800           0
     23124 MEMB     186      PMPE     C26      CTL2    -0.180000       12.0110           0
     23125 MEMB     186      PMPE     H6R      HAL2     0.900000E-01   1.00800           0
     23126 MEMB     186      PMPE     H6S      HAL2     0.900000E-01   1.00800           0
     23127 MEMB     186      PMPE     C27      CTL2    -0.180000       12.0110           0
     23128 MEMB     186      PMPE     H7R      HAL2     0.900000E-01   1.00800           0
     23129 MEMB     186      PMPE     H7S      HAL2     0.900000E-01   1.00800           0
     23130 MEMB     186      PMPE     C28      CTL2    -0.180000       12.0110           0
     23131 MEMB     186      PMPE     H8R      HAL2     0.900000E-01   1.00800           0
     23132 MEMB     186      PMPE     H8S      HAL2     0.900000E-01   1.00800           0
     23133 MEMB     186      PMPE     C29      CG3RC1  -0.900000E-01   12.0110           0
     23134 MEMB     186      PMPE     H9R      HGA1     0.900000E-01   1.00800           0
     23135 MEMB     186      PMPE     C217     CG3C31  -0.180000       12.0110           0
     23136 MEMB     186      PMPE     H17R     HGA2     0.900000E-01   1.00800           0
     23137 MEMB     186      PMPE     H17S     HGA2     0.900000E-01   1.00800           0
     23138 MEMB     186      PMPE     C210     CG3RC1  -0.900000E-01   12.0110           0
     23139 MEMB     186      PMPE     H10R     HGA1     0.900000E-01   1.00800           0
     23140 MEMB     186      PMPE     C211     CTL2    -0.180000       12.0110           0
     23141 MEMB     186      PMPE     H11R     HAL2     0.900000E-01   1.00800           0
     23142 MEMB     186      PMPE     H11S     HAL2     0.900000E-01   1.00800           0
     23143 MEMB     186      PMPE     C212     CTL2    -0.180000       12.0110           0
     23144 MEMB     186      PMPE     H12R     HAL2     0.900000E-01   1.00800           0
     23145 MEMB     186      PMPE     H12S     HAL2     0.900000E-01   1.00800           0
     23146 MEMB     186      PMPE     C213     CTL2    -0.180000       12.0110           0
     23147 MEMB     186      PMPE     H13R     HAL2     0.900000E-01   1.00800           0
     23148 MEMB     186      PMPE     H13S     HAL2     0.900000E-01   1.00800           0
     23149 MEMB     186      PMPE     C214     CTL2    -0.180000       12.0110           0
     23150 MEMB     186      PMPE     H14R     HAL2     0.900000E-01   1.00800           0
     23151 MEMB     186      PMPE     H14S     HAL2     0.900000E-01   1.00800           0
     23152 MEMB     186      PMPE     C215     CTL2    -0.180000       12.0110           0
     23153 MEMB     186      PMPE     H15R     HAL2     0.900000E-01   1.00800           0
     23154 MEMB     186      PMPE     H15S     HAL2     0.900000E-01   1.00800           0
     23155 MEMB     186      PMPE     C216     CTL3    -0.270000       12.0110           0
     23156 MEMB     186      PMPE     H16R     HAL3     0.900000E-01   1.00800           0
     23157 MEMB     186      PMPE     H16S     HAL3     0.900000E-01   1.00800           0
     23158 MEMB     186      PMPE     H16T     HAL3     0.900000E-01   1.00800           0
     23159 MEMB     186      PMPE     C33      CTL2    -0.180000       12.0110           0
     23160 MEMB     186      PMPE     H3X      HAL2     0.900000E-01   1.00800           0
     23161 MEMB     186      PMPE     H3Y      HAL2     0.900000E-01   1.00800           0
     23162 MEMB     186      PMPE     C34      CTL2    -0.180000       12.0110           0
     23163 MEMB     186      PMPE     H4X      HAL2     0.900000E-01   1.00800           0
     23164 MEMB     186      PMPE     H4Y      HAL2     0.900000E-01   1.00800           0
     23165 MEMB     186      PMPE     C35      CTL2    -0.180000       12.0110           0
     23166 MEMB     186      PMPE     H5X      HAL2     0.900000E-01   1.00800           0
     23167 MEMB     186      PMPE     H5Y      HAL2     0.900000E-01   1.00800           0
     23168 MEMB     186      PMPE     C36      CTL2    -0.180000       12.0110           0
     23169 MEMB     186      PMPE     H6X      HAL2     0.900000E-01   1.00800           0
     23170 MEMB     186      PMPE     H6Y      HAL2     0.900000E-01   1.00800           0
     23171 MEMB     186      PMPE     C37      CTL2    -0.180000       12.0110           0
     23172 MEMB     186      PMPE     H7X      HAL2     0.900000E-01   1.00800           0
     23173 MEMB     186      PMPE     H7Y      HAL2     0.900000E-01   1.00800           0
     23174 MEMB     186      PMPE     C38      CTL2    -0.180000       12.0110           0
     23175 MEMB     186      PMPE     H8X      HAL2     0.900000E-01   1.00800           0
     23176 MEMB     186      PMPE     H8Y      HAL2     0.900000E-01   1.00800           0
     23177 MEMB     186      PMPE     C39      CTL2    -0.180000       12.0110           0
     23178 MEMB     186      PMPE     H9X      HAL2     0.900000E-01   1.00800           0
     23179 MEMB     186      PMPE     H9Y      HAL2     0.900000E-01   1.00800           0
     23180 MEMB     186      PMPE     C310     CTL2    -0.180000       12.0110           0
     23181 MEMB     186      PMPE     H10X     HAL2     0.900000E-01   1.00800           0
     23182 MEMB     186      PMPE     H10Y     HAL2     0.900000E-01   1.00800           0
     23183 MEMB     186      PMPE     C311     CTL2    -0.180000       12.0110           0
     23184 MEMB     186      PMPE     H11X     HAL2     0.900000E-01   1.00800           0
     23185 MEMB     186      PMPE     H11Y     HAL2     0.900000E-01   1.00800           0
     23186 MEMB     186      PMPE     C312     CTL2    -0.180000       12.0110           0
     23187 MEMB     186      PMPE     H12X     HAL2     0.900000E-01   1.00800           0
     23188 MEMB     186      PMPE     H12Y     HAL2     0.900000E-01   1.00800           0
     23189 MEMB     186      PMPE     C313     CTL2    -0.180000       12.0110           0
     23190 MEMB     186      PMPE     H13X     HAL2     0.900000E-01   1.00800           0
     23191 MEMB     186      PMPE     H13Y     HAL2     0.900000E-01   1.00800           0
     23192 MEMB     186      PMPE     C314     CTL2    -0.180000       12.0110           0
     23193 MEMB     186      PMPE     H14X     HAL2     0.900000E-01   1.00800           0
     23194 MEMB     186      PMPE     H14Y     HAL2     0.900000E-01   1.00800           0
     23195 MEMB     186      PMPE     C315     CTL2    -0.180000       12.0110           0
     23196 MEMB     186      PMPE     H15X     HAL2     0.900000E-01   1.00800           0
     23197 MEMB     186      PMPE     H15Y     HAL2     0.900000E-01   1.00800           0
     23198 MEMB     186      PMPE     C316     CTL3    -0.270000       12.0110           0
     23199 MEMB     186      PMPE     H16X     HAL3     0.900000E-01   1.00800           0
     23200 MEMB     186      PMPE     H16Y     HAL3     0.900000E-01   1.00800           0
     23201 MEMB     186      PMPE     H16Z     HAL3     0.900000E-01   1.00800           0
     23202 MEMB     187      OYPE     N        NH3L    -0.300000       14.0070           0
     23203 MEMB     187      OYPE     HN1      HCL      0.330000       1.00800           0
     23204 MEMB     187      OYPE     HN2      HCL      0.330000       1.00800           0
     23205 MEMB     187      OYPE     HN3      HCL      0.330000       1.00800           0
     23206 MEMB     187      OYPE     C12      CTL2     0.130000       12.0110           0
     23207 MEMB     187      OYPE     H12A     HAL2     0.900000E-01   1.00800           0
     23208 MEMB     187      OYPE     H12B     HAL2     0.900000E-01   1.00800           0
     23209 MEMB     187      OYPE     C11      CTL2    -0.800000E-01   12.0110           0
     23210 MEMB     187      OYPE     H11A     HAL2     0.900000E-01   1.00800           0
     23211 MEMB     187      OYPE     H11B     HAL2     0.900000E-01   1.00800           0
     23212 MEMB     187      OYPE     P        PL        1.50000       30.9740           0
     23213 MEMB     187      OYPE     O13      O2L     -0.780000       15.9994           0
     23214 MEMB     187      OYPE     O14      O2L     -0.780000       15.9994           0
     23215 MEMB     187      OYPE     O11      OSLP    -0.570000       15.9994           0
     23216 MEMB     187      OYPE     O12      OSLP    -0.570000       15.9994           0
     23217 MEMB     187      OYPE     C1       CTL2    -0.800000E-01   12.0110           0
     23218 MEMB     187      OYPE     HA       HAL2     0.900000E-01   1.00800           0
     23219 MEMB     187      OYPE     HB       HAL2     0.900000E-01   1.00800           0
     23220 MEMB     187      OYPE     C2       CTL1     0.170000       12.0110           0
     23221 MEMB     187      OYPE     HS       HAL1     0.900000E-01   1.00800           0
     23222 MEMB     187      OYPE     O21      OSL     -0.490000       15.9994           0
     23223 MEMB     187      OYPE     C21      CL       0.900000       12.0110           0
     23224 MEMB     187      OYPE     O22      OBL     -0.630000       15.9994           0
     23225 MEMB     187      OYPE     C22      CTL2    -0.220000       12.0110           0
     23226 MEMB     187      OYPE     H2R      HAL2     0.900000E-01   1.00800           0
     23227 MEMB     187      OYPE     H2S      HAL2     0.900000E-01   1.00800           0
     23228 MEMB     187      OYPE     C3       CTL2     0.800000E-01   12.0110           0
     23229 MEMB     187      OYPE     HX       HAL2     0.900000E-01   1.00800           0
     23230 MEMB     187      OYPE     HY       HAL2     0.900000E-01   1.00800           0
     23231 MEMB     187      OYPE     O31      OSL     -0.490000       15.9994           0
     23232 MEMB     187      OYPE     C31      CL       0.900000       12.0110           0
     23233 MEMB     187      OYPE     O32      OBL     -0.630000       15.9994           0
     23234 MEMB     187      OYPE     C32      CTL2    -0.220000       12.0110           0
     23235 MEMB     187      OYPE     H2X      HAL2     0.900000E-01   1.00800           0
     23236 MEMB     187      OYPE     H2Y      HAL2     0.900000E-01   1.00800           0
     23237 MEMB     187      OYPE     C23      CTL2    -0.180000       12.0110           0
     23238 MEMB     187      OYPE     H3R      HAL2     0.900000E-01   1.00800           0
     23239 MEMB     187      OYPE     H3S      HAL2     0.900000E-01   1.00800           0
     23240 MEMB     187      OYPE     C24      CTL2    -0.180000       12.0110           0
     23241 MEMB     187      OYPE     H4R      HAL2     0.900000E-01   1.00800           0
     23242 MEMB     187      OYPE     H4S      HAL2     0.900000E-01   1.00800           0
     23243 MEMB     187      OYPE     C25      CTL2    -0.180000       12.0110           0
     23244 MEMB     187      OYPE     H5R      HAL2     0.900000E-01   1.00800           0
     23245 MEMB     187      OYPE     H5S      HAL2     0.900000E-01   1.00800           0
     23246 MEMB     187      OYPE     C26      CTL2    -0.180000       12.0110           0
     23247 MEMB     187      OYPE     H6R      HAL2     0.900000E-01   1.00800           0
     23248 MEMB     187      OYPE     H6S      HAL2     0.900000E-01   1.00800           0
     23249 MEMB     187      OYPE     C27      CTL2    -0.180000       12.0110           0
     23250 MEMB     187      OYPE     H7R      HAL2     0.900000E-01   1.00800           0
     23251 MEMB     187      OYPE     H7S      HAL2     0.900000E-01   1.00800           0
     23252 MEMB     187      OYPE     C28      CTL2    -0.180000       12.0110           0
     23253 MEMB     187      OYPE     H8R      HAL2     0.900000E-01   1.00800           0
     23254 MEMB     187      OYPE     H8S      HAL2     0.900000E-01   1.00800           0
     23255 MEMB     187      OYPE     C29      CEL1    -0.150000       12.0110           0
     23256 MEMB     187      OYPE     H9R      HEL1     0.150000       1.00800           0
     23257 MEMB     187      OYPE     C210     CEL1    -0.150000       12.0110           0
     23258 MEMB     187      OYPE     H10R     HEL1     0.150000       1.00800           0
     23259 MEMB     187      OYPE     C211     CTL2    -0.180000       12.0110           0
     23260 MEMB     187      OYPE     H11R     HAL2     0.900000E-01   1.00800           0
     23261 MEMB     187      OYPE     H11S     HAL2     0.900000E-01   1.00800           0
     23262 MEMB     187      OYPE     C212     CTL2    -0.180000       12.0110           0
     23263 MEMB     187      OYPE     H12R     HAL2     0.900000E-01   1.00800           0
     23264 MEMB     187      OYPE     H12S     HAL2     0.900000E-01   1.00800           0
     23265 MEMB     187      OYPE     C213     CTL2    -0.180000       12.0110           0
     23266 MEMB     187      OYPE     H13R     HAL2     0.900000E-01   1.00800           0
     23267 MEMB     187      OYPE     H13S     HAL2     0.900000E-01   1.00800           0
     23268 MEMB     187      OYPE     C214     CTL2    -0.180000       12.0110           0
     23269 MEMB     187      OYPE     H14R     HAL2     0.900000E-01   1.00800           0
     23270 MEMB     187      OYPE     H14S     HAL2     0.900000E-01   1.00800           0
     23271 MEMB     187      OYPE     C215     CTL2    -0.180000       12.0110           0
     23272 MEMB     187      OYPE     H15R     HAL2     0.900000E-01   1.00800           0
     23273 MEMB     187      OYPE     H15S     HAL2     0.900000E-01   1.00800           0
     23274 MEMB     187      OYPE     C216     CTL3    -0.270000       12.0110           0
     23275 MEMB     187      OYPE     H16R     HAL3     0.900000E-01   1.00800           0
     23276 MEMB     187      OYPE     H16S     HAL3     0.900000E-01   1.00800           0
     23277 MEMB     187      OYPE     H16T     HAL3     0.900000E-01   1.00800           0
     23278 MEMB     187      OYPE     C33      CTL2    -0.180000       12.0110           0
     23279 MEMB     187      OYPE     H3X      HAL2     0.900000E-01   1.00800           0
     23280 MEMB     187      OYPE     H3Y      HAL2     0.900000E-01   1.00800           0
     23281 MEMB     187      OYPE     C34      CTL2    -0.180000       12.0110           0
     23282 MEMB     187      OYPE     H4X      HAL2     0.900000E-01   1.00800           0
     23283 MEMB     187      OYPE     H4Y      HAL2     0.900000E-01   1.00800           0
     23284 MEMB     187      OYPE     C35      CTL2    -0.180000       12.0110           0
     23285 MEMB     187      OYPE     H5X      HAL2     0.900000E-01   1.00800           0
     23286 MEMB     187      OYPE     H5Y      HAL2     0.900000E-01   1.00800           0
     23287 MEMB     187      OYPE     C36      CTL2    -0.180000       12.0110           0
     23288 MEMB     187      OYPE     H6X      HAL2     0.900000E-01   1.00800           0
     23289 MEMB     187      OYPE     H6Y      HAL2     0.900000E-01   1.00800           0
     23290 MEMB     187      OYPE     C37      CTL2    -0.180000       12.0110           0
     23291 MEMB     187      OYPE     H7X      HAL2     0.900000E-01   1.00800           0
     23292 MEMB     187      OYPE     H7Y      HAL2     0.900000E-01   1.00800           0
     23293 MEMB     187      OYPE     C38      CTL2    -0.180000       12.0110           0
     23294 MEMB     187      OYPE     H8X      HAL2     0.900000E-01   1.00800           0
     23295 MEMB     187      OYPE     H8Y      HAL2     0.900000E-01   1.00800           0
     23296 MEMB     187      OYPE     C39      CEL1    -0.150000       12.0110           0
     23297 MEMB     187      OYPE     H9X      HEL1     0.150000       1.00800           0
     23298 MEMB     187      OYPE     C310     CEL1    -0.150000       12.0110           0
     23299 MEMB     187      OYPE     H10X     HEL1     0.150000       1.00800           0
     23300 MEMB     187      OYPE     C311     CTL2    -0.180000       12.0110           0
     23301 MEMB     187      OYPE     H11X     HAL2     0.900000E-01   1.00800           0
     23302 MEMB     187      OYPE     H11Y     HAL2     0.900000E-01   1.00800           0
     23303 MEMB     187      OYPE     C312     CTL2    -0.180000       12.0110           0
     23304 MEMB     187      OYPE     H12X     HAL2     0.900000E-01   1.00800           0
     23305 MEMB     187      OYPE     H12Y     HAL2     0.900000E-01   1.00800           0
     23306 MEMB     187      OYPE     C313     CTL2    -0.180000       12.0110           0
     23307 MEMB     187      OYPE     H13X     HAL2     0.900000E-01   1.00800           0
     23308 MEMB     187      OYPE     H13Y     HAL2     0.900000E-01   1.00800           0
     23309 MEMB     187      OYPE     C314     CTL2    -0.180000       12.0110           0
     23310 MEMB     187      OYPE     H14X     HAL2     0.900000E-01   1.00800           0
     23311 MEMB     187      OYPE     H14Y     HAL2     0.900000E-01   1.00800           0
     23312 MEMB     187      OYPE     C315     CTL2    -0.180000       12.0110           0
     23313 MEMB     187      OYPE     H15X     HAL2     0.900000E-01   1.00800           0
     23314 MEMB     187      OYPE     H15Y     HAL2     0.900000E-01   1.00800           0
     23315 MEMB     187      OYPE     C316     CTL2    -0.180000       12.0110           0
     23316 MEMB     187      OYPE     H16X     HAL2     0.900000E-01   1.00800           0
     23317 MEMB     187      OYPE     H16Y     HAL2     0.900000E-01   1.00800           0
     23318 MEMB     187      OYPE     C317     CTL2    -0.180000       12.0110           0
     23319 MEMB     187      OYPE     H17X     HAL2     0.900000E-01   1.00800           0
     23320 MEMB     187      OYPE     H17Y     HAL2     0.900000E-01   1.00800           0
     23321 MEMB     187      OYPE     C318     CTL3    -0.270000       12.0110           0
     23322 MEMB     187      OYPE     H18X     HAL3     0.900000E-01   1.00800           0
     23323 MEMB     187      OYPE     H18Y     HAL3     0.900000E-01   1.00800           0
     23324 MEMB     187      OYPE     H18Z     HAL3     0.900000E-01   1.00800           0
     23325 MEMB     188      PMPE     N        NH3L    -0.300000       14.0070           0
     23326 MEMB     188      PMPE     HN1      HCL      0.330000       1.00800           0
     23327 MEMB     188      PMPE     HN2      HCL      0.330000       1.00800           0
     23328 MEMB     188      PMPE     HN3      HCL      0.330000       1.00800           0
     23329 MEMB     188      PMPE     C12      CTL2     0.130000       12.0110           0
     23330 MEMB     188      PMPE     H12A     HAL2     0.900000E-01   1.00800           0
     23331 MEMB     188      PMPE     H12B     HAL2     0.900000E-01   1.00800           0
     23332 MEMB     188      PMPE     C11      CTL2    -0.800000E-01   12.0110           0
     23333 MEMB     188      PMPE     H11A     HAL2     0.900000E-01   1.00800           0
     23334 MEMB     188      PMPE     H11B     HAL2     0.900000E-01   1.00800           0
     23335 MEMB     188      PMPE     P        PL        1.50000       30.9740           0
     23336 MEMB     188      PMPE     O13      O2L     -0.780000       15.9994           0
     23337 MEMB     188      PMPE     O14      O2L     -0.780000       15.9994           0
     23338 MEMB     188      PMPE     O11      OSLP    -0.570000       15.9994           0
     23339 MEMB     188      PMPE     O12      OSLP    -0.570000       15.9994           0
     23340 MEMB     188      PMPE     C1       CTL2    -0.800000E-01   12.0110           0
     23341 MEMB     188      PMPE     HA       HAL2     0.900000E-01   1.00800           0
     23342 MEMB     188      PMPE     HB       HAL2     0.900000E-01   1.00800           0
     23343 MEMB     188      PMPE     C2       CTL1     0.170000       12.0110           0
     23344 MEMB     188      PMPE     HS       HAL1     0.900000E-01   1.00800           0
     23345 MEMB     188      PMPE     O21      OSL     -0.490000       15.9994           0
     23346 MEMB     188      PMPE     C21      CL       0.900000       12.0110           0
     23347 MEMB     188      PMPE     O22      OBL     -0.630000       15.9994           0
     23348 MEMB     188      PMPE     C22      CTL2    -0.220000       12.0110           0
     23349 MEMB     188      PMPE     H2R      HAL2     0.900000E-01   1.00800           0
     23350 MEMB     188      PMPE     H2S      HAL2     0.900000E-01   1.00800           0
     23351 MEMB     188      PMPE     C3       CTL2     0.800000E-01   12.0110           0
     23352 MEMB     188      PMPE     HX       HAL2     0.900000E-01   1.00800           0
     23353 MEMB     188      PMPE     HY       HAL2     0.900000E-01   1.00800           0
     23354 MEMB     188      PMPE     O31      OSL     -0.490000       15.9994           0
     23355 MEMB     188      PMPE     C31      CL       0.900000       12.0110           0
     23356 MEMB     188      PMPE     O32      OBL     -0.630000       15.9994           0
     23357 MEMB     188      PMPE     C32      CTL2    -0.220000       12.0110           0
     23358 MEMB     188      PMPE     H2X      HAL2     0.900000E-01   1.00800           0
     23359 MEMB     188      PMPE     H2Y      HAL2     0.900000E-01   1.00800           0
     23360 MEMB     188      PMPE     C23      CTL2    -0.180000       12.0110           0
     23361 MEMB     188      PMPE     H3R      HAL2     0.900000E-01   1.00800           0
     23362 MEMB     188      PMPE     H3S      HAL2     0.900000E-01   1.00800           0
     23363 MEMB     188      PMPE     C24      CTL2    -0.180000       12.0110           0
     23364 MEMB     188      PMPE     H4R      HAL2     0.900000E-01   1.00800           0
     23365 MEMB     188      PMPE     H4S      HAL2     0.900000E-01   1.00800           0
     23366 MEMB     188      PMPE     C25      CTL2    -0.180000       12.0110           0
     23367 MEMB     188      PMPE     H5R      HAL2     0.900000E-01   1.00800           0
     23368 MEMB     188      PMPE     H5S      HAL2     0.900000E-01   1.00800           0
     23369 MEMB     188      PMPE     C26      CTL2    -0.180000       12.0110           0
     23370 MEMB     188      PMPE     H6R      HAL2     0.900000E-01   1.00800           0
     23371 MEMB     188      PMPE     H6S      HAL2     0.900000E-01   1.00800           0
     23372 MEMB     188      PMPE     C27      CTL2    -0.180000       12.0110           0
     23373 MEMB     188      PMPE     H7R      HAL2     0.900000E-01   1.00800           0
     23374 MEMB     188      PMPE     H7S      HAL2     0.900000E-01   1.00800           0
     23375 MEMB     188      PMPE     C28      CTL2    -0.180000       12.0110           0
     23376 MEMB     188      PMPE     H8R      HAL2     0.900000E-01   1.00800           0
     23377 MEMB     188      PMPE     H8S      HAL2     0.900000E-01   1.00800           0
     23378 MEMB     188      PMPE     C29      CG3RC1  -0.900000E-01   12.0110           0
     23379 MEMB     188      PMPE     H9R      HGA1     0.900000E-01   1.00800           0
     23380 MEMB     188      PMPE     C217     CG3C31  -0.180000       12.0110           0
     23381 MEMB     188      PMPE     H17R     HGA2     0.900000E-01   1.00800           0
     23382 MEMB     188      PMPE     H17S     HGA2     0.900000E-01   1.00800           0
     23383 MEMB     188      PMPE     C210     CG3RC1  -0.900000E-01   12.0110           0
     23384 MEMB     188      PMPE     H10R     HGA1     0.900000E-01   1.00800           0
     23385 MEMB     188      PMPE     C211     CTL2    -0.180000       12.0110           0
     23386 MEMB     188      PMPE     H11R     HAL2     0.900000E-01   1.00800           0
     23387 MEMB     188      PMPE     H11S     HAL2     0.900000E-01   1.00800           0
     23388 MEMB     188      PMPE     C212     CTL2    -0.180000       12.0110           0
     23389 MEMB     188      PMPE     H12R     HAL2     0.900000E-01   1.00800           0
     23390 MEMB     188      PMPE     H12S     HAL2     0.900000E-01   1.00800           0
     23391 MEMB     188      PMPE     C213     CTL2    -0.180000       12.0110           0
     23392 MEMB     188      PMPE     H13R     HAL2     0.900000E-01   1.00800           0
     23393 MEMB     188      PMPE     H13S     HAL2     0.900000E-01   1.00800           0
     23394 MEMB     188      PMPE     C214     CTL2    -0.180000       12.0110           0
     23395 MEMB     188      PMPE     H14R     HAL2     0.900000E-01   1.00800           0
     23396 MEMB     188      PMPE     H14S     HAL2     0.900000E-01   1.00800           0
     23397 MEMB     188      PMPE     C215     CTL2    -0.180000       12.0110           0
     23398 MEMB     188      PMPE     H15R     HAL2     0.900000E-01   1.00800           0
     23399 MEMB     188      PMPE     H15S     HAL2     0.900000E-01   1.00800           0
     23400 MEMB     188      PMPE     C216     CTL3    -0.270000       12.0110           0
     23401 MEMB     188      PMPE     H16R     HAL3     0.900000E-01   1.00800           0
     23402 MEMB     188      PMPE     H16S     HAL3     0.900000E-01   1.00800           0
     23403 MEMB     188      PMPE     H16T     HAL3     0.900000E-01   1.00800           0
     23404 MEMB     188      PMPE     C33      CTL2    -0.180000       12.0110           0
     23405 MEMB     188      PMPE     H3X      HAL2     0.900000E-01   1.00800           0
     23406 MEMB     188      PMPE     H3Y      HAL2     0.900000E-01   1.00800           0
     23407 MEMB     188      PMPE     C34      CTL2    -0.180000       12.0110           0
     23408 MEMB     188      PMPE     H4X      HAL2     0.900000E-01   1.00800           0
     23409 MEMB     188      PMPE     H4Y      HAL2     0.900000E-01   1.00800           0
     23410 MEMB     188      PMPE     C35      CTL2    -0.180000       12.0110           0
     23411 MEMB     188      PMPE     H5X      HAL2     0.900000E-01   1.00800           0
     23412 MEMB     188      PMPE     H5Y      HAL2     0.900000E-01   1.00800           0
     23413 MEMB     188      PMPE     C36      CTL2    -0.180000       12.0110           0
     23414 MEMB     188      PMPE     H6X      HAL2     0.900000E-01   1.00800           0
     23415 MEMB     188      PMPE     H6Y      HAL2     0.900000E-01   1.00800           0
     23416 MEMB     188      PMPE     C37      CTL2    -0.180000       12.0110           0
     23417 MEMB     188      PMPE     H7X      HAL2     0.900000E-01   1.00800           0
     23418 MEMB     188      PMPE     H7Y      HAL2     0.900000E-01   1.00800           0
     23419 MEMB     188      PMPE     C38      CTL2    -0.180000       12.0110           0
     23420 MEMB     188      PMPE     H8X      HAL2     0.900000E-01   1.00800           0
     23421 MEMB     188      PMPE     H8Y      HAL2     0.900000E-01   1.00800           0
     23422 MEMB     188      PMPE     C39      CTL2    -0.180000       12.0110           0
     23423 MEMB     188      PMPE     H9X      HAL2     0.900000E-01   1.00800           0
     23424 MEMB     188      PMPE     H9Y      HAL2     0.900000E-01   1.00800           0
     23425 MEMB     188      PMPE     C310     CTL2    -0.180000       12.0110           0
     23426 MEMB     188      PMPE     H10X     HAL2     0.900000E-01   1.00800           0
     23427 MEMB     188      PMPE     H10Y     HAL2     0.900000E-01   1.00800           0
     23428 MEMB     188      PMPE     C311     CTL2    -0.180000       12.0110           0
     23429 MEMB     188      PMPE     H11X     HAL2     0.900000E-01   1.00800           0
     23430 MEMB     188      PMPE     H11Y     HAL2     0.900000E-01   1.00800           0
     23431 MEMB     188      PMPE     C312     CTL2    -0.180000       12.0110           0
     23432 MEMB     188      PMPE     H12X     HAL2     0.900000E-01   1.00800           0
     23433 MEMB     188      PMPE     H12Y     HAL2     0.900000E-01   1.00800           0
     23434 MEMB     188      PMPE     C313     CTL2    -0.180000       12.0110           0
     23435 MEMB     188      PMPE     H13X     HAL2     0.900000E-01   1.00800           0
     23436 MEMB     188      PMPE     H13Y     HAL2     0.900000E-01   1.00800           0
     23437 MEMB     188      PMPE     C314     CTL2    -0.180000       12.0110           0
     23438 MEMB     188      PMPE     H14X     HAL2     0.900000E-01   1.00800           0
     23439 MEMB     188      PMPE     H14Y     HAL2     0.900000E-01   1.00800           0
     23440 MEMB     188      PMPE     C315     CTL2    -0.180000       12.0110           0
     23441 MEMB     188      PMPE     H15X     HAL2     0.900000E-01   1.00800           0
     23442 MEMB     188      PMPE     H15Y     HAL2     0.900000E-01   1.00800           0
     23443 MEMB     188      PMPE     C316     CTL3    -0.270000       12.0110           0
     23444 MEMB     188      PMPE     H16X     HAL3     0.900000E-01   1.00800           0
     23445 MEMB     188      PMPE     H16Y     HAL3     0.900000E-01   1.00800           0
     23446 MEMB     188      PMPE     H16Z     HAL3     0.900000E-01   1.00800           0
     23447 MEMB     189      PMPE     N        NH3L    -0.300000       14.0070           0
     23448 MEMB     189      PMPE     HN1      HCL      0.330000       1.00800           0
     23449 MEMB     189      PMPE     HN2      HCL      0.330000       1.00800           0
     23450 MEMB     189      PMPE     HN3      HCL      0.330000       1.00800           0
     23451 MEMB     189      PMPE     C12      CTL2     0.130000       12.0110           0
     23452 MEMB     189      PMPE     H12A     HAL2     0.900000E-01   1.00800           0
     23453 MEMB     189      PMPE     H12B     HAL2     0.900000E-01   1.00800           0
     23454 MEMB     189      PMPE     C11      CTL2    -0.800000E-01   12.0110           0
     23455 MEMB     189      PMPE     H11A     HAL2     0.900000E-01   1.00800           0
     23456 MEMB     189      PMPE     H11B     HAL2     0.900000E-01   1.00800           0
     23457 MEMB     189      PMPE     P        PL        1.50000       30.9740           0
     23458 MEMB     189      PMPE     O13      O2L     -0.780000       15.9994           0
     23459 MEMB     189      PMPE     O14      O2L     -0.780000       15.9994           0
     23460 MEMB     189      PMPE     O11      OSLP    -0.570000       15.9994           0
     23461 MEMB     189      PMPE     O12      OSLP    -0.570000       15.9994           0
     23462 MEMB     189      PMPE     C1       CTL2    -0.800000E-01   12.0110           0
     23463 MEMB     189      PMPE     HA       HAL2     0.900000E-01   1.00800           0
     23464 MEMB     189      PMPE     HB       HAL2     0.900000E-01   1.00800           0
     23465 MEMB     189      PMPE     C2       CTL1     0.170000       12.0110           0
     23466 MEMB     189      PMPE     HS       HAL1     0.900000E-01   1.00800           0
     23467 MEMB     189      PMPE     O21      OSL     -0.490000       15.9994           0
     23468 MEMB     189      PMPE     C21      CL       0.900000       12.0110           0
     23469 MEMB     189      PMPE     O22      OBL     -0.630000       15.9994           0
     23470 MEMB     189      PMPE     C22      CTL2    -0.220000       12.0110           0
     23471 MEMB     189      PMPE     H2R      HAL2     0.900000E-01   1.00800           0
     23472 MEMB     189      PMPE     H2S      HAL2     0.900000E-01   1.00800           0
     23473 MEMB     189      PMPE     C3       CTL2     0.800000E-01   12.0110           0
     23474 MEMB     189      PMPE     HX       HAL2     0.900000E-01   1.00800           0
     23475 MEMB     189      PMPE     HY       HAL2     0.900000E-01   1.00800           0
     23476 MEMB     189      PMPE     O31      OSL     -0.490000       15.9994           0
     23477 MEMB     189      PMPE     C31      CL       0.900000       12.0110           0
     23478 MEMB     189      PMPE     O32      OBL     -0.630000       15.9994           0
     23479 MEMB     189      PMPE     C32      CTL2    -0.220000       12.0110           0
     23480 MEMB     189      PMPE     H2X      HAL2     0.900000E-01   1.00800           0
     23481 MEMB     189      PMPE     H2Y      HAL2     0.900000E-01   1.00800           0
     23482 MEMB     189      PMPE     C23      CTL2    -0.180000       12.0110           0
     23483 MEMB     189      PMPE     H3R      HAL2     0.900000E-01   1.00800           0
     23484 MEMB     189      PMPE     H3S      HAL2     0.900000E-01   1.00800           0
     23485 MEMB     189      PMPE     C24      CTL2    -0.180000       12.0110           0
     23486 MEMB     189      PMPE     H4R      HAL2     0.900000E-01   1.00800           0
     23487 MEMB     189      PMPE     H4S      HAL2     0.900000E-01   1.00800           0
     23488 MEMB     189      PMPE     C25      CTL2    -0.180000       12.0110           0
     23489 MEMB     189      PMPE     H5R      HAL2     0.900000E-01   1.00800           0
     23490 MEMB     189      PMPE     H5S      HAL2     0.900000E-01   1.00800           0
     23491 MEMB     189      PMPE     C26      CTL2    -0.180000       12.0110           0
     23492 MEMB     189      PMPE     H6R      HAL2     0.900000E-01   1.00800           0
     23493 MEMB     189      PMPE     H6S      HAL2     0.900000E-01   1.00800           0
     23494 MEMB     189      PMPE     C27      CTL2    -0.180000       12.0110           0
     23495 MEMB     189      PMPE     H7R      HAL2     0.900000E-01   1.00800           0
     23496 MEMB     189      PMPE     H7S      HAL2     0.900000E-01   1.00800           0
     23497 MEMB     189      PMPE     C28      CTL2    -0.180000       12.0110           0
     23498 MEMB     189      PMPE     H8R      HAL2     0.900000E-01   1.00800           0
     23499 MEMB     189      PMPE     H8S      HAL2     0.900000E-01   1.00800           0
     23500 MEMB     189      PMPE     C29      CG3RC1  -0.900000E-01   12.0110           0
     23501 MEMB     189      PMPE     H9R      HGA1     0.900000E-01   1.00800           0
     23502 MEMB     189      PMPE     C217     CG3C31  -0.180000       12.0110           0
     23503 MEMB     189      PMPE     H17R     HGA2     0.900000E-01   1.00800           0
     23504 MEMB     189      PMPE     H17S     HGA2     0.900000E-01   1.00800           0
     23505 MEMB     189      PMPE     C210     CG3RC1  -0.900000E-01   12.0110           0
     23506 MEMB     189      PMPE     H10R     HGA1     0.900000E-01   1.00800           0
     23507 MEMB     189      PMPE     C211     CTL2    -0.180000       12.0110           0
     23508 MEMB     189      PMPE     H11R     HAL2     0.900000E-01   1.00800           0
     23509 MEMB     189      PMPE     H11S     HAL2     0.900000E-01   1.00800           0
     23510 MEMB     189      PMPE     C212     CTL2    -0.180000       12.0110           0
     23511 MEMB     189      PMPE     H12R     HAL2     0.900000E-01   1.00800           0
     23512 MEMB     189      PMPE     H12S     HAL2     0.900000E-01   1.00800           0
     23513 MEMB     189      PMPE     C213     CTL2    -0.180000       12.0110           0
     23514 MEMB     189      PMPE     H13R     HAL2     0.900000E-01   1.00800           0
     23515 MEMB     189      PMPE     H13S     HAL2     0.900000E-01   1.00800           0
     23516 MEMB     189      PMPE     C214     CTL2    -0.180000       12.0110           0
     23517 MEMB     189      PMPE     H14R     HAL2     0.900000E-01   1.00800           0
     23518 MEMB     189      PMPE     H14S     HAL2     0.900000E-01   1.00800           0
     23519 MEMB     189      PMPE     C215     CTL2    -0.180000       12.0110           0
     23520 MEMB     189      PMPE     H15R     HAL2     0.900000E-01   1.00800           0
     23521 MEMB     189      PMPE     H15S     HAL2     0.900000E-01   1.00800           0
     23522 MEMB     189      PMPE     C216     CTL3    -0.270000       12.0110           0
     23523 MEMB     189      PMPE     H16R     HAL3     0.900000E-01   1.00800           0
     23524 MEMB     189      PMPE     H16S     HAL3     0.900000E-01   1.00800           0
     23525 MEMB     189      PMPE     H16T     HAL3     0.900000E-01   1.00800           0
     23526 MEMB     189      PMPE     C33      CTL2    -0.180000       12.0110           0
     23527 MEMB     189      PMPE     H3X      HAL2     0.900000E-01   1.00800           0
     23528 MEMB     189      PMPE     H3Y      HAL2     0.900000E-01   1.00800           0
     23529 MEMB     189      PMPE     C34      CTL2    -0.180000       12.0110           0
     23530 MEMB     189      PMPE     H4X      HAL2     0.900000E-01   1.00800           0
     23531 MEMB     189      PMPE     H4Y      HAL2     0.900000E-01   1.00800           0
     23532 MEMB     189      PMPE     C35      CTL2    -0.180000       12.0110           0
     23533 MEMB     189      PMPE     H5X      HAL2     0.900000E-01   1.00800           0
     23534 MEMB     189      PMPE     H5Y      HAL2     0.900000E-01   1.00800           0
     23535 MEMB     189      PMPE     C36      CTL2    -0.180000       12.0110           0
     23536 MEMB     189      PMPE     H6X      HAL2     0.900000E-01   1.00800           0
     23537 MEMB     189      PMPE     H6Y      HAL2     0.900000E-01   1.00800           0
     23538 MEMB     189      PMPE     C37      CTL2    -0.180000       12.0110           0
     23539 MEMB     189      PMPE     H7X      HAL2     0.900000E-01   1.00800           0
     23540 MEMB     189      PMPE     H7Y      HAL2     0.900000E-01   1.00800           0
     23541 MEMB     189      PMPE     C38      CTL2    -0.180000       12.0110           0
     23542 MEMB     189      PMPE     H8X      HAL2     0.900000E-01   1.00800           0
     23543 MEMB     189      PMPE     H8Y      HAL2     0.900000E-01   1.00800           0
     23544 MEMB     189      PMPE     C39      CTL2    -0.180000       12.0110           0
     23545 MEMB     189      PMPE     H9X      HAL2     0.900000E-01   1.00800           0
     23546 MEMB     189      PMPE     H9Y      HAL2     0.900000E-01   1.00800           0
     23547 MEMB     189      PMPE     C310     CTL2    -0.180000       12.0110           0
     23548 MEMB     189      PMPE     H10X     HAL2     0.900000E-01   1.00800           0
     23549 MEMB     189      PMPE     H10Y     HAL2     0.900000E-01   1.00800           0
     23550 MEMB     189      PMPE     C311     CTL2    -0.180000       12.0110           0
     23551 MEMB     189      PMPE     H11X     HAL2     0.900000E-01   1.00800           0
     23552 MEMB     189      PMPE     H11Y     HAL2     0.900000E-01   1.00800           0
     23553 MEMB     189      PMPE     C312     CTL2    -0.180000       12.0110           0
     23554 MEMB     189      PMPE     H12X     HAL2     0.900000E-01   1.00800           0
     23555 MEMB     189      PMPE     H12Y     HAL2     0.900000E-01   1.00800           0
     23556 MEMB     189      PMPE     C313     CTL2    -0.180000       12.0110           0
     23557 MEMB     189      PMPE     H13X     HAL2     0.900000E-01   1.00800           0
     23558 MEMB     189      PMPE     H13Y     HAL2     0.900000E-01   1.00800           0
     23559 MEMB     189      PMPE     C314     CTL2    -0.180000       12.0110           0
     23560 MEMB     189      PMPE     H14X     HAL2     0.900000E-01   1.00800           0
     23561 MEMB     189      PMPE     H14Y     HAL2     0.900000E-01   1.00800           0
     23562 MEMB     189      PMPE     C315     CTL2    -0.180000       12.0110           0
     23563 MEMB     189      PMPE     H15X     HAL2     0.900000E-01   1.00800           0
     23564 MEMB     189      PMPE     H15Y     HAL2     0.900000E-01   1.00800           0
     23565 MEMB     189      PMPE     C316     CTL3    -0.270000       12.0110           0
     23566 MEMB     189      PMPE     H16X     HAL3     0.900000E-01   1.00800           0
     23567 MEMB     189      PMPE     H16Y     HAL3     0.900000E-01   1.00800           0
     23568 MEMB     189      PMPE     H16Z     HAL3     0.900000E-01   1.00800           0
     23569 MEMB     190      PMPE     N        NH3L    -0.300000       14.0070           0
     23570 MEMB     190      PMPE     HN1      HCL      0.330000       1.00800           0
     23571 MEMB     190      PMPE     HN2      HCL      0.330000       1.00800           0
     23572 MEMB     190      PMPE     HN3      HCL      0.330000       1.00800           0
     23573 MEMB     190      PMPE     C12      CTL2     0.130000       12.0110           0
     23574 MEMB     190      PMPE     H12A     HAL2     0.900000E-01   1.00800           0
     23575 MEMB     190      PMPE     H12B     HAL2     0.900000E-01   1.00800           0
     23576 MEMB     190      PMPE     C11      CTL2    -0.800000E-01   12.0110           0
     23577 MEMB     190      PMPE     H11A     HAL2     0.900000E-01   1.00800           0
     23578 MEMB     190      PMPE     H11B     HAL2     0.900000E-01   1.00800           0
     23579 MEMB     190      PMPE     P        PL        1.50000       30.9740           0
     23580 MEMB     190      PMPE     O13      O2L     -0.780000       15.9994           0
     23581 MEMB     190      PMPE     O14      O2L     -0.780000       15.9994           0
     23582 MEMB     190      PMPE     O11      OSLP    -0.570000       15.9994           0
     23583 MEMB     190      PMPE     O12      OSLP    -0.570000       15.9994           0
     23584 MEMB     190      PMPE     C1       CTL2    -0.800000E-01   12.0110           0
     23585 MEMB     190      PMPE     HA       HAL2     0.900000E-01   1.00800           0
     23586 MEMB     190      PMPE     HB       HAL2     0.900000E-01   1.00800           0
     23587 MEMB     190      PMPE     C2       CTL1     0.170000       12.0110           0
     23588 MEMB     190      PMPE     HS       HAL1     0.900000E-01   1.00800           0
     23589 MEMB     190      PMPE     O21      OSL     -0.490000       15.9994           0
     23590 MEMB     190      PMPE     C21      CL       0.900000       12.0110           0
     23591 MEMB     190      PMPE     O22      OBL     -0.630000       15.9994           0
     23592 MEMB     190      PMPE     C22      CTL2    -0.220000       12.0110           0
     23593 MEMB     190      PMPE     H2R      HAL2     0.900000E-01   1.00800           0
     23594 MEMB     190      PMPE     H2S      HAL2     0.900000E-01   1.00800           0
     23595 MEMB     190      PMPE     C3       CTL2     0.800000E-01   12.0110           0
     23596 MEMB     190      PMPE     HX       HAL2     0.900000E-01   1.00800           0
     23597 MEMB     190      PMPE     HY       HAL2     0.900000E-01   1.00800           0
     23598 MEMB     190      PMPE     O31      OSL     -0.490000       15.9994           0
     23599 MEMB     190      PMPE     C31      CL       0.900000       12.0110           0
     23600 MEMB     190      PMPE     O32      OBL     -0.630000       15.9994           0
     23601 MEMB     190      PMPE     C32      CTL2    -0.220000       12.0110           0
     23602 MEMB     190      PMPE     H2X      HAL2     0.900000E-01   1.00800           0
     23603 MEMB     190      PMPE     H2Y      HAL2     0.900000E-01   1.00800           0
     23604 MEMB     190      PMPE     C23      CTL2    -0.180000       12.0110           0
     23605 MEMB     190      PMPE     H3R      HAL2     0.900000E-01   1.00800           0
     23606 MEMB     190      PMPE     H3S      HAL2     0.900000E-01   1.00800           0
     23607 MEMB     190      PMPE     C24      CTL2    -0.180000       12.0110           0
     23608 MEMB     190      PMPE     H4R      HAL2     0.900000E-01   1.00800           0
     23609 MEMB     190      PMPE     H4S      HAL2     0.900000E-01   1.00800           0
     23610 MEMB     190      PMPE     C25      CTL2    -0.180000       12.0110           0
     23611 MEMB     190      PMPE     H5R      HAL2     0.900000E-01   1.00800           0
     23612 MEMB     190      PMPE     H5S      HAL2     0.900000E-01   1.00800           0
     23613 MEMB     190      PMPE     C26      CTL2    -0.180000       12.0110           0
     23614 MEMB     190      PMPE     H6R      HAL2     0.900000E-01   1.00800           0
     23615 MEMB     190      PMPE     H6S      HAL2     0.900000E-01   1.00800           0
     23616 MEMB     190      PMPE     C27      CTL2    -0.180000       12.0110           0
     23617 MEMB     190      PMPE     H7R      HAL2     0.900000E-01   1.00800           0
     23618 MEMB     190      PMPE     H7S      HAL2     0.900000E-01   1.00800           0
     23619 MEMB     190      PMPE     C28      CTL2    -0.180000       12.0110           0
     23620 MEMB     190      PMPE     H8R      HAL2     0.900000E-01   1.00800           0
     23621 MEMB     190      PMPE     H8S      HAL2     0.900000E-01   1.00800           0
     23622 MEMB     190      PMPE     C29      CG3RC1  -0.900000E-01   12.0110           0
     23623 MEMB     190      PMPE     H9R      HGA1     0.900000E-01   1.00800           0
     23624 MEMB     190      PMPE     C217     CG3C31  -0.180000       12.0110           0
     23625 MEMB     190      PMPE     H17R     HGA2     0.900000E-01   1.00800           0
     23626 MEMB     190      PMPE     H17S     HGA2     0.900000E-01   1.00800           0
     23627 MEMB     190      PMPE     C210     CG3RC1  -0.900000E-01   12.0110           0
     23628 MEMB     190      PMPE     H10R     HGA1     0.900000E-01   1.00800           0
     23629 MEMB     190      PMPE     C211     CTL2    -0.180000       12.0110           0
     23630 MEMB     190      PMPE     H11R     HAL2     0.900000E-01   1.00800           0
     23631 MEMB     190      PMPE     H11S     HAL2     0.900000E-01   1.00800           0
     23632 MEMB     190      PMPE     C212     CTL2    -0.180000       12.0110           0
     23633 MEMB     190      PMPE     H12R     HAL2     0.900000E-01   1.00800           0
     23634 MEMB     190      PMPE     H12S     HAL2     0.900000E-01   1.00800           0
     23635 MEMB     190      PMPE     C213     CTL2    -0.180000       12.0110           0
     23636 MEMB     190      PMPE     H13R     HAL2     0.900000E-01   1.00800           0
     23637 MEMB     190      PMPE     H13S     HAL2     0.900000E-01   1.00800           0
     23638 MEMB     190      PMPE     C214     CTL2    -0.180000       12.0110           0
     23639 MEMB     190      PMPE     H14R     HAL2     0.900000E-01   1.00800           0
     23640 MEMB     190      PMPE     H14S     HAL2     0.900000E-01   1.00800           0
     23641 MEMB     190      PMPE     C215     CTL2    -0.180000       12.0110           0
     23642 MEMB     190      PMPE     H15R     HAL2     0.900000E-01   1.00800           0
     23643 MEMB     190      PMPE     H15S     HAL2     0.900000E-01   1.00800           0
     23644 MEMB     190      PMPE     C216     CTL3    -0.270000       12.0110           0
     23645 MEMB     190      PMPE     H16R     HAL3     0.900000E-01   1.00800           0
     23646 MEMB     190      PMPE     H16S     HAL3     0.900000E-01   1.00800           0
     23647 MEMB     190      PMPE     H16T     HAL3     0.900000E-01   1.00800           0
     23648 MEMB     190      PMPE     C33      CTL2    -0.180000       12.0110           0
     23649 MEMB     190      PMPE     H3X      HAL2     0.900000E-01   1.00800           0
     23650 MEMB     190      PMPE     H3Y      HAL2     0.900000E-01   1.00800           0
     23651 MEMB     190      PMPE     C34      CTL2    -0.180000       12.0110           0
     23652 MEMB     190      PMPE     H4X      HAL2     0.900000E-01   1.00800           0
     23653 MEMB     190      PMPE     H4Y      HAL2     0.900000E-01   1.00800           0
     23654 MEMB     190      PMPE     C35      CTL2    -0.180000       12.0110           0
     23655 MEMB     190      PMPE     H5X      HAL2     0.900000E-01   1.00800           0
     23656 MEMB     190      PMPE     H5Y      HAL2     0.900000E-01   1.00800           0
     23657 MEMB     190      PMPE     C36      CTL2    -0.180000       12.0110           0
     23658 MEMB     190      PMPE     H6X      HAL2     0.900000E-01   1.00800           0
     23659 MEMB     190      PMPE     H6Y      HAL2     0.900000E-01   1.00800           0
     23660 MEMB     190      PMPE     C37      CTL2    -0.180000       12.0110           0
     23661 MEMB     190      PMPE     H7X      HAL2     0.900000E-01   1.00800           0
     23662 MEMB     190      PMPE     H7Y      HAL2     0.900000E-01   1.00800           0
     23663 MEMB     190      PMPE     C38      CTL2    -0.180000       12.0110           0
     23664 MEMB     190      PMPE     H8X      HAL2     0.900000E-01   1.00800           0
     23665 MEMB     190      PMPE     H8Y      HAL2     0.900000E-01   1.00800           0
     23666 MEMB     190      PMPE     C39      CTL2    -0.180000       12.0110           0
     23667 MEMB     190      PMPE     H9X      HAL2     0.900000E-01   1.00800           0
     23668 MEMB     190      PMPE     H9Y      HAL2     0.900000E-01   1.00800           0
     23669 MEMB     190      PMPE     C310     CTL2    -0.180000       12.0110           0
     23670 MEMB     190      PMPE     H10X     HAL2     0.900000E-01   1.00800           0
     23671 MEMB     190      PMPE     H10Y     HAL2     0.900000E-01   1.00800           0
     23672 MEMB     190      PMPE     C311     CTL2    -0.180000       12.0110           0
     23673 MEMB     190      PMPE     H11X     HAL2     0.900000E-01   1.00800           0
     23674 MEMB     190      PMPE     H11Y     HAL2     0.900000E-01   1.00800           0
     23675 MEMB     190      PMPE     C312     CTL2    -0.180000       12.0110           0
     23676 MEMB     190      PMPE     H12X     HAL2     0.900000E-01   1.00800           0
     23677 MEMB     190      PMPE     H12Y     HAL2     0.900000E-01   1.00800           0
     23678 MEMB     190      PMPE     C313     CTL2    -0.180000       12.0110           0
     23679 MEMB     190      PMPE     H13X     HAL2     0.900000E-01   1.00800           0
     23680 MEMB     190      PMPE     H13Y     HAL2     0.900000E-01   1.00800           0
     23681 MEMB     190      PMPE     C314     CTL2    -0.180000       12.0110           0
     23682 MEMB     190      PMPE     H14X     HAL2     0.900000E-01   1.00800           0
     23683 MEMB     190      PMPE     H14Y     HAL2     0.900000E-01   1.00800           0
     23684 MEMB     190      PMPE     C315     CTL2    -0.180000       12.0110           0
     23685 MEMB     190      PMPE     H15X     HAL2     0.900000E-01   1.00800           0
     23686 MEMB     190      PMPE     H15Y     HAL2     0.900000E-01   1.00800           0
     23687 MEMB     190      PMPE     C316     CTL3    -0.270000       12.0110           0
     23688 MEMB     190      PMPE     H16X     HAL3     0.900000E-01   1.00800           0
     23689 MEMB     190      PMPE     H16Y     HAL3     0.900000E-01   1.00800           0
     23690 MEMB     190      PMPE     H16Z     HAL3     0.900000E-01   1.00800           0
     23691 MEMB     191      PMPE     N        NH3L    -0.300000       14.0070           0
     23692 MEMB     191      PMPE     HN1      HCL      0.330000       1.00800           0
     23693 MEMB     191      PMPE     HN2      HCL      0.330000       1.00800           0
     23694 MEMB     191      PMPE     HN3      HCL      0.330000       1.00800           0
     23695 MEMB     191      PMPE     C12      CTL2     0.130000       12.0110           0
     23696 MEMB     191      PMPE     H12A     HAL2     0.900000E-01   1.00800           0
     23697 MEMB     191      PMPE     H12B     HAL2     0.900000E-01   1.00800           0
     23698 MEMB     191      PMPE     C11      CTL2    -0.800000E-01   12.0110           0
     23699 MEMB     191      PMPE     H11A     HAL2     0.900000E-01   1.00800           0
     23700 MEMB     191      PMPE     H11B     HAL2     0.900000E-01   1.00800           0
     23701 MEMB     191      PMPE     P        PL        1.50000       30.9740           0
     23702 MEMB     191      PMPE     O13      O2L     -0.780000       15.9994           0
     23703 MEMB     191      PMPE     O14      O2L     -0.780000       15.9994           0
     23704 MEMB     191      PMPE     O11      OSLP    -0.570000       15.9994           0
     23705 MEMB     191      PMPE     O12      OSLP    -0.570000       15.9994           0
     23706 MEMB     191      PMPE     C1       CTL2    -0.800000E-01   12.0110           0
     23707 MEMB     191      PMPE     HA       HAL2     0.900000E-01   1.00800           0
     23708 MEMB     191      PMPE     HB       HAL2     0.900000E-01   1.00800           0
     23709 MEMB     191      PMPE     C2       CTL1     0.170000       12.0110           0
     23710 MEMB     191      PMPE     HS       HAL1     0.900000E-01   1.00800           0
     23711 MEMB     191      PMPE     O21      OSL     -0.490000       15.9994           0
     23712 MEMB     191      PMPE     C21      CL       0.900000       12.0110           0
     23713 MEMB     191      PMPE     O22      OBL     -0.630000       15.9994           0
     23714 MEMB     191      PMPE     C22      CTL2    -0.220000       12.0110           0
     23715 MEMB     191      PMPE     H2R      HAL2     0.900000E-01   1.00800           0
     23716 MEMB     191      PMPE     H2S      HAL2     0.900000E-01   1.00800           0
     23717 MEMB     191      PMPE     C3       CTL2     0.800000E-01   12.0110           0
     23718 MEMB     191      PMPE     HX       HAL2     0.900000E-01   1.00800           0
     23719 MEMB     191      PMPE     HY       HAL2     0.900000E-01   1.00800           0
     23720 MEMB     191      PMPE     O31      OSL     -0.490000       15.9994           0
     23721 MEMB     191      PMPE     C31      CL       0.900000       12.0110           0
     23722 MEMB     191      PMPE     O32      OBL     -0.630000       15.9994           0
     23723 MEMB     191      PMPE     C32      CTL2    -0.220000       12.0110           0
     23724 MEMB     191      PMPE     H2X      HAL2     0.900000E-01   1.00800           0
     23725 MEMB     191      PMPE     H2Y      HAL2     0.900000E-01   1.00800           0
     23726 MEMB     191      PMPE     C23      CTL2    -0.180000       12.0110           0
     23727 MEMB     191      PMPE     H3R      HAL2     0.900000E-01   1.00800           0
     23728 MEMB     191      PMPE     H3S      HAL2     0.900000E-01   1.00800           0
     23729 MEMB     191      PMPE     C24      CTL2    -0.180000       12.0110           0
     23730 MEMB     191      PMPE     H4R      HAL2     0.900000E-01   1.00800           0
     23731 MEMB     191      PMPE     H4S      HAL2     0.900000E-01   1.00800           0
     23732 MEMB     191      PMPE     C25      CTL2    -0.180000       12.0110           0
     23733 MEMB     191      PMPE     H5R      HAL2     0.900000E-01   1.00800           0
     23734 MEMB     191      PMPE     H5S      HAL2     0.900000E-01   1.00800           0
     23735 MEMB     191      PMPE     C26      CTL2    -0.180000       12.0110           0
     23736 MEMB     191      PMPE     H6R      HAL2     0.900000E-01   1.00800           0
     23737 MEMB     191      PMPE     H6S      HAL2     0.900000E-01   1.00800           0
     23738 MEMB     191      PMPE     C27      CTL2    -0.180000       12.0110           0
     23739 MEMB     191      PMPE     H7R      HAL2     0.900000E-01   1.00800           0
     23740 MEMB     191      PMPE     H7S      HAL2     0.900000E-01   1.00800           0
     23741 MEMB     191      PMPE     C28      CTL2    -0.180000       12.0110           0
     23742 MEMB     191      PMPE     H8R      HAL2     0.900000E-01   1.00800           0
     23743 MEMB     191      PMPE     H8S      HAL2     0.900000E-01   1.00800           0
     23744 MEMB     191      PMPE     C29      CG3RC1  -0.900000E-01   12.0110           0
     23745 MEMB     191      PMPE     H9R      HGA1     0.900000E-01   1.00800           0
     23746 MEMB     191      PMPE     C217     CG3C31  -0.180000       12.0110           0
     23747 MEMB     191      PMPE     H17R     HGA2     0.900000E-01   1.00800           0
     23748 MEMB     191      PMPE     H17S     HGA2     0.900000E-01   1.00800           0
     23749 MEMB     191      PMPE     C210     CG3RC1  -0.900000E-01   12.0110           0
     23750 MEMB     191      PMPE     H10R     HGA1     0.900000E-01   1.00800           0
     23751 MEMB     191      PMPE     C211     CTL2    -0.180000       12.0110           0
     23752 MEMB     191      PMPE     H11R     HAL2     0.900000E-01   1.00800           0
     23753 MEMB     191      PMPE     H11S     HAL2     0.900000E-01   1.00800           0
     23754 MEMB     191      PMPE     C212     CTL2    -0.180000       12.0110           0
     23755 MEMB     191      PMPE     H12R     HAL2     0.900000E-01   1.00800           0
     23756 MEMB     191      PMPE     H12S     HAL2     0.900000E-01   1.00800           0
     23757 MEMB     191      PMPE     C213     CTL2    -0.180000       12.0110           0
     23758 MEMB     191      PMPE     H13R     HAL2     0.900000E-01   1.00800           0
     23759 MEMB     191      PMPE     H13S     HAL2     0.900000E-01   1.00800           0
     23760 MEMB     191      PMPE     C214     CTL2    -0.180000       12.0110           0
     23761 MEMB     191      PMPE     H14R     HAL2     0.900000E-01   1.00800           0
     23762 MEMB     191      PMPE     H14S     HAL2     0.900000E-01   1.00800           0
     23763 MEMB     191      PMPE     C215     CTL2    -0.180000       12.0110           0
     23764 MEMB     191      PMPE     H15R     HAL2     0.900000E-01   1.00800           0
     23765 MEMB     191      PMPE     H15S     HAL2     0.900000E-01   1.00800           0
     23766 MEMB     191      PMPE     C216     CTL3    -0.270000       12.0110           0
     23767 MEMB     191      PMPE     H16R     HAL3     0.900000E-01   1.00800           0
     23768 MEMB     191      PMPE     H16S     HAL3     0.900000E-01   1.00800           0
     23769 MEMB     191      PMPE     H16T     HAL3     0.900000E-01   1.00800           0
     23770 MEMB     191      PMPE     C33      CTL2    -0.180000       12.0110           0
     23771 MEMB     191      PMPE     H3X      HAL2     0.900000E-01   1.00800           0
     23772 MEMB     191      PMPE     H3Y      HAL2     0.900000E-01   1.00800           0
     23773 MEMB     191      PMPE     C34      CTL2    -0.180000       12.0110           0
     23774 MEMB     191      PMPE     H4X      HAL2     0.900000E-01   1.00800           0
     23775 MEMB     191      PMPE     H4Y      HAL2     0.900000E-01   1.00800           0
     23776 MEMB     191      PMPE     C35      CTL2    -0.180000       12.0110           0
     23777 MEMB     191      PMPE     H5X      HAL2     0.900000E-01   1.00800           0
     23778 MEMB     191      PMPE     H5Y      HAL2     0.900000E-01   1.00800           0
     23779 MEMB     191      PMPE     C36      CTL2    -0.180000       12.0110           0
     23780 MEMB     191      PMPE     H6X      HAL2     0.900000E-01   1.00800           0
     23781 MEMB     191      PMPE     H6Y      HAL2     0.900000E-01   1.00800           0
     23782 MEMB     191      PMPE     C37      CTL2    -0.180000       12.0110           0
     23783 MEMB     191      PMPE     H7X      HAL2     0.900000E-01   1.00800           0
     23784 MEMB     191      PMPE     H7Y      HAL2     0.900000E-01   1.00800           0
     23785 MEMB     191      PMPE     C38      CTL2    -0.180000       12.0110           0
     23786 MEMB     191      PMPE     H8X      HAL2     0.900000E-01   1.00800           0
     23787 MEMB     191      PMPE     H8Y      HAL2     0.900000E-01   1.00800           0
     23788 MEMB     191      PMPE     C39      CTL2    -0.180000       12.0110           0
     23789 MEMB     191      PMPE     H9X      HAL2     0.900000E-01   1.00800           0
     23790 MEMB     191      PMPE     H9Y      HAL2     0.900000E-01   1.00800           0
     23791 MEMB     191      PMPE     C310     CTL2    -0.180000       12.0110           0
     23792 MEMB     191      PMPE     H10X     HAL2     0.900000E-01   1.00800           0
     23793 MEMB     191      PMPE     H10Y     HAL2     0.900000E-01   1.00800           0
     23794 MEMB     191      PMPE     C311     CTL2    -0.180000       12.0110           0
     23795 MEMB     191      PMPE     H11X     HAL2     0.900000E-01   1.00800           0
     23796 MEMB     191      PMPE     H11Y     HAL2     0.900000E-01   1.00800           0
     23797 MEMB     191      PMPE     C312     CTL2    -0.180000       12.0110           0
     23798 MEMB     191      PMPE     H12X     HAL2     0.900000E-01   1.00800           0
     23799 MEMB     191      PMPE     H12Y     HAL2     0.900000E-01   1.00800           0
     23800 MEMB     191      PMPE     C313     CTL2    -0.180000       12.0110           0
     23801 MEMB     191      PMPE     H13X     HAL2     0.900000E-01   1.00800           0
     23802 MEMB     191      PMPE     H13Y     HAL2     0.900000E-01   1.00800           0
     23803 MEMB     191      PMPE     C314     CTL2    -0.180000       12.0110           0
     23804 MEMB     191      PMPE     H14X     HAL2     0.900000E-01   1.00800           0
     23805 MEMB     191      PMPE     H14Y     HAL2     0.900000E-01   1.00800           0
     23806 MEMB     191      PMPE     C315     CTL2    -0.180000       12.0110           0
     23807 MEMB     191      PMPE     H15X     HAL2     0.900000E-01   1.00800           0
     23808 MEMB     191      PMPE     H15Y     HAL2     0.900000E-01   1.00800           0
     23809 MEMB     191      PMPE     C316     CTL3    -0.270000       12.0110           0
     23810 MEMB     191      PMPE     H16X     HAL3     0.900000E-01   1.00800           0
     23811 MEMB     191      PMPE     H16Y     HAL3     0.900000E-01   1.00800           0
     23812 MEMB     191      PMPE     H16Z     HAL3     0.900000E-01   1.00800           0
     23813 MEMB     192      PMPE     N        NH3L    -0.300000       14.0070           0
     23814 MEMB     192      PMPE     HN1      HCL      0.330000       1.00800           0
     23815 MEMB     192      PMPE     HN2      HCL      0.330000       1.00800           0
     23816 MEMB     192      PMPE     HN3      HCL      0.330000       1.00800           0
     23817 MEMB     192      PMPE     C12      CTL2     0.130000       12.0110           0
     23818 MEMB     192      PMPE     H12A     HAL2     0.900000E-01   1.00800           0
     23819 MEMB     192      PMPE     H12B     HAL2     0.900000E-01   1.00800           0
     23820 MEMB     192      PMPE     C11      CTL2    -0.800000E-01   12.0110           0
     23821 MEMB     192      PMPE     H11A     HAL2     0.900000E-01   1.00800           0
     23822 MEMB     192      PMPE     H11B     HAL2     0.900000E-01   1.00800           0
     23823 MEMB     192      PMPE     P        PL        1.50000       30.9740           0
     23824 MEMB     192      PMPE     O13      O2L     -0.780000       15.9994           0
     23825 MEMB     192      PMPE     O14      O2L     -0.780000       15.9994           0
     23826 MEMB     192      PMPE     O11      OSLP    -0.570000       15.9994           0
     23827 MEMB     192      PMPE     O12      OSLP    -0.570000       15.9994           0
     23828 MEMB     192      PMPE     C1       CTL2    -0.800000E-01   12.0110           0
     23829 MEMB     192      PMPE     HA       HAL2     0.900000E-01   1.00800           0
     23830 MEMB     192      PMPE     HB       HAL2     0.900000E-01   1.00800           0
     23831 MEMB     192      PMPE     C2       CTL1     0.170000       12.0110           0
     23832 MEMB     192      PMPE     HS       HAL1     0.900000E-01   1.00800           0
     23833 MEMB     192      PMPE     O21      OSL     -0.490000       15.9994           0
     23834 MEMB     192      PMPE     C21      CL       0.900000       12.0110           0
     23835 MEMB     192      PMPE     O22      OBL     -0.630000       15.9994           0
     23836 MEMB     192      PMPE     C22      CTL2    -0.220000       12.0110           0
     23837 MEMB     192      PMPE     H2R      HAL2     0.900000E-01   1.00800           0
     23838 MEMB     192      PMPE     H2S      HAL2     0.900000E-01   1.00800           0
     23839 MEMB     192      PMPE     C3       CTL2     0.800000E-01   12.0110           0
     23840 MEMB     192      PMPE     HX       HAL2     0.900000E-01   1.00800           0
     23841 MEMB     192      PMPE     HY       HAL2     0.900000E-01   1.00800           0
     23842 MEMB     192      PMPE     O31      OSL     -0.490000       15.9994           0
     23843 MEMB     192      PMPE     C31      CL       0.900000       12.0110           0
     23844 MEMB     192      PMPE     O32      OBL     -0.630000       15.9994           0
     23845 MEMB     192      PMPE     C32      CTL2    -0.220000       12.0110           0
     23846 MEMB     192      PMPE     H2X      HAL2     0.900000E-01   1.00800           0
     23847 MEMB     192      PMPE     H2Y      HAL2     0.900000E-01   1.00800           0
     23848 MEMB     192      PMPE     C23      CTL2    -0.180000       12.0110           0
     23849 MEMB     192      PMPE     H3R      HAL2     0.900000E-01   1.00800           0
     23850 MEMB     192      PMPE     H3S      HAL2     0.900000E-01   1.00800           0
     23851 MEMB     192      PMPE     C24      CTL2    -0.180000       12.0110           0
     23852 MEMB     192      PMPE     H4R      HAL2     0.900000E-01   1.00800           0
     23853 MEMB     192      PMPE     H4S      HAL2     0.900000E-01   1.00800           0
     23854 MEMB     192      PMPE     C25      CTL2    -0.180000       12.0110           0
     23855 MEMB     192      PMPE     H5R      HAL2     0.900000E-01   1.00800           0
     23856 MEMB     192      PMPE     H5S      HAL2     0.900000E-01   1.00800           0
     23857 MEMB     192      PMPE     C26      CTL2    -0.180000       12.0110           0
     23858 MEMB     192      PMPE     H6R      HAL2     0.900000E-01   1.00800           0
     23859 MEMB     192      PMPE     H6S      HAL2     0.900000E-01   1.00800           0
     23860 MEMB     192      PMPE     C27      CTL2    -0.180000       12.0110           0
     23861 MEMB     192      PMPE     H7R      HAL2     0.900000E-01   1.00800           0
     23862 MEMB     192      PMPE     H7S      HAL2     0.900000E-01   1.00800           0
     23863 MEMB     192      PMPE     C28      CTL2    -0.180000       12.0110           0
     23864 MEMB     192      PMPE     H8R      HAL2     0.900000E-01   1.00800           0
     23865 MEMB     192      PMPE     H8S      HAL2     0.900000E-01   1.00800           0
     23866 MEMB     192      PMPE     C29      CG3RC1  -0.900000E-01   12.0110           0
     23867 MEMB     192      PMPE     H9R      HGA1     0.900000E-01   1.00800           0
     23868 MEMB     192      PMPE     C217     CG3C31  -0.180000       12.0110           0
     23869 MEMB     192      PMPE     H17R     HGA2     0.900000E-01   1.00800           0
     23870 MEMB     192      PMPE     H17S     HGA2     0.900000E-01   1.00800           0
     23871 MEMB     192      PMPE     C210     CG3RC1  -0.900000E-01   12.0110           0
     23872 MEMB     192      PMPE     H10R     HGA1     0.900000E-01   1.00800           0
     23873 MEMB     192      PMPE     C211     CTL2    -0.180000       12.0110           0
     23874 MEMB     192      PMPE     H11R     HAL2     0.900000E-01   1.00800           0
     23875 MEMB     192      PMPE     H11S     HAL2     0.900000E-01   1.00800           0
     23876 MEMB     192      PMPE     C212     CTL2    -0.180000       12.0110           0
     23877 MEMB     192      PMPE     H12R     HAL2     0.900000E-01   1.00800           0
     23878 MEMB     192      PMPE     H12S     HAL2     0.900000E-01   1.00800           0
     23879 MEMB     192      PMPE     C213     CTL2    -0.180000       12.0110           0
     23880 MEMB     192      PMPE     H13R     HAL2     0.900000E-01   1.00800           0
     23881 MEMB     192      PMPE     H13S     HAL2     0.900000E-01   1.00800           0
     23882 MEMB     192      PMPE     C214     CTL2    -0.180000       12.0110           0
     23883 MEMB     192      PMPE     H14R     HAL2     0.900000E-01   1.00800           0
     23884 MEMB     192      PMPE     H14S     HAL2     0.900000E-01   1.00800           0
     23885 MEMB     192      PMPE     C215     CTL2    -0.180000       12.0110           0
     23886 MEMB     192      PMPE     H15R     HAL2     0.900000E-01   1.00800           0
     23887 MEMB     192      PMPE     H15S     HAL2     0.900000E-01   1.00800           0
     23888 MEMB     192      PMPE     C216     CTL3    -0.270000       12.0110           0
     23889 MEMB     192      PMPE     H16R     HAL3     0.900000E-01   1.00800           0
     23890 MEMB     192      PMPE     H16S     HAL3     0.900000E-01   1.00800           0
     23891 MEMB     192      PMPE     H16T     HAL3     0.900000E-01   1.00800           0
     23892 MEMB     192      PMPE     C33      CTL2    -0.180000       12.0110           0
     23893 MEMB     192      PMPE     H3X      HAL2     0.900000E-01   1.00800           0
     23894 MEMB     192      PMPE     H3Y      HAL2     0.900000E-01   1.00800           0
     23895 MEMB     192      PMPE     C34      CTL2    -0.180000       12.0110           0
     23896 MEMB     192      PMPE     H4X      HAL2     0.900000E-01   1.00800           0
     23897 MEMB     192      PMPE     H4Y      HAL2     0.900000E-01   1.00800           0
     23898 MEMB     192      PMPE     C35      CTL2    -0.180000       12.0110           0
     23899 MEMB     192      PMPE     H5X      HAL2     0.900000E-01   1.00800           0
     23900 MEMB     192      PMPE     H5Y      HAL2     0.900000E-01   1.00800           0
     23901 MEMB     192      PMPE     C36      CTL2    -0.180000       12.0110           0
     23902 MEMB     192      PMPE     H6X      HAL2     0.900000E-01   1.00800           0
     23903 MEMB     192      PMPE     H6Y      HAL2     0.900000E-01   1.00800           0
     23904 MEMB     192      PMPE     C37      CTL2    -0.180000       12.0110           0
     23905 MEMB     192      PMPE     H7X      HAL2     0.900000E-01   1.00800           0
     23906 MEMB     192      PMPE     H7Y      HAL2     0.900000E-01   1.00800           0
     23907 MEMB     192      PMPE     C38      CTL2    -0.180000       12.0110           0
     23908 MEMB     192      PMPE     H8X      HAL2     0.900000E-01   1.00800           0
     23909 MEMB     192      PMPE     H8Y      HAL2     0.900000E-01   1.00800           0
     23910 MEMB     192      PMPE     C39      CTL2    -0.180000       12.0110           0
     23911 MEMB     192      PMPE     H9X      HAL2     0.900000E-01   1.00800           0
     23912 MEMB     192      PMPE     H9Y      HAL2     0.900000E-01   1.00800           0
     23913 MEMB     192      PMPE     C310     CTL2    -0.180000       12.0110           0
     23914 MEMB     192      PMPE     H10X     HAL2     0.900000E-01   1.00800           0
     23915 MEMB     192      PMPE     H10Y     HAL2     0.900000E-01   1.00800           0
     23916 MEMB     192      PMPE     C311     CTL2    -0.180000       12.0110           0
     23917 MEMB     192      PMPE     H11X     HAL2     0.900000E-01   1.00800           0
     23918 MEMB     192      PMPE     H11Y     HAL2     0.900000E-01   1.00800           0
     23919 MEMB     192      PMPE     C312     CTL2    -0.180000       12.0110           0
     23920 MEMB     192      PMPE     H12X     HAL2     0.900000E-01   1.00800           0
     23921 MEMB     192      PMPE     H12Y     HAL2     0.900000E-01   1.00800           0
     23922 MEMB     192      PMPE     C313     CTL2    -0.180000       12.0110           0
     23923 MEMB     192      PMPE     H13X     HAL2     0.900000E-01   1.00800           0
     23924 MEMB     192      PMPE     H13Y     HAL2     0.900000E-01   1.00800           0
     23925 MEMB     192      PMPE     C314     CTL2    -0.180000       12.0110           0
     23926 MEMB     192      PMPE     H14X     HAL2     0.900000E-01   1.00800           0
     23927 MEMB     192      PMPE     H14Y     HAL2     0.900000E-01   1.00800           0
     23928 MEMB     192      PMPE     C315     CTL2    -0.180000       12.0110           0
     23929 MEMB     192      PMPE     H15X     HAL2     0.900000E-01   1.00800           0
     23930 MEMB     192      PMPE     H15Y     HAL2     0.900000E-01   1.00800           0
     23931 MEMB     192      PMPE     C316     CTL3    -0.270000       12.0110           0
     23932 MEMB     192      PMPE     H16X     HAL3     0.900000E-01   1.00800           0
     23933 MEMB     192      PMPE     H16Y     HAL3     0.900000E-01   1.00800           0
     23934 MEMB     192      PMPE     H16Z     HAL3     0.900000E-01   1.00800           0
     23935 MEMB     193      QMPE     N        NH3L    -0.300000       14.0070           0
     23936 MEMB     193      QMPE     HN1      HCL      0.330000       1.00800           0
     23937 MEMB     193      QMPE     HN2      HCL      0.330000       1.00800           0
     23938 MEMB     193      QMPE     HN3      HCL      0.330000       1.00800           0
     23939 MEMB     193      QMPE     C12      CTL2     0.130000       12.0110           0
     23940 MEMB     193      QMPE     H12A     HAL2     0.900000E-01   1.00800           0
     23941 MEMB     193      QMPE     H12B     HAL2     0.900000E-01   1.00800           0
     23942 MEMB     193      QMPE     C11      CTL2    -0.800000E-01   12.0110           0
     23943 MEMB     193      QMPE     H11A     HAL2     0.900000E-01   1.00800           0
     23944 MEMB     193      QMPE     H11B     HAL2     0.900000E-01   1.00800           0
     23945 MEMB     193      QMPE     P        PL        1.50000       30.9740           0
     23946 MEMB     193      QMPE     O13      O2L     -0.780000       15.9994           0
     23947 MEMB     193      QMPE     O14      O2L     -0.780000       15.9994           0
     23948 MEMB     193      QMPE     O11      OSLP    -0.570000       15.9994           0
     23949 MEMB     193      QMPE     O12      OSLP    -0.570000       15.9994           0
     23950 MEMB     193      QMPE     C1       CTL2    -0.800000E-01   12.0110           0
     23951 MEMB     193      QMPE     HA       HAL2     0.900000E-01   1.00800           0
     23952 MEMB     193      QMPE     HB       HAL2     0.900000E-01   1.00800           0
     23953 MEMB     193      QMPE     C2       CTL1     0.170000       12.0110           0
     23954 MEMB     193      QMPE     HS       HAL1     0.900000E-01   1.00800           0
     23955 MEMB     193      QMPE     O21      OSL     -0.490000       15.9994           0
     23956 MEMB     193      QMPE     C21      CL       0.900000       12.0110           0
     23957 MEMB     193      QMPE     O22      OBL     -0.630000       15.9994           0
     23958 MEMB     193      QMPE     C22      CTL2    -0.220000       12.0110           0
     23959 MEMB     193      QMPE     H2R      HAL2     0.900000E-01   1.00800           0
     23960 MEMB     193      QMPE     H2S      HAL2     0.900000E-01   1.00800           0
     23961 MEMB     193      QMPE     C3       CTL2     0.800000E-01   12.0110           0
     23962 MEMB     193      QMPE     HX       HAL2     0.900000E-01   1.00800           0
     23963 MEMB     193      QMPE     HY       HAL2     0.900000E-01   1.00800           0
     23964 MEMB     193      QMPE     O31      OSL     -0.490000       15.9994           0
     23965 MEMB     193      QMPE     C31      CL       0.900000       12.0110           0
     23966 MEMB     193      QMPE     O32      OBL     -0.630000       15.9994           0
     23967 MEMB     193      QMPE     C32      CTL2    -0.220000       12.0110           0
     23968 MEMB     193      QMPE     H2X      HAL2     0.900000E-01   1.00800           0
     23969 MEMB     193      QMPE     H2Y      HAL2     0.900000E-01   1.00800           0
     23970 MEMB     193      QMPE     C23      CTL2    -0.180000       12.0110           0
     23971 MEMB     193      QMPE     H3R      HAL2     0.900000E-01   1.00800           0
     23972 MEMB     193      QMPE     H3S      HAL2     0.900000E-01   1.00800           0
     23973 MEMB     193      QMPE     C24      CTL2    -0.180000       12.0110           0
     23974 MEMB     193      QMPE     H4R      HAL2     0.900000E-01   1.00800           0
     23975 MEMB     193      QMPE     H4S      HAL2     0.900000E-01   1.00800           0
     23976 MEMB     193      QMPE     C25      CTL2    -0.180000       12.0110           0
     23977 MEMB     193      QMPE     H5R      HAL2     0.900000E-01   1.00800           0
     23978 MEMB     193      QMPE     H5S      HAL2     0.900000E-01   1.00800           0
     23979 MEMB     193      QMPE     C26      CTL2    -0.180000       12.0110           0
     23980 MEMB     193      QMPE     H6R      HAL2     0.900000E-01   1.00800           0
     23981 MEMB     193      QMPE     H6S      HAL2     0.900000E-01   1.00800           0
     23982 MEMB     193      QMPE     C27      CTL2    -0.180000       12.0110           0
     23983 MEMB     193      QMPE     H7R      HAL2     0.900000E-01   1.00800           0
     23984 MEMB     193      QMPE     H7S      HAL2     0.900000E-01   1.00800           0
     23985 MEMB     193      QMPE     C28      CTL2    -0.180000       12.0110           0
     23986 MEMB     193      QMPE     H8R      HAL2     0.900000E-01   1.00800           0
     23987 MEMB     193      QMPE     H8S      HAL2     0.900000E-01   1.00800           0
     23988 MEMB     193      QMPE     C29      CG3RC1  -0.900000E-01   12.0110           0
     23989 MEMB     193      QMPE     H9R      HGA1     0.900000E-01   1.00800           0
     23990 MEMB     193      QMPE     C217     CG3C31  -0.180000       12.0110           0
     23991 MEMB     193      QMPE     H17R     HGA2     0.900000E-01   1.00800           0
     23992 MEMB     193      QMPE     H17S     HGA2     0.900000E-01   1.00800           0
     23993 MEMB     193      QMPE     C210     CG3RC1  -0.900000E-01   12.0110           0
     23994 MEMB     193      QMPE     H10R     HGA1     0.900000E-01   1.00800           0
     23995 MEMB     193      QMPE     C211     CTL2    -0.180000       12.0110           0
     23996 MEMB     193      QMPE     H11R     HAL2     0.900000E-01   1.00800           0
     23997 MEMB     193      QMPE     H11S     HAL2     0.900000E-01   1.00800           0
     23998 MEMB     193      QMPE     C212     CTL2    -0.180000       12.0110           0
     23999 MEMB     193      QMPE     H12R     HAL2     0.900000E-01   1.00800           0
     24000 MEMB     193      QMPE     H12S     HAL2     0.900000E-01   1.00800           0
     24001 MEMB     193      QMPE     C213     CTL2    -0.180000       12.0110           0
     24002 MEMB     193      QMPE     H13R     HAL2     0.900000E-01   1.00800           0
     24003 MEMB     193      QMPE     H13S     HAL2     0.900000E-01   1.00800           0
     24004 MEMB     193      QMPE     C214     CTL2    -0.180000       12.0110           0
     24005 MEMB     193      QMPE     H14R     HAL2     0.900000E-01   1.00800           0
     24006 MEMB     193      QMPE     H14S     HAL2     0.900000E-01   1.00800           0
     24007 MEMB     193      QMPE     C215     CTL2    -0.180000       12.0110           0
     24008 MEMB     193      QMPE     H15R     HAL2     0.900000E-01   1.00800           0
     24009 MEMB     193      QMPE     H15S     HAL2     0.900000E-01   1.00800           0
     24010 MEMB     193      QMPE     C216     CTL3    -0.270000       12.0110           0
     24011 MEMB     193      QMPE     H16R     HAL3     0.900000E-01   1.00800           0
     24012 MEMB     193      QMPE     H16S     HAL3     0.900000E-01   1.00800           0
     24013 MEMB     193      QMPE     H16T     HAL3     0.900000E-01   1.00800           0
     24014 MEMB     193      QMPE     C33      CTL2    -0.180000       12.0110           0
     24015 MEMB     193      QMPE     H3X      HAL2     0.900000E-01   1.00800           0
     24016 MEMB     193      QMPE     H3Y      HAL2     0.900000E-01   1.00800           0
     24017 MEMB     193      QMPE     C34      CTL2    -0.180000       12.0110           0
     24018 MEMB     193      QMPE     H4X      HAL2     0.900000E-01   1.00800           0
     24019 MEMB     193      QMPE     H4Y      HAL2     0.900000E-01   1.00800           0
     24020 MEMB     193      QMPE     C35      CTL2    -0.180000       12.0110           0
     24021 MEMB     193      QMPE     H5X      HAL2     0.900000E-01   1.00800           0
     24022 MEMB     193      QMPE     H5Y      HAL2     0.900000E-01   1.00800           0
     24023 MEMB     193      QMPE     C36      CTL2    -0.180000       12.0110           0
     24024 MEMB     193      QMPE     H6X      HAL2     0.900000E-01   1.00800           0
     24025 MEMB     193      QMPE     H6Y      HAL2     0.900000E-01   1.00800           0
     24026 MEMB     193      QMPE     C37      CTL2    -0.180000       12.0110           0
     24027 MEMB     193      QMPE     H7X      HAL2     0.900000E-01   1.00800           0
     24028 MEMB     193      QMPE     H7Y      HAL2     0.900000E-01   1.00800           0
     24029 MEMB     193      QMPE     C38      CTL2    -0.180000       12.0110           0
     24030 MEMB     193      QMPE     H8X      HAL2     0.900000E-01   1.00800           0
     24031 MEMB     193      QMPE     H8Y      HAL2     0.900000E-01   1.00800           0
     24032 MEMB     193      QMPE     C39      CTL2    -0.180000       12.0110           0
     24033 MEMB     193      QMPE     H9X      HAL2     0.900000E-01   1.00800           0
     24034 MEMB     193      QMPE     H9Y      HAL2     0.900000E-01   1.00800           0
     24035 MEMB     193      QMPE     C310     CTL2    -0.180000       12.0110           0
     24036 MEMB     193      QMPE     H10X     HAL2     0.900000E-01   1.00800           0
     24037 MEMB     193      QMPE     H10Y     HAL2     0.900000E-01   1.00800           0
     24038 MEMB     193      QMPE     C311     CTL2    -0.180000       12.0110           0
     24039 MEMB     193      QMPE     H11X     HAL2     0.900000E-01   1.00800           0
     24040 MEMB     193      QMPE     H11Y     HAL2     0.900000E-01   1.00800           0
     24041 MEMB     193      QMPE     C312     CTL2    -0.180000       12.0110           0
     24042 MEMB     193      QMPE     H12X     HAL2     0.900000E-01   1.00800           0
     24043 MEMB     193      QMPE     H12Y     HAL2     0.900000E-01   1.00800           0
     24044 MEMB     193      QMPE     C313     CTL2    -0.180000       12.0110           0
     24045 MEMB     193      QMPE     H13X     HAL2     0.900000E-01   1.00800           0
     24046 MEMB     193      QMPE     H13Y     HAL2     0.900000E-01   1.00800           0
     24047 MEMB     193      QMPE     C314     CTL2    -0.180000       12.0110           0
     24048 MEMB     193      QMPE     H14X     HAL2     0.900000E-01   1.00800           0
     24049 MEMB     193      QMPE     H14Y     HAL2     0.900000E-01   1.00800           0
     24050 MEMB     193      QMPE     C315     CTL3    -0.270000       12.0110           0
     24051 MEMB     193      QMPE     H15X     HAL3     0.900000E-01   1.00800           0
     24052 MEMB     193      QMPE     H15Y     HAL3     0.900000E-01   1.00800           0
     24053 MEMB     193      QMPE     H15Z     HAL3     0.900000E-01   1.00800           0
     24054 MEMB     194      PMPE     N        NH3L    -0.300000       14.0070           0
     24055 MEMB     194      PMPE     HN1      HCL      0.330000       1.00800           0
     24056 MEMB     194      PMPE     HN2      HCL      0.330000       1.00800           0
     24057 MEMB     194      PMPE     HN3      HCL      0.330000       1.00800           0
     24058 MEMB     194      PMPE     C12      CTL2     0.130000       12.0110           0
     24059 MEMB     194      PMPE     H12A     HAL2     0.900000E-01   1.00800           0
     24060 MEMB     194      PMPE     H12B     HAL2     0.900000E-01   1.00800           0
     24061 MEMB     194      PMPE     C11      CTL2    -0.800000E-01   12.0110           0
     24062 MEMB     194      PMPE     H11A     HAL2     0.900000E-01   1.00800           0
     24063 MEMB     194      PMPE     H11B     HAL2     0.900000E-01   1.00800           0
     24064 MEMB     194      PMPE     P        PL        1.50000       30.9740           0
     24065 MEMB     194      PMPE     O13      O2L     -0.780000       15.9994           0
     24066 MEMB     194      PMPE     O14      O2L     -0.780000       15.9994           0
     24067 MEMB     194      PMPE     O11      OSLP    -0.570000       15.9994           0
     24068 MEMB     194      PMPE     O12      OSLP    -0.570000       15.9994           0
     24069 MEMB     194      PMPE     C1       CTL2    -0.800000E-01   12.0110           0
     24070 MEMB     194      PMPE     HA       HAL2     0.900000E-01   1.00800           0
     24071 MEMB     194      PMPE     HB       HAL2     0.900000E-01   1.00800           0
     24072 MEMB     194      PMPE     C2       CTL1     0.170000       12.0110           0
     24073 MEMB     194      PMPE     HS       HAL1     0.900000E-01   1.00800           0
     24074 MEMB     194      PMPE     O21      OSL     -0.490000       15.9994           0
     24075 MEMB     194      PMPE     C21      CL       0.900000       12.0110           0
     24076 MEMB     194      PMPE     O22      OBL     -0.630000       15.9994           0
     24077 MEMB     194      PMPE     C22      CTL2    -0.220000       12.0110           0
     24078 MEMB     194      PMPE     H2R      HAL2     0.900000E-01   1.00800           0
     24079 MEMB     194      PMPE     H2S      HAL2     0.900000E-01   1.00800           0
     24080 MEMB     194      PMPE     C3       CTL2     0.800000E-01   12.0110           0
     24081 MEMB     194      PMPE     HX       HAL2     0.900000E-01   1.00800           0
     24082 MEMB     194      PMPE     HY       HAL2     0.900000E-01   1.00800           0
     24083 MEMB     194      PMPE     O31      OSL     -0.490000       15.9994           0
     24084 MEMB     194      PMPE     C31      CL       0.900000       12.0110           0
     24085 MEMB     194      PMPE     O32      OBL     -0.630000       15.9994           0
     24086 MEMB     194      PMPE     C32      CTL2    -0.220000       12.0110           0
     24087 MEMB     194      PMPE     H2X      HAL2     0.900000E-01   1.00800           0
     24088 MEMB     194      PMPE     H2Y      HAL2     0.900000E-01   1.00800           0
     24089 MEMB     194      PMPE     C23      CTL2    -0.180000       12.0110           0
     24090 MEMB     194      PMPE     H3R      HAL2     0.900000E-01   1.00800           0
     24091 MEMB     194      PMPE     H3S      HAL2     0.900000E-01   1.00800           0
     24092 MEMB     194      PMPE     C24      CTL2    -0.180000       12.0110           0
     24093 MEMB     194      PMPE     H4R      HAL2     0.900000E-01   1.00800           0
     24094 MEMB     194      PMPE     H4S      HAL2     0.900000E-01   1.00800           0
     24095 MEMB     194      PMPE     C25      CTL2    -0.180000       12.0110           0
     24096 MEMB     194      PMPE     H5R      HAL2     0.900000E-01   1.00800           0
     24097 MEMB     194      PMPE     H5S      HAL2     0.900000E-01   1.00800           0
     24098 MEMB     194      PMPE     C26      CTL2    -0.180000       12.0110           0
     24099 MEMB     194      PMPE     H6R      HAL2     0.900000E-01   1.00800           0
     24100 MEMB     194      PMPE     H6S      HAL2     0.900000E-01   1.00800           0
     24101 MEMB     194      PMPE     C27      CTL2    -0.180000       12.0110           0
     24102 MEMB     194      PMPE     H7R      HAL2     0.900000E-01   1.00800           0
     24103 MEMB     194      PMPE     H7S      HAL2     0.900000E-01   1.00800           0
     24104 MEMB     194      PMPE     C28      CTL2    -0.180000       12.0110           0
     24105 MEMB     194      PMPE     H8R      HAL2     0.900000E-01   1.00800           0
     24106 MEMB     194      PMPE     H8S      HAL2     0.900000E-01   1.00800           0
     24107 MEMB     194      PMPE     C29      CG3RC1  -0.900000E-01   12.0110           0
     24108 MEMB     194      PMPE     H9R      HGA1     0.900000E-01   1.00800           0
     24109 MEMB     194      PMPE     C217     CG3C31  -0.180000       12.0110           0
     24110 MEMB     194      PMPE     H17R     HGA2     0.900000E-01   1.00800           0
     24111 MEMB     194      PMPE     H17S     HGA2     0.900000E-01   1.00800           0
     24112 MEMB     194      PMPE     C210     CG3RC1  -0.900000E-01   12.0110           0
     24113 MEMB     194      PMPE     H10R     HGA1     0.900000E-01   1.00800           0
     24114 MEMB     194      PMPE     C211     CTL2    -0.180000       12.0110           0
     24115 MEMB     194      PMPE     H11R     HAL2     0.900000E-01   1.00800           0
     24116 MEMB     194      PMPE     H11S     HAL2     0.900000E-01   1.00800           0
     24117 MEMB     194      PMPE     C212     CTL2    -0.180000       12.0110           0
     24118 MEMB     194      PMPE     H12R     HAL2     0.900000E-01   1.00800           0
     24119 MEMB     194      PMPE     H12S     HAL2     0.900000E-01   1.00800           0
     24120 MEMB     194      PMPE     C213     CTL2    -0.180000       12.0110           0
     24121 MEMB     194      PMPE     H13R     HAL2     0.900000E-01   1.00800           0
     24122 MEMB     194      PMPE     H13S     HAL2     0.900000E-01   1.00800           0
     24123 MEMB     194      PMPE     C214     CTL2    -0.180000       12.0110           0
     24124 MEMB     194      PMPE     H14R     HAL2     0.900000E-01   1.00800           0
     24125 MEMB     194      PMPE     H14S     HAL2     0.900000E-01   1.00800           0
     24126 MEMB     194      PMPE     C215     CTL2    -0.180000       12.0110           0
     24127 MEMB     194      PMPE     H15R     HAL2     0.900000E-01   1.00800           0
     24128 MEMB     194      PMPE     H15S     HAL2     0.900000E-01   1.00800           0
     24129 MEMB     194      PMPE     C216     CTL3    -0.270000       12.0110           0
     24130 MEMB     194      PMPE     H16R     HAL3     0.900000E-01   1.00800           0
     24131 MEMB     194      PMPE     H16S     HAL3     0.900000E-01   1.00800           0
     24132 MEMB     194      PMPE     H16T     HAL3     0.900000E-01   1.00800           0
     24133 MEMB     194      PMPE     C33      CTL2    -0.180000       12.0110           0
     24134 MEMB     194      PMPE     H3X      HAL2     0.900000E-01   1.00800           0
     24135 MEMB     194      PMPE     H3Y      HAL2     0.900000E-01   1.00800           0
     24136 MEMB     194      PMPE     C34      CTL2    -0.180000       12.0110           0
     24137 MEMB     194      PMPE     H4X      HAL2     0.900000E-01   1.00800           0
     24138 MEMB     194      PMPE     H4Y      HAL2     0.900000E-01   1.00800           0
     24139 MEMB     194      PMPE     C35      CTL2    -0.180000       12.0110           0
     24140 MEMB     194      PMPE     H5X      HAL2     0.900000E-01   1.00800           0
     24141 MEMB     194      PMPE     H5Y      HAL2     0.900000E-01   1.00800           0
     24142 MEMB     194      PMPE     C36      CTL2    -0.180000       12.0110           0
     24143 MEMB     194      PMPE     H6X      HAL2     0.900000E-01   1.00800           0
     24144 MEMB     194      PMPE     H6Y      HAL2     0.900000E-01   1.00800           0
     24145 MEMB     194      PMPE     C37      CTL2    -0.180000       12.0110           0
     24146 MEMB     194      PMPE     H7X      HAL2     0.900000E-01   1.00800           0
     24147 MEMB     194      PMPE     H7Y      HAL2     0.900000E-01   1.00800           0
     24148 MEMB     194      PMPE     C38      CTL2    -0.180000       12.0110           0
     24149 MEMB     194      PMPE     H8X      HAL2     0.900000E-01   1.00800           0
     24150 MEMB     194      PMPE     H8Y      HAL2     0.900000E-01   1.00800           0
     24151 MEMB     194      PMPE     C39      CTL2    -0.180000       12.0110           0
     24152 MEMB     194      PMPE     H9X      HAL2     0.900000E-01   1.00800           0
     24153 MEMB     194      PMPE     H9Y      HAL2     0.900000E-01   1.00800           0
     24154 MEMB     194      PMPE     C310     CTL2    -0.180000       12.0110           0
     24155 MEMB     194      PMPE     H10X     HAL2     0.900000E-01   1.00800           0
     24156 MEMB     194      PMPE     H10Y     HAL2     0.900000E-01   1.00800           0
     24157 MEMB     194      PMPE     C311     CTL2    -0.180000       12.0110           0
     24158 MEMB     194      PMPE     H11X     HAL2     0.900000E-01   1.00800           0
     24159 MEMB     194      PMPE     H11Y     HAL2     0.900000E-01   1.00800           0
     24160 MEMB     194      PMPE     C312     CTL2    -0.180000       12.0110           0
     24161 MEMB     194      PMPE     H12X     HAL2     0.900000E-01   1.00800           0
     24162 MEMB     194      PMPE     H12Y     HAL2     0.900000E-01   1.00800           0
     24163 MEMB     194      PMPE     C313     CTL2    -0.180000       12.0110           0
     24164 MEMB     194      PMPE     H13X     HAL2     0.900000E-01   1.00800           0
     24165 MEMB     194      PMPE     H13Y     HAL2     0.900000E-01   1.00800           0
     24166 MEMB     194      PMPE     C314     CTL2    -0.180000       12.0110           0
     24167 MEMB     194      PMPE     H14X     HAL2     0.900000E-01   1.00800           0
     24168 MEMB     194      PMPE     H14Y     HAL2     0.900000E-01   1.00800           0
     24169 MEMB     194      PMPE     C315     CTL2    -0.180000       12.0110           0
     24170 MEMB     194      PMPE     H15X     HAL2     0.900000E-01   1.00800           0
     24171 MEMB     194      PMPE     H15Y     HAL2     0.900000E-01   1.00800           0
     24172 MEMB     194      PMPE     C316     CTL3    -0.270000       12.0110           0
     24173 MEMB     194      PMPE     H16X     HAL3     0.900000E-01   1.00800           0
     24174 MEMB     194      PMPE     H16Y     HAL3     0.900000E-01   1.00800           0
     24175 MEMB     194      PMPE     H16Z     HAL3     0.900000E-01   1.00800           0
     24176 MEMB     195      POPE     N        NH3L    -0.300000       14.0070           0
     24177 MEMB     195      POPE     HN1      HCL      0.330000       1.00800           0
     24178 MEMB     195      POPE     HN2      HCL      0.330000       1.00800           0
     24179 MEMB     195      POPE     HN3      HCL      0.330000       1.00800           0
     24180 MEMB     195      POPE     C12      CTL2     0.130000       12.0110           0
     24181 MEMB     195      POPE     H12A     HAL2     0.900000E-01   1.00800           0
     24182 MEMB     195      POPE     H12B     HAL2     0.900000E-01   1.00800           0
     24183 MEMB     195      POPE     C11      CTL2    -0.800000E-01   12.0110           0
     24184 MEMB     195      POPE     H11A     HAL2     0.900000E-01   1.00800           0
     24185 MEMB     195      POPE     H11B     HAL2     0.900000E-01   1.00800           0
     24186 MEMB     195      POPE     P        PL        1.50000       30.9740           0
     24187 MEMB     195      POPE     O13      O2L     -0.780000       15.9994           0
     24188 MEMB     195      POPE     O14      O2L     -0.780000       15.9994           0
     24189 MEMB     195      POPE     O11      OSLP    -0.570000       15.9994           0
     24190 MEMB     195      POPE     O12      OSLP    -0.570000       15.9994           0
     24191 MEMB     195      POPE     C1       CTL2    -0.800000E-01   12.0110           0
     24192 MEMB     195      POPE     HA       HAL2     0.900000E-01   1.00800           0
     24193 MEMB     195      POPE     HB       HAL2     0.900000E-01   1.00800           0
     24194 MEMB     195      POPE     C2       CTL1     0.170000       12.0110           0
     24195 MEMB     195      POPE     HS       HAL1     0.900000E-01   1.00800           0
     24196 MEMB     195      POPE     O21      OSL     -0.490000       15.9994           0
     24197 MEMB     195      POPE     C21      CL       0.900000       12.0110           0
     24198 MEMB     195      POPE     O22      OBL     -0.630000       15.9994           0
     24199 MEMB     195      POPE     C22      CTL2    -0.220000       12.0110           0
     24200 MEMB     195      POPE     H2R      HAL2     0.900000E-01   1.00800           0
     24201 MEMB     195      POPE     H2S      HAL2     0.900000E-01   1.00800           0
     24202 MEMB     195      POPE     C3       CTL2     0.800000E-01   12.0110           0
     24203 MEMB     195      POPE     HX       HAL2     0.900000E-01   1.00800           0
     24204 MEMB     195      POPE     HY       HAL2     0.900000E-01   1.00800           0
     24205 MEMB     195      POPE     O31      OSL     -0.490000       15.9994           0
     24206 MEMB     195      POPE     C31      CL       0.900000       12.0110           0
     24207 MEMB     195      POPE     O32      OBL     -0.630000       15.9994           0
     24208 MEMB     195      POPE     C32      CTL2    -0.220000       12.0110           0
     24209 MEMB     195      POPE     H2X      HAL2     0.900000E-01   1.00800           0
     24210 MEMB     195      POPE     H2Y      HAL2     0.900000E-01   1.00800           0
     24211 MEMB     195      POPE     C23      CTL2    -0.180000       12.0110           0
     24212 MEMB     195      POPE     H3R      HAL2     0.900000E-01   1.00800           0
     24213 MEMB     195      POPE     H3S      HAL2     0.900000E-01   1.00800           0
     24214 MEMB     195      POPE     C24      CTL2    -0.180000       12.0110           0
     24215 MEMB     195      POPE     H4R      HAL2     0.900000E-01   1.00800           0
     24216 MEMB     195      POPE     H4S      HAL2     0.900000E-01   1.00800           0
     24217 MEMB     195      POPE     C25      CTL2    -0.180000       12.0110           0
     24218 MEMB     195      POPE     H5R      HAL2     0.900000E-01   1.00800           0
     24219 MEMB     195      POPE     H5S      HAL2     0.900000E-01   1.00800           0
     24220 MEMB     195      POPE     C26      CTL2    -0.180000       12.0110           0
     24221 MEMB     195      POPE     H6R      HAL2     0.900000E-01   1.00800           0
     24222 MEMB     195      POPE     H6S      HAL2     0.900000E-01   1.00800           0
     24223 MEMB     195      POPE     C27      CTL2    -0.180000       12.0110           0
     24224 MEMB     195      POPE     H7R      HAL2     0.900000E-01   1.00800           0
     24225 MEMB     195      POPE     H7S      HAL2     0.900000E-01   1.00800           0
     24226 MEMB     195      POPE     C28      CTL2    -0.180000       12.0110           0
     24227 MEMB     195      POPE     H8R      HAL2     0.900000E-01   1.00800           0
     24228 MEMB     195      POPE     H8S      HAL2     0.900000E-01   1.00800           0
     24229 MEMB     195      POPE     C29      CEL1    -0.150000       12.0110           0
     24230 MEMB     195      POPE     H91      HEL1     0.150000       1.00800           0
     24231 MEMB     195      POPE     C210     CEL1    -0.150000       12.0110           0
     24232 MEMB     195      POPE     H101     HEL1     0.150000       1.00800           0
     24233 MEMB     195      POPE     C211     CTL2    -0.180000       12.0110           0
     24234 MEMB     195      POPE     H11R     HAL2     0.900000E-01   1.00800           0
     24235 MEMB     195      POPE     H11S     HAL2     0.900000E-01   1.00800           0
     24236 MEMB     195      POPE     C212     CTL2    -0.180000       12.0110           0
     24237 MEMB     195      POPE     H12R     HAL2     0.900000E-01   1.00800           0
     24238 MEMB     195      POPE     H12S     HAL2     0.900000E-01   1.00800           0
     24239 MEMB     195      POPE     C213     CTL2    -0.180000       12.0110           0
     24240 MEMB     195      POPE     H13R     HAL2     0.900000E-01   1.00800           0
     24241 MEMB     195      POPE     H13S     HAL2     0.900000E-01   1.00800           0
     24242 MEMB     195      POPE     C214     CTL2    -0.180000       12.0110           0
     24243 MEMB     195      POPE     H14R     HAL2     0.900000E-01   1.00800           0
     24244 MEMB     195      POPE     H14S     HAL2     0.900000E-01   1.00800           0
     24245 MEMB     195      POPE     C215     CTL2    -0.180000       12.0110           0
     24246 MEMB     195      POPE     H15R     HAL2     0.900000E-01   1.00800           0
     24247 MEMB     195      POPE     H15S     HAL2     0.900000E-01   1.00800           0
     24248 MEMB     195      POPE     C216     CTL2    -0.180000       12.0110           0
     24249 MEMB     195      POPE     H16R     HAL2     0.900000E-01   1.00800           0
     24250 MEMB     195      POPE     H16S     HAL2     0.900000E-01   1.00800           0
     24251 MEMB     195      POPE     C217     CTL2    -0.180000       12.0110           0
     24252 MEMB     195      POPE     H17R     HAL2     0.900000E-01   1.00800           0
     24253 MEMB     195      POPE     H17S     HAL2     0.900000E-01   1.00800           0
     24254 MEMB     195      POPE     C218     CTL3    -0.270000       12.0110           0
     24255 MEMB     195      POPE     H18R     HAL3     0.900000E-01   1.00800           0
     24256 MEMB     195      POPE     H18S     HAL3     0.900000E-01   1.00800           0
     24257 MEMB     195      POPE     H18T     HAL3     0.900000E-01   1.00800           0
     24258 MEMB     195      POPE     C33      CTL2    -0.180000       12.0110           0
     24259 MEMB     195      POPE     H3X      HAL2     0.900000E-01   1.00800           0
     24260 MEMB     195      POPE     H3Y      HAL2     0.900000E-01   1.00800           0
     24261 MEMB     195      POPE     C34      CTL2    -0.180000       12.0110           0
     24262 MEMB     195      POPE     H4X      HAL2     0.900000E-01   1.00800           0
     24263 MEMB     195      POPE     H4Y      HAL2     0.900000E-01   1.00800           0
     24264 MEMB     195      POPE     C35      CTL2    -0.180000       12.0110           0
     24265 MEMB     195      POPE     H5X      HAL2     0.900000E-01   1.00800           0
     24266 MEMB     195      POPE     H5Y      HAL2     0.900000E-01   1.00800           0
     24267 MEMB     195      POPE     C36      CTL2    -0.180000       12.0110           0
     24268 MEMB     195      POPE     H6X      HAL2     0.900000E-01   1.00800           0
     24269 MEMB     195      POPE     H6Y      HAL2     0.900000E-01   1.00800           0
     24270 MEMB     195      POPE     C37      CTL2    -0.180000       12.0110           0
     24271 MEMB     195      POPE     H7X      HAL2     0.900000E-01   1.00800           0
     24272 MEMB     195      POPE     H7Y      HAL2     0.900000E-01   1.00800           0
     24273 MEMB     195      POPE     C38      CTL2    -0.180000       12.0110           0
     24274 MEMB     195      POPE     H8X      HAL2     0.900000E-01   1.00800           0
     24275 MEMB     195      POPE     H8Y      HAL2     0.900000E-01   1.00800           0
     24276 MEMB     195      POPE     C39      CTL2    -0.180000       12.0110           0
     24277 MEMB     195      POPE     H9X      HAL2     0.900000E-01   1.00800           0
     24278 MEMB     195      POPE     H9Y      HAL2     0.900000E-01   1.00800           0
     24279 MEMB     195      POPE     C310     CTL2    -0.180000       12.0110           0
     24280 MEMB     195      POPE     H10X     HAL2     0.900000E-01   1.00800           0
     24281 MEMB     195      POPE     H10Y     HAL2     0.900000E-01   1.00800           0
     24282 MEMB     195      POPE     C311     CTL2    -0.180000       12.0110           0
     24283 MEMB     195      POPE     H11X     HAL2     0.900000E-01   1.00800           0
     24284 MEMB     195      POPE     H11Y     HAL2     0.900000E-01   1.00800           0
     24285 MEMB     195      POPE     C312     CTL2    -0.180000       12.0110           0
     24286 MEMB     195      POPE     H12X     HAL2     0.900000E-01   1.00800           0
     24287 MEMB     195      POPE     H12Y     HAL2     0.900000E-01   1.00800           0
     24288 MEMB     195      POPE     C313     CTL2    -0.180000       12.0110           0
     24289 MEMB     195      POPE     H13X     HAL2     0.900000E-01   1.00800           0
     24290 MEMB     195      POPE     H13Y     HAL2     0.900000E-01   1.00800           0
     24291 MEMB     195      POPE     C314     CTL2    -0.180000       12.0110           0
     24292 MEMB     195      POPE     H14X     HAL2     0.900000E-01   1.00800           0
     24293 MEMB     195      POPE     H14Y     HAL2     0.900000E-01   1.00800           0
     24294 MEMB     195      POPE     C315     CTL2    -0.180000       12.0110           0
     24295 MEMB     195      POPE     H15X     HAL2     0.900000E-01   1.00800           0
     24296 MEMB     195      POPE     H15Y     HAL2     0.900000E-01   1.00800           0
     24297 MEMB     195      POPE     C316     CTL3    -0.270000       12.0110           0
     24298 MEMB     195      POPE     H16X     HAL3     0.900000E-01   1.00800           0
     24299 MEMB     195      POPE     H16Y     HAL3     0.900000E-01   1.00800           0
     24300 MEMB     195      POPE     H16Z     HAL3     0.900000E-01   1.00800           0
     24301 MEMB     196      PMPE     N        NH3L    -0.300000       14.0070           0
     24302 MEMB     196      PMPE     HN1      HCL      0.330000       1.00800           0
     24303 MEMB     196      PMPE     HN2      HCL      0.330000       1.00800           0
     24304 MEMB     196      PMPE     HN3      HCL      0.330000       1.00800           0
     24305 MEMB     196      PMPE     C12      CTL2     0.130000       12.0110           0
     24306 MEMB     196      PMPE     H12A     HAL2     0.900000E-01   1.00800           0
     24307 MEMB     196      PMPE     H12B     HAL2     0.900000E-01   1.00800           0
     24308 MEMB     196      PMPE     C11      CTL2    -0.800000E-01   12.0110           0
     24309 MEMB     196      PMPE     H11A     HAL2     0.900000E-01   1.00800           0
     24310 MEMB     196      PMPE     H11B     HAL2     0.900000E-01   1.00800           0
     24311 MEMB     196      PMPE     P        PL        1.50000       30.9740           0
     24312 MEMB     196      PMPE     O13      O2L     -0.780000       15.9994           0
     24313 MEMB     196      PMPE     O14      O2L     -0.780000       15.9994           0
     24314 MEMB     196      PMPE     O11      OSLP    -0.570000       15.9994           0
     24315 MEMB     196      PMPE     O12      OSLP    -0.570000       15.9994           0
     24316 MEMB     196      PMPE     C1       CTL2    -0.800000E-01   12.0110           0
     24317 MEMB     196      PMPE     HA       HAL2     0.900000E-01   1.00800           0
     24318 MEMB     196      PMPE     HB       HAL2     0.900000E-01   1.00800           0
     24319 MEMB     196      PMPE     C2       CTL1     0.170000       12.0110           0
     24320 MEMB     196      PMPE     HS       HAL1     0.900000E-01   1.00800           0
     24321 MEMB     196      PMPE     O21      OSL     -0.490000       15.9994           0
     24322 MEMB     196      PMPE     C21      CL       0.900000       12.0110           0
     24323 MEMB     196      PMPE     O22      OBL     -0.630000       15.9994           0
     24324 MEMB     196      PMPE     C22      CTL2    -0.220000       12.0110           0
     24325 MEMB     196      PMPE     H2R      HAL2     0.900000E-01   1.00800           0
     24326 MEMB     196      PMPE     H2S      HAL2     0.900000E-01   1.00800           0
     24327 MEMB     196      PMPE     C3       CTL2     0.800000E-01   12.0110           0
     24328 MEMB     196      PMPE     HX       HAL2     0.900000E-01   1.00800           0
     24329 MEMB     196      PMPE     HY       HAL2     0.900000E-01   1.00800           0
     24330 MEMB     196      PMPE     O31      OSL     -0.490000       15.9994           0
     24331 MEMB     196      PMPE     C31      CL       0.900000       12.0110           0
     24332 MEMB     196      PMPE     O32      OBL     -0.630000       15.9994           0
     24333 MEMB     196      PMPE     C32      CTL2    -0.220000       12.0110           0
     24334 MEMB     196      PMPE     H2X      HAL2     0.900000E-01   1.00800           0
     24335 MEMB     196      PMPE     H2Y      HAL2     0.900000E-01   1.00800           0
     24336 MEMB     196      PMPE     C23      CTL2    -0.180000       12.0110           0
     24337 MEMB     196      PMPE     H3R      HAL2     0.900000E-01   1.00800           0
     24338 MEMB     196      PMPE     H3S      HAL2     0.900000E-01   1.00800           0
     24339 MEMB     196      PMPE     C24      CTL2    -0.180000       12.0110           0
     24340 MEMB     196      PMPE     H4R      HAL2     0.900000E-01   1.00800           0
     24341 MEMB     196      PMPE     H4S      HAL2     0.900000E-01   1.00800           0
     24342 MEMB     196      PMPE     C25      CTL2    -0.180000       12.0110           0
     24343 MEMB     196      PMPE     H5R      HAL2     0.900000E-01   1.00800           0
     24344 MEMB     196      PMPE     H5S      HAL2     0.900000E-01   1.00800           0
     24345 MEMB     196      PMPE     C26      CTL2    -0.180000       12.0110           0
     24346 MEMB     196      PMPE     H6R      HAL2     0.900000E-01   1.00800           0
     24347 MEMB     196      PMPE     H6S      HAL2     0.900000E-01   1.00800           0
     24348 MEMB     196      PMPE     C27      CTL2    -0.180000       12.0110           0
     24349 MEMB     196      PMPE     H7R      HAL2     0.900000E-01   1.00800           0
     24350 MEMB     196      PMPE     H7S      HAL2     0.900000E-01   1.00800           0
     24351 MEMB     196      PMPE     C28      CTL2    -0.180000       12.0110           0
     24352 MEMB     196      PMPE     H8R      HAL2     0.900000E-01   1.00800           0
     24353 MEMB     196      PMPE     H8S      HAL2     0.900000E-01   1.00800           0
     24354 MEMB     196      PMPE     C29      CG3RC1  -0.900000E-01   12.0110           0
     24355 MEMB     196      PMPE     H9R      HGA1     0.900000E-01   1.00800           0
     24356 MEMB     196      PMPE     C217     CG3C31  -0.180000       12.0110           0
     24357 MEMB     196      PMPE     H17R     HGA2     0.900000E-01   1.00800           0
     24358 MEMB     196      PMPE     H17S     HGA2     0.900000E-01   1.00800           0
     24359 MEMB     196      PMPE     C210     CG3RC1  -0.900000E-01   12.0110           0
     24360 MEMB     196      PMPE     H10R     HGA1     0.900000E-01   1.00800           0
     24361 MEMB     196      PMPE     C211     CTL2    -0.180000       12.0110           0
     24362 MEMB     196      PMPE     H11R     HAL2     0.900000E-01   1.00800           0
     24363 MEMB     196      PMPE     H11S     HAL2     0.900000E-01   1.00800           0
     24364 MEMB     196      PMPE     C212     CTL2    -0.180000       12.0110           0
     24365 MEMB     196      PMPE     H12R     HAL2     0.900000E-01   1.00800           0
     24366 MEMB     196      PMPE     H12S     HAL2     0.900000E-01   1.00800           0
     24367 MEMB     196      PMPE     C213     CTL2    -0.180000       12.0110           0
     24368 MEMB     196      PMPE     H13R     HAL2     0.900000E-01   1.00800           0
     24369 MEMB     196      PMPE     H13S     HAL2     0.900000E-01   1.00800           0
     24370 MEMB     196      PMPE     C214     CTL2    -0.180000       12.0110           0
     24371 MEMB     196      PMPE     H14R     HAL2     0.900000E-01   1.00800           0
     24372 MEMB     196      PMPE     H14S     HAL2     0.900000E-01   1.00800           0
     24373 MEMB     196      PMPE     C215     CTL2    -0.180000       12.0110           0
     24374 MEMB     196      PMPE     H15R     HAL2     0.900000E-01   1.00800           0
     24375 MEMB     196      PMPE     H15S     HAL2     0.900000E-01   1.00800           0
     24376 MEMB     196      PMPE     C216     CTL3    -0.270000       12.0110           0
     24377 MEMB     196      PMPE     H16R     HAL3     0.900000E-01   1.00800           0
     24378 MEMB     196      PMPE     H16S     HAL3     0.900000E-01   1.00800           0
     24379 MEMB     196      PMPE     H16T     HAL3     0.900000E-01   1.00800           0
     24380 MEMB     196      PMPE     C33      CTL2    -0.180000       12.0110           0
     24381 MEMB     196      PMPE     H3X      HAL2     0.900000E-01   1.00800           0
     24382 MEMB     196      PMPE     H3Y      HAL2     0.900000E-01   1.00800           0
     24383 MEMB     196      PMPE     C34      CTL2    -0.180000       12.0110           0
     24384 MEMB     196      PMPE     H4X      HAL2     0.900000E-01   1.00800           0
     24385 MEMB     196      PMPE     H4Y      HAL2     0.900000E-01   1.00800           0
     24386 MEMB     196      PMPE     C35      CTL2    -0.180000       12.0110           0
     24387 MEMB     196      PMPE     H5X      HAL2     0.900000E-01   1.00800           0
     24388 MEMB     196      PMPE     H5Y      HAL2     0.900000E-01   1.00800           0
     24389 MEMB     196      PMPE     C36      CTL2    -0.180000       12.0110           0
     24390 MEMB     196      PMPE     H6X      HAL2     0.900000E-01   1.00800           0
     24391 MEMB     196      PMPE     H6Y      HAL2     0.900000E-01   1.00800           0
     24392 MEMB     196      PMPE     C37      CTL2    -0.180000       12.0110           0
     24393 MEMB     196      PMPE     H7X      HAL2     0.900000E-01   1.00800           0
     24394 MEMB     196      PMPE     H7Y      HAL2     0.900000E-01   1.00800           0
     24395 MEMB     196      PMPE     C38      CTL2    -0.180000       12.0110           0
     24396 MEMB     196      PMPE     H8X      HAL2     0.900000E-01   1.00800           0
     24397 MEMB     196      PMPE     H8Y      HAL2     0.900000E-01   1.00800           0
     24398 MEMB     196      PMPE     C39      CTL2    -0.180000       12.0110           0
     24399 MEMB     196      PMPE     H9X      HAL2     0.900000E-01   1.00800           0
     24400 MEMB     196      PMPE     H9Y      HAL2     0.900000E-01   1.00800           0
     24401 MEMB     196      PMPE     C310     CTL2    -0.180000       12.0110           0
     24402 MEMB     196      PMPE     H10X     HAL2     0.900000E-01   1.00800           0
     24403 MEMB     196      PMPE     H10Y     HAL2     0.900000E-01   1.00800           0
     24404 MEMB     196      PMPE     C311     CTL2    -0.180000       12.0110           0
     24405 MEMB     196      PMPE     H11X     HAL2     0.900000E-01   1.00800           0
     24406 MEMB     196      PMPE     H11Y     HAL2     0.900000E-01   1.00800           0
     24407 MEMB     196      PMPE     C312     CTL2    -0.180000       12.0110           0
     24408 MEMB     196      PMPE     H12X     HAL2     0.900000E-01   1.00800           0
     24409 MEMB     196      PMPE     H12Y     HAL2     0.900000E-01   1.00800           0
     24410 MEMB     196      PMPE     C313     CTL2    -0.180000       12.0110           0
     24411 MEMB     196      PMPE     H13X     HAL2     0.900000E-01   1.00800           0
     24412 MEMB     196      PMPE     H13Y     HAL2     0.900000E-01   1.00800           0
     24413 MEMB     196      PMPE     C314     CTL2    -0.180000       12.0110           0
     24414 MEMB     196      PMPE     H14X     HAL2     0.900000E-01   1.00800           0
     24415 MEMB     196      PMPE     H14Y     HAL2     0.900000E-01   1.00800           0
     24416 MEMB     196      PMPE     C315     CTL2    -0.180000       12.0110           0
     24417 MEMB     196      PMPE     H15X     HAL2     0.900000E-01   1.00800           0
     24418 MEMB     196      PMPE     H15Y     HAL2     0.900000E-01   1.00800           0
     24419 MEMB     196      PMPE     C316     CTL3    -0.270000       12.0110           0
     24420 MEMB     196      PMPE     H16X     HAL3     0.900000E-01   1.00800           0
     24421 MEMB     196      PMPE     H16Y     HAL3     0.900000E-01   1.00800           0
     24422 MEMB     196      PMPE     H16Z     HAL3     0.900000E-01   1.00800           0
     24423 MEMB     197      POPE     N        NH3L    -0.300000       14.0070           0
     24424 MEMB     197      POPE     HN1      HCL      0.330000       1.00800           0
     24425 MEMB     197      POPE     HN2      HCL      0.330000       1.00800           0
     24426 MEMB     197      POPE     HN3      HCL      0.330000       1.00800           0
     24427 MEMB     197      POPE     C12      CTL2     0.130000       12.0110           0
     24428 MEMB     197      POPE     H12A     HAL2     0.900000E-01   1.00800           0
     24429 MEMB     197      POPE     H12B     HAL2     0.900000E-01   1.00800           0
     24430 MEMB     197      POPE     C11      CTL2    -0.800000E-01   12.0110           0
     24431 MEMB     197      POPE     H11A     HAL2     0.900000E-01   1.00800           0
     24432 MEMB     197      POPE     H11B     HAL2     0.900000E-01   1.00800           0
     24433 MEMB     197      POPE     P        PL        1.50000       30.9740           0
     24434 MEMB     197      POPE     O13      O2L     -0.780000       15.9994           0
     24435 MEMB     197      POPE     O14      O2L     -0.780000       15.9994           0
     24436 MEMB     197      POPE     O11      OSLP    -0.570000       15.9994           0
     24437 MEMB     197      POPE     O12      OSLP    -0.570000       15.9994           0
     24438 MEMB     197      POPE     C1       CTL2    -0.800000E-01   12.0110           0
     24439 MEMB     197      POPE     HA       HAL2     0.900000E-01   1.00800           0
     24440 MEMB     197      POPE     HB       HAL2     0.900000E-01   1.00800           0
     24441 MEMB     197      POPE     C2       CTL1     0.170000       12.0110           0
     24442 MEMB     197      POPE     HS       HAL1     0.900000E-01   1.00800           0
     24443 MEMB     197      POPE     O21      OSL     -0.490000       15.9994           0
     24444 MEMB     197      POPE     C21      CL       0.900000       12.0110           0
     24445 MEMB     197      POPE     O22      OBL     -0.630000       15.9994           0
     24446 MEMB     197      POPE     C22      CTL2    -0.220000       12.0110           0
     24447 MEMB     197      POPE     H2R      HAL2     0.900000E-01   1.00800           0
     24448 MEMB     197      POPE     H2S      HAL2     0.900000E-01   1.00800           0
     24449 MEMB     197      POPE     C3       CTL2     0.800000E-01   12.0110           0
     24450 MEMB     197      POPE     HX       HAL2     0.900000E-01   1.00800           0
     24451 MEMB     197      POPE     HY       HAL2     0.900000E-01   1.00800           0
     24452 MEMB     197      POPE     O31      OSL     -0.490000       15.9994           0
     24453 MEMB     197      POPE     C31      CL       0.900000       12.0110           0
     24454 MEMB     197      POPE     O32      OBL     -0.630000       15.9994           0
     24455 MEMB     197      POPE     C32      CTL2    -0.220000       12.0110           0
     24456 MEMB     197      POPE     H2X      HAL2     0.900000E-01   1.00800           0
     24457 MEMB     197      POPE     H2Y      HAL2     0.900000E-01   1.00800           0
     24458 MEMB     197      POPE     C23      CTL2    -0.180000       12.0110           0
     24459 MEMB     197      POPE     H3R      HAL2     0.900000E-01   1.00800           0
     24460 MEMB     197      POPE     H3S      HAL2     0.900000E-01   1.00800           0
     24461 MEMB     197      POPE     C24      CTL2    -0.180000       12.0110           0
     24462 MEMB     197      POPE     H4R      HAL2     0.900000E-01   1.00800           0
     24463 MEMB     197      POPE     H4S      HAL2     0.900000E-01   1.00800           0
     24464 MEMB     197      POPE     C25      CTL2    -0.180000       12.0110           0
     24465 MEMB     197      POPE     H5R      HAL2     0.900000E-01   1.00800           0
     24466 MEMB     197      POPE     H5S      HAL2     0.900000E-01   1.00800           0
     24467 MEMB     197      POPE     C26      CTL2    -0.180000       12.0110           0
     24468 MEMB     197      POPE     H6R      HAL2     0.900000E-01   1.00800           0
     24469 MEMB     197      POPE     H6S      HAL2     0.900000E-01   1.00800           0
     24470 MEMB     197      POPE     C27      CTL2    -0.180000       12.0110           0
     24471 MEMB     197      POPE     H7R      HAL2     0.900000E-01   1.00800           0
     24472 MEMB     197      POPE     H7S      HAL2     0.900000E-01   1.00800           0
     24473 MEMB     197      POPE     C28      CTL2    -0.180000       12.0110           0
     24474 MEMB     197      POPE     H8R      HAL2     0.900000E-01   1.00800           0
     24475 MEMB     197      POPE     H8S      HAL2     0.900000E-01   1.00800           0
     24476 MEMB     197      POPE     C29      CEL1    -0.150000       12.0110           0
     24477 MEMB     197      POPE     H91      HEL1     0.150000       1.00800           0
     24478 MEMB     197      POPE     C210     CEL1    -0.150000       12.0110           0
     24479 MEMB     197      POPE     H101     HEL1     0.150000       1.00800           0
     24480 MEMB     197      POPE     C211     CTL2    -0.180000       12.0110           0
     24481 MEMB     197      POPE     H11R     HAL2     0.900000E-01   1.00800           0
     24482 MEMB     197      POPE     H11S     HAL2     0.900000E-01   1.00800           0
     24483 MEMB     197      POPE     C212     CTL2    -0.180000       12.0110           0
     24484 MEMB     197      POPE     H12R     HAL2     0.900000E-01   1.00800           0
     24485 MEMB     197      POPE     H12S     HAL2     0.900000E-01   1.00800           0
     24486 MEMB     197      POPE     C213     CTL2    -0.180000       12.0110           0
     24487 MEMB     197      POPE     H13R     HAL2     0.900000E-01   1.00800           0
     24488 MEMB     197      POPE     H13S     HAL2     0.900000E-01   1.00800           0
     24489 MEMB     197      POPE     C214     CTL2    -0.180000       12.0110           0
     24490 MEMB     197      POPE     H14R     HAL2     0.900000E-01   1.00800           0
     24491 MEMB     197      POPE     H14S     HAL2     0.900000E-01   1.00800           0
     24492 MEMB     197      POPE     C215     CTL2    -0.180000       12.0110           0
     24493 MEMB     197      POPE     H15R     HAL2     0.900000E-01   1.00800           0
     24494 MEMB     197      POPE     H15S     HAL2     0.900000E-01   1.00800           0
     24495 MEMB     197      POPE     C216     CTL2    -0.180000       12.0110           0
     24496 MEMB     197      POPE     H16R     HAL2     0.900000E-01   1.00800           0
     24497 MEMB     197      POPE     H16S     HAL2     0.900000E-01   1.00800           0
     24498 MEMB     197      POPE     C217     CTL2    -0.180000       12.0110           0
     24499 MEMB     197      POPE     H17R     HAL2     0.900000E-01   1.00800           0
     24500 MEMB     197      POPE     H17S     HAL2     0.900000E-01   1.00800           0
     24501 MEMB     197      POPE     C218     CTL3    -0.270000       12.0110           0
     24502 MEMB     197      POPE     H18R     HAL3     0.900000E-01   1.00800           0
     24503 MEMB     197      POPE     H18S     HAL3     0.900000E-01   1.00800           0
     24504 MEMB     197      POPE     H18T     HAL3     0.900000E-01   1.00800           0
     24505 MEMB     197      POPE     C33      CTL2    -0.180000       12.0110           0
     24506 MEMB     197      POPE     H3X      HAL2     0.900000E-01   1.00800           0
     24507 MEMB     197      POPE     H3Y      HAL2     0.900000E-01   1.00800           0
     24508 MEMB     197      POPE     C34      CTL2    -0.180000       12.0110           0
     24509 MEMB     197      POPE     H4X      HAL2     0.900000E-01   1.00800           0
     24510 MEMB     197      POPE     H4Y      HAL2     0.900000E-01   1.00800           0
     24511 MEMB     197      POPE     C35      CTL2    -0.180000       12.0110           0
     24512 MEMB     197      POPE     H5X      HAL2     0.900000E-01   1.00800           0
     24513 MEMB     197      POPE     H5Y      HAL2     0.900000E-01   1.00800           0
     24514 MEMB     197      POPE     C36      CTL2    -0.180000       12.0110           0
     24515 MEMB     197      POPE     H6X      HAL2     0.900000E-01   1.00800           0
     24516 MEMB     197      POPE     H6Y      HAL2     0.900000E-01   1.00800           0
     24517 MEMB     197      POPE     C37      CTL2    -0.180000       12.0110           0
     24518 MEMB     197      POPE     H7X      HAL2     0.900000E-01   1.00800           0
     24519 MEMB     197      POPE     H7Y      HAL2     0.900000E-01   1.00800           0
     24520 MEMB     197      POPE     C38      CTL2    -0.180000       12.0110           0
     24521 MEMB     197      POPE     H8X      HAL2     0.900000E-01   1.00800           0
     24522 MEMB     197      POPE     H8Y      HAL2     0.900000E-01   1.00800           0
     24523 MEMB     197      POPE     C39      CTL2    -0.180000       12.0110           0
     24524 MEMB     197      POPE     H9X      HAL2     0.900000E-01   1.00800           0
     24525 MEMB     197      POPE     H9Y      HAL2     0.900000E-01   1.00800           0
     24526 MEMB     197      POPE     C310     CTL2    -0.180000       12.0110           0
     24527 MEMB     197      POPE     H10X     HAL2     0.900000E-01   1.00800           0
     24528 MEMB     197      POPE     H10Y     HAL2     0.900000E-01   1.00800           0
     24529 MEMB     197      POPE     C311     CTL2    -0.180000       12.0110           0
     24530 MEMB     197      POPE     H11X     HAL2     0.900000E-01   1.00800           0
     24531 MEMB     197      POPE     H11Y     HAL2     0.900000E-01   1.00800           0
     24532 MEMB     197      POPE     C312     CTL2    -0.180000       12.0110           0
     24533 MEMB     197      POPE     H12X     HAL2     0.900000E-01   1.00800           0
     24534 MEMB     197      POPE     H12Y     HAL2     0.900000E-01   1.00800           0
     24535 MEMB     197      POPE     C313     CTL2    -0.180000       12.0110           0
     24536 MEMB     197      POPE     H13X     HAL2     0.900000E-01   1.00800           0
     24537 MEMB     197      POPE     H13Y     HAL2     0.900000E-01   1.00800           0
     24538 MEMB     197      POPE     C314     CTL2    -0.180000       12.0110           0
     24539 MEMB     197      POPE     H14X     HAL2     0.900000E-01   1.00800           0
     24540 MEMB     197      POPE     H14Y     HAL2     0.900000E-01   1.00800           0
     24541 MEMB     197      POPE     C315     CTL2    -0.180000       12.0110           0
     24542 MEMB     197      POPE     H15X     HAL2     0.900000E-01   1.00800           0
     24543 MEMB     197      POPE     H15Y     HAL2     0.900000E-01   1.00800           0
     24544 MEMB     197      POPE     C316     CTL3    -0.270000       12.0110           0
     24545 MEMB     197      POPE     H16X     HAL3     0.900000E-01   1.00800           0
     24546 MEMB     197      POPE     H16Y     HAL3     0.900000E-01   1.00800           0
     24547 MEMB     197      POPE     H16Z     HAL3     0.900000E-01   1.00800           0
     24548 MEMB     198      POPE     N        NH3L    -0.300000       14.0070           0
     24549 MEMB     198      POPE     HN1      HCL      0.330000       1.00800           0
     24550 MEMB     198      POPE     HN2      HCL      0.330000       1.00800           0
     24551 MEMB     198      POPE     HN3      HCL      0.330000       1.00800           0
     24552 MEMB     198      POPE     C12      CTL2     0.130000       12.0110           0
     24553 MEMB     198      POPE     H12A     HAL2     0.900000E-01   1.00800           0
     24554 MEMB     198      POPE     H12B     HAL2     0.900000E-01   1.00800           0
     24555 MEMB     198      POPE     C11      CTL2    -0.800000E-01   12.0110           0
     24556 MEMB     198      POPE     H11A     HAL2     0.900000E-01   1.00800           0
     24557 MEMB     198      POPE     H11B     HAL2     0.900000E-01   1.00800           0
     24558 MEMB     198      POPE     P        PL        1.50000       30.9740           0
     24559 MEMB     198      POPE     O13      O2L     -0.780000       15.9994           0
     24560 MEMB     198      POPE     O14      O2L     -0.780000       15.9994           0
     24561 MEMB     198      POPE     O11      OSLP    -0.570000       15.9994           0
     24562 MEMB     198      POPE     O12      OSLP    -0.570000       15.9994           0
     24563 MEMB     198      POPE     C1       CTL2    -0.800000E-01   12.0110           0
     24564 MEMB     198      POPE     HA       HAL2     0.900000E-01   1.00800           0
     24565 MEMB     198      POPE     HB       HAL2     0.900000E-01   1.00800           0
     24566 MEMB     198      POPE     C2       CTL1     0.170000       12.0110           0
     24567 MEMB     198      POPE     HS       HAL1     0.900000E-01   1.00800           0
     24568 MEMB     198      POPE     O21      OSL     -0.490000       15.9994           0
     24569 MEMB     198      POPE     C21      CL       0.900000       12.0110           0
     24570 MEMB     198      POPE     O22      OBL     -0.630000       15.9994           0
     24571 MEMB     198      POPE     C22      CTL2    -0.220000       12.0110           0
     24572 MEMB     198      POPE     H2R      HAL2     0.900000E-01   1.00800           0
     24573 MEMB     198      POPE     H2S      HAL2     0.900000E-01   1.00800           0
     24574 MEMB     198      POPE     C3       CTL2     0.800000E-01   12.0110           0
     24575 MEMB     198      POPE     HX       HAL2     0.900000E-01   1.00800           0
     24576 MEMB     198      POPE     HY       HAL2     0.900000E-01   1.00800           0
     24577 MEMB     198      POPE     O31      OSL     -0.490000       15.9994           0
     24578 MEMB     198      POPE     C31      CL       0.900000       12.0110           0
     24579 MEMB     198      POPE     O32      OBL     -0.630000       15.9994           0
     24580 MEMB     198      POPE     C32      CTL2    -0.220000       12.0110           0
     24581 MEMB     198      POPE     H2X      HAL2     0.900000E-01   1.00800           0
     24582 MEMB     198      POPE     H2Y      HAL2     0.900000E-01   1.00800           0
     24583 MEMB     198      POPE     C23      CTL2    -0.180000       12.0110           0
     24584 MEMB     198      POPE     H3R      HAL2     0.900000E-01   1.00800           0
     24585 MEMB     198      POPE     H3S      HAL2     0.900000E-01   1.00800           0
     24586 MEMB     198      POPE     C24      CTL2    -0.180000       12.0110           0
     24587 MEMB     198      POPE     H4R      HAL2     0.900000E-01   1.00800           0
     24588 MEMB     198      POPE     H4S      HAL2     0.900000E-01   1.00800           0
     24589 MEMB     198      POPE     C25      CTL2    -0.180000       12.0110           0
     24590 MEMB     198      POPE     H5R      HAL2     0.900000E-01   1.00800           0
     24591 MEMB     198      POPE     H5S      HAL2     0.900000E-01   1.00800           0
     24592 MEMB     198      POPE     C26      CTL2    -0.180000       12.0110           0
     24593 MEMB     198      POPE     H6R      HAL2     0.900000E-01   1.00800           0
     24594 MEMB     198      POPE     H6S      HAL2     0.900000E-01   1.00800           0
     24595 MEMB     198      POPE     C27      CTL2    -0.180000       12.0110           0
     24596 MEMB     198      POPE     H7R      HAL2     0.900000E-01   1.00800           0
     24597 MEMB     198      POPE     H7S      HAL2     0.900000E-01   1.00800           0
     24598 MEMB     198      POPE     C28      CTL2    -0.180000       12.0110           0
     24599 MEMB     198      POPE     H8R      HAL2     0.900000E-01   1.00800           0
     24600 MEMB     198      POPE     H8S      HAL2     0.900000E-01   1.00800           0
     24601 MEMB     198      POPE     C29      CEL1    -0.150000       12.0110           0
     24602 MEMB     198      POPE     H91      HEL1     0.150000       1.00800           0
     24603 MEMB     198      POPE     C210     CEL1    -0.150000       12.0110           0
     24604 MEMB     198      POPE     H101     HEL1     0.150000       1.00800           0
     24605 MEMB     198      POPE     C211     CTL2    -0.180000       12.0110           0
     24606 MEMB     198      POPE     H11R     HAL2     0.900000E-01   1.00800           0
     24607 MEMB     198      POPE     H11S     HAL2     0.900000E-01   1.00800           0
     24608 MEMB     198      POPE     C212     CTL2    -0.180000       12.0110           0
     24609 MEMB     198      POPE     H12R     HAL2     0.900000E-01   1.00800           0
     24610 MEMB     198      POPE     H12S     HAL2     0.900000E-01   1.00800           0
     24611 MEMB     198      POPE     C213     CTL2    -0.180000       12.0110           0
     24612 MEMB     198      POPE     H13R     HAL2     0.900000E-01   1.00800           0
     24613 MEMB     198      POPE     H13S     HAL2     0.900000E-01   1.00800           0
     24614 MEMB     198      POPE     C214     CTL2    -0.180000       12.0110           0
     24615 MEMB     198      POPE     H14R     HAL2     0.900000E-01   1.00800           0
     24616 MEMB     198      POPE     H14S     HAL2     0.900000E-01   1.00800           0
     24617 MEMB     198      POPE     C215     CTL2    -0.180000       12.0110           0
     24618 MEMB     198      POPE     H15R     HAL2     0.900000E-01   1.00800           0
     24619 MEMB     198      POPE     H15S     HAL2     0.900000E-01   1.00800           0
     24620 MEMB     198      POPE     C216     CTL2    -0.180000       12.0110           0
     24621 MEMB     198      POPE     H16R     HAL2     0.900000E-01   1.00800           0
     24622 MEMB     198      POPE     H16S     HAL2     0.900000E-01   1.00800           0
     24623 MEMB     198      POPE     C217     CTL2    -0.180000       12.0110           0
     24624 MEMB     198      POPE     H17R     HAL2     0.900000E-01   1.00800           0
     24625 MEMB     198      POPE     H17S     HAL2     0.900000E-01   1.00800           0
     24626 MEMB     198      POPE     C218     CTL3    -0.270000       12.0110           0
     24627 MEMB     198      POPE     H18R     HAL3     0.900000E-01   1.00800           0
     24628 MEMB     198      POPE     H18S     HAL3     0.900000E-01   1.00800           0
     24629 MEMB     198      POPE     H18T     HAL3     0.900000E-01   1.00800           0
     24630 MEMB     198      POPE     C33      CTL2    -0.180000       12.0110           0
     24631 MEMB     198      POPE     H3X      HAL2     0.900000E-01   1.00800           0
     24632 MEMB     198      POPE     H3Y      HAL2     0.900000E-01   1.00800           0
     24633 MEMB     198      POPE     C34      CTL2    -0.180000       12.0110           0
     24634 MEMB     198      POPE     H4X      HAL2     0.900000E-01   1.00800           0
     24635 MEMB     198      POPE     H4Y      HAL2     0.900000E-01   1.00800           0
     24636 MEMB     198      POPE     C35      CTL2    -0.180000       12.0110           0
     24637 MEMB     198      POPE     H5X      HAL2     0.900000E-01   1.00800           0
     24638 MEMB     198      POPE     H5Y      HAL2     0.900000E-01   1.00800           0
     24639 MEMB     198      POPE     C36      CTL2    -0.180000       12.0110           0
     24640 MEMB     198      POPE     H6X      HAL2     0.900000E-01   1.00800           0
     24641 MEMB     198      POPE     H6Y      HAL2     0.900000E-01   1.00800           0
     24642 MEMB     198      POPE     C37      CTL2    -0.180000       12.0110           0
     24643 MEMB     198      POPE     H7X      HAL2     0.900000E-01   1.00800           0
     24644 MEMB     198      POPE     H7Y      HAL2     0.900000E-01   1.00800           0
     24645 MEMB     198      POPE     C38      CTL2    -0.180000       12.0110           0
     24646 MEMB     198      POPE     H8X      HAL2     0.900000E-01   1.00800           0
     24647 MEMB     198      POPE     H8Y      HAL2     0.900000E-01   1.00800           0
     24648 MEMB     198      POPE     C39      CTL2    -0.180000       12.0110           0
     24649 MEMB     198      POPE     H9X      HAL2     0.900000E-01   1.00800           0
     24650 MEMB     198      POPE     H9Y      HAL2     0.900000E-01   1.00800           0
     24651 MEMB     198      POPE     C310     CTL2    -0.180000       12.0110           0
     24652 MEMB     198      POPE     H10X     HAL2     0.900000E-01   1.00800           0
     24653 MEMB     198      POPE     H10Y     HAL2     0.900000E-01   1.00800           0
     24654 MEMB     198      POPE     C311     CTL2    -0.180000       12.0110           0
     24655 MEMB     198      POPE     H11X     HAL2     0.900000E-01   1.00800           0
     24656 MEMB     198      POPE     H11Y     HAL2     0.900000E-01   1.00800           0
     24657 MEMB     198      POPE     C312     CTL2    -0.180000       12.0110           0
     24658 MEMB     198      POPE     H12X     HAL2     0.900000E-01   1.00800           0
     24659 MEMB     198      POPE     H12Y     HAL2     0.900000E-01   1.00800           0
     24660 MEMB     198      POPE     C313     CTL2    -0.180000       12.0110           0
     24661 MEMB     198      POPE     H13X     HAL2     0.900000E-01   1.00800           0
     24662 MEMB     198      POPE     H13Y     HAL2     0.900000E-01   1.00800           0
     24663 MEMB     198      POPE     C314     CTL2    -0.180000       12.0110           0
     24664 MEMB     198      POPE     H14X     HAL2     0.900000E-01   1.00800           0
     24665 MEMB     198      POPE     H14Y     HAL2     0.900000E-01   1.00800           0
     24666 MEMB     198      POPE     C315     CTL2    -0.180000       12.0110           0
     24667 MEMB     198      POPE     H15X     HAL2     0.900000E-01   1.00800           0
     24668 MEMB     198      POPE     H15Y     HAL2     0.900000E-01   1.00800           0
     24669 MEMB     198      POPE     C316     CTL3    -0.270000       12.0110           0
     24670 MEMB     198      POPE     H16X     HAL3     0.900000E-01   1.00800           0
     24671 MEMB     198      POPE     H16Y     HAL3     0.900000E-01   1.00800           0
     24672 MEMB     198      POPE     H16Z     HAL3     0.900000E-01   1.00800           0
     24673 MEMB     199      OYPE     N        NH3L    -0.300000       14.0070           0
     24674 MEMB     199      OYPE     HN1      HCL      0.330000       1.00800           0
     24675 MEMB     199      OYPE     HN2      HCL      0.330000       1.00800           0
     24676 MEMB     199      OYPE     HN3      HCL      0.330000       1.00800           0
     24677 MEMB     199      OYPE     C12      CTL2     0.130000       12.0110           0
     24678 MEMB     199      OYPE     H12A     HAL2     0.900000E-01   1.00800           0
     24679 MEMB     199      OYPE     H12B     HAL2     0.900000E-01   1.00800           0
     24680 MEMB     199      OYPE     C11      CTL2    -0.800000E-01   12.0110           0
     24681 MEMB     199      OYPE     H11A     HAL2     0.900000E-01   1.00800           0
     24682 MEMB     199      OYPE     H11B     HAL2     0.900000E-01   1.00800           0
     24683 MEMB     199      OYPE     P        PL        1.50000       30.9740           0
     24684 MEMB     199      OYPE     O13      O2L     -0.780000       15.9994           0
     24685 MEMB     199      OYPE     O14      O2L     -0.780000       15.9994           0
     24686 MEMB     199      OYPE     O11      OSLP    -0.570000       15.9994           0
     24687 MEMB     199      OYPE     O12      OSLP    -0.570000       15.9994           0
     24688 MEMB     199      OYPE     C1       CTL2    -0.800000E-01   12.0110           0
     24689 MEMB     199      OYPE     HA       HAL2     0.900000E-01   1.00800           0
     24690 MEMB     199      OYPE     HB       HAL2     0.900000E-01   1.00800           0
     24691 MEMB     199      OYPE     C2       CTL1     0.170000       12.0110           0
     24692 MEMB     199      OYPE     HS       HAL1     0.900000E-01   1.00800           0
     24693 MEMB     199      OYPE     O21      OSL     -0.490000       15.9994           0
     24694 MEMB     199      OYPE     C21      CL       0.900000       12.0110           0
     24695 MEMB     199      OYPE     O22      OBL     -0.630000       15.9994           0
     24696 MEMB     199      OYPE     C22      CTL2    -0.220000       12.0110           0
     24697 MEMB     199      OYPE     H2R      HAL2     0.900000E-01   1.00800           0
     24698 MEMB     199      OYPE     H2S      HAL2     0.900000E-01   1.00800           0
     24699 MEMB     199      OYPE     C3       CTL2     0.800000E-01   12.0110           0
     24700 MEMB     199      OYPE     HX       HAL2     0.900000E-01   1.00800           0
     24701 MEMB     199      OYPE     HY       HAL2     0.900000E-01   1.00800           0
     24702 MEMB     199      OYPE     O31      OSL     -0.490000       15.9994           0
     24703 MEMB     199      OYPE     C31      CL       0.900000       12.0110           0
     24704 MEMB     199      OYPE     O32      OBL     -0.630000       15.9994           0
     24705 MEMB     199      OYPE     C32      CTL2    -0.220000       12.0110           0
     24706 MEMB     199      OYPE     H2X      HAL2     0.900000E-01   1.00800           0
     24707 MEMB     199      OYPE     H2Y      HAL2     0.900000E-01   1.00800           0
     24708 MEMB     199      OYPE     C23      CTL2    -0.180000       12.0110           0
     24709 MEMB     199      OYPE     H3R      HAL2     0.900000E-01   1.00800           0
     24710 MEMB     199      OYPE     H3S      HAL2     0.900000E-01   1.00800           0
     24711 MEMB     199      OYPE     C24      CTL2    -0.180000       12.0110           0
     24712 MEMB     199      OYPE     H4R      HAL2     0.900000E-01   1.00800           0
     24713 MEMB     199      OYPE     H4S      HAL2     0.900000E-01   1.00800           0
     24714 MEMB     199      OYPE     C25      CTL2    -0.180000       12.0110           0
     24715 MEMB     199      OYPE     H5R      HAL2     0.900000E-01   1.00800           0
     24716 MEMB     199      OYPE     H5S      HAL2     0.900000E-01   1.00800           0
     24717 MEMB     199      OYPE     C26      CTL2    -0.180000       12.0110           0
     24718 MEMB     199      OYPE     H6R      HAL2     0.900000E-01   1.00800           0
     24719 MEMB     199      OYPE     H6S      HAL2     0.900000E-01   1.00800           0
     24720 MEMB     199      OYPE     C27      CTL2    -0.180000       12.0110           0
     24721 MEMB     199      OYPE     H7R      HAL2     0.900000E-01   1.00800           0
     24722 MEMB     199      OYPE     H7S      HAL2     0.900000E-01   1.00800           0
     24723 MEMB     199      OYPE     C28      CTL2    -0.180000       12.0110           0
     24724 MEMB     199      OYPE     H8R      HAL2     0.900000E-01   1.00800           0
     24725 MEMB     199      OYPE     H8S      HAL2     0.900000E-01   1.00800           0
     24726 MEMB     199      OYPE     C29      CEL1    -0.150000       12.0110           0
     24727 MEMB     199      OYPE     H9R      HEL1     0.150000       1.00800           0
     24728 MEMB     199      OYPE     C210     CEL1    -0.150000       12.0110           0
     24729 MEMB     199      OYPE     H10R     HEL1     0.150000       1.00800           0
     24730 MEMB     199      OYPE     C211     CTL2    -0.180000       12.0110           0
     24731 MEMB     199      OYPE     H11R     HAL2     0.900000E-01   1.00800           0
     24732 MEMB     199      OYPE     H11S     HAL2     0.900000E-01   1.00800           0
     24733 MEMB     199      OYPE     C212     CTL2    -0.180000       12.0110           0
     24734 MEMB     199      OYPE     H12R     HAL2     0.900000E-01   1.00800           0
     24735 MEMB     199      OYPE     H12S     HAL2     0.900000E-01   1.00800           0
     24736 MEMB     199      OYPE     C213     CTL2    -0.180000       12.0110           0
     24737 MEMB     199      OYPE     H13R     HAL2     0.900000E-01   1.00800           0
     24738 MEMB     199      OYPE     H13S     HAL2     0.900000E-01   1.00800           0
     24739 MEMB     199      OYPE     C214     CTL2    -0.180000       12.0110           0
     24740 MEMB     199      OYPE     H14R     HAL2     0.900000E-01   1.00800           0
     24741 MEMB     199      OYPE     H14S     HAL2     0.900000E-01   1.00800           0
     24742 MEMB     199      OYPE     C215     CTL2    -0.180000       12.0110           0
     24743 MEMB     199      OYPE     H15R     HAL2     0.900000E-01   1.00800           0
     24744 MEMB     199      OYPE     H15S     HAL2     0.900000E-01   1.00800           0
     24745 MEMB     199      OYPE     C216     CTL3    -0.270000       12.0110           0
     24746 MEMB     199      OYPE     H16R     HAL3     0.900000E-01   1.00800           0
     24747 MEMB     199      OYPE     H16S     HAL3     0.900000E-01   1.00800           0
     24748 MEMB     199      OYPE     H16T     HAL3     0.900000E-01   1.00800           0
     24749 MEMB     199      OYPE     C33      CTL2    -0.180000       12.0110           0
     24750 MEMB     199      OYPE     H3X      HAL2     0.900000E-01   1.00800           0
     24751 MEMB     199      OYPE     H3Y      HAL2     0.900000E-01   1.00800           0
     24752 MEMB     199      OYPE     C34      CTL2    -0.180000       12.0110           0
     24753 MEMB     199      OYPE     H4X      HAL2     0.900000E-01   1.00800           0
     24754 MEMB     199      OYPE     H4Y      HAL2     0.900000E-01   1.00800           0
     24755 MEMB     199      OYPE     C35      CTL2    -0.180000       12.0110           0
     24756 MEMB     199      OYPE     H5X      HAL2     0.900000E-01   1.00800           0
     24757 MEMB     199      OYPE     H5Y      HAL2     0.900000E-01   1.00800           0
     24758 MEMB     199      OYPE     C36      CTL2    -0.180000       12.0110           0
     24759 MEMB     199      OYPE     H6X      HAL2     0.900000E-01   1.00800           0
     24760 MEMB     199      OYPE     H6Y      HAL2     0.900000E-01   1.00800           0
     24761 MEMB     199      OYPE     C37      CTL2    -0.180000       12.0110           0
     24762 MEMB     199      OYPE     H7X      HAL2     0.900000E-01   1.00800           0
     24763 MEMB     199      OYPE     H7Y      HAL2     0.900000E-01   1.00800           0
     24764 MEMB     199      OYPE     C38      CTL2    -0.180000       12.0110           0
     24765 MEMB     199      OYPE     H8X      HAL2     0.900000E-01   1.00800           0
     24766 MEMB     199      OYPE     H8Y      HAL2     0.900000E-01   1.00800           0
     24767 MEMB     199      OYPE     C39      CEL1    -0.150000       12.0110           0
     24768 MEMB     199      OYPE     H9X      HEL1     0.150000       1.00800           0
     24769 MEMB     199      OYPE     C310     CEL1    -0.150000       12.0110           0
     24770 MEMB     199      OYPE     H10X     HEL1     0.150000       1.00800           0
     24771 MEMB     199      OYPE     C311     CTL2    -0.180000       12.0110           0
     24772 MEMB     199      OYPE     H11X     HAL2     0.900000E-01   1.00800           0
     24773 MEMB     199      OYPE     H11Y     HAL2     0.900000E-01   1.00800           0
     24774 MEMB     199      OYPE     C312     CTL2    -0.180000       12.0110           0
     24775 MEMB     199      OYPE     H12X     HAL2     0.900000E-01   1.00800           0
     24776 MEMB     199      OYPE     H12Y     HAL2     0.900000E-01   1.00800           0
     24777 MEMB     199      OYPE     C313     CTL2    -0.180000       12.0110           0
     24778 MEMB     199      OYPE     H13X     HAL2     0.900000E-01   1.00800           0
     24779 MEMB     199      OYPE     H13Y     HAL2     0.900000E-01   1.00800           0
     24780 MEMB     199      OYPE     C314     CTL2    -0.180000       12.0110           0
     24781 MEMB     199      OYPE     H14X     HAL2     0.900000E-01   1.00800           0
     24782 MEMB     199      OYPE     H14Y     HAL2     0.900000E-01   1.00800           0
     24783 MEMB     199      OYPE     C315     CTL2    -0.180000       12.0110           0
     24784 MEMB     199      OYPE     H15X     HAL2     0.900000E-01   1.00800           0
     24785 MEMB     199      OYPE     H15Y     HAL2     0.900000E-01   1.00800           0
     24786 MEMB     199      OYPE     C316     CTL2    -0.180000       12.0110           0
     24787 MEMB     199      OYPE     H16X     HAL2     0.900000E-01   1.00800           0
     24788 MEMB     199      OYPE     H16Y     HAL2     0.900000E-01   1.00800           0
     24789 MEMB     199      OYPE     C317     CTL2    -0.180000       12.0110           0
     24790 MEMB     199      OYPE     H17X     HAL2     0.900000E-01   1.00800           0
     24791 MEMB     199      OYPE     H17Y     HAL2     0.900000E-01   1.00800           0
     24792 MEMB     199      OYPE     C318     CTL3    -0.270000       12.0110           0
     24793 MEMB     199      OYPE     H18X     HAL3     0.900000E-01   1.00800           0
     24794 MEMB     199      OYPE     H18Y     HAL3     0.900000E-01   1.00800           0
     24795 MEMB     199      OYPE     H18Z     HAL3     0.900000E-01   1.00800           0
     24796 MEMB     200      PYPG     C13      CTL2     0.500000E-01   12.0110           0
     24797 MEMB     200      PYPG     H13A     HAL2     0.900000E-01   1.00800           0
     24798 MEMB     200      PYPG     H13B     HAL2     0.900000E-01   1.00800           0
     24799 MEMB     200      PYPG     OC3      OHL     -0.660000       15.9994           0
     24800 MEMB     200      PYPG     HO3      HOL      0.430000       1.00800           0
     24801 MEMB     200      PYPG     C12      CTL1     0.140000       12.0110           0
     24802 MEMB     200      PYPG     H12A     HAL1     0.900000E-01   1.00800           0
     24803 MEMB     200      PYPG     OC2      OHL     -0.660000       15.9994           0
     24804 MEMB     200      PYPG     HO2      HOL      0.430000       1.00800           0
     24805 MEMB     200      PYPG     C11      CTL2    -0.800000E-01   12.0110           0
     24806 MEMB     200      PYPG     H11A     HAL2     0.900000E-01   1.00800           0
     24807 MEMB     200      PYPG     H11B     HAL2     0.900000E-01   1.00800           0
     24808 MEMB     200      PYPG     P        PL        1.50000       30.9740           0
     24809 MEMB     200      PYPG     O13      O2L     -0.780000       15.9994           0
     24810 MEMB     200      PYPG     O14      O2L     -0.780000       15.9994           0
     24811 MEMB     200      PYPG     O11      OSLP    -0.570000       15.9994           0
     24812 MEMB     200      PYPG     O12      OSLP    -0.570000       15.9994           0
     24813 MEMB     200      PYPG     C1       CTL2    -0.800000E-01   12.0110           0
     24814 MEMB     200      PYPG     HA       HAL2     0.900000E-01   1.00800           0
     24815 MEMB     200      PYPG     HB       HAL2     0.900000E-01   1.00800           0
     24816 MEMB     200      PYPG     C2       CTL1     0.170000       12.0110           0
     24817 MEMB     200      PYPG     HS       HAL1     0.900000E-01   1.00800           0
     24818 MEMB     200      PYPG     O21      OSL     -0.490000       15.9994           0
     24819 MEMB     200      PYPG     C21      CL       0.900000       12.0110           0
     24820 MEMB     200      PYPG     O22      OBL     -0.630000       15.9994           0
     24821 MEMB     200      PYPG     C22      CTL2    -0.220000       12.0110           0
     24822 MEMB     200      PYPG     H2R      HAL2     0.900000E-01   1.00800           0
     24823 MEMB     200      PYPG     H2S      HAL2     0.900000E-01   1.00800           0
     24824 MEMB     200      PYPG     C3       CTL2     0.800000E-01   12.0110           0
     24825 MEMB     200      PYPG     HX       HAL2     0.900000E-01   1.00800           0
     24826 MEMB     200      PYPG     HY       HAL2     0.900000E-01   1.00800           0
     24827 MEMB     200      PYPG     O31      OSL     -0.490000       15.9994           0
     24828 MEMB     200      PYPG     C31      CL       0.900000       12.0110           0
     24829 MEMB     200      PYPG     O32      OBL     -0.630000       15.9994           0
     24830 MEMB     200      PYPG     C32      CTL2    -0.220000       12.0110           0
     24831 MEMB     200      PYPG     H2X      HAL2     0.900000E-01   1.00800           0
     24832 MEMB     200      PYPG     H2Y      HAL2     0.900000E-01   1.00800           0
     24833 MEMB     200      PYPG     C23      CTL2    -0.180000       12.0110           0
     24834 MEMB     200      PYPG     H3R      HAL2     0.900000E-01   1.00800           0
     24835 MEMB     200      PYPG     H3S      HAL2     0.900000E-01   1.00800           0
     24836 MEMB     200      PYPG     C24      CTL2    -0.180000       12.0110           0
     24837 MEMB     200      PYPG     H4R      HAL2     0.900000E-01   1.00800           0
     24838 MEMB     200      PYPG     H4S      HAL2     0.900000E-01   1.00800           0
     24839 MEMB     200      PYPG     C25      CTL2    -0.180000       12.0110           0
     24840 MEMB     200      PYPG     H5R      HAL2     0.900000E-01   1.00800           0
     24841 MEMB     200      PYPG     H5S      HAL2     0.900000E-01   1.00800           0
     24842 MEMB     200      PYPG     C26      CTL2    -0.180000       12.0110           0
     24843 MEMB     200      PYPG     H6R      HAL2     0.900000E-01   1.00800           0
     24844 MEMB     200      PYPG     H6S      HAL2     0.900000E-01   1.00800           0
     24845 MEMB     200      PYPG     C27      CTL2    -0.180000       12.0110           0
     24846 MEMB     200      PYPG     H7R      HAL2     0.900000E-01   1.00800           0
     24847 MEMB     200      PYPG     H7S      HAL2     0.900000E-01   1.00800           0
     24848 MEMB     200      PYPG     C28      CTL2    -0.180000       12.0110           0
     24849 MEMB     200      PYPG     H8R      HAL2     0.900000E-01   1.00800           0
     24850 MEMB     200      PYPG     H8S      HAL2     0.900000E-01   1.00800           0
     24851 MEMB     200      PYPG     C29      CEL1    -0.150000       12.0110           0
     24852 MEMB     200      PYPG     H9R      HEL1     0.150000       1.00800           0
     24853 MEMB     200      PYPG     C210     CEL1    -0.150000       12.0110           0
     24854 MEMB     200      PYPG     H10R     HEL1     0.150000       1.00800           0
     24855 MEMB     200      PYPG     C211     CTL2    -0.180000       12.0110           0
     24856 MEMB     200      PYPG     H11R     HAL2     0.900000E-01   1.00800           0
     24857 MEMB     200      PYPG     H11S     HAL2     0.900000E-01   1.00800           0
     24858 MEMB     200      PYPG     C212     CTL2    -0.180000       12.0110           0
     24859 MEMB     200      PYPG     H12R     HAL2     0.900000E-01   1.00800           0
     24860 MEMB     200      PYPG     H12S     HAL2     0.900000E-01   1.00800           0
     24861 MEMB     200      PYPG     C213     CTL2    -0.180000       12.0110           0
     24862 MEMB     200      PYPG     H13R     HAL2     0.900000E-01   1.00800           0
     24863 MEMB     200      PYPG     H13S     HAL2     0.900000E-01   1.00800           0
     24864 MEMB     200      PYPG     C214     CTL2    -0.180000       12.0110           0
     24865 MEMB     200      PYPG     H14R     HAL2     0.900000E-01   1.00800           0
     24866 MEMB     200      PYPG     H14S     HAL2     0.900000E-01   1.00800           0
     24867 MEMB     200      PYPG     C215     CTL2    -0.180000       12.0110           0
     24868 MEMB     200      PYPG     H15R     HAL2     0.900000E-01   1.00800           0
     24869 MEMB     200      PYPG     H15S     HAL2     0.900000E-01   1.00800           0
     24870 MEMB     200      PYPG     C216     CTL3    -0.270000       12.0110           0
     24871 MEMB     200      PYPG     H16R     HAL3     0.900000E-01   1.00800           0
     24872 MEMB     200      PYPG     H16S     HAL3     0.900000E-01   1.00800           0
     24873 MEMB     200      PYPG     H16T     HAL3     0.900000E-01   1.00800           0
     24874 MEMB     200      PYPG     C33      CTL2    -0.180000       12.0110           0
     24875 MEMB     200      PYPG     H3X      HAL2     0.900000E-01   1.00800           0
     24876 MEMB     200      PYPG     H3Y      HAL2     0.900000E-01   1.00800           0
     24877 MEMB     200      PYPG     C34      CTL2    -0.180000       12.0110           0
     24878 MEMB     200      PYPG     H4X      HAL2     0.900000E-01   1.00800           0
     24879 MEMB     200      PYPG     H4Y      HAL2     0.900000E-01   1.00800           0
     24880 MEMB     200      PYPG     C35      CTL2    -0.180000       12.0110           0
     24881 MEMB     200      PYPG     H5X      HAL2     0.900000E-01   1.00800           0
     24882 MEMB     200      PYPG     H5Y      HAL2     0.900000E-01   1.00800           0
     24883 MEMB     200      PYPG     C36      CTL2    -0.180000       12.0110           0
     24884 MEMB     200      PYPG     H6X      HAL2     0.900000E-01   1.00800           0
     24885 MEMB     200      PYPG     H6Y      HAL2     0.900000E-01   1.00800           0
     24886 MEMB     200      PYPG     C37      CTL2    -0.180000       12.0110           0
     24887 MEMB     200      PYPG     H7X      HAL2     0.900000E-01   1.00800           0
     24888 MEMB     200      PYPG     H7Y      HAL2     0.900000E-01   1.00800           0
     24889 MEMB     200      PYPG     C38      CTL2    -0.180000       12.0110           0
     24890 MEMB     200      PYPG     H8X      HAL2     0.900000E-01   1.00800           0
     24891 MEMB     200      PYPG     H8Y      HAL2     0.900000E-01   1.00800           0
     24892 MEMB     200      PYPG     C39      CTL2    -0.180000       12.0110           0
     24893 MEMB     200      PYPG     H9X      HAL2     0.900000E-01   1.00800           0
     24894 MEMB     200      PYPG     H9Y      HAL2     0.900000E-01   1.00800           0
     24895 MEMB     200      PYPG     C310     CTL2    -0.180000       12.0110           0
     24896 MEMB     200      PYPG     H10X     HAL2     0.900000E-01   1.00800           0
     24897 MEMB     200      PYPG     H10Y     HAL2     0.900000E-01   1.00800           0
     24898 MEMB     200      PYPG     C311     CTL2    -0.180000       12.0110           0
     24899 MEMB     200      PYPG     H11X     HAL2     0.900000E-01   1.00800           0
     24900 MEMB     200      PYPG     H11Y     HAL2     0.900000E-01   1.00800           0
     24901 MEMB     200      PYPG     C312     CTL2    -0.180000       12.0110           0
     24902 MEMB     200      PYPG     H12X     HAL2     0.900000E-01   1.00800           0
     24903 MEMB     200      PYPG     H12Y     HAL2     0.900000E-01   1.00800           0
     24904 MEMB     200      PYPG     C313     CTL2    -0.180000       12.0110           0
     24905 MEMB     200      PYPG     H13X     HAL2     0.900000E-01   1.00800           0
     24906 MEMB     200      PYPG     H13Y     HAL2     0.900000E-01   1.00800           0
     24907 MEMB     200      PYPG     C314     CTL2    -0.180000       12.0110           0
     24908 MEMB     200      PYPG     H14X     HAL2     0.900000E-01   1.00800           0
     24909 MEMB     200      PYPG     H14Y     HAL2     0.900000E-01   1.00800           0
     24910 MEMB     200      PYPG     C315     CTL2    -0.180000       12.0110           0
     24911 MEMB     200      PYPG     H15X     HAL2     0.900000E-01   1.00800           0
     24912 MEMB     200      PYPG     H15Y     HAL2     0.900000E-01   1.00800           0
     24913 MEMB     200      PYPG     C316     CTL3    -0.270000       12.0110           0
     24914 MEMB     200      PYPG     H16X     HAL3     0.900000E-01   1.00800           0
     24915 MEMB     200      PYPG     H16Y     HAL3     0.900000E-01   1.00800           0
     24916 MEMB     200      PYPG     H16Z     HAL3     0.900000E-01   1.00800           0
     24917 MEMB     201      PMPG     C13      CTL2     0.500000E-01   12.0110           0
     24918 MEMB     201      PMPG     H13A     HAL2     0.900000E-01   1.00800           0
     24919 MEMB     201      PMPG     H13B     HAL2     0.900000E-01   1.00800           0
     24920 MEMB     201      PMPG     OC3      OHL     -0.660000       15.9994           0
     24921 MEMB     201      PMPG     HO3      HOL      0.430000       1.00800           0
     24922 MEMB     201      PMPG     C12      CTL1     0.140000       12.0110           0
     24923 MEMB     201      PMPG     H12A     HAL1     0.900000E-01   1.00800           0
     24924 MEMB     201      PMPG     OC2      OHL     -0.660000       15.9994           0
     24925 MEMB     201      PMPG     HO2      HOL      0.430000       1.00800           0
     24926 MEMB     201      PMPG     C11      CTL2    -0.800000E-01   12.0110           0
     24927 MEMB     201      PMPG     H11A     HAL2     0.900000E-01   1.00800           0
     24928 MEMB     201      PMPG     H11B     HAL2     0.900000E-01   1.00800           0
     24929 MEMB     201      PMPG     P        PL        1.50000       30.9740           0
     24930 MEMB     201      PMPG     O13      O2L     -0.780000       15.9994           0
     24931 MEMB     201      PMPG     O14      O2L     -0.780000       15.9994           0
     24932 MEMB     201      PMPG     O11      OSLP    -0.570000       15.9994           0
     24933 MEMB     201      PMPG     O12      OSLP    -0.570000       15.9994           0
     24934 MEMB     201      PMPG     C1       CTL2    -0.800000E-01   12.0110           0
     24935 MEMB     201      PMPG     HA       HAL2     0.900000E-01   1.00800           0
     24936 MEMB     201      PMPG     HB       HAL2     0.900000E-01   1.00800           0
     24937 MEMB     201      PMPG     C2       CTL1     0.170000       12.0110           0
     24938 MEMB     201      PMPG     HS       HAL1     0.900000E-01   1.00800           0
     24939 MEMB     201      PMPG     O21      OSL     -0.490000       15.9994           0
     24940 MEMB     201      PMPG     C21      CL       0.900000       12.0110           0
     24941 MEMB     201      PMPG     O22      OBL     -0.630000       15.9994           0
     24942 MEMB     201      PMPG     C22      CTL2    -0.220000       12.0110           0
     24943 MEMB     201      PMPG     H2R      HAL2     0.900000E-01   1.00800           0
     24944 MEMB     201      PMPG     H2S      HAL2     0.900000E-01   1.00800           0
     24945 MEMB     201      PMPG     C3       CTL2     0.800000E-01   12.0110           0
     24946 MEMB     201      PMPG     HX       HAL2     0.900000E-01   1.00800           0
     24947 MEMB     201      PMPG     HY       HAL2     0.900000E-01   1.00800           0
     24948 MEMB     201      PMPG     O31      OSL     -0.490000       15.9994           0
     24949 MEMB     201      PMPG     C31      CL       0.900000       12.0110           0
     24950 MEMB     201      PMPG     O32      OBL     -0.630000       15.9994           0
     24951 MEMB     201      PMPG     C32      CTL2    -0.220000       12.0110           0
     24952 MEMB     201      PMPG     H2X      HAL2     0.900000E-01   1.00800           0
     24953 MEMB     201      PMPG     H2Y      HAL2     0.900000E-01   1.00800           0
     24954 MEMB     201      PMPG     C23      CTL2    -0.180000       12.0110           0
     24955 MEMB     201      PMPG     H3R      HAL2     0.900000E-01   1.00800           0
     24956 MEMB     201      PMPG     H3S      HAL2     0.900000E-01   1.00800           0
     24957 MEMB     201      PMPG     C24      CTL2    -0.180000       12.0110           0
     24958 MEMB     201      PMPG     H4R      HAL2     0.900000E-01   1.00800           0
     24959 MEMB     201      PMPG     H4S      HAL2     0.900000E-01   1.00800           0
     24960 MEMB     201      PMPG     C25      CTL2    -0.180000       12.0110           0
     24961 MEMB     201      PMPG     H5R      HAL2     0.900000E-01   1.00800           0
     24962 MEMB     201      PMPG     H5S      HAL2     0.900000E-01   1.00800           0
     24963 MEMB     201      PMPG     C26      CTL2    -0.180000       12.0110           0
     24964 MEMB     201      PMPG     H6R      HAL2     0.900000E-01   1.00800           0
     24965 MEMB     201      PMPG     H6S      HAL2     0.900000E-01   1.00800           0
     24966 MEMB     201      PMPG     C27      CTL2    -0.180000       12.0110           0
     24967 MEMB     201      PMPG     H7R      HAL2     0.900000E-01   1.00800           0
     24968 MEMB     201      PMPG     H7S      HAL2     0.900000E-01   1.00800           0
     24969 MEMB     201      PMPG     C28      CTL2    -0.180000       12.0110           0
     24970 MEMB     201      PMPG     H8R      HAL2     0.900000E-01   1.00800           0
     24971 MEMB     201      PMPG     H8S      HAL2     0.900000E-01   1.00800           0
     24972 MEMB     201      PMPG     C29      CG3RC1  -0.900000E-01   12.0110           0
     24973 MEMB     201      PMPG     H9R      HGA1     0.900000E-01   1.00800           0
     24974 MEMB     201      PMPG     C217     CG3C31  -0.180000       12.0110           0
     24975 MEMB     201      PMPG     H17R     HGA2     0.900000E-01   1.00800           0
     24976 MEMB     201      PMPG     H17S     HGA2     0.900000E-01   1.00800           0
     24977 MEMB     201      PMPG     C210     CG3RC1  -0.900000E-01   12.0110           0
     24978 MEMB     201      PMPG     H10R     HGA1     0.900000E-01   1.00800           0
     24979 MEMB     201      PMPG     C211     CTL2    -0.180000       12.0110           0
     24980 MEMB     201      PMPG     H11R     HAL2     0.900000E-01   1.00800           0
     24981 MEMB     201      PMPG     H11S     HAL2     0.900000E-01   1.00800           0
     24982 MEMB     201      PMPG     C212     CTL2    -0.180000       12.0110           0
     24983 MEMB     201      PMPG     H12R     HAL2     0.900000E-01   1.00800           0
     24984 MEMB     201      PMPG     H12S     HAL2     0.900000E-01   1.00800           0
     24985 MEMB     201      PMPG     C213     CTL2    -0.180000       12.0110           0
     24986 MEMB     201      PMPG     H13R     HAL2     0.900000E-01   1.00800           0
     24987 MEMB     201      PMPG     H13S     HAL2     0.900000E-01   1.00800           0
     24988 MEMB     201      PMPG     C214     CTL2    -0.180000       12.0110           0
     24989 MEMB     201      PMPG     H14R     HAL2     0.900000E-01   1.00800           0
     24990 MEMB     201      PMPG     H14S     HAL2     0.900000E-01   1.00800           0
     24991 MEMB     201      PMPG     C215     CTL2    -0.180000       12.0110           0
     24992 MEMB     201      PMPG     H15R     HAL2     0.900000E-01   1.00800           0
     24993 MEMB     201      PMPG     H15S     HAL2     0.900000E-01   1.00800           0
     24994 MEMB     201      PMPG     C216     CTL3    -0.270000       12.0110           0
     24995 MEMB     201      PMPG     H16R     HAL3     0.900000E-01   1.00800           0
     24996 MEMB     201      PMPG     H16S     HAL3     0.900000E-01   1.00800           0
     24997 MEMB     201      PMPG     H16T     HAL3     0.900000E-01   1.00800           0
     24998 MEMB     201      PMPG     C33      CTL2    -0.180000       12.0110           0
     24999 MEMB     201      PMPG     H3X      HAL2     0.900000E-01   1.00800           0
     25000 MEMB     201      PMPG     H3Y      HAL2     0.900000E-01   1.00800           0
     25001 MEMB     201      PMPG     C34      CTL2    -0.180000       12.0110           0
     25002 MEMB     201      PMPG     H4X      HAL2     0.900000E-01   1.00800           0
     25003 MEMB     201      PMPG     H4Y      HAL2     0.900000E-01   1.00800           0
     25004 MEMB     201      PMPG     C35      CTL2    -0.180000       12.0110           0
     25005 MEMB     201      PMPG     H5X      HAL2     0.900000E-01   1.00800           0
     25006 MEMB     201      PMPG     H5Y      HAL2     0.900000E-01   1.00800           0
     25007 MEMB     201      PMPG     C36      CTL2    -0.180000       12.0110           0
     25008 MEMB     201      PMPG     H6X      HAL2     0.900000E-01   1.00800           0
     25009 MEMB     201      PMPG     H6Y      HAL2     0.900000E-01   1.00800           0
     25010 MEMB     201      PMPG     C37      CTL2    -0.180000       12.0110           0
     25011 MEMB     201      PMPG     H7X      HAL2     0.900000E-01   1.00800           0
     25012 MEMB     201      PMPG     H7Y      HAL2     0.900000E-01   1.00800           0
     25013 MEMB     201      PMPG     C38      CTL2    -0.180000       12.0110           0
     25014 MEMB     201      PMPG     H8X      HAL2     0.900000E-01   1.00800           0
     25015 MEMB     201      PMPG     H8Y      HAL2     0.900000E-01   1.00800           0
     25016 MEMB     201      PMPG     C39      CTL2    -0.180000       12.0110           0
     25017 MEMB     201      PMPG     H9X      HAL2     0.900000E-01   1.00800           0
     25018 MEMB     201      PMPG     H9Y      HAL2     0.900000E-01   1.00800           0
     25019 MEMB     201      PMPG     C310     CTL2    -0.180000       12.0110           0
     25020 MEMB     201      PMPG     H10X     HAL2     0.900000E-01   1.00800           0
     25021 MEMB     201      PMPG     H10Y     HAL2     0.900000E-01   1.00800           0
     25022 MEMB     201      PMPG     C311     CTL2    -0.180000       12.0110           0
     25023 MEMB     201      PMPG     H11X     HAL2     0.900000E-01   1.00800           0
     25024 MEMB     201      PMPG     H11Y     HAL2     0.900000E-01   1.00800           0
     25025 MEMB     201      PMPG     C312     CTL2    -0.180000       12.0110           0
     25026 MEMB     201      PMPG     H12X     HAL2     0.900000E-01   1.00800           0
     25027 MEMB     201      PMPG     H12Y     HAL2     0.900000E-01   1.00800           0
     25028 MEMB     201      PMPG     C313     CTL2    -0.180000       12.0110           0
     25029 MEMB     201      PMPG     H13X     HAL2     0.900000E-01   1.00800           0
     25030 MEMB     201      PMPG     H13Y     HAL2     0.900000E-01   1.00800           0
     25031 MEMB     201      PMPG     C314     CTL2    -0.180000       12.0110           0
     25032 MEMB     201      PMPG     H14X     HAL2     0.900000E-01   1.00800           0
     25033 MEMB     201      PMPG     H14Y     HAL2     0.900000E-01   1.00800           0
     25034 MEMB     201      PMPG     C315     CTL2    -0.180000       12.0110           0
     25035 MEMB     201      PMPG     H15X     HAL2     0.900000E-01   1.00800           0
     25036 MEMB     201      PMPG     H15Y     HAL2     0.900000E-01   1.00800           0
     25037 MEMB     201      PMPG     C316     CTL3    -0.270000       12.0110           0
     25038 MEMB     201      PMPG     H16X     HAL3     0.900000E-01   1.00800           0
     25039 MEMB     201      PMPG     H16Y     HAL3     0.900000E-01   1.00800           0
     25040 MEMB     201      PMPG     H16Z     HAL3     0.900000E-01   1.00800           0
     25041 MEMB     202      OYPE     N        NH3L    -0.300000       14.0070           0
     25042 MEMB     202      OYPE     HN1      HCL      0.330000       1.00800           0
     25043 MEMB     202      OYPE     HN2      HCL      0.330000       1.00800           0
     25044 MEMB     202      OYPE     HN3      HCL      0.330000       1.00800           0
     25045 MEMB     202      OYPE     C12      CTL2     0.130000       12.0110           0
     25046 MEMB     202      OYPE     H12A     HAL2     0.900000E-01   1.00800           0
     25047 MEMB     202      OYPE     H12B     HAL2     0.900000E-01   1.00800           0
     25048 MEMB     202      OYPE     C11      CTL2    -0.800000E-01   12.0110           0
     25049 MEMB     202      OYPE     H11A     HAL2     0.900000E-01   1.00800           0
     25050 MEMB     202      OYPE     H11B     HAL2     0.900000E-01   1.00800           0
     25051 MEMB     202      OYPE     P        PL        1.50000       30.9740           0
     25052 MEMB     202      OYPE     O13      O2L     -0.780000       15.9994           0
     25053 MEMB     202      OYPE     O14      O2L     -0.780000       15.9994           0
     25054 MEMB     202      OYPE     O11      OSLP    -0.570000       15.9994           0
     25055 MEMB     202      OYPE     O12      OSLP    -0.570000       15.9994           0
     25056 MEMB     202      OYPE     C1       CTL2    -0.800000E-01   12.0110           0
     25057 MEMB     202      OYPE     HA       HAL2     0.900000E-01   1.00800           0
     25058 MEMB     202      OYPE     HB       HAL2     0.900000E-01   1.00800           0
     25059 MEMB     202      OYPE     C2       CTL1     0.170000       12.0110           0
     25060 MEMB     202      OYPE     HS       HAL1     0.900000E-01   1.00800           0
     25061 MEMB     202      OYPE     O21      OSL     -0.490000       15.9994           0
     25062 MEMB     202      OYPE     C21      CL       0.900000       12.0110           0
     25063 MEMB     202      OYPE     O22      OBL     -0.630000       15.9994           0
     25064 MEMB     202      OYPE     C22      CTL2    -0.220000       12.0110           0
     25065 MEMB     202      OYPE     H2R      HAL2     0.900000E-01   1.00800           0
     25066 MEMB     202      OYPE     H2S      HAL2     0.900000E-01   1.00800           0
     25067 MEMB     202      OYPE     C3       CTL2     0.800000E-01   12.0110           0
     25068 MEMB     202      OYPE     HX       HAL2     0.900000E-01   1.00800           0
     25069 MEMB     202      OYPE     HY       HAL2     0.900000E-01   1.00800           0
     25070 MEMB     202      OYPE     O31      OSL     -0.490000       15.9994           0
     25071 MEMB     202      OYPE     C31      CL       0.900000       12.0110           0
     25072 MEMB     202      OYPE     O32      OBL     -0.630000       15.9994           0
     25073 MEMB     202      OYPE     C32      CTL2    -0.220000       12.0110           0
     25074 MEMB     202      OYPE     H2X      HAL2     0.900000E-01   1.00800           0
     25075 MEMB     202      OYPE     H2Y      HAL2     0.900000E-01   1.00800           0
     25076 MEMB     202      OYPE     C23      CTL2    -0.180000       12.0110           0
     25077 MEMB     202      OYPE     H3R      HAL2     0.900000E-01   1.00800           0
     25078 MEMB     202      OYPE     H3S      HAL2     0.900000E-01   1.00800           0
     25079 MEMB     202      OYPE     C24      CTL2    -0.180000       12.0110           0
     25080 MEMB     202      OYPE     H4R      HAL2     0.900000E-01   1.00800           0
     25081 MEMB     202      OYPE     H4S      HAL2     0.900000E-01   1.00800           0
     25082 MEMB     202      OYPE     C25      CTL2    -0.180000       12.0110           0
     25083 MEMB     202      OYPE     H5R      HAL2     0.900000E-01   1.00800           0
     25084 MEMB     202      OYPE     H5S      HAL2     0.900000E-01   1.00800           0
     25085 MEMB     202      OYPE     C26      CTL2    -0.180000       12.0110           0
     25086 MEMB     202      OYPE     H6R      HAL2     0.900000E-01   1.00800           0
     25087 MEMB     202      OYPE     H6S      HAL2     0.900000E-01   1.00800           0
     25088 MEMB     202      OYPE     C27      CTL2    -0.180000       12.0110           0
     25089 MEMB     202      OYPE     H7R      HAL2     0.900000E-01   1.00800           0
     25090 MEMB     202      OYPE     H7S      HAL2     0.900000E-01   1.00800           0
     25091 MEMB     202      OYPE     C28      CTL2    -0.180000       12.0110           0
     25092 MEMB     202      OYPE     H8R      HAL2     0.900000E-01   1.00800           0
     25093 MEMB     202      OYPE     H8S      HAL2     0.900000E-01   1.00800           0
     25094 MEMB     202      OYPE     C29      CEL1    -0.150000       12.0110           0
     25095 MEMB     202      OYPE     H9R      HEL1     0.150000       1.00800           0
     25096 MEMB     202      OYPE     C210     CEL1    -0.150000       12.0110           0
     25097 MEMB     202      OYPE     H10R     HEL1     0.150000       1.00800           0
     25098 MEMB     202      OYPE     C211     CTL2    -0.180000       12.0110           0
     25099 MEMB     202      OYPE     H11R     HAL2     0.900000E-01   1.00800           0
     25100 MEMB     202      OYPE     H11S     HAL2     0.900000E-01   1.00800           0
     25101 MEMB     202      OYPE     C212     CTL2    -0.180000       12.0110           0
     25102 MEMB     202      OYPE     H12R     HAL2     0.900000E-01   1.00800           0
     25103 MEMB     202      OYPE     H12S     HAL2     0.900000E-01   1.00800           0
     25104 MEMB     202      OYPE     C213     CTL2    -0.180000       12.0110           0
     25105 MEMB     202      OYPE     H13R     HAL2     0.900000E-01   1.00800           0
     25106 MEMB     202      OYPE     H13S     HAL2     0.900000E-01   1.00800           0
     25107 MEMB     202      OYPE     C214     CTL2    -0.180000       12.0110           0
     25108 MEMB     202      OYPE     H14R     HAL2     0.900000E-01   1.00800           0
     25109 MEMB     202      OYPE     H14S     HAL2     0.900000E-01   1.00800           0
     25110 MEMB     202      OYPE     C215     CTL2    -0.180000       12.0110           0
     25111 MEMB     202      OYPE     H15R     HAL2     0.900000E-01   1.00800           0
     25112 MEMB     202      OYPE     H15S     HAL2     0.900000E-01   1.00800           0
     25113 MEMB     202      OYPE     C216     CTL3    -0.270000       12.0110           0
     25114 MEMB     202      OYPE     H16R     HAL3     0.900000E-01   1.00800           0
     25115 MEMB     202      OYPE     H16S     HAL3     0.900000E-01   1.00800           0
     25116 MEMB     202      OYPE     H16T     HAL3     0.900000E-01   1.00800           0
     25117 MEMB     202      OYPE     C33      CTL2    -0.180000       12.0110           0
     25118 MEMB     202      OYPE     H3X      HAL2     0.900000E-01   1.00800           0
     25119 MEMB     202      OYPE     H3Y      HAL2     0.900000E-01   1.00800           0
     25120 MEMB     202      OYPE     C34      CTL2    -0.180000       12.0110           0
     25121 MEMB     202      OYPE     H4X      HAL2     0.900000E-01   1.00800           0
     25122 MEMB     202      OYPE     H4Y      HAL2     0.900000E-01   1.00800           0
     25123 MEMB     202      OYPE     C35      CTL2    -0.180000       12.0110           0
     25124 MEMB     202      OYPE     H5X      HAL2     0.900000E-01   1.00800           0
     25125 MEMB     202      OYPE     H5Y      HAL2     0.900000E-01   1.00800           0
     25126 MEMB     202      OYPE     C36      CTL2    -0.180000       12.0110           0
     25127 MEMB     202      OYPE     H6X      HAL2     0.900000E-01   1.00800           0
     25128 MEMB     202      OYPE     H6Y      HAL2     0.900000E-01   1.00800           0
     25129 MEMB     202      OYPE     C37      CTL2    -0.180000       12.0110           0
     25130 MEMB     202      OYPE     H7X      HAL2     0.900000E-01   1.00800           0
     25131 MEMB     202      OYPE     H7Y      HAL2     0.900000E-01   1.00800           0
     25132 MEMB     202      OYPE     C38      CTL2    -0.180000       12.0110           0
     25133 MEMB     202      OYPE     H8X      HAL2     0.900000E-01   1.00800           0
     25134 MEMB     202      OYPE     H8Y      HAL2     0.900000E-01   1.00800           0
     25135 MEMB     202      OYPE     C39      CEL1    -0.150000       12.0110           0
     25136 MEMB     202      OYPE     H9X      HEL1     0.150000       1.00800           0
     25137 MEMB     202      OYPE     C310     CEL1    -0.150000       12.0110           0
     25138 MEMB     202      OYPE     H10X     HEL1     0.150000       1.00800           0
     25139 MEMB     202      OYPE     C311     CTL2    -0.180000       12.0110           0
     25140 MEMB     202      OYPE     H11X     HAL2     0.900000E-01   1.00800           0
     25141 MEMB     202      OYPE     H11Y     HAL2     0.900000E-01   1.00800           0
     25142 MEMB     202      OYPE     C312     CTL2    -0.180000       12.0110           0
     25143 MEMB     202      OYPE     H12X     HAL2     0.900000E-01   1.00800           0
     25144 MEMB     202      OYPE     H12Y     HAL2     0.900000E-01   1.00800           0
     25145 MEMB     202      OYPE     C313     CTL2    -0.180000       12.0110           0
     25146 MEMB     202      OYPE     H13X     HAL2     0.900000E-01   1.00800           0
     25147 MEMB     202      OYPE     H13Y     HAL2     0.900000E-01   1.00800           0
     25148 MEMB     202      OYPE     C314     CTL2    -0.180000       12.0110           0
     25149 MEMB     202      OYPE     H14X     HAL2     0.900000E-01   1.00800           0
     25150 MEMB     202      OYPE     H14Y     HAL2     0.900000E-01   1.00800           0
     25151 MEMB     202      OYPE     C315     CTL2    -0.180000       12.0110           0
     25152 MEMB     202      OYPE     H15X     HAL2     0.900000E-01   1.00800           0
     25153 MEMB     202      OYPE     H15Y     HAL2     0.900000E-01   1.00800           0
     25154 MEMB     202      OYPE     C316     CTL2    -0.180000       12.0110           0
     25155 MEMB     202      OYPE     H16X     HAL2     0.900000E-01   1.00800           0
     25156 MEMB     202      OYPE     H16Y     HAL2     0.900000E-01   1.00800           0
     25157 MEMB     202      OYPE     C317     CTL2    -0.180000       12.0110           0
     25158 MEMB     202      OYPE     H17X     HAL2     0.900000E-01   1.00800           0
     25159 MEMB     202      OYPE     H17Y     HAL2     0.900000E-01   1.00800           0
     25160 MEMB     202      OYPE     C318     CTL3    -0.270000       12.0110           0
     25161 MEMB     202      OYPE     H18X     HAL3     0.900000E-01   1.00800           0
     25162 MEMB     202      OYPE     H18Y     HAL3     0.900000E-01   1.00800           0
     25163 MEMB     202      OYPE     H18Z     HAL3     0.900000E-01   1.00800           0
     25164 MEMB     203      PMPE     N        NH3L    -0.300000       14.0070           0
     25165 MEMB     203      PMPE     HN1      HCL      0.330000       1.00800           0
     25166 MEMB     203      PMPE     HN2      HCL      0.330000       1.00800           0
     25167 MEMB     203      PMPE     HN3      HCL      0.330000       1.00800           0
     25168 MEMB     203      PMPE     C12      CTL2     0.130000       12.0110           0
     25169 MEMB     203      PMPE     H12A     HAL2     0.900000E-01   1.00800           0
     25170 MEMB     203      PMPE     H12B     HAL2     0.900000E-01   1.00800           0
     25171 MEMB     203      PMPE     C11      CTL2    -0.800000E-01   12.0110           0
     25172 MEMB     203      PMPE     H11A     HAL2     0.900000E-01   1.00800           0
     25173 MEMB     203      PMPE     H11B     HAL2     0.900000E-01   1.00800           0
     25174 MEMB     203      PMPE     P        PL        1.50000       30.9740           0
     25175 MEMB     203      PMPE     O13      O2L     -0.780000       15.9994           0
     25176 MEMB     203      PMPE     O14      O2L     -0.780000       15.9994           0
     25177 MEMB     203      PMPE     O11      OSLP    -0.570000       15.9994           0
     25178 MEMB     203      PMPE     O12      OSLP    -0.570000       15.9994           0
     25179 MEMB     203      PMPE     C1       CTL2    -0.800000E-01   12.0110           0
     25180 MEMB     203      PMPE     HA       HAL2     0.900000E-01   1.00800           0
     25181 MEMB     203      PMPE     HB       HAL2     0.900000E-01   1.00800           0
     25182 MEMB     203      PMPE     C2       CTL1     0.170000       12.0110           0
     25183 MEMB     203      PMPE     HS       HAL1     0.900000E-01   1.00800           0
     25184 MEMB     203      PMPE     O21      OSL     -0.490000       15.9994           0
     25185 MEMB     203      PMPE     C21      CL       0.900000       12.0110           0
     25186 MEMB     203      PMPE     O22      OBL     -0.630000       15.9994           0
     25187 MEMB     203      PMPE     C22      CTL2    -0.220000       12.0110           0
     25188 MEMB     203      PMPE     H2R      HAL2     0.900000E-01   1.00800           0
     25189 MEMB     203      PMPE     H2S      HAL2     0.900000E-01   1.00800           0
     25190 MEMB     203      PMPE     C3       CTL2     0.800000E-01   12.0110           0
     25191 MEMB     203      PMPE     HX       HAL2     0.900000E-01   1.00800           0
     25192 MEMB     203      PMPE     HY       HAL2     0.900000E-01   1.00800           0
     25193 MEMB     203      PMPE     O31      OSL     -0.490000       15.9994           0
     25194 MEMB     203      PMPE     C31      CL       0.900000       12.0110           0
     25195 MEMB     203      PMPE     O32      OBL     -0.630000       15.9994           0
     25196 MEMB     203      PMPE     C32      CTL2    -0.220000       12.0110           0
     25197 MEMB     203      PMPE     H2X      HAL2     0.900000E-01   1.00800           0
     25198 MEMB     203      PMPE     H2Y      HAL2     0.900000E-01   1.00800           0
     25199 MEMB     203      PMPE     C23      CTL2    -0.180000       12.0110           0
     25200 MEMB     203      PMPE     H3R      HAL2     0.900000E-01   1.00800           0
     25201 MEMB     203      PMPE     H3S      HAL2     0.900000E-01   1.00800           0
     25202 MEMB     203      PMPE     C24      CTL2    -0.180000       12.0110           0
     25203 MEMB     203      PMPE     H4R      HAL2     0.900000E-01   1.00800           0
     25204 MEMB     203      PMPE     H4S      HAL2     0.900000E-01   1.00800           0
     25205 MEMB     203      PMPE     C25      CTL2    -0.180000       12.0110           0
     25206 MEMB     203      PMPE     H5R      HAL2     0.900000E-01   1.00800           0
     25207 MEMB     203      PMPE     H5S      HAL2     0.900000E-01   1.00800           0
     25208 MEMB     203      PMPE     C26      CTL2    -0.180000       12.0110           0
     25209 MEMB     203      PMPE     H6R      HAL2     0.900000E-01   1.00800           0
     25210 MEMB     203      PMPE     H6S      HAL2     0.900000E-01   1.00800           0
     25211 MEMB     203      PMPE     C27      CTL2    -0.180000       12.0110           0
     25212 MEMB     203      PMPE     H7R      HAL2     0.900000E-01   1.00800           0
     25213 MEMB     203      PMPE     H7S      HAL2     0.900000E-01   1.00800           0
     25214 MEMB     203      PMPE     C28      CTL2    -0.180000       12.0110           0
     25215 MEMB     203      PMPE     H8R      HAL2     0.900000E-01   1.00800           0
     25216 MEMB     203      PMPE     H8S      HAL2     0.900000E-01   1.00800           0
     25217 MEMB     203      PMPE     C29      CG3RC1  -0.900000E-01   12.0110           0
     25218 MEMB     203      PMPE     H9R      HGA1     0.900000E-01   1.00800           0
     25219 MEMB     203      PMPE     C217     CG3C31  -0.180000       12.0110           0
     25220 MEMB     203      PMPE     H17R     HGA2     0.900000E-01   1.00800           0
     25221 MEMB     203      PMPE     H17S     HGA2     0.900000E-01   1.00800           0
     25222 MEMB     203      PMPE     C210     CG3RC1  -0.900000E-01   12.0110           0
     25223 MEMB     203      PMPE     H10R     HGA1     0.900000E-01   1.00800           0
     25224 MEMB     203      PMPE     C211     CTL2    -0.180000       12.0110           0
     25225 MEMB     203      PMPE     H11R     HAL2     0.900000E-01   1.00800           0
     25226 MEMB     203      PMPE     H11S     HAL2     0.900000E-01   1.00800           0
     25227 MEMB     203      PMPE     C212     CTL2    -0.180000       12.0110           0
     25228 MEMB     203      PMPE     H12R     HAL2     0.900000E-01   1.00800           0
     25229 MEMB     203      PMPE     H12S     HAL2     0.900000E-01   1.00800           0
     25230 MEMB     203      PMPE     C213     CTL2    -0.180000       12.0110           0
     25231 MEMB     203      PMPE     H13R     HAL2     0.900000E-01   1.00800           0
     25232 MEMB     203      PMPE     H13S     HAL2     0.900000E-01   1.00800           0
     25233 MEMB     203      PMPE     C214     CTL2    -0.180000       12.0110           0
     25234 MEMB     203      PMPE     H14R     HAL2     0.900000E-01   1.00800           0
     25235 MEMB     203      PMPE     H14S     HAL2     0.900000E-01   1.00800           0
     25236 MEMB     203      PMPE     C215     CTL2    -0.180000       12.0110           0
     25237 MEMB     203      PMPE     H15R     HAL2     0.900000E-01   1.00800           0
     25238 MEMB     203      PMPE     H15S     HAL2     0.900000E-01   1.00800           0
     25239 MEMB     203      PMPE     C216     CTL3    -0.270000       12.0110           0
     25240 MEMB     203      PMPE     H16R     HAL3     0.900000E-01   1.00800           0
     25241 MEMB     203      PMPE     H16S     HAL3     0.900000E-01   1.00800           0
     25242 MEMB     203      PMPE     H16T     HAL3     0.900000E-01   1.00800           0
     25243 MEMB     203      PMPE     C33      CTL2    -0.180000       12.0110           0
     25244 MEMB     203      PMPE     H3X      HAL2     0.900000E-01   1.00800           0
     25245 MEMB     203      PMPE     H3Y      HAL2     0.900000E-01   1.00800           0
     25246 MEMB     203      PMPE     C34      CTL2    -0.180000       12.0110           0
     25247 MEMB     203      PMPE     H4X      HAL2     0.900000E-01   1.00800           0
     25248 MEMB     203      PMPE     H4Y      HAL2     0.900000E-01   1.00800           0
     25249 MEMB     203      PMPE     C35      CTL2    -0.180000       12.0110           0
     25250 MEMB     203      PMPE     H5X      HAL2     0.900000E-01   1.00800           0
     25251 MEMB     203      PMPE     H5Y      HAL2     0.900000E-01   1.00800           0
     25252 MEMB     203      PMPE     C36      CTL2    -0.180000       12.0110           0
     25253 MEMB     203      PMPE     H6X      HAL2     0.900000E-01   1.00800           0
     25254 MEMB     203      PMPE     H6Y      HAL2     0.900000E-01   1.00800           0
     25255 MEMB     203      PMPE     C37      CTL2    -0.180000       12.0110           0
     25256 MEMB     203      PMPE     H7X      HAL2     0.900000E-01   1.00800           0
     25257 MEMB     203      PMPE     H7Y      HAL2     0.900000E-01   1.00800           0
     25258 MEMB     203      PMPE     C38      CTL2    -0.180000       12.0110           0
     25259 MEMB     203      PMPE     H8X      HAL2     0.900000E-01   1.00800           0
     25260 MEMB     203      PMPE     H8Y      HAL2     0.900000E-01   1.00800           0
     25261 MEMB     203      PMPE     C39      CTL2    -0.180000       12.0110           0
     25262 MEMB     203      PMPE     H9X      HAL2     0.900000E-01   1.00800           0
     25263 MEMB     203      PMPE     H9Y      HAL2     0.900000E-01   1.00800           0
     25264 MEMB     203      PMPE     C310     CTL2    -0.180000       12.0110           0
     25265 MEMB     203      PMPE     H10X     HAL2     0.900000E-01   1.00800           0
     25266 MEMB     203      PMPE     H10Y     HAL2     0.900000E-01   1.00800           0
     25267 MEMB     203      PMPE     C311     CTL2    -0.180000       12.0110           0
     25268 MEMB     203      PMPE     H11X     HAL2     0.900000E-01   1.00800           0
     25269 MEMB     203      PMPE     H11Y     HAL2     0.900000E-01   1.00800           0
     25270 MEMB     203      PMPE     C312     CTL2    -0.180000       12.0110           0
     25271 MEMB     203      PMPE     H12X     HAL2     0.900000E-01   1.00800           0
     25272 MEMB     203      PMPE     H12Y     HAL2     0.900000E-01   1.00800           0
     25273 MEMB     203      PMPE     C313     CTL2    -0.180000       12.0110           0
     25274 MEMB     203      PMPE     H13X     HAL2     0.900000E-01   1.00800           0
     25275 MEMB     203      PMPE     H13Y     HAL2     0.900000E-01   1.00800           0
     25276 MEMB     203      PMPE     C314     CTL2    -0.180000       12.0110           0
     25277 MEMB     203      PMPE     H14X     HAL2     0.900000E-01   1.00800           0
     25278 MEMB     203      PMPE     H14Y     HAL2     0.900000E-01   1.00800           0
     25279 MEMB     203      PMPE     C315     CTL2    -0.180000       12.0110           0
     25280 MEMB     203      PMPE     H15X     HAL2     0.900000E-01   1.00800           0
     25281 MEMB     203      PMPE     H15Y     HAL2     0.900000E-01   1.00800           0
     25282 MEMB     203      PMPE     C316     CTL3    -0.270000       12.0110           0
     25283 MEMB     203      PMPE     H16X     HAL3     0.900000E-01   1.00800           0
     25284 MEMB     203      PMPE     H16Y     HAL3     0.900000E-01   1.00800           0
     25285 MEMB     203      PMPE     H16Z     HAL3     0.900000E-01   1.00800           0
     25286 MEMB     204      PMPE     N        NH3L    -0.300000       14.0070           0
     25287 MEMB     204      PMPE     HN1      HCL      0.330000       1.00800           0
     25288 MEMB     204      PMPE     HN2      HCL      0.330000       1.00800           0
     25289 MEMB     204      PMPE     HN3      HCL      0.330000       1.00800           0
     25290 MEMB     204      PMPE     C12      CTL2     0.130000       12.0110           0
     25291 MEMB     204      PMPE     H12A     HAL2     0.900000E-01   1.00800           0
     25292 MEMB     204      PMPE     H12B     HAL2     0.900000E-01   1.00800           0
     25293 MEMB     204      PMPE     C11      CTL2    -0.800000E-01   12.0110           0
     25294 MEMB     204      PMPE     H11A     HAL2     0.900000E-01   1.00800           0
     25295 MEMB     204      PMPE     H11B     HAL2     0.900000E-01   1.00800           0
     25296 MEMB     204      PMPE     P        PL        1.50000       30.9740           0
     25297 MEMB     204      PMPE     O13      O2L     -0.780000       15.9994           0
     25298 MEMB     204      PMPE     O14      O2L     -0.780000       15.9994           0
     25299 MEMB     204      PMPE     O11      OSLP    -0.570000       15.9994           0
     25300 MEMB     204      PMPE     O12      OSLP    -0.570000       15.9994           0
     25301 MEMB     204      PMPE     C1       CTL2    -0.800000E-01   12.0110           0
     25302 MEMB     204      PMPE     HA       HAL2     0.900000E-01   1.00800           0
     25303 MEMB     204      PMPE     HB       HAL2     0.900000E-01   1.00800           0
     25304 MEMB     204      PMPE     C2       CTL1     0.170000       12.0110           0
     25305 MEMB     204      PMPE     HS       HAL1     0.900000E-01   1.00800           0
     25306 MEMB     204      PMPE     O21      OSL     -0.490000       15.9994           0
     25307 MEMB     204      PMPE     C21      CL       0.900000       12.0110           0
     25308 MEMB     204      PMPE     O22      OBL     -0.630000       15.9994           0
     25309 MEMB     204      PMPE     C22      CTL2    -0.220000       12.0110           0
     25310 MEMB     204      PMPE     H2R      HAL2     0.900000E-01   1.00800           0
     25311 MEMB     204      PMPE     H2S      HAL2     0.900000E-01   1.00800           0
     25312 MEMB     204      PMPE     C3       CTL2     0.800000E-01   12.0110           0
     25313 MEMB     204      PMPE     HX       HAL2     0.900000E-01   1.00800           0
     25314 MEMB     204      PMPE     HY       HAL2     0.900000E-01   1.00800           0
     25315 MEMB     204      PMPE     O31      OSL     -0.490000       15.9994           0
     25316 MEMB     204      PMPE     C31      CL       0.900000       12.0110           0
     25317 MEMB     204      PMPE     O32      OBL     -0.630000       15.9994           0
     25318 MEMB     204      PMPE     C32      CTL2    -0.220000       12.0110           0
     25319 MEMB     204      PMPE     H2X      HAL2     0.900000E-01   1.00800           0
     25320 MEMB     204      PMPE     H2Y      HAL2     0.900000E-01   1.00800           0
     25321 MEMB     204      PMPE     C23      CTL2    -0.180000       12.0110           0
     25322 MEMB     204      PMPE     H3R      HAL2     0.900000E-01   1.00800           0
     25323 MEMB     204      PMPE     H3S      HAL2     0.900000E-01   1.00800           0
     25324 MEMB     204      PMPE     C24      CTL2    -0.180000       12.0110           0
     25325 MEMB     204      PMPE     H4R      HAL2     0.900000E-01   1.00800           0
     25326 MEMB     204      PMPE     H4S      HAL2     0.900000E-01   1.00800           0
     25327 MEMB     204      PMPE     C25      CTL2    -0.180000       12.0110           0
     25328 MEMB     204      PMPE     H5R      HAL2     0.900000E-01   1.00800           0
     25329 MEMB     204      PMPE     H5S      HAL2     0.900000E-01   1.00800           0
     25330 MEMB     204      PMPE     C26      CTL2    -0.180000       12.0110           0
     25331 MEMB     204      PMPE     H6R      HAL2     0.900000E-01   1.00800           0
     25332 MEMB     204      PMPE     H6S      HAL2     0.900000E-01   1.00800           0
     25333 MEMB     204      PMPE     C27      CTL2    -0.180000       12.0110           0
     25334 MEMB     204      PMPE     H7R      HAL2     0.900000E-01   1.00800           0
     25335 MEMB     204      PMPE     H7S      HAL2     0.900000E-01   1.00800           0
     25336 MEMB     204      PMPE     C28      CTL2    -0.180000       12.0110           0
     25337 MEMB     204      PMPE     H8R      HAL2     0.900000E-01   1.00800           0
     25338 MEMB     204      PMPE     H8S      HAL2     0.900000E-01   1.00800           0
     25339 MEMB     204      PMPE     C29      CG3RC1  -0.900000E-01   12.0110           0
     25340 MEMB     204      PMPE     H9R      HGA1     0.900000E-01   1.00800           0
     25341 MEMB     204      PMPE     C217     CG3C31  -0.180000       12.0110           0
     25342 MEMB     204      PMPE     H17R     HGA2     0.900000E-01   1.00800           0
     25343 MEMB     204      PMPE     H17S     HGA2     0.900000E-01   1.00800           0
     25344 MEMB     204      PMPE     C210     CG3RC1  -0.900000E-01   12.0110           0
     25345 MEMB     204      PMPE     H10R     HGA1     0.900000E-01   1.00800           0
     25346 MEMB     204      PMPE     C211     CTL2    -0.180000       12.0110           0
     25347 MEMB     204      PMPE     H11R     HAL2     0.900000E-01   1.00800           0
     25348 MEMB     204      PMPE     H11S     HAL2     0.900000E-01   1.00800           0
     25349 MEMB     204      PMPE     C212     CTL2    -0.180000       12.0110           0
     25350 MEMB     204      PMPE     H12R     HAL2     0.900000E-01   1.00800           0
     25351 MEMB     204      PMPE     H12S     HAL2     0.900000E-01   1.00800           0
     25352 MEMB     204      PMPE     C213     CTL2    -0.180000       12.0110           0
     25353 MEMB     204      PMPE     H13R     HAL2     0.900000E-01   1.00800           0
     25354 MEMB     204      PMPE     H13S     HAL2     0.900000E-01   1.00800           0
     25355 MEMB     204      PMPE     C214     CTL2    -0.180000       12.0110           0
     25356 MEMB     204      PMPE     H14R     HAL2     0.900000E-01   1.00800           0
     25357 MEMB     204      PMPE     H14S     HAL2     0.900000E-01   1.00800           0
     25358 MEMB     204      PMPE     C215     CTL2    -0.180000       12.0110           0
     25359 MEMB     204      PMPE     H15R     HAL2     0.900000E-01   1.00800           0
     25360 MEMB     204      PMPE     H15S     HAL2     0.900000E-01   1.00800           0
     25361 MEMB     204      PMPE     C216     CTL3    -0.270000       12.0110           0
     25362 MEMB     204      PMPE     H16R     HAL3     0.900000E-01   1.00800           0
     25363 MEMB     204      PMPE     H16S     HAL3     0.900000E-01   1.00800           0
     25364 MEMB     204      PMPE     H16T     HAL3     0.900000E-01   1.00800           0
     25365 MEMB     204      PMPE     C33      CTL2    -0.180000       12.0110           0
     25366 MEMB     204      PMPE     H3X      HAL2     0.900000E-01   1.00800           0
     25367 MEMB     204      PMPE     H3Y      HAL2     0.900000E-01   1.00800           0
     25368 MEMB     204      PMPE     C34      CTL2    -0.180000       12.0110           0
     25369 MEMB     204      PMPE     H4X      HAL2     0.900000E-01   1.00800           0
     25370 MEMB     204      PMPE     H4Y      HAL2     0.900000E-01   1.00800           0
     25371 MEMB     204      PMPE     C35      CTL2    -0.180000       12.0110           0
     25372 MEMB     204      PMPE     H5X      HAL2     0.900000E-01   1.00800           0
     25373 MEMB     204      PMPE     H5Y      HAL2     0.900000E-01   1.00800           0
     25374 MEMB     204      PMPE     C36      CTL2    -0.180000       12.0110           0
     25375 MEMB     204      PMPE     H6X      HAL2     0.900000E-01   1.00800           0
     25376 MEMB     204      PMPE     H6Y      HAL2     0.900000E-01   1.00800           0
     25377 MEMB     204      PMPE     C37      CTL2    -0.180000       12.0110           0
     25378 MEMB     204      PMPE     H7X      HAL2     0.900000E-01   1.00800           0
     25379 MEMB     204      PMPE     H7Y      HAL2     0.900000E-01   1.00800           0
     25380 MEMB     204      PMPE     C38      CTL2    -0.180000       12.0110           0
     25381 MEMB     204      PMPE     H8X      HAL2     0.900000E-01   1.00800           0
     25382 MEMB     204      PMPE     H8Y      HAL2     0.900000E-01   1.00800           0
     25383 MEMB     204      PMPE     C39      CTL2    -0.180000       12.0110           0
     25384 MEMB     204      PMPE     H9X      HAL2     0.900000E-01   1.00800           0
     25385 MEMB     204      PMPE     H9Y      HAL2     0.900000E-01   1.00800           0
     25386 MEMB     204      PMPE     C310     CTL2    -0.180000       12.0110           0
     25387 MEMB     204      PMPE     H10X     HAL2     0.900000E-01   1.00800           0
     25388 MEMB     204      PMPE     H10Y     HAL2     0.900000E-01   1.00800           0
     25389 MEMB     204      PMPE     C311     CTL2    -0.180000       12.0110           0
     25390 MEMB     204      PMPE     H11X     HAL2     0.900000E-01   1.00800           0
     25391 MEMB     204      PMPE     H11Y     HAL2     0.900000E-01   1.00800           0
     25392 MEMB     204      PMPE     C312     CTL2    -0.180000       12.0110           0
     25393 MEMB     204      PMPE     H12X     HAL2     0.900000E-01   1.00800           0
     25394 MEMB     204      PMPE     H12Y     HAL2     0.900000E-01   1.00800           0
     25395 MEMB     204      PMPE     C313     CTL2    -0.180000       12.0110           0
     25396 MEMB     204      PMPE     H13X     HAL2     0.900000E-01   1.00800           0
     25397 MEMB     204      PMPE     H13Y     HAL2     0.900000E-01   1.00800           0
     25398 MEMB     204      PMPE     C314     CTL2    -0.180000       12.0110           0
     25399 MEMB     204      PMPE     H14X     HAL2     0.900000E-01   1.00800           0
     25400 MEMB     204      PMPE     H14Y     HAL2     0.900000E-01   1.00800           0
     25401 MEMB     204      PMPE     C315     CTL2    -0.180000       12.0110           0
     25402 MEMB     204      PMPE     H15X     HAL2     0.900000E-01   1.00800           0
     25403 MEMB     204      PMPE     H15Y     HAL2     0.900000E-01   1.00800           0
     25404 MEMB     204      PMPE     C316     CTL3    -0.270000       12.0110           0
     25405 MEMB     204      PMPE     H16X     HAL3     0.900000E-01   1.00800           0
     25406 MEMB     204      PMPE     H16Y     HAL3     0.900000E-01   1.00800           0
     25407 MEMB     204      PMPE     H16Z     HAL3     0.900000E-01   1.00800           0
     25408 MEMB     205      PMPG     C13      CTL2     0.500000E-01   12.0110           0
     25409 MEMB     205      PMPG     H13A     HAL2     0.900000E-01   1.00800           0
     25410 MEMB     205      PMPG     H13B     HAL2     0.900000E-01   1.00800           0
     25411 MEMB     205      PMPG     OC3      OHL     -0.660000       15.9994           0
     25412 MEMB     205      PMPG     HO3      HOL      0.430000       1.00800           0
     25413 MEMB     205      PMPG     C12      CTL1     0.140000       12.0110           0
     25414 MEMB     205      PMPG     H12A     HAL1     0.900000E-01   1.00800           0
     25415 MEMB     205      PMPG     OC2      OHL     -0.660000       15.9994           0
     25416 MEMB     205      PMPG     HO2      HOL      0.430000       1.00800           0
     25417 MEMB     205      PMPG     C11      CTL2    -0.800000E-01   12.0110           0
     25418 MEMB     205      PMPG     H11A     HAL2     0.900000E-01   1.00800           0
     25419 MEMB     205      PMPG     H11B     HAL2     0.900000E-01   1.00800           0
     25420 MEMB     205      PMPG     P        PL        1.50000       30.9740           0
     25421 MEMB     205      PMPG     O13      O2L     -0.780000       15.9994           0
     25422 MEMB     205      PMPG     O14      O2L     -0.780000       15.9994           0
     25423 MEMB     205      PMPG     O11      OSLP    -0.570000       15.9994           0
     25424 MEMB     205      PMPG     O12      OSLP    -0.570000       15.9994           0
     25425 MEMB     205      PMPG     C1       CTL2    -0.800000E-01   12.0110           0
     25426 MEMB     205      PMPG     HA       HAL2     0.900000E-01   1.00800           0
     25427 MEMB     205      PMPG     HB       HAL2     0.900000E-01   1.00800           0
     25428 MEMB     205      PMPG     C2       CTL1     0.170000       12.0110           0
     25429 MEMB     205      PMPG     HS       HAL1     0.900000E-01   1.00800           0
     25430 MEMB     205      PMPG     O21      OSL     -0.490000       15.9994           0
     25431 MEMB     205      PMPG     C21      CL       0.900000       12.0110           0
     25432 MEMB     205      PMPG     O22      OBL     -0.630000       15.9994           0
     25433 MEMB     205      PMPG     C22      CTL2    -0.220000       12.0110           0
     25434 MEMB     205      PMPG     H2R      HAL2     0.900000E-01   1.00800           0
     25435 MEMB     205      PMPG     H2S      HAL2     0.900000E-01   1.00800           0
     25436 MEMB     205      PMPG     C3       CTL2     0.800000E-01   12.0110           0
     25437 MEMB     205      PMPG     HX       HAL2     0.900000E-01   1.00800           0
     25438 MEMB     205      PMPG     HY       HAL2     0.900000E-01   1.00800           0
     25439 MEMB     205      PMPG     O31      OSL     -0.490000       15.9994           0
     25440 MEMB     205      PMPG     C31      CL       0.900000       12.0110           0
     25441 MEMB     205      PMPG     O32      OBL     -0.630000       15.9994           0
     25442 MEMB     205      PMPG     C32      CTL2    -0.220000       12.0110           0
     25443 MEMB     205      PMPG     H2X      HAL2     0.900000E-01   1.00800           0
     25444 MEMB     205      PMPG     H2Y      HAL2     0.900000E-01   1.00800           0
     25445 MEMB     205      PMPG     C23      CTL2    -0.180000       12.0110           0
     25446 MEMB     205      PMPG     H3R      HAL2     0.900000E-01   1.00800           0
     25447 MEMB     205      PMPG     H3S      HAL2     0.900000E-01   1.00800           0
     25448 MEMB     205      PMPG     C24      CTL2    -0.180000       12.0110           0
     25449 MEMB     205      PMPG     H4R      HAL2     0.900000E-01   1.00800           0
     25450 MEMB     205      PMPG     H4S      HAL2     0.900000E-01   1.00800           0
     25451 MEMB     205      PMPG     C25      CTL2    -0.180000       12.0110           0
     25452 MEMB     205      PMPG     H5R      HAL2     0.900000E-01   1.00800           0
     25453 MEMB     205      PMPG     H5S      HAL2     0.900000E-01   1.00800           0
     25454 MEMB     205      PMPG     C26      CTL2    -0.180000       12.0110           0
     25455 MEMB     205      PMPG     H6R      HAL2     0.900000E-01   1.00800           0
     25456 MEMB     205      PMPG     H6S      HAL2     0.900000E-01   1.00800           0
     25457 MEMB     205      PMPG     C27      CTL2    -0.180000       12.0110           0
     25458 MEMB     205      PMPG     H7R      HAL2     0.900000E-01   1.00800           0
     25459 MEMB     205      PMPG     H7S      HAL2     0.900000E-01   1.00800           0
     25460 MEMB     205      PMPG     C28      CTL2    -0.180000       12.0110           0
     25461 MEMB     205      PMPG     H8R      HAL2     0.900000E-01   1.00800           0
     25462 MEMB     205      PMPG     H8S      HAL2     0.900000E-01   1.00800           0
     25463 MEMB     205      PMPG     C29      CG3RC1  -0.900000E-01   12.0110           0
     25464 MEMB     205      PMPG     H9R      HGA1     0.900000E-01   1.00800           0
     25465 MEMB     205      PMPG     C217     CG3C31  -0.180000       12.0110           0
     25466 MEMB     205      PMPG     H17R     HGA2     0.900000E-01   1.00800           0
     25467 MEMB     205      PMPG     H17S     HGA2     0.900000E-01   1.00800           0
     25468 MEMB     205      PMPG     C210     CG3RC1  -0.900000E-01   12.0110           0
     25469 MEMB     205      PMPG     H10R     HGA1     0.900000E-01   1.00800           0
     25470 MEMB     205      PMPG     C211     CTL2    -0.180000       12.0110           0
     25471 MEMB     205      PMPG     H11R     HAL2     0.900000E-01   1.00800           0
     25472 MEMB     205      PMPG     H11S     HAL2     0.900000E-01   1.00800           0
     25473 MEMB     205      PMPG     C212     CTL2    -0.180000       12.0110           0
     25474 MEMB     205      PMPG     H12R     HAL2     0.900000E-01   1.00800           0
     25475 MEMB     205      PMPG     H12S     HAL2     0.900000E-01   1.00800           0
     25476 MEMB     205      PMPG     C213     CTL2    -0.180000       12.0110           0
     25477 MEMB     205      PMPG     H13R     HAL2     0.900000E-01   1.00800           0
     25478 MEMB     205      PMPG     H13S     HAL2     0.900000E-01   1.00800           0
     25479 MEMB     205      PMPG     C214     CTL2    -0.180000       12.0110           0
     25480 MEMB     205      PMPG     H14R     HAL2     0.900000E-01   1.00800           0
     25481 MEMB     205      PMPG     H14S     HAL2     0.900000E-01   1.00800           0
     25482 MEMB     205      PMPG     C215     CTL2    -0.180000       12.0110           0
     25483 MEMB     205      PMPG     H15R     HAL2     0.900000E-01   1.00800           0
     25484 MEMB     205      PMPG     H15S     HAL2     0.900000E-01   1.00800           0
     25485 MEMB     205      PMPG     C216     CTL3    -0.270000       12.0110           0
     25486 MEMB     205      PMPG     H16R     HAL3     0.900000E-01   1.00800           0
     25487 MEMB     205      PMPG     H16S     HAL3     0.900000E-01   1.00800           0
     25488 MEMB     205      PMPG     H16T     HAL3     0.900000E-01   1.00800           0
     25489 MEMB     205      PMPG     C33      CTL2    -0.180000       12.0110           0
     25490 MEMB     205      PMPG     H3X      HAL2     0.900000E-01   1.00800           0
     25491 MEMB     205      PMPG     H3Y      HAL2     0.900000E-01   1.00800           0
     25492 MEMB     205      PMPG     C34      CTL2    -0.180000       12.0110           0
     25493 MEMB     205      PMPG     H4X      HAL2     0.900000E-01   1.00800           0
     25494 MEMB     205      PMPG     H4Y      HAL2     0.900000E-01   1.00800           0
     25495 MEMB     205      PMPG     C35      CTL2    -0.180000       12.0110           0
     25496 MEMB     205      PMPG     H5X      HAL2     0.900000E-01   1.00800           0
     25497 MEMB     205      PMPG     H5Y      HAL2     0.900000E-01   1.00800           0
     25498 MEMB     205      PMPG     C36      CTL2    -0.180000       12.0110           0
     25499 MEMB     205      PMPG     H6X      HAL2     0.900000E-01   1.00800           0
     25500 MEMB     205      PMPG     H6Y      HAL2     0.900000E-01   1.00800           0
     25501 MEMB     205      PMPG     C37      CTL2    -0.180000       12.0110           0
     25502 MEMB     205      PMPG     H7X      HAL2     0.900000E-01   1.00800           0
     25503 MEMB     205      PMPG     H7Y      HAL2     0.900000E-01   1.00800           0
     25504 MEMB     205      PMPG     C38      CTL2    -0.180000       12.0110           0
     25505 MEMB     205      PMPG     H8X      HAL2     0.900000E-01   1.00800           0
     25506 MEMB     205      PMPG     H8Y      HAL2     0.900000E-01   1.00800           0
     25507 MEMB     205      PMPG     C39      CTL2    -0.180000       12.0110           0
     25508 MEMB     205      PMPG     H9X      HAL2     0.900000E-01   1.00800           0
     25509 MEMB     205      PMPG     H9Y      HAL2     0.900000E-01   1.00800           0
     25510 MEMB     205      PMPG     C310     CTL2    -0.180000       12.0110           0
     25511 MEMB     205      PMPG     H10X     HAL2     0.900000E-01   1.00800           0
     25512 MEMB     205      PMPG     H10Y     HAL2     0.900000E-01   1.00800           0
     25513 MEMB     205      PMPG     C311     CTL2    -0.180000       12.0110           0
     25514 MEMB     205      PMPG     H11X     HAL2     0.900000E-01   1.00800           0
     25515 MEMB     205      PMPG     H11Y     HAL2     0.900000E-01   1.00800           0
     25516 MEMB     205      PMPG     C312     CTL2    -0.180000       12.0110           0
     25517 MEMB     205      PMPG     H12X     HAL2     0.900000E-01   1.00800           0
     25518 MEMB     205      PMPG     H12Y     HAL2     0.900000E-01   1.00800           0
     25519 MEMB     205      PMPG     C313     CTL2    -0.180000       12.0110           0
     25520 MEMB     205      PMPG     H13X     HAL2     0.900000E-01   1.00800           0
     25521 MEMB     205      PMPG     H13Y     HAL2     0.900000E-01   1.00800           0
     25522 MEMB     205      PMPG     C314     CTL2    -0.180000       12.0110           0
     25523 MEMB     205      PMPG     H14X     HAL2     0.900000E-01   1.00800           0
     25524 MEMB     205      PMPG     H14Y     HAL2     0.900000E-01   1.00800           0
     25525 MEMB     205      PMPG     C315     CTL2    -0.180000       12.0110           0
     25526 MEMB     205      PMPG     H15X     HAL2     0.900000E-01   1.00800           0
     25527 MEMB     205      PMPG     H15Y     HAL2     0.900000E-01   1.00800           0
     25528 MEMB     205      PMPG     C316     CTL3    -0.270000       12.0110           0
     25529 MEMB     205      PMPG     H16X     HAL3     0.900000E-01   1.00800           0
     25530 MEMB     205      PMPG     H16Y     HAL3     0.900000E-01   1.00800           0
     25531 MEMB     205      PMPG     H16Z     HAL3     0.900000E-01   1.00800           0
     25532 MEMB     206      PMPG     C13      CTL2     0.500000E-01   12.0110           0
     25533 MEMB     206      PMPG     H13A     HAL2     0.900000E-01   1.00800           0
     25534 MEMB     206      PMPG     H13B     HAL2     0.900000E-01   1.00800           0
     25535 MEMB     206      PMPG     OC3      OHL     -0.660000       15.9994           0
     25536 MEMB     206      PMPG     HO3      HOL      0.430000       1.00800           0
     25537 MEMB     206      PMPG     C12      CTL1     0.140000       12.0110           0
     25538 MEMB     206      PMPG     H12A     HAL1     0.900000E-01   1.00800           0
     25539 MEMB     206      PMPG     OC2      OHL     -0.660000       15.9994           0
     25540 MEMB     206      PMPG     HO2      HOL      0.430000       1.00800           0
     25541 MEMB     206      PMPG     C11      CTL2    -0.800000E-01   12.0110           0
     25542 MEMB     206      PMPG     H11A     HAL2     0.900000E-01   1.00800           0
     25543 MEMB     206      PMPG     H11B     HAL2     0.900000E-01   1.00800           0
     25544 MEMB     206      PMPG     P        PL        1.50000       30.9740           0
     25545 MEMB     206      PMPG     O13      O2L     -0.780000       15.9994           0
     25546 MEMB     206      PMPG     O14      O2L     -0.780000       15.9994           0
     25547 MEMB     206      PMPG     O11      OSLP    -0.570000       15.9994           0
     25548 MEMB     206      PMPG     O12      OSLP    -0.570000       15.9994           0
     25549 MEMB     206      PMPG     C1       CTL2    -0.800000E-01   12.0110           0
     25550 MEMB     206      PMPG     HA       HAL2     0.900000E-01   1.00800           0
     25551 MEMB     206      PMPG     HB       HAL2     0.900000E-01   1.00800           0
     25552 MEMB     206      PMPG     C2       CTL1     0.170000       12.0110           0
     25553 MEMB     206      PMPG     HS       HAL1     0.900000E-01   1.00800           0
     25554 MEMB     206      PMPG     O21      OSL     -0.490000       15.9994           0
     25555 MEMB     206      PMPG     C21      CL       0.900000       12.0110           0
     25556 MEMB     206      PMPG     O22      OBL     -0.630000       15.9994           0
     25557 MEMB     206      PMPG     C22      CTL2    -0.220000       12.0110           0
     25558 MEMB     206      PMPG     H2R      HAL2     0.900000E-01   1.00800           0
     25559 MEMB     206      PMPG     H2S      HAL2     0.900000E-01   1.00800           0
     25560 MEMB     206      PMPG     C3       CTL2     0.800000E-01   12.0110           0
     25561 MEMB     206      PMPG     HX       HAL2     0.900000E-01   1.00800           0
     25562 MEMB     206      PMPG     HY       HAL2     0.900000E-01   1.00800           0
     25563 MEMB     206      PMPG     O31      OSL     -0.490000       15.9994           0
     25564 MEMB     206      PMPG     C31      CL       0.900000       12.0110           0
     25565 MEMB     206      PMPG     O32      OBL     -0.630000       15.9994           0
     25566 MEMB     206      PMPG     C32      CTL2    -0.220000       12.0110           0
     25567 MEMB     206      PMPG     H2X      HAL2     0.900000E-01   1.00800           0
     25568 MEMB     206      PMPG     H2Y      HAL2     0.900000E-01   1.00800           0
     25569 MEMB     206      PMPG     C23      CTL2    -0.180000       12.0110           0
     25570 MEMB     206      PMPG     H3R      HAL2     0.900000E-01   1.00800           0
     25571 MEMB     206      PMPG     H3S      HAL2     0.900000E-01   1.00800           0
     25572 MEMB     206      PMPG     C24      CTL2    -0.180000       12.0110           0
     25573 MEMB     206      PMPG     H4R      HAL2     0.900000E-01   1.00800           0
     25574 MEMB     206      PMPG     H4S      HAL2     0.900000E-01   1.00800           0
     25575 MEMB     206      PMPG     C25      CTL2    -0.180000       12.0110           0
     25576 MEMB     206      PMPG     H5R      HAL2     0.900000E-01   1.00800           0
     25577 MEMB     206      PMPG     H5S      HAL2     0.900000E-01   1.00800           0
     25578 MEMB     206      PMPG     C26      CTL2    -0.180000       12.0110           0
     25579 MEMB     206      PMPG     H6R      HAL2     0.900000E-01   1.00800           0
     25580 MEMB     206      PMPG     H6S      HAL2     0.900000E-01   1.00800           0
     25581 MEMB     206      PMPG     C27      CTL2    -0.180000       12.0110           0
     25582 MEMB     206      PMPG     H7R      HAL2     0.900000E-01   1.00800           0
     25583 MEMB     206      PMPG     H7S      HAL2     0.900000E-01   1.00800           0
     25584 MEMB     206      PMPG     C28      CTL2    -0.180000       12.0110           0
     25585 MEMB     206      PMPG     H8R      HAL2     0.900000E-01   1.00800           0
     25586 MEMB     206      PMPG     H8S      HAL2     0.900000E-01   1.00800           0
     25587 MEMB     206      PMPG     C29      CG3RC1  -0.900000E-01   12.0110           0
     25588 MEMB     206      PMPG     H9R      HGA1     0.900000E-01   1.00800           0
     25589 MEMB     206      PMPG     C217     CG3C31  -0.180000       12.0110           0
     25590 MEMB     206      PMPG     H17R     HGA2     0.900000E-01   1.00800           0
     25591 MEMB     206      PMPG     H17S     HGA2     0.900000E-01   1.00800           0
     25592 MEMB     206      PMPG     C210     CG3RC1  -0.900000E-01   12.0110           0
     25593 MEMB     206      PMPG     H10R     HGA1     0.900000E-01   1.00800           0
     25594 MEMB     206      PMPG     C211     CTL2    -0.180000       12.0110           0
     25595 MEMB     206      PMPG     H11R     HAL2     0.900000E-01   1.00800           0
     25596 MEMB     206      PMPG     H11S     HAL2     0.900000E-01   1.00800           0
     25597 MEMB     206      PMPG     C212     CTL2    -0.180000       12.0110           0
     25598 MEMB     206      PMPG     H12R     HAL2     0.900000E-01   1.00800           0
     25599 MEMB     206      PMPG     H12S     HAL2     0.900000E-01   1.00800           0
     25600 MEMB     206      PMPG     C213     CTL2    -0.180000       12.0110           0
     25601 MEMB     206      PMPG     H13R     HAL2     0.900000E-01   1.00800           0
     25602 MEMB     206      PMPG     H13S     HAL2     0.900000E-01   1.00800           0
     25603 MEMB     206      PMPG     C214     CTL2    -0.180000       12.0110           0
     25604 MEMB     206      PMPG     H14R     HAL2     0.900000E-01   1.00800           0
     25605 MEMB     206      PMPG     H14S     HAL2     0.900000E-01   1.00800           0
     25606 MEMB     206      PMPG     C215     CTL2    -0.180000       12.0110           0
     25607 MEMB     206      PMPG     H15R     HAL2     0.900000E-01   1.00800           0
     25608 MEMB     206      PMPG     H15S     HAL2     0.900000E-01   1.00800           0
     25609 MEMB     206      PMPG     C216     CTL3    -0.270000       12.0110           0
     25610 MEMB     206      PMPG     H16R     HAL3     0.900000E-01   1.00800           0
     25611 MEMB     206      PMPG     H16S     HAL3     0.900000E-01   1.00800           0
     25612 MEMB     206      PMPG     H16T     HAL3     0.900000E-01   1.00800           0
     25613 MEMB     206      PMPG     C33      CTL2    -0.180000       12.0110           0
     25614 MEMB     206      PMPG     H3X      HAL2     0.900000E-01   1.00800           0
     25615 MEMB     206      PMPG     H3Y      HAL2     0.900000E-01   1.00800           0
     25616 MEMB     206      PMPG     C34      CTL2    -0.180000       12.0110           0
     25617 MEMB     206      PMPG     H4X      HAL2     0.900000E-01   1.00800           0
     25618 MEMB     206      PMPG     H4Y      HAL2     0.900000E-01   1.00800           0
     25619 MEMB     206      PMPG     C35      CTL2    -0.180000       12.0110           0
     25620 MEMB     206      PMPG     H5X      HAL2     0.900000E-01   1.00800           0
     25621 MEMB     206      PMPG     H5Y      HAL2     0.900000E-01   1.00800           0
     25622 MEMB     206      PMPG     C36      CTL2    -0.180000       12.0110           0
     25623 MEMB     206      PMPG     H6X      HAL2     0.900000E-01   1.00800           0
     25624 MEMB     206      PMPG     H6Y      HAL2     0.900000E-01   1.00800           0
     25625 MEMB     206      PMPG     C37      CTL2    -0.180000       12.0110           0
     25626 MEMB     206      PMPG     H7X      HAL2     0.900000E-01   1.00800           0
     25627 MEMB     206      PMPG     H7Y      HAL2     0.900000E-01   1.00800           0
     25628 MEMB     206      PMPG     C38      CTL2    -0.180000       12.0110           0
     25629 MEMB     206      PMPG     H8X      HAL2     0.900000E-01   1.00800           0
     25630 MEMB     206      PMPG     H8Y      HAL2     0.900000E-01   1.00800           0
     25631 MEMB     206      PMPG     C39      CTL2    -0.180000       12.0110           0
     25632 MEMB     206      PMPG     H9X      HAL2     0.900000E-01   1.00800           0
     25633 MEMB     206      PMPG     H9Y      HAL2     0.900000E-01   1.00800           0
     25634 MEMB     206      PMPG     C310     CTL2    -0.180000       12.0110           0
     25635 MEMB     206      PMPG     H10X     HAL2     0.900000E-01   1.00800           0
     25636 MEMB     206      PMPG     H10Y     HAL2     0.900000E-01   1.00800           0
     25637 MEMB     206      PMPG     C311     CTL2    -0.180000       12.0110           0
     25638 MEMB     206      PMPG     H11X     HAL2     0.900000E-01   1.00800           0
     25639 MEMB     206      PMPG     H11Y     HAL2     0.900000E-01   1.00800           0
     25640 MEMB     206      PMPG     C312     CTL2    -0.180000       12.0110           0
     25641 MEMB     206      PMPG     H12X     HAL2     0.900000E-01   1.00800           0
     25642 MEMB     206      PMPG     H12Y     HAL2     0.900000E-01   1.00800           0
     25643 MEMB     206      PMPG     C313     CTL2    -0.180000       12.0110           0
     25644 MEMB     206      PMPG     H13X     HAL2     0.900000E-01   1.00800           0
     25645 MEMB     206      PMPG     H13Y     HAL2     0.900000E-01   1.00800           0
     25646 MEMB     206      PMPG     C314     CTL2    -0.180000       12.0110           0
     25647 MEMB     206      PMPG     H14X     HAL2     0.900000E-01   1.00800           0
     25648 MEMB     206      PMPG     H14Y     HAL2     0.900000E-01   1.00800           0
     25649 MEMB     206      PMPG     C315     CTL2    -0.180000       12.0110           0
     25650 MEMB     206      PMPG     H15X     HAL2     0.900000E-01   1.00800           0
     25651 MEMB     206      PMPG     H15Y     HAL2     0.900000E-01   1.00800           0
     25652 MEMB     206      PMPG     C316     CTL3    -0.270000       12.0110           0
     25653 MEMB     206      PMPG     H16X     HAL3     0.900000E-01   1.00800           0
     25654 MEMB     206      PMPG     H16Y     HAL3     0.900000E-01   1.00800           0
     25655 MEMB     206      PMPG     H16Z     HAL3     0.900000E-01   1.00800           0
     25656 MEMB     207      PMPE     N        NH3L    -0.300000       14.0070           0
     25657 MEMB     207      PMPE     HN1      HCL      0.330000       1.00800           0
     25658 MEMB     207      PMPE     HN2      HCL      0.330000       1.00800           0
     25659 MEMB     207      PMPE     HN3      HCL      0.330000       1.00800           0
     25660 MEMB     207      PMPE     C12      CTL2     0.130000       12.0110           0
     25661 MEMB     207      PMPE     H12A     HAL2     0.900000E-01   1.00800           0
     25662 MEMB     207      PMPE     H12B     HAL2     0.900000E-01   1.00800           0
     25663 MEMB     207      PMPE     C11      CTL2    -0.800000E-01   12.0110           0
     25664 MEMB     207      PMPE     H11A     HAL2     0.900000E-01   1.00800           0
     25665 MEMB     207      PMPE     H11B     HAL2     0.900000E-01   1.00800           0
     25666 MEMB     207      PMPE     P        PL        1.50000       30.9740           0
     25667 MEMB     207      PMPE     O13      O2L     -0.780000       15.9994           0
     25668 MEMB     207      PMPE     O14      O2L     -0.780000       15.9994           0
     25669 MEMB     207      PMPE     O11      OSLP    -0.570000       15.9994           0
     25670 MEMB     207      PMPE     O12      OSLP    -0.570000       15.9994           0
     25671 MEMB     207      PMPE     C1       CTL2    -0.800000E-01   12.0110           0
     25672 MEMB     207      PMPE     HA       HAL2     0.900000E-01   1.00800           0
     25673 MEMB     207      PMPE     HB       HAL2     0.900000E-01   1.00800           0
     25674 MEMB     207      PMPE     C2       CTL1     0.170000       12.0110           0
     25675 MEMB     207      PMPE     HS       HAL1     0.900000E-01   1.00800           0
     25676 MEMB     207      PMPE     O21      OSL     -0.490000       15.9994           0
     25677 MEMB     207      PMPE     C21      CL       0.900000       12.0110           0
     25678 MEMB     207      PMPE     O22      OBL     -0.630000       15.9994           0
     25679 MEMB     207      PMPE     C22      CTL2    -0.220000       12.0110           0
     25680 MEMB     207      PMPE     H2R      HAL2     0.900000E-01   1.00800           0
     25681 MEMB     207      PMPE     H2S      HAL2     0.900000E-01   1.00800           0
     25682 MEMB     207      PMPE     C3       CTL2     0.800000E-01   12.0110           0
     25683 MEMB     207      PMPE     HX       HAL2     0.900000E-01   1.00800           0
     25684 MEMB     207      PMPE     HY       HAL2     0.900000E-01   1.00800           0
     25685 MEMB     207      PMPE     O31      OSL     -0.490000       15.9994           0
     25686 MEMB     207      PMPE     C31      CL       0.900000       12.0110           0
     25687 MEMB     207      PMPE     O32      OBL     -0.630000       15.9994           0
     25688 MEMB     207      PMPE     C32      CTL2    -0.220000       12.0110           0
     25689 MEMB     207      PMPE     H2X      HAL2     0.900000E-01   1.00800           0
     25690 MEMB     207      PMPE     H2Y      HAL2     0.900000E-01   1.00800           0
     25691 MEMB     207      PMPE     C23      CTL2    -0.180000       12.0110           0
     25692 MEMB     207      PMPE     H3R      HAL2     0.900000E-01   1.00800           0
     25693 MEMB     207      PMPE     H3S      HAL2     0.900000E-01   1.00800           0
     25694 MEMB     207      PMPE     C24      CTL2    -0.180000       12.0110           0
     25695 MEMB     207      PMPE     H4R      HAL2     0.900000E-01   1.00800           0
     25696 MEMB     207      PMPE     H4S      HAL2     0.900000E-01   1.00800           0
     25697 MEMB     207      PMPE     C25      CTL2    -0.180000       12.0110           0
     25698 MEMB     207      PMPE     H5R      HAL2     0.900000E-01   1.00800           0
     25699 MEMB     207      PMPE     H5S      HAL2     0.900000E-01   1.00800           0
     25700 MEMB     207      PMPE     C26      CTL2    -0.180000       12.0110           0
     25701 MEMB     207      PMPE     H6R      HAL2     0.900000E-01   1.00800           0
     25702 MEMB     207      PMPE     H6S      HAL2     0.900000E-01   1.00800           0
     25703 MEMB     207      PMPE     C27      CTL2    -0.180000       12.0110           0
     25704 MEMB     207      PMPE     H7R      HAL2     0.900000E-01   1.00800           0
     25705 MEMB     207      PMPE     H7S      HAL2     0.900000E-01   1.00800           0
     25706 MEMB     207      PMPE     C28      CTL2    -0.180000       12.0110           0
     25707 MEMB     207      PMPE     H8R      HAL2     0.900000E-01   1.00800           0
     25708 MEMB     207      PMPE     H8S      HAL2     0.900000E-01   1.00800           0
     25709 MEMB     207      PMPE     C29      CG3RC1  -0.900000E-01   12.0110           0
     25710 MEMB     207      PMPE     H9R      HGA1     0.900000E-01   1.00800           0
     25711 MEMB     207      PMPE     C217     CG3C31  -0.180000       12.0110           0
     25712 MEMB     207      PMPE     H17R     HGA2     0.900000E-01   1.00800           0
     25713 MEMB     207      PMPE     H17S     HGA2     0.900000E-01   1.00800           0
     25714 MEMB     207      PMPE     C210     CG3RC1  -0.900000E-01   12.0110           0
     25715 MEMB     207      PMPE     H10R     HGA1     0.900000E-01   1.00800           0
     25716 MEMB     207      PMPE     C211     CTL2    -0.180000       12.0110           0
     25717 MEMB     207      PMPE     H11R     HAL2     0.900000E-01   1.00800           0
     25718 MEMB     207      PMPE     H11S     HAL2     0.900000E-01   1.00800           0
     25719 MEMB     207      PMPE     C212     CTL2    -0.180000       12.0110           0
     25720 MEMB     207      PMPE     H12R     HAL2     0.900000E-01   1.00800           0
     25721 MEMB     207      PMPE     H12S     HAL2     0.900000E-01   1.00800           0
     25722 MEMB     207      PMPE     C213     CTL2    -0.180000       12.0110           0
     25723 MEMB     207      PMPE     H13R     HAL2     0.900000E-01   1.00800           0
     25724 MEMB     207      PMPE     H13S     HAL2     0.900000E-01   1.00800           0
     25725 MEMB     207      PMPE     C214     CTL2    -0.180000       12.0110           0
     25726 MEMB     207      PMPE     H14R     HAL2     0.900000E-01   1.00800           0
     25727 MEMB     207      PMPE     H14S     HAL2     0.900000E-01   1.00800           0
     25728 MEMB     207      PMPE     C215     CTL2    -0.180000       12.0110           0
     25729 MEMB     207      PMPE     H15R     HAL2     0.900000E-01   1.00800           0
     25730 MEMB     207      PMPE     H15S     HAL2     0.900000E-01   1.00800           0
     25731 MEMB     207      PMPE     C216     CTL3    -0.270000       12.0110           0
     25732 MEMB     207      PMPE     H16R     HAL3     0.900000E-01   1.00800           0
     25733 MEMB     207      PMPE     H16S     HAL3     0.900000E-01   1.00800           0
     25734 MEMB     207      PMPE     H16T     HAL3     0.900000E-01   1.00800           0
     25735 MEMB     207      PMPE     C33      CTL2    -0.180000       12.0110           0
     25736 MEMB     207      PMPE     H3X      HAL2     0.900000E-01   1.00800           0
     25737 MEMB     207      PMPE     H3Y      HAL2     0.900000E-01   1.00800           0
     25738 MEMB     207      PMPE     C34      CTL2    -0.180000       12.0110           0
     25739 MEMB     207      PMPE     H4X      HAL2     0.900000E-01   1.00800           0
     25740 MEMB     207      PMPE     H4Y      HAL2     0.900000E-01   1.00800           0
     25741 MEMB     207      PMPE     C35      CTL2    -0.180000       12.0110           0
     25742 MEMB     207      PMPE     H5X      HAL2     0.900000E-01   1.00800           0
     25743 MEMB     207      PMPE     H5Y      HAL2     0.900000E-01   1.00800           0
     25744 MEMB     207      PMPE     C36      CTL2    -0.180000       12.0110           0
     25745 MEMB     207      PMPE     H6X      HAL2     0.900000E-01   1.00800           0
     25746 MEMB     207      PMPE     H6Y      HAL2     0.900000E-01   1.00800           0
     25747 MEMB     207      PMPE     C37      CTL2    -0.180000       12.0110           0
     25748 MEMB     207      PMPE     H7X      HAL2     0.900000E-01   1.00800           0
     25749 MEMB     207      PMPE     H7Y      HAL2     0.900000E-01   1.00800           0
     25750 MEMB     207      PMPE     C38      CTL2    -0.180000       12.0110           0
     25751 MEMB     207      PMPE     H8X      HAL2     0.900000E-01   1.00800           0
     25752 MEMB     207      PMPE     H8Y      HAL2     0.900000E-01   1.00800           0
     25753 MEMB     207      PMPE     C39      CTL2    -0.180000       12.0110           0
     25754 MEMB     207      PMPE     H9X      HAL2     0.900000E-01   1.00800           0
     25755 MEMB     207      PMPE     H9Y      HAL2     0.900000E-01   1.00800           0
     25756 MEMB     207      PMPE     C310     CTL2    -0.180000       12.0110           0
     25757 MEMB     207      PMPE     H10X     HAL2     0.900000E-01   1.00800           0
     25758 MEMB     207      PMPE     H10Y     HAL2     0.900000E-01   1.00800           0
     25759 MEMB     207      PMPE     C311     CTL2    -0.180000       12.0110           0
     25760 MEMB     207      PMPE     H11X     HAL2     0.900000E-01   1.00800           0
     25761 MEMB     207      PMPE     H11Y     HAL2     0.900000E-01   1.00800           0
     25762 MEMB     207      PMPE     C312     CTL2    -0.180000       12.0110           0
     25763 MEMB     207      PMPE     H12X     HAL2     0.900000E-01   1.00800           0
     25764 MEMB     207      PMPE     H12Y     HAL2     0.900000E-01   1.00800           0
     25765 MEMB     207      PMPE     C313     CTL2    -0.180000       12.0110           0
     25766 MEMB     207      PMPE     H13X     HAL2     0.900000E-01   1.00800           0
     25767 MEMB     207      PMPE     H13Y     HAL2     0.900000E-01   1.00800           0
     25768 MEMB     207      PMPE     C314     CTL2    -0.180000       12.0110           0
     25769 MEMB     207      PMPE     H14X     HAL2     0.900000E-01   1.00800           0
     25770 MEMB     207      PMPE     H14Y     HAL2     0.900000E-01   1.00800           0
     25771 MEMB     207      PMPE     C315     CTL2    -0.180000       12.0110           0
     25772 MEMB     207      PMPE     H15X     HAL2     0.900000E-01   1.00800           0
     25773 MEMB     207      PMPE     H15Y     HAL2     0.900000E-01   1.00800           0
     25774 MEMB     207      PMPE     C316     CTL3    -0.270000       12.0110           0
     25775 MEMB     207      PMPE     H16X     HAL3     0.900000E-01   1.00800           0
     25776 MEMB     207      PMPE     H16Y     HAL3     0.900000E-01   1.00800           0
     25777 MEMB     207      PMPE     H16Z     HAL3     0.900000E-01   1.00800           0
     25778 MEMB     208      PYPG     C13      CTL2     0.500000E-01   12.0110           0
     25779 MEMB     208      PYPG     H13A     HAL2     0.900000E-01   1.00800           0
     25780 MEMB     208      PYPG     H13B     HAL2     0.900000E-01   1.00800           0
     25781 MEMB     208      PYPG     OC3      OHL     -0.660000       15.9994           0
     25782 MEMB     208      PYPG     HO3      HOL      0.430000       1.00800           0
     25783 MEMB     208      PYPG     C12      CTL1     0.140000       12.0110           0
     25784 MEMB     208      PYPG     H12A     HAL1     0.900000E-01   1.00800           0
     25785 MEMB     208      PYPG     OC2      OHL     -0.660000       15.9994           0
     25786 MEMB     208      PYPG     HO2      HOL      0.430000       1.00800           0
     25787 MEMB     208      PYPG     C11      CTL2    -0.800000E-01   12.0110           0
     25788 MEMB     208      PYPG     H11A     HAL2     0.900000E-01   1.00800           0
     25789 MEMB     208      PYPG     H11B     HAL2     0.900000E-01   1.00800           0
     25790 MEMB     208      PYPG     P        PL        1.50000       30.9740           0
     25791 MEMB     208      PYPG     O13      O2L     -0.780000       15.9994           0
     25792 MEMB     208      PYPG     O14      O2L     -0.780000       15.9994           0
     25793 MEMB     208      PYPG     O11      OSLP    -0.570000       15.9994           0
     25794 MEMB     208      PYPG     O12      OSLP    -0.570000       15.9994           0
     25795 MEMB     208      PYPG     C1       CTL2    -0.800000E-01   12.0110           0
     25796 MEMB     208      PYPG     HA       HAL2     0.900000E-01   1.00800           0
     25797 MEMB     208      PYPG     HB       HAL2     0.900000E-01   1.00800           0
     25798 MEMB     208      PYPG     C2       CTL1     0.170000       12.0110           0
     25799 MEMB     208      PYPG     HS       HAL1     0.900000E-01   1.00800           0
     25800 MEMB     208      PYPG     O21      OSL     -0.490000       15.9994           0
     25801 MEMB     208      PYPG     C21      CL       0.900000       12.0110           0
     25802 MEMB     208      PYPG     O22      OBL     -0.630000       15.9994           0
     25803 MEMB     208      PYPG     C22      CTL2    -0.220000       12.0110           0
     25804 MEMB     208      PYPG     H2R      HAL2     0.900000E-01   1.00800           0
     25805 MEMB     208      PYPG     H2S      HAL2     0.900000E-01   1.00800           0
     25806 MEMB     208      PYPG     C3       CTL2     0.800000E-01   12.0110           0
     25807 MEMB     208      PYPG     HX       HAL2     0.900000E-01   1.00800           0
     25808 MEMB     208      PYPG     HY       HAL2     0.900000E-01   1.00800           0
     25809 MEMB     208      PYPG     O31      OSL     -0.490000       15.9994           0
     25810 MEMB     208      PYPG     C31      CL       0.900000       12.0110           0
     25811 MEMB     208      PYPG     O32      OBL     -0.630000       15.9994           0
     25812 MEMB     208      PYPG     C32      CTL2    -0.220000       12.0110           0
     25813 MEMB     208      PYPG     H2X      HAL2     0.900000E-01   1.00800           0
     25814 MEMB     208      PYPG     H2Y      HAL2     0.900000E-01   1.00800           0
     25815 MEMB     208      PYPG     C23      CTL2    -0.180000       12.0110           0
     25816 MEMB     208      PYPG     H3R      HAL2     0.900000E-01   1.00800           0
     25817 MEMB     208      PYPG     H3S      HAL2     0.900000E-01   1.00800           0
     25818 MEMB     208      PYPG     C24      CTL2    -0.180000       12.0110           0
     25819 MEMB     208      PYPG     H4R      HAL2     0.900000E-01   1.00800           0
     25820 MEMB     208      PYPG     H4S      HAL2     0.900000E-01   1.00800           0
     25821 MEMB     208      PYPG     C25      CTL2    -0.180000       12.0110           0
     25822 MEMB     208      PYPG     H5R      HAL2     0.900000E-01   1.00800           0
     25823 MEMB     208      PYPG     H5S      HAL2     0.900000E-01   1.00800           0
     25824 MEMB     208      PYPG     C26      CTL2    -0.180000       12.0110           0
     25825 MEMB     208      PYPG     H6R      HAL2     0.900000E-01   1.00800           0
     25826 MEMB     208      PYPG     H6S      HAL2     0.900000E-01   1.00800           0
     25827 MEMB     208      PYPG     C27      CTL2    -0.180000       12.0110           0
     25828 MEMB     208      PYPG     H7R      HAL2     0.900000E-01   1.00800           0
     25829 MEMB     208      PYPG     H7S      HAL2     0.900000E-01   1.00800           0
     25830 MEMB     208      PYPG     C28      CTL2    -0.180000       12.0110           0
     25831 MEMB     208      PYPG     H8R      HAL2     0.900000E-01   1.00800           0
     25832 MEMB     208      PYPG     H8S      HAL2     0.900000E-01   1.00800           0
     25833 MEMB     208      PYPG     C29      CEL1    -0.150000       12.0110           0
     25834 MEMB     208      PYPG     H9R      HEL1     0.150000       1.00800           0
     25835 MEMB     208      PYPG     C210     CEL1    -0.150000       12.0110           0
     25836 MEMB     208      PYPG     H10R     HEL1     0.150000       1.00800           0
     25837 MEMB     208      PYPG     C211     CTL2    -0.180000       12.0110           0
     25838 MEMB     208      PYPG     H11R     HAL2     0.900000E-01   1.00800           0
     25839 MEMB     208      PYPG     H11S     HAL2     0.900000E-01   1.00800           0
     25840 MEMB     208      PYPG     C212     CTL2    -0.180000       12.0110           0
     25841 MEMB     208      PYPG     H12R     HAL2     0.900000E-01   1.00800           0
     25842 MEMB     208      PYPG     H12S     HAL2     0.900000E-01   1.00800           0
     25843 MEMB     208      PYPG     C213     CTL2    -0.180000       12.0110           0
     25844 MEMB     208      PYPG     H13R     HAL2     0.900000E-01   1.00800           0
     25845 MEMB     208      PYPG     H13S     HAL2     0.900000E-01   1.00800           0
     25846 MEMB     208      PYPG     C214     CTL2    -0.180000       12.0110           0
     25847 MEMB     208      PYPG     H14R     HAL2     0.900000E-01   1.00800           0
     25848 MEMB     208      PYPG     H14S     HAL2     0.900000E-01   1.00800           0
     25849 MEMB     208      PYPG     C215     CTL2    -0.180000       12.0110           0
     25850 MEMB     208      PYPG     H15R     HAL2     0.900000E-01   1.00800           0
     25851 MEMB     208      PYPG     H15S     HAL2     0.900000E-01   1.00800           0
     25852 MEMB     208      PYPG     C216     CTL3    -0.270000       12.0110           0
     25853 MEMB     208      PYPG     H16R     HAL3     0.900000E-01   1.00800           0
     25854 MEMB     208      PYPG     H16S     HAL3     0.900000E-01   1.00800           0
     25855 MEMB     208      PYPG     H16T     HAL3     0.900000E-01   1.00800           0
     25856 MEMB     208      PYPG     C33      CTL2    -0.180000       12.0110           0
     25857 MEMB     208      PYPG     H3X      HAL2     0.900000E-01   1.00800           0
     25858 MEMB     208      PYPG     H3Y      HAL2     0.900000E-01   1.00800           0
     25859 MEMB     208      PYPG     C34      CTL2    -0.180000       12.0110           0
     25860 MEMB     208      PYPG     H4X      HAL2     0.900000E-01   1.00800           0
     25861 MEMB     208      PYPG     H4Y      HAL2     0.900000E-01   1.00800           0
     25862 MEMB     208      PYPG     C35      CTL2    -0.180000       12.0110           0
     25863 MEMB     208      PYPG     H5X      HAL2     0.900000E-01   1.00800           0
     25864 MEMB     208      PYPG     H5Y      HAL2     0.900000E-01   1.00800           0
     25865 MEMB     208      PYPG     C36      CTL2    -0.180000       12.0110           0
     25866 MEMB     208      PYPG     H6X      HAL2     0.900000E-01   1.00800           0
     25867 MEMB     208      PYPG     H6Y      HAL2     0.900000E-01   1.00800           0
     25868 MEMB     208      PYPG     C37      CTL2    -0.180000       12.0110           0
     25869 MEMB     208      PYPG     H7X      HAL2     0.900000E-01   1.00800           0
     25870 MEMB     208      PYPG     H7Y      HAL2     0.900000E-01   1.00800           0
     25871 MEMB     208      PYPG     C38      CTL2    -0.180000       12.0110           0
     25872 MEMB     208      PYPG     H8X      HAL2     0.900000E-01   1.00800           0
     25873 MEMB     208      PYPG     H8Y      HAL2     0.900000E-01   1.00800           0
     25874 MEMB     208      PYPG     C39      CTL2    -0.180000       12.0110           0
     25875 MEMB     208      PYPG     H9X      HAL2     0.900000E-01   1.00800           0
     25876 MEMB     208      PYPG     H9Y      HAL2     0.900000E-01   1.00800           0
     25877 MEMB     208      PYPG     C310     CTL2    -0.180000       12.0110           0
     25878 MEMB     208      PYPG     H10X     HAL2     0.900000E-01   1.00800           0
     25879 MEMB     208      PYPG     H10Y     HAL2     0.900000E-01   1.00800           0
     25880 MEMB     208      PYPG     C311     CTL2    -0.180000       12.0110           0
     25881 MEMB     208      PYPG     H11X     HAL2     0.900000E-01   1.00800           0
     25882 MEMB     208      PYPG     H11Y     HAL2     0.900000E-01   1.00800           0
     25883 MEMB     208      PYPG     C312     CTL2    -0.180000       12.0110           0
     25884 MEMB     208      PYPG     H12X     HAL2     0.900000E-01   1.00800           0
     25885 MEMB     208      PYPG     H12Y     HAL2     0.900000E-01   1.00800           0
     25886 MEMB     208      PYPG     C313     CTL2    -0.180000       12.0110           0
     25887 MEMB     208      PYPG     H13X     HAL2     0.900000E-01   1.00800           0
     25888 MEMB     208      PYPG     H13Y     HAL2     0.900000E-01   1.00800           0
     25889 MEMB     208      PYPG     C314     CTL2    -0.180000       12.0110           0
     25890 MEMB     208      PYPG     H14X     HAL2     0.900000E-01   1.00800           0
     25891 MEMB     208      PYPG     H14Y     HAL2     0.900000E-01   1.00800           0
     25892 MEMB     208      PYPG     C315     CTL2    -0.180000       12.0110           0
     25893 MEMB     208      PYPG     H15X     HAL2     0.900000E-01   1.00800           0
     25894 MEMB     208      PYPG     H15Y     HAL2     0.900000E-01   1.00800           0
     25895 MEMB     208      PYPG     C316     CTL3    -0.270000       12.0110           0
     25896 MEMB     208      PYPG     H16X     HAL3     0.900000E-01   1.00800           0
     25897 MEMB     208      PYPG     H16Y     HAL3     0.900000E-01   1.00800           0
     25898 MEMB     208      PYPG     H16Z     HAL3     0.900000E-01   1.00800           0
     25899 MEMB     209      PMPE     N        NH3L    -0.300000       14.0070           0
     25900 MEMB     209      PMPE     HN1      HCL      0.330000       1.00800           0
     25901 MEMB     209      PMPE     HN2      HCL      0.330000       1.00800           0
     25902 MEMB     209      PMPE     HN3      HCL      0.330000       1.00800           0
     25903 MEMB     209      PMPE     C12      CTL2     0.130000       12.0110           0
     25904 MEMB     209      PMPE     H12A     HAL2     0.900000E-01   1.00800           0
     25905 MEMB     209      PMPE     H12B     HAL2     0.900000E-01   1.00800           0
     25906 MEMB     209      PMPE     C11      CTL2    -0.800000E-01   12.0110           0
     25907 MEMB     209      PMPE     H11A     HAL2     0.900000E-01   1.00800           0
     25908 MEMB     209      PMPE     H11B     HAL2     0.900000E-01   1.00800           0
     25909 MEMB     209      PMPE     P        PL        1.50000       30.9740           0
     25910 MEMB     209      PMPE     O13      O2L     -0.780000       15.9994           0
     25911 MEMB     209      PMPE     O14      O2L     -0.780000       15.9994           0
     25912 MEMB     209      PMPE     O11      OSLP    -0.570000       15.9994           0
     25913 MEMB     209      PMPE     O12      OSLP    -0.570000       15.9994           0
     25914 MEMB     209      PMPE     C1       CTL2    -0.800000E-01   12.0110           0
     25915 MEMB     209      PMPE     HA       HAL2     0.900000E-01   1.00800           0
     25916 MEMB     209      PMPE     HB       HAL2     0.900000E-01   1.00800           0
     25917 MEMB     209      PMPE     C2       CTL1     0.170000       12.0110           0
     25918 MEMB     209      PMPE     HS       HAL1     0.900000E-01   1.00800           0
     25919 MEMB     209      PMPE     O21      OSL     -0.490000       15.9994           0
     25920 MEMB     209      PMPE     C21      CL       0.900000       12.0110           0
     25921 MEMB     209      PMPE     O22      OBL     -0.630000       15.9994           0
     25922 MEMB     209      PMPE     C22      CTL2    -0.220000       12.0110           0
     25923 MEMB     209      PMPE     H2R      HAL2     0.900000E-01   1.00800           0
     25924 MEMB     209      PMPE     H2S      HAL2     0.900000E-01   1.00800           0
     25925 MEMB     209      PMPE     C3       CTL2     0.800000E-01   12.0110           0
     25926 MEMB     209      PMPE     HX       HAL2     0.900000E-01   1.00800           0
     25927 MEMB     209      PMPE     HY       HAL2     0.900000E-01   1.00800           0
     25928 MEMB     209      PMPE     O31      OSL     -0.490000       15.9994           0
     25929 MEMB     209      PMPE     C31      CL       0.900000       12.0110           0
     25930 MEMB     209      PMPE     O32      OBL     -0.630000       15.9994           0
     25931 MEMB     209      PMPE     C32      CTL2    -0.220000       12.0110           0
     25932 MEMB     209      PMPE     H2X      HAL2     0.900000E-01   1.00800           0
     25933 MEMB     209      PMPE     H2Y      HAL2     0.900000E-01   1.00800           0
     25934 MEMB     209      PMPE     C23      CTL2    -0.180000       12.0110           0
     25935 MEMB     209      PMPE     H3R      HAL2     0.900000E-01   1.00800           0
     25936 MEMB     209      PMPE     H3S      HAL2     0.900000E-01   1.00800           0
     25937 MEMB     209      PMPE     C24      CTL2    -0.180000       12.0110           0
     25938 MEMB     209      PMPE     H4R      HAL2     0.900000E-01   1.00800           0
     25939 MEMB     209      PMPE     H4S      HAL2     0.900000E-01   1.00800           0
     25940 MEMB     209      PMPE     C25      CTL2    -0.180000       12.0110           0
     25941 MEMB     209      PMPE     H5R      HAL2     0.900000E-01   1.00800           0
     25942 MEMB     209      PMPE     H5S      HAL2     0.900000E-01   1.00800           0
     25943 MEMB     209      PMPE     C26      CTL2    -0.180000       12.0110           0
     25944 MEMB     209      PMPE     H6R      HAL2     0.900000E-01   1.00800           0
     25945 MEMB     209      PMPE     H6S      HAL2     0.900000E-01   1.00800           0
     25946 MEMB     209      PMPE     C27      CTL2    -0.180000       12.0110           0
     25947 MEMB     209      PMPE     H7R      HAL2     0.900000E-01   1.00800           0
     25948 MEMB     209      PMPE     H7S      HAL2     0.900000E-01   1.00800           0
     25949 MEMB     209      PMPE     C28      CTL2    -0.180000       12.0110           0
     25950 MEMB     209      PMPE     H8R      HAL2     0.900000E-01   1.00800           0
     25951 MEMB     209      PMPE     H8S      HAL2     0.900000E-01   1.00800           0
     25952 MEMB     209      PMPE     C29      CG3RC1  -0.900000E-01   12.0110           0
     25953 MEMB     209      PMPE     H9R      HGA1     0.900000E-01   1.00800           0
     25954 MEMB     209      PMPE     C217     CG3C31  -0.180000       12.0110           0
     25955 MEMB     209      PMPE     H17R     HGA2     0.900000E-01   1.00800           0
     25956 MEMB     209      PMPE     H17S     HGA2     0.900000E-01   1.00800           0
     25957 MEMB     209      PMPE     C210     CG3RC1  -0.900000E-01   12.0110           0
     25958 MEMB     209      PMPE     H10R     HGA1     0.900000E-01   1.00800           0
     25959 MEMB     209      PMPE     C211     CTL2    -0.180000       12.0110           0
     25960 MEMB     209      PMPE     H11R     HAL2     0.900000E-01   1.00800           0
     25961 MEMB     209      PMPE     H11S     HAL2     0.900000E-01   1.00800           0
     25962 MEMB     209      PMPE     C212     CTL2    -0.180000       12.0110           0
     25963 MEMB     209      PMPE     H12R     HAL2     0.900000E-01   1.00800           0
     25964 MEMB     209      PMPE     H12S     HAL2     0.900000E-01   1.00800           0
     25965 MEMB     209      PMPE     C213     CTL2    -0.180000       12.0110           0
     25966 MEMB     209      PMPE     H13R     HAL2     0.900000E-01   1.00800           0
     25967 MEMB     209      PMPE     H13S     HAL2     0.900000E-01   1.00800           0
     25968 MEMB     209      PMPE     C214     CTL2    -0.180000       12.0110           0
     25969 MEMB     209      PMPE     H14R     HAL2     0.900000E-01   1.00800           0
     25970 MEMB     209      PMPE     H14S     HAL2     0.900000E-01   1.00800           0
     25971 MEMB     209      PMPE     C215     CTL2    -0.180000       12.0110           0
     25972 MEMB     209      PMPE     H15R     HAL2     0.900000E-01   1.00800           0
     25973 MEMB     209      PMPE     H15S     HAL2     0.900000E-01   1.00800           0
     25974 MEMB     209      PMPE     C216     CTL3    -0.270000       12.0110           0
     25975 MEMB     209      PMPE     H16R     HAL3     0.900000E-01   1.00800           0
     25976 MEMB     209      PMPE     H16S     HAL3     0.900000E-01   1.00800           0
     25977 MEMB     209      PMPE     H16T     HAL3     0.900000E-01   1.00800           0
     25978 MEMB     209      PMPE     C33      CTL2    -0.180000       12.0110           0
     25979 MEMB     209      PMPE     H3X      HAL2     0.900000E-01   1.00800           0
     25980 MEMB     209      PMPE     H3Y      HAL2     0.900000E-01   1.00800           0
     25981 MEMB     209      PMPE     C34      CTL2    -0.180000       12.0110           0
     25982 MEMB     209      PMPE     H4X      HAL2     0.900000E-01   1.00800           0
     25983 MEMB     209      PMPE     H4Y      HAL2     0.900000E-01   1.00800           0
     25984 MEMB     209      PMPE     C35      CTL2    -0.180000       12.0110           0
     25985 MEMB     209      PMPE     H5X      HAL2     0.900000E-01   1.00800           0
     25986 MEMB     209      PMPE     H5Y      HAL2     0.900000E-01   1.00800           0
     25987 MEMB     209      PMPE     C36      CTL2    -0.180000       12.0110           0
     25988 MEMB     209      PMPE     H6X      HAL2     0.900000E-01   1.00800           0
     25989 MEMB     209      PMPE     H6Y      HAL2     0.900000E-01   1.00800           0
     25990 MEMB     209      PMPE     C37      CTL2    -0.180000       12.0110           0
     25991 MEMB     209      PMPE     H7X      HAL2     0.900000E-01   1.00800           0
     25992 MEMB     209      PMPE     H7Y      HAL2     0.900000E-01   1.00800           0
     25993 MEMB     209      PMPE     C38      CTL2    -0.180000       12.0110           0
     25994 MEMB     209      PMPE     H8X      HAL2     0.900000E-01   1.00800           0
     25995 MEMB     209      PMPE     H8Y      HAL2     0.900000E-01   1.00800           0
     25996 MEMB     209      PMPE     C39      CTL2    -0.180000       12.0110           0
     25997 MEMB     209      PMPE     H9X      HAL2     0.900000E-01   1.00800           0
     25998 MEMB     209      PMPE     H9Y      HAL2     0.900000E-01   1.00800           0
     25999 MEMB     209      PMPE     C310     CTL2    -0.180000       12.0110           0
     26000 MEMB     209      PMPE     H10X     HAL2     0.900000E-01   1.00800           0
     26001 MEMB     209      PMPE     H10Y     HAL2     0.900000E-01   1.00800           0
     26002 MEMB     209      PMPE     C311     CTL2    -0.180000       12.0110           0
     26003 MEMB     209      PMPE     H11X     HAL2     0.900000E-01   1.00800           0
     26004 MEMB     209      PMPE     H11Y     HAL2     0.900000E-01   1.00800           0
     26005 MEMB     209      PMPE     C312     CTL2    -0.180000       12.0110           0
     26006 MEMB     209      PMPE     H12X     HAL2     0.900000E-01   1.00800           0
     26007 MEMB     209      PMPE     H12Y     HAL2     0.900000E-01   1.00800           0
     26008 MEMB     209      PMPE     C313     CTL2    -0.180000       12.0110           0
     26009 MEMB     209      PMPE     H13X     HAL2     0.900000E-01   1.00800           0
     26010 MEMB     209      PMPE     H13Y     HAL2     0.900000E-01   1.00800           0
     26011 MEMB     209      PMPE     C314     CTL2    -0.180000       12.0110           0
     26012 MEMB     209      PMPE     H14X     HAL2     0.900000E-01   1.00800           0
     26013 MEMB     209      PMPE     H14Y     HAL2     0.900000E-01   1.00800           0
     26014 MEMB     209      PMPE     C315     CTL2    -0.180000       12.0110           0
     26015 MEMB     209      PMPE     H15X     HAL2     0.900000E-01   1.00800           0
     26016 MEMB     209      PMPE     H15Y     HAL2     0.900000E-01   1.00800           0
     26017 MEMB     209      PMPE     C316     CTL3    -0.270000       12.0110           0
     26018 MEMB     209      PMPE     H16X     HAL3     0.900000E-01   1.00800           0
     26019 MEMB     209      PMPE     H16Y     HAL3     0.900000E-01   1.00800           0
     26020 MEMB     209      PMPE     H16Z     HAL3     0.900000E-01   1.00800           0
     26021 MEMB     210      OYPE     N        NH3L    -0.300000       14.0070           0
     26022 MEMB     210      OYPE     HN1      HCL      0.330000       1.00800           0
     26023 MEMB     210      OYPE     HN2      HCL      0.330000       1.00800           0
     26024 MEMB     210      OYPE     HN3      HCL      0.330000       1.00800           0
     26025 MEMB     210      OYPE     C12      CTL2     0.130000       12.0110           0
     26026 MEMB     210      OYPE     H12A     HAL2     0.900000E-01   1.00800           0
     26027 MEMB     210      OYPE     H12B     HAL2     0.900000E-01   1.00800           0
     26028 MEMB     210      OYPE     C11      CTL2    -0.800000E-01   12.0110           0
     26029 MEMB     210      OYPE     H11A     HAL2     0.900000E-01   1.00800           0
     26030 MEMB     210      OYPE     H11B     HAL2     0.900000E-01   1.00800           0
     26031 MEMB     210      OYPE     P        PL        1.50000       30.9740           0
     26032 MEMB     210      OYPE     O13      O2L     -0.780000       15.9994           0
     26033 MEMB     210      OYPE     O14      O2L     -0.780000       15.9994           0
     26034 MEMB     210      OYPE     O11      OSLP    -0.570000       15.9994           0
     26035 MEMB     210      OYPE     O12      OSLP    -0.570000       15.9994           0
     26036 MEMB     210      OYPE     C1       CTL2    -0.800000E-01   12.0110           0
     26037 MEMB     210      OYPE     HA       HAL2     0.900000E-01   1.00800           0
     26038 MEMB     210      OYPE     HB       HAL2     0.900000E-01   1.00800           0
     26039 MEMB     210      OYPE     C2       CTL1     0.170000       12.0110           0
     26040 MEMB     210      OYPE     HS       HAL1     0.900000E-01   1.00800           0
     26041 MEMB     210      OYPE     O21      OSL     -0.490000       15.9994           0
     26042 MEMB     210      OYPE     C21      CL       0.900000       12.0110           0
     26043 MEMB     210      OYPE     O22      OBL     -0.630000       15.9994           0
     26044 MEMB     210      OYPE     C22      CTL2    -0.220000       12.0110           0
     26045 MEMB     210      OYPE     H2R      HAL2     0.900000E-01   1.00800           0
     26046 MEMB     210      OYPE     H2S      HAL2     0.900000E-01   1.00800           0
     26047 MEMB     210      OYPE     C3       CTL2     0.800000E-01   12.0110           0
     26048 MEMB     210      OYPE     HX       HAL2     0.900000E-01   1.00800           0
     26049 MEMB     210      OYPE     HY       HAL2     0.900000E-01   1.00800           0
     26050 MEMB     210      OYPE     O31      OSL     -0.490000       15.9994           0
     26051 MEMB     210      OYPE     C31      CL       0.900000       12.0110           0
     26052 MEMB     210      OYPE     O32      OBL     -0.630000       15.9994           0
     26053 MEMB     210      OYPE     C32      CTL2    -0.220000       12.0110           0
     26054 MEMB     210      OYPE     H2X      HAL2     0.900000E-01   1.00800           0
     26055 MEMB     210      OYPE     H2Y      HAL2     0.900000E-01   1.00800           0
     26056 MEMB     210      OYPE     C23      CTL2    -0.180000       12.0110           0
     26057 MEMB     210      OYPE     H3R      HAL2     0.900000E-01   1.00800           0
     26058 MEMB     210      OYPE     H3S      HAL2     0.900000E-01   1.00800           0
     26059 MEMB     210      OYPE     C24      CTL2    -0.180000       12.0110           0
     26060 MEMB     210      OYPE     H4R      HAL2     0.900000E-01   1.00800           0
     26061 MEMB     210      OYPE     H4S      HAL2     0.900000E-01   1.00800           0
     26062 MEMB     210      OYPE     C25      CTL2    -0.180000       12.0110           0
     26063 MEMB     210      OYPE     H5R      HAL2     0.900000E-01   1.00800           0
     26064 MEMB     210      OYPE     H5S      HAL2     0.900000E-01   1.00800           0
     26065 MEMB     210      OYPE     C26      CTL2    -0.180000       12.0110           0
     26066 MEMB     210      OYPE     H6R      HAL2     0.900000E-01   1.00800           0
     26067 MEMB     210      OYPE     H6S      HAL2     0.900000E-01   1.00800           0
     26068 MEMB     210      OYPE     C27      CTL2    -0.180000       12.0110           0
     26069 MEMB     210      OYPE     H7R      HAL2     0.900000E-01   1.00800           0
     26070 MEMB     210      OYPE     H7S      HAL2     0.900000E-01   1.00800           0
     26071 MEMB     210      OYPE     C28      CTL2    -0.180000       12.0110           0
     26072 MEMB     210      OYPE     H8R      HAL2     0.900000E-01   1.00800           0
     26073 MEMB     210      OYPE     H8S      HAL2     0.900000E-01   1.00800           0
     26074 MEMB     210      OYPE     C29      CEL1    -0.150000       12.0110           0
     26075 MEMB     210      OYPE     H9R      HEL1     0.150000       1.00800           0
     26076 MEMB     210      OYPE     C210     CEL1    -0.150000       12.0110           0
     26077 MEMB     210      OYPE     H10R     HEL1     0.150000       1.00800           0
     26078 MEMB     210      OYPE     C211     CTL2    -0.180000       12.0110           0
     26079 MEMB     210      OYPE     H11R     HAL2     0.900000E-01   1.00800           0
     26080 MEMB     210      OYPE     H11S     HAL2     0.900000E-01   1.00800           0
     26081 MEMB     210      OYPE     C212     CTL2    -0.180000       12.0110           0
     26082 MEMB     210      OYPE     H12R     HAL2     0.900000E-01   1.00800           0
     26083 MEMB     210      OYPE     H12S     HAL2     0.900000E-01   1.00800           0
     26084 MEMB     210      OYPE     C213     CTL2    -0.180000       12.0110           0
     26085 MEMB     210      OYPE     H13R     HAL2     0.900000E-01   1.00800           0
     26086 MEMB     210      OYPE     H13S     HAL2     0.900000E-01   1.00800           0
     26087 MEMB     210      OYPE     C214     CTL2    -0.180000       12.0110           0
     26088 MEMB     210      OYPE     H14R     HAL2     0.900000E-01   1.00800           0
     26089 MEMB     210      OYPE     H14S     HAL2     0.900000E-01   1.00800           0
     26090 MEMB     210      OYPE     C215     CTL2    -0.180000       12.0110           0
     26091 MEMB     210      OYPE     H15R     HAL2     0.900000E-01   1.00800           0
     26092 MEMB     210      OYPE     H15S     HAL2     0.900000E-01   1.00800           0
     26093 MEMB     210      OYPE     C216     CTL3    -0.270000       12.0110           0
     26094 MEMB     210      OYPE     H16R     HAL3     0.900000E-01   1.00800           0
     26095 MEMB     210      OYPE     H16S     HAL3     0.900000E-01   1.00800           0
     26096 MEMB     210      OYPE     H16T     HAL3     0.900000E-01   1.00800           0
     26097 MEMB     210      OYPE     C33      CTL2    -0.180000       12.0110           0
     26098 MEMB     210      OYPE     H3X      HAL2     0.900000E-01   1.00800           0
     26099 MEMB     210      OYPE     H3Y      HAL2     0.900000E-01   1.00800           0
     26100 MEMB     210      OYPE     C34      CTL2    -0.180000       12.0110           0
     26101 MEMB     210      OYPE     H4X      HAL2     0.900000E-01   1.00800           0
     26102 MEMB     210      OYPE     H4Y      HAL2     0.900000E-01   1.00800           0
     26103 MEMB     210      OYPE     C35      CTL2    -0.180000       12.0110           0
     26104 MEMB     210      OYPE     H5X      HAL2     0.900000E-01   1.00800           0
     26105 MEMB     210      OYPE     H5Y      HAL2     0.900000E-01   1.00800           0
     26106 MEMB     210      OYPE     C36      CTL2    -0.180000       12.0110           0
     26107 MEMB     210      OYPE     H6X      HAL2     0.900000E-01   1.00800           0
     26108 MEMB     210      OYPE     H6Y      HAL2     0.900000E-01   1.00800           0
     26109 MEMB     210      OYPE     C37      CTL2    -0.180000       12.0110           0
     26110 MEMB     210      OYPE     H7X      HAL2     0.900000E-01   1.00800           0
     26111 MEMB     210      OYPE     H7Y      HAL2     0.900000E-01   1.00800           0
     26112 MEMB     210      OYPE     C38      CTL2    -0.180000       12.0110           0
     26113 MEMB     210      OYPE     H8X      HAL2     0.900000E-01   1.00800           0
     26114 MEMB     210      OYPE     H8Y      HAL2     0.900000E-01   1.00800           0
     26115 MEMB     210      OYPE     C39      CEL1    -0.150000       12.0110           0
     26116 MEMB     210      OYPE     H9X      HEL1     0.150000       1.00800           0
     26117 MEMB     210      OYPE     C310     CEL1    -0.150000       12.0110           0
     26118 MEMB     210      OYPE     H10X     HEL1     0.150000       1.00800           0
     26119 MEMB     210      OYPE     C311     CTL2    -0.180000       12.0110           0
     26120 MEMB     210      OYPE     H11X     HAL2     0.900000E-01   1.00800           0
     26121 MEMB     210      OYPE     H11Y     HAL2     0.900000E-01   1.00800           0
     26122 MEMB     210      OYPE     C312     CTL2    -0.180000       12.0110           0
     26123 MEMB     210      OYPE     H12X     HAL2     0.900000E-01   1.00800           0
     26124 MEMB     210      OYPE     H12Y     HAL2     0.900000E-01   1.00800           0
     26125 MEMB     210      OYPE     C313     CTL2    -0.180000       12.0110           0
     26126 MEMB     210      OYPE     H13X     HAL2     0.900000E-01   1.00800           0
     26127 MEMB     210      OYPE     H13Y     HAL2     0.900000E-01   1.00800           0
     26128 MEMB     210      OYPE     C314     CTL2    -0.180000       12.0110           0
     26129 MEMB     210      OYPE     H14X     HAL2     0.900000E-01   1.00800           0
     26130 MEMB     210      OYPE     H14Y     HAL2     0.900000E-01   1.00800           0
     26131 MEMB     210      OYPE     C315     CTL2    -0.180000       12.0110           0
     26132 MEMB     210      OYPE     H15X     HAL2     0.900000E-01   1.00800           0
     26133 MEMB     210      OYPE     H15Y     HAL2     0.900000E-01   1.00800           0
     26134 MEMB     210      OYPE     C316     CTL2    -0.180000       12.0110           0
     26135 MEMB     210      OYPE     H16X     HAL2     0.900000E-01   1.00800           0
     26136 MEMB     210      OYPE     H16Y     HAL2     0.900000E-01   1.00800           0
     26137 MEMB     210      OYPE     C317     CTL2    -0.180000       12.0110           0
     26138 MEMB     210      OYPE     H17X     HAL2     0.900000E-01   1.00800           0
     26139 MEMB     210      OYPE     H17Y     HAL2     0.900000E-01   1.00800           0
     26140 MEMB     210      OYPE     C318     CTL3    -0.270000       12.0110           0
     26141 MEMB     210      OYPE     H18X     HAL3     0.900000E-01   1.00800           0
     26142 MEMB     210      OYPE     H18Y     HAL3     0.900000E-01   1.00800           0
     26143 MEMB     210      OYPE     H18Z     HAL3     0.900000E-01   1.00800           0
     26144 MEMB     211      QMPE     N        NH3L    -0.300000       14.0070           0
     26145 MEMB     211      QMPE     HN1      HCL      0.330000       1.00800           0
     26146 MEMB     211      QMPE     HN2      HCL      0.330000       1.00800           0
     26147 MEMB     211      QMPE     HN3      HCL      0.330000       1.00800           0
     26148 MEMB     211      QMPE     C12      CTL2     0.130000       12.0110           0
     26149 MEMB     211      QMPE     H12A     HAL2     0.900000E-01   1.00800           0
     26150 MEMB     211      QMPE     H12B     HAL2     0.900000E-01   1.00800           0
     26151 MEMB     211      QMPE     C11      CTL2    -0.800000E-01   12.0110           0
     26152 MEMB     211      QMPE     H11A     HAL2     0.900000E-01   1.00800           0
     26153 MEMB     211      QMPE     H11B     HAL2     0.900000E-01   1.00800           0
     26154 MEMB     211      QMPE     P        PL        1.50000       30.9740           0
     26155 MEMB     211      QMPE     O13      O2L     -0.780000       15.9994           0
     26156 MEMB     211      QMPE     O14      O2L     -0.780000       15.9994           0
     26157 MEMB     211      QMPE     O11      OSLP    -0.570000       15.9994           0
     26158 MEMB     211      QMPE     O12      OSLP    -0.570000       15.9994           0
     26159 MEMB     211      QMPE     C1       CTL2    -0.800000E-01   12.0110           0
     26160 MEMB     211      QMPE     HA       HAL2     0.900000E-01   1.00800           0
     26161 MEMB     211      QMPE     HB       HAL2     0.900000E-01   1.00800           0
     26162 MEMB     211      QMPE     C2       CTL1     0.170000       12.0110           0
     26163 MEMB     211      QMPE     HS       HAL1     0.900000E-01   1.00800           0
     26164 MEMB     211      QMPE     O21      OSL     -0.490000       15.9994           0
     26165 MEMB     211      QMPE     C21      CL       0.900000       12.0110           0
     26166 MEMB     211      QMPE     O22      OBL     -0.630000       15.9994           0
     26167 MEMB     211      QMPE     C22      CTL2    -0.220000       12.0110           0
     26168 MEMB     211      QMPE     H2R      HAL2     0.900000E-01   1.00800           0
     26169 MEMB     211      QMPE     H2S      HAL2     0.900000E-01   1.00800           0
     26170 MEMB     211      QMPE     C3       CTL2     0.800000E-01   12.0110           0
     26171 MEMB     211      QMPE     HX       HAL2     0.900000E-01   1.00800           0
     26172 MEMB     211      QMPE     HY       HAL2     0.900000E-01   1.00800           0
     26173 MEMB     211      QMPE     O31      OSL     -0.490000       15.9994           0
     26174 MEMB     211      QMPE     C31      CL       0.900000       12.0110           0
     26175 MEMB     211      QMPE     O32      OBL     -0.630000       15.9994           0
     26176 MEMB     211      QMPE     C32      CTL2    -0.220000       12.0110           0
     26177 MEMB     211      QMPE     H2X      HAL2     0.900000E-01   1.00800           0
     26178 MEMB     211      QMPE     H2Y      HAL2     0.900000E-01   1.00800           0
     26179 MEMB     211      QMPE     C23      CTL2    -0.180000       12.0110           0
     26180 MEMB     211      QMPE     H3R      HAL2     0.900000E-01   1.00800           0
     26181 MEMB     211      QMPE     H3S      HAL2     0.900000E-01   1.00800           0
     26182 MEMB     211      QMPE     C24      CTL2    -0.180000       12.0110           0
     26183 MEMB     211      QMPE     H4R      HAL2     0.900000E-01   1.00800           0
     26184 MEMB     211      QMPE     H4S      HAL2     0.900000E-01   1.00800           0
     26185 MEMB     211      QMPE     C25      CTL2    -0.180000       12.0110           0
     26186 MEMB     211      QMPE     H5R      HAL2     0.900000E-01   1.00800           0
     26187 MEMB     211      QMPE     H5S      HAL2     0.900000E-01   1.00800           0
     26188 MEMB     211      QMPE     C26      CTL2    -0.180000       12.0110           0
     26189 MEMB     211      QMPE     H6R      HAL2     0.900000E-01   1.00800           0
     26190 MEMB     211      QMPE     H6S      HAL2     0.900000E-01   1.00800           0
     26191 MEMB     211      QMPE     C27      CTL2    -0.180000       12.0110           0
     26192 MEMB     211      QMPE     H7R      HAL2     0.900000E-01   1.00800           0
     26193 MEMB     211      QMPE     H7S      HAL2     0.900000E-01   1.00800           0
     26194 MEMB     211      QMPE     C28      CTL2    -0.180000       12.0110           0
     26195 MEMB     211      QMPE     H8R      HAL2     0.900000E-01   1.00800           0
     26196 MEMB     211      QMPE     H8S      HAL2     0.900000E-01   1.00800           0
     26197 MEMB     211      QMPE     C29      CG3RC1  -0.900000E-01   12.0110           0
     26198 MEMB     211      QMPE     H9R      HGA1     0.900000E-01   1.00800           0
     26199 MEMB     211      QMPE     C217     CG3C31  -0.180000       12.0110           0
     26200 MEMB     211      QMPE     H17R     HGA2     0.900000E-01   1.00800           0
     26201 MEMB     211      QMPE     H17S     HGA2     0.900000E-01   1.00800           0
     26202 MEMB     211      QMPE     C210     CG3RC1  -0.900000E-01   12.0110           0
     26203 MEMB     211      QMPE     H10R     HGA1     0.900000E-01   1.00800           0
     26204 MEMB     211      QMPE     C211     CTL2    -0.180000       12.0110           0
     26205 MEMB     211      QMPE     H11R     HAL2     0.900000E-01   1.00800           0
     26206 MEMB     211      QMPE     H11S     HAL2     0.900000E-01   1.00800           0
     26207 MEMB     211      QMPE     C212     CTL2    -0.180000       12.0110           0
     26208 MEMB     211      QMPE     H12R     HAL2     0.900000E-01   1.00800           0
     26209 MEMB     211      QMPE     H12S     HAL2     0.900000E-01   1.00800           0
     26210 MEMB     211      QMPE     C213     CTL2    -0.180000       12.0110           0
     26211 MEMB     211      QMPE     H13R     HAL2     0.900000E-01   1.00800           0
     26212 MEMB     211      QMPE     H13S     HAL2     0.900000E-01   1.00800           0
     26213 MEMB     211      QMPE     C214     CTL2    -0.180000       12.0110           0
     26214 MEMB     211      QMPE     H14R     HAL2     0.900000E-01   1.00800           0
     26215 MEMB     211      QMPE     H14S     HAL2     0.900000E-01   1.00800           0
     26216 MEMB     211      QMPE     C215     CTL2    -0.180000       12.0110           0
     26217 MEMB     211      QMPE     H15R     HAL2     0.900000E-01   1.00800           0
     26218 MEMB     211      QMPE     H15S     HAL2     0.900000E-01   1.00800           0
     26219 MEMB     211      QMPE     C216     CTL3    -0.270000       12.0110           0
     26220 MEMB     211      QMPE     H16R     HAL3     0.900000E-01   1.00800           0
     26221 MEMB     211      QMPE     H16S     HAL3     0.900000E-01   1.00800           0
     26222 MEMB     211      QMPE     H16T     HAL3     0.900000E-01   1.00800           0
     26223 MEMB     211      QMPE     C33      CTL2    -0.180000       12.0110           0
     26224 MEMB     211      QMPE     H3X      HAL2     0.900000E-01   1.00800           0
     26225 MEMB     211      QMPE     H3Y      HAL2     0.900000E-01   1.00800           0
     26226 MEMB     211      QMPE     C34      CTL2    -0.180000       12.0110           0
     26227 MEMB     211      QMPE     H4X      HAL2     0.900000E-01   1.00800           0
     26228 MEMB     211      QMPE     H4Y      HAL2     0.900000E-01   1.00800           0
     26229 MEMB     211      QMPE     C35      CTL2    -0.180000       12.0110           0
     26230 MEMB     211      QMPE     H5X      HAL2     0.900000E-01   1.00800           0
     26231 MEMB     211      QMPE     H5Y      HAL2     0.900000E-01   1.00800           0
     26232 MEMB     211      QMPE     C36      CTL2    -0.180000       12.0110           0
     26233 MEMB     211      QMPE     H6X      HAL2     0.900000E-01   1.00800           0
     26234 MEMB     211      QMPE     H6Y      HAL2     0.900000E-01   1.00800           0
     26235 MEMB     211      QMPE     C37      CTL2    -0.180000       12.0110           0
     26236 MEMB     211      QMPE     H7X      HAL2     0.900000E-01   1.00800           0
     26237 MEMB     211      QMPE     H7Y      HAL2     0.900000E-01   1.00800           0
     26238 MEMB     211      QMPE     C38      CTL2    -0.180000       12.0110           0
     26239 MEMB     211      QMPE     H8X      HAL2     0.900000E-01   1.00800           0
     26240 MEMB     211      QMPE     H8Y      HAL2     0.900000E-01   1.00800           0
     26241 MEMB     211      QMPE     C39      CTL2    -0.180000       12.0110           0
     26242 MEMB     211      QMPE     H9X      HAL2     0.900000E-01   1.00800           0
     26243 MEMB     211      QMPE     H9Y      HAL2     0.900000E-01   1.00800           0
     26244 MEMB     211      QMPE     C310     CTL2    -0.180000       12.0110           0
     26245 MEMB     211      QMPE     H10X     HAL2     0.900000E-01   1.00800           0
     26246 MEMB     211      QMPE     H10Y     HAL2     0.900000E-01   1.00800           0
     26247 MEMB     211      QMPE     C311     CTL2    -0.180000       12.0110           0
     26248 MEMB     211      QMPE     H11X     HAL2     0.900000E-01   1.00800           0
     26249 MEMB     211      QMPE     H11Y     HAL2     0.900000E-01   1.00800           0
     26250 MEMB     211      QMPE     C312     CTL2    -0.180000       12.0110           0
     26251 MEMB     211      QMPE     H12X     HAL2     0.900000E-01   1.00800           0
     26252 MEMB     211      QMPE     H12Y     HAL2     0.900000E-01   1.00800           0
     26253 MEMB     211      QMPE     C313     CTL2    -0.180000       12.0110           0
     26254 MEMB     211      QMPE     H13X     HAL2     0.900000E-01   1.00800           0
     26255 MEMB     211      QMPE     H13Y     HAL2     0.900000E-01   1.00800           0
     26256 MEMB     211      QMPE     C314     CTL2    -0.180000       12.0110           0
     26257 MEMB     211      QMPE     H14X     HAL2     0.900000E-01   1.00800           0
     26258 MEMB     211      QMPE     H14Y     HAL2     0.900000E-01   1.00800           0
     26259 MEMB     211      QMPE     C315     CTL3    -0.270000       12.0110           0
     26260 MEMB     211      QMPE     H15X     HAL3     0.900000E-01   1.00800           0
     26261 MEMB     211      QMPE     H15Y     HAL3     0.900000E-01   1.00800           0
     26262 MEMB     211      QMPE     H15Z     HAL3     0.900000E-01   1.00800           0
     26263 MEMB     212      PMPG     C13      CTL2     0.500000E-01   12.0110           0
     26264 MEMB     212      PMPG     H13A     HAL2     0.900000E-01   1.00800           0
     26265 MEMB     212      PMPG     H13B     HAL2     0.900000E-01   1.00800           0
     26266 MEMB     212      PMPG     OC3      OHL     -0.660000       15.9994           0
     26267 MEMB     212      PMPG     HO3      HOL      0.430000       1.00800           0
     26268 MEMB     212      PMPG     C12      CTL1     0.140000       12.0110           0
     26269 MEMB     212      PMPG     H12A     HAL1     0.900000E-01   1.00800           0
     26270 MEMB     212      PMPG     OC2      OHL     -0.660000       15.9994           0
     26271 MEMB     212      PMPG     HO2      HOL      0.430000       1.00800           0
     26272 MEMB     212      PMPG     C11      CTL2    -0.800000E-01   12.0110           0
     26273 MEMB     212      PMPG     H11A     HAL2     0.900000E-01   1.00800           0
     26274 MEMB     212      PMPG     H11B     HAL2     0.900000E-01   1.00800           0
     26275 MEMB     212      PMPG     P        PL        1.50000       30.9740           0
     26276 MEMB     212      PMPG     O13      O2L     -0.780000       15.9994           0
     26277 MEMB     212      PMPG     O14      O2L     -0.780000       15.9994           0
     26278 MEMB     212      PMPG     O11      OSLP    -0.570000       15.9994           0
     26279 MEMB     212      PMPG     O12      OSLP    -0.570000       15.9994           0
     26280 MEMB     212      PMPG     C1       CTL2    -0.800000E-01   12.0110           0
     26281 MEMB     212      PMPG     HA       HAL2     0.900000E-01   1.00800           0
     26282 MEMB     212      PMPG     HB       HAL2     0.900000E-01   1.00800           0
     26283 MEMB     212      PMPG     C2       CTL1     0.170000       12.0110           0
     26284 MEMB     212      PMPG     HS       HAL1     0.900000E-01   1.00800           0
     26285 MEMB     212      PMPG     O21      OSL     -0.490000       15.9994           0
     26286 MEMB     212      PMPG     C21      CL       0.900000       12.0110           0
     26287 MEMB     212      PMPG     O22      OBL     -0.630000       15.9994           0
     26288 MEMB     212      PMPG     C22      CTL2    -0.220000       12.0110           0
     26289 MEMB     212      PMPG     H2R      HAL2     0.900000E-01   1.00800           0
     26290 MEMB     212      PMPG     H2S      HAL2     0.900000E-01   1.00800           0
     26291 MEMB     212      PMPG     C3       CTL2     0.800000E-01   12.0110           0
     26292 MEMB     212      PMPG     HX       HAL2     0.900000E-01   1.00800           0
     26293 MEMB     212      PMPG     HY       HAL2     0.900000E-01   1.00800           0
     26294 MEMB     212      PMPG     O31      OSL     -0.490000       15.9994           0
     26295 MEMB     212      PMPG     C31      CL       0.900000       12.0110           0
     26296 MEMB     212      PMPG     O32      OBL     -0.630000       15.9994           0
     26297 MEMB     212      PMPG     C32      CTL2    -0.220000       12.0110           0
     26298 MEMB     212      PMPG     H2X      HAL2     0.900000E-01   1.00800           0
     26299 MEMB     212      PMPG     H2Y      HAL2     0.900000E-01   1.00800           0
     26300 MEMB     212      PMPG     C23      CTL2    -0.180000       12.0110           0
     26301 MEMB     212      PMPG     H3R      HAL2     0.900000E-01   1.00800           0
     26302 MEMB     212      PMPG     H3S      HAL2     0.900000E-01   1.00800           0
     26303 MEMB     212      PMPG     C24      CTL2    -0.180000       12.0110           0
     26304 MEMB     212      PMPG     H4R      HAL2     0.900000E-01   1.00800           0
     26305 MEMB     212      PMPG     H4S      HAL2     0.900000E-01   1.00800           0
     26306 MEMB     212      PMPG     C25      CTL2    -0.180000       12.0110           0
     26307 MEMB     212      PMPG     H5R      HAL2     0.900000E-01   1.00800           0
     26308 MEMB     212      PMPG     H5S      HAL2     0.900000E-01   1.00800           0
     26309 MEMB     212      PMPG     C26      CTL2    -0.180000       12.0110           0
     26310 MEMB     212      PMPG     H6R      HAL2     0.900000E-01   1.00800           0
     26311 MEMB     212      PMPG     H6S      HAL2     0.900000E-01   1.00800           0
     26312 MEMB     212      PMPG     C27      CTL2    -0.180000       12.0110           0
     26313 MEMB     212      PMPG     H7R      HAL2     0.900000E-01   1.00800           0
     26314 MEMB     212      PMPG     H7S      HAL2     0.900000E-01   1.00800           0
     26315 MEMB     212      PMPG     C28      CTL2    -0.180000       12.0110           0
     26316 MEMB     212      PMPG     H8R      HAL2     0.900000E-01   1.00800           0
     26317 MEMB     212      PMPG     H8S      HAL2     0.900000E-01   1.00800           0
     26318 MEMB     212      PMPG     C29      CG3RC1  -0.900000E-01   12.0110           0
     26319 MEMB     212      PMPG     H9R      HGA1     0.900000E-01   1.00800           0
     26320 MEMB     212      PMPG     C217     CG3C31  -0.180000       12.0110           0
     26321 MEMB     212      PMPG     H17R     HGA2     0.900000E-01   1.00800           0
     26322 MEMB     212      PMPG     H17S     HGA2     0.900000E-01   1.00800           0
     26323 MEMB     212      PMPG     C210     CG3RC1  -0.900000E-01   12.0110           0
     26324 MEMB     212      PMPG     H10R     HGA1     0.900000E-01   1.00800           0
     26325 MEMB     212      PMPG     C211     CTL2    -0.180000       12.0110           0
     26326 MEMB     212      PMPG     H11R     HAL2     0.900000E-01   1.00800           0
     26327 MEMB     212      PMPG     H11S     HAL2     0.900000E-01   1.00800           0
     26328 MEMB     212      PMPG     C212     CTL2    -0.180000       12.0110           0
     26329 MEMB     212      PMPG     H12R     HAL2     0.900000E-01   1.00800           0
     26330 MEMB     212      PMPG     H12S     HAL2     0.900000E-01   1.00800           0
     26331 MEMB     212      PMPG     C213     CTL2    -0.180000       12.0110           0
     26332 MEMB     212      PMPG     H13R     HAL2     0.900000E-01   1.00800           0
     26333 MEMB     212      PMPG     H13S     HAL2     0.900000E-01   1.00800           0
     26334 MEMB     212      PMPG     C214     CTL2    -0.180000       12.0110           0
     26335 MEMB     212      PMPG     H14R     HAL2     0.900000E-01   1.00800           0
     26336 MEMB     212      PMPG     H14S     HAL2     0.900000E-01   1.00800           0
     26337 MEMB     212      PMPG     C215     CTL2    -0.180000       12.0110           0
     26338 MEMB     212      PMPG     H15R     HAL2     0.900000E-01   1.00800           0
     26339 MEMB     212      PMPG     H15S     HAL2     0.900000E-01   1.00800           0
     26340 MEMB     212      PMPG     C216     CTL3    -0.270000       12.0110           0
     26341 MEMB     212      PMPG     H16R     HAL3     0.900000E-01   1.00800           0
     26342 MEMB     212      PMPG     H16S     HAL3     0.900000E-01   1.00800           0
     26343 MEMB     212      PMPG     H16T     HAL3     0.900000E-01   1.00800           0
     26344 MEMB     212      PMPG     C33      CTL2    -0.180000       12.0110           0
     26345 MEMB     212      PMPG     H3X      HAL2     0.900000E-01   1.00800           0
     26346 MEMB     212      PMPG     H3Y      HAL2     0.900000E-01   1.00800           0
     26347 MEMB     212      PMPG     C34      CTL2    -0.180000       12.0110           0
     26348 MEMB     212      PMPG     H4X      HAL2     0.900000E-01   1.00800           0
     26349 MEMB     212      PMPG     H4Y      HAL2     0.900000E-01   1.00800           0
     26350 MEMB     212      PMPG     C35      CTL2    -0.180000       12.0110           0
     26351 MEMB     212      PMPG     H5X      HAL2     0.900000E-01   1.00800           0
     26352 MEMB     212      PMPG     H5Y      HAL2     0.900000E-01   1.00800           0
     26353 MEMB     212      PMPG     C36      CTL2    -0.180000       12.0110           0
     26354 MEMB     212      PMPG     H6X      HAL2     0.900000E-01   1.00800           0
     26355 MEMB     212      PMPG     H6Y      HAL2     0.900000E-01   1.00800           0
     26356 MEMB     212      PMPG     C37      CTL2    -0.180000       12.0110           0
     26357 MEMB     212      PMPG     H7X      HAL2     0.900000E-01   1.00800           0
     26358 MEMB     212      PMPG     H7Y      HAL2     0.900000E-01   1.00800           0
     26359 MEMB     212      PMPG     C38      CTL2    -0.180000       12.0110           0
     26360 MEMB     212      PMPG     H8X      HAL2     0.900000E-01   1.00800           0
     26361 MEMB     212      PMPG     H8Y      HAL2     0.900000E-01   1.00800           0
     26362 MEMB     212      PMPG     C39      CTL2    -0.180000       12.0110           0
     26363 MEMB     212      PMPG     H9X      HAL2     0.900000E-01   1.00800           0
     26364 MEMB     212      PMPG     H9Y      HAL2     0.900000E-01   1.00800           0
     26365 MEMB     212      PMPG     C310     CTL2    -0.180000       12.0110           0
     26366 MEMB     212      PMPG     H10X     HAL2     0.900000E-01   1.00800           0
     26367 MEMB     212      PMPG     H10Y     HAL2     0.900000E-01   1.00800           0
     26368 MEMB     212      PMPG     C311     CTL2    -0.180000       12.0110           0
     26369 MEMB     212      PMPG     H11X     HAL2     0.900000E-01   1.00800           0
     26370 MEMB     212      PMPG     H11Y     HAL2     0.900000E-01   1.00800           0
     26371 MEMB     212      PMPG     C312     CTL2    -0.180000       12.0110           0
     26372 MEMB     212      PMPG     H12X     HAL2     0.900000E-01   1.00800           0
     26373 MEMB     212      PMPG     H12Y     HAL2     0.900000E-01   1.00800           0
     26374 MEMB     212      PMPG     C313     CTL2    -0.180000       12.0110           0
     26375 MEMB     212      PMPG     H13X     HAL2     0.900000E-01   1.00800           0
     26376 MEMB     212      PMPG     H13Y     HAL2     0.900000E-01   1.00800           0
     26377 MEMB     212      PMPG     C314     CTL2    -0.180000       12.0110           0
     26378 MEMB     212      PMPG     H14X     HAL2     0.900000E-01   1.00800           0
     26379 MEMB     212      PMPG     H14Y     HAL2     0.900000E-01   1.00800           0
     26380 MEMB     212      PMPG     C315     CTL2    -0.180000       12.0110           0
     26381 MEMB     212      PMPG     H15X     HAL2     0.900000E-01   1.00800           0
     26382 MEMB     212      PMPG     H15Y     HAL2     0.900000E-01   1.00800           0
     26383 MEMB     212      PMPG     C316     CTL3    -0.270000       12.0110           0
     26384 MEMB     212      PMPG     H16X     HAL3     0.900000E-01   1.00800           0
     26385 MEMB     212      PMPG     H16Y     HAL3     0.900000E-01   1.00800           0
     26386 MEMB     212      PMPG     H16Z     HAL3     0.900000E-01   1.00800           0
     26387 MEMB     213      PMPE     N        NH3L    -0.300000       14.0070           0
     26388 MEMB     213      PMPE     HN1      HCL      0.330000       1.00800           0
     26389 MEMB     213      PMPE     HN2      HCL      0.330000       1.00800           0
     26390 MEMB     213      PMPE     HN3      HCL      0.330000       1.00800           0
     26391 MEMB     213      PMPE     C12      CTL2     0.130000       12.0110           0
     26392 MEMB     213      PMPE     H12A     HAL2     0.900000E-01   1.00800           0
     26393 MEMB     213      PMPE     H12B     HAL2     0.900000E-01   1.00800           0
     26394 MEMB     213      PMPE     C11      CTL2    -0.800000E-01   12.0110           0
     26395 MEMB     213      PMPE     H11A     HAL2     0.900000E-01   1.00800           0
     26396 MEMB     213      PMPE     H11B     HAL2     0.900000E-01   1.00800           0
     26397 MEMB     213      PMPE     P        PL        1.50000       30.9740           0
     26398 MEMB     213      PMPE     O13      O2L     -0.780000       15.9994           0
     26399 MEMB     213      PMPE     O14      O2L     -0.780000       15.9994           0
     26400 MEMB     213      PMPE     O11      OSLP    -0.570000       15.9994           0
     26401 MEMB     213      PMPE     O12      OSLP    -0.570000       15.9994           0
     26402 MEMB     213      PMPE     C1       CTL2    -0.800000E-01   12.0110           0
     26403 MEMB     213      PMPE     HA       HAL2     0.900000E-01   1.00800           0
     26404 MEMB     213      PMPE     HB       HAL2     0.900000E-01   1.00800           0
     26405 MEMB     213      PMPE     C2       CTL1     0.170000       12.0110           0
     26406 MEMB     213      PMPE     HS       HAL1     0.900000E-01   1.00800           0
     26407 MEMB     213      PMPE     O21      OSL     -0.490000       15.9994           0
     26408 MEMB     213      PMPE     C21      CL       0.900000       12.0110           0
     26409 MEMB     213      PMPE     O22      OBL     -0.630000       15.9994           0
     26410 MEMB     213      PMPE     C22      CTL2    -0.220000       12.0110           0
     26411 MEMB     213      PMPE     H2R      HAL2     0.900000E-01   1.00800           0
     26412 MEMB     213      PMPE     H2S      HAL2     0.900000E-01   1.00800           0
     26413 MEMB     213      PMPE     C3       CTL2     0.800000E-01   12.0110           0
     26414 MEMB     213      PMPE     HX       HAL2     0.900000E-01   1.00800           0
     26415 MEMB     213      PMPE     HY       HAL2     0.900000E-01   1.00800           0
     26416 MEMB     213      PMPE     O31      OSL     -0.490000       15.9994           0
     26417 MEMB     213      PMPE     C31      CL       0.900000       12.0110           0
     26418 MEMB     213      PMPE     O32      OBL     -0.630000       15.9994           0
     26419 MEMB     213      PMPE     C32      CTL2    -0.220000       12.0110           0
     26420 MEMB     213      PMPE     H2X      HAL2     0.900000E-01   1.00800           0
     26421 MEMB     213      PMPE     H2Y      HAL2     0.900000E-01   1.00800           0
     26422 MEMB     213      PMPE     C23      CTL2    -0.180000       12.0110           0
     26423 MEMB     213      PMPE     H3R      HAL2     0.900000E-01   1.00800           0
     26424 MEMB     213      PMPE     H3S      HAL2     0.900000E-01   1.00800           0
     26425 MEMB     213      PMPE     C24      CTL2    -0.180000       12.0110           0
     26426 MEMB     213      PMPE     H4R      HAL2     0.900000E-01   1.00800           0
     26427 MEMB     213      PMPE     H4S      HAL2     0.900000E-01   1.00800           0
     26428 MEMB     213      PMPE     C25      CTL2    -0.180000       12.0110           0
     26429 MEMB     213      PMPE     H5R      HAL2     0.900000E-01   1.00800           0
     26430 MEMB     213      PMPE     H5S      HAL2     0.900000E-01   1.00800           0
     26431 MEMB     213      PMPE     C26      CTL2    -0.180000       12.0110           0
     26432 MEMB     213      PMPE     H6R      HAL2     0.900000E-01   1.00800           0
     26433 MEMB     213      PMPE     H6S      HAL2     0.900000E-01   1.00800           0
     26434 MEMB     213      PMPE     C27      CTL2    -0.180000       12.0110           0
     26435 MEMB     213      PMPE     H7R      HAL2     0.900000E-01   1.00800           0
     26436 MEMB     213      PMPE     H7S      HAL2     0.900000E-01   1.00800           0
     26437 MEMB     213      PMPE     C28      CTL2    -0.180000       12.0110           0
     26438 MEMB     213      PMPE     H8R      HAL2     0.900000E-01   1.00800           0
     26439 MEMB     213      PMPE     H8S      HAL2     0.900000E-01   1.00800           0
     26440 MEMB     213      PMPE     C29      CG3RC1  -0.900000E-01   12.0110           0
     26441 MEMB     213      PMPE     H9R      HGA1     0.900000E-01   1.00800           0
     26442 MEMB     213      PMPE     C217     CG3C31  -0.180000       12.0110           0
     26443 MEMB     213      PMPE     H17R     HGA2     0.900000E-01   1.00800           0
     26444 MEMB     213      PMPE     H17S     HGA2     0.900000E-01   1.00800           0
     26445 MEMB     213      PMPE     C210     CG3RC1  -0.900000E-01   12.0110           0
     26446 MEMB     213      PMPE     H10R     HGA1     0.900000E-01   1.00800           0
     26447 MEMB     213      PMPE     C211     CTL2    -0.180000       12.0110           0
     26448 MEMB     213      PMPE     H11R     HAL2     0.900000E-01   1.00800           0
     26449 MEMB     213      PMPE     H11S     HAL2     0.900000E-01   1.00800           0
     26450 MEMB     213      PMPE     C212     CTL2    -0.180000       12.0110           0
     26451 MEMB     213      PMPE     H12R     HAL2     0.900000E-01   1.00800           0
     26452 MEMB     213      PMPE     H12S     HAL2     0.900000E-01   1.00800           0
     26453 MEMB     213      PMPE     C213     CTL2    -0.180000       12.0110           0
     26454 MEMB     213      PMPE     H13R     HAL2     0.900000E-01   1.00800           0
     26455 MEMB     213      PMPE     H13S     HAL2     0.900000E-01   1.00800           0
     26456 MEMB     213      PMPE     C214     CTL2    -0.180000       12.0110           0
     26457 MEMB     213      PMPE     H14R     HAL2     0.900000E-01   1.00800           0
     26458 MEMB     213      PMPE     H14S     HAL2     0.900000E-01   1.00800           0
     26459 MEMB     213      PMPE     C215     CTL2    -0.180000       12.0110           0
     26460 MEMB     213      PMPE     H15R     HAL2     0.900000E-01   1.00800           0
     26461 MEMB     213      PMPE     H15S     HAL2     0.900000E-01   1.00800           0
     26462 MEMB     213      PMPE     C216     CTL3    -0.270000       12.0110           0
     26463 MEMB     213      PMPE     H16R     HAL3     0.900000E-01   1.00800           0
     26464 MEMB     213      PMPE     H16S     HAL3     0.900000E-01   1.00800           0
     26465 MEMB     213      PMPE     H16T     HAL3     0.900000E-01   1.00800           0
     26466 MEMB     213      PMPE     C33      CTL2    -0.180000       12.0110           0
     26467 MEMB     213      PMPE     H3X      HAL2     0.900000E-01   1.00800           0
     26468 MEMB     213      PMPE     H3Y      HAL2     0.900000E-01   1.00800           0
     26469 MEMB     213      PMPE     C34      CTL2    -0.180000       12.0110           0
     26470 MEMB     213      PMPE     H4X      HAL2     0.900000E-01   1.00800           0
     26471 MEMB     213      PMPE     H4Y      HAL2     0.900000E-01   1.00800           0
     26472 MEMB     213      PMPE     C35      CTL2    -0.180000       12.0110           0
     26473 MEMB     213      PMPE     H5X      HAL2     0.900000E-01   1.00800           0
     26474 MEMB     213      PMPE     H5Y      HAL2     0.900000E-01   1.00800           0
     26475 MEMB     213      PMPE     C36      CTL2    -0.180000       12.0110           0
     26476 MEMB     213      PMPE     H6X      HAL2     0.900000E-01   1.00800           0
     26477 MEMB     213      PMPE     H6Y      HAL2     0.900000E-01   1.00800           0
     26478 MEMB     213      PMPE     C37      CTL2    -0.180000       12.0110           0
     26479 MEMB     213      PMPE     H7X      HAL2     0.900000E-01   1.00800           0
     26480 MEMB     213      PMPE     H7Y      HAL2     0.900000E-01   1.00800           0
     26481 MEMB     213      PMPE     C38      CTL2    -0.180000       12.0110           0
     26482 MEMB     213      PMPE     H8X      HAL2     0.900000E-01   1.00800           0
     26483 MEMB     213      PMPE     H8Y      HAL2     0.900000E-01   1.00800           0
     26484 MEMB     213      PMPE     C39      CTL2    -0.180000       12.0110           0
     26485 MEMB     213      PMPE     H9X      HAL2     0.900000E-01   1.00800           0
     26486 MEMB     213      PMPE     H9Y      HAL2     0.900000E-01   1.00800           0
     26487 MEMB     213      PMPE     C310     CTL2    -0.180000       12.0110           0
     26488 MEMB     213      PMPE     H10X     HAL2     0.900000E-01   1.00800           0
     26489 MEMB     213      PMPE     H10Y     HAL2     0.900000E-01   1.00800           0
     26490 MEMB     213      PMPE     C311     CTL2    -0.180000       12.0110           0
     26491 MEMB     213      PMPE     H11X     HAL2     0.900000E-01   1.00800           0
     26492 MEMB     213      PMPE     H11Y     HAL2     0.900000E-01   1.00800           0
     26493 MEMB     213      PMPE     C312     CTL2    -0.180000       12.0110           0
     26494 MEMB     213      PMPE     H12X     HAL2     0.900000E-01   1.00800           0
     26495 MEMB     213      PMPE     H12Y     HAL2     0.900000E-01   1.00800           0
     26496 MEMB     213      PMPE     C313     CTL2    -0.180000       12.0110           0
     26497 MEMB     213      PMPE     H13X     HAL2     0.900000E-01   1.00800           0
     26498 MEMB     213      PMPE     H13Y     HAL2     0.900000E-01   1.00800           0
     26499 MEMB     213      PMPE     C314     CTL2    -0.180000       12.0110           0
     26500 MEMB     213      PMPE     H14X     HAL2     0.900000E-01   1.00800           0
     26501 MEMB     213      PMPE     H14Y     HAL2     0.900000E-01   1.00800           0
     26502 MEMB     213      PMPE     C315     CTL2    -0.180000       12.0110           0
     26503 MEMB     213      PMPE     H15X     HAL2     0.900000E-01   1.00800           0
     26504 MEMB     213      PMPE     H15Y     HAL2     0.900000E-01   1.00800           0
     26505 MEMB     213      PMPE     C316     CTL3    -0.270000       12.0110           0
     26506 MEMB     213      PMPE     H16X     HAL3     0.900000E-01   1.00800           0
     26507 MEMB     213      PMPE     H16Y     HAL3     0.900000E-01   1.00800           0
     26508 MEMB     213      PMPE     H16Z     HAL3     0.900000E-01   1.00800           0
     26509 MEMB     214      PYPG     C13      CTL2     0.500000E-01   12.0110           0
     26510 MEMB     214      PYPG     H13A     HAL2     0.900000E-01   1.00800           0
     26511 MEMB     214      PYPG     H13B     HAL2     0.900000E-01   1.00800           0
     26512 MEMB     214      PYPG     OC3      OHL     -0.660000       15.9994           0
     26513 MEMB     214      PYPG     HO3      HOL      0.430000       1.00800           0
     26514 MEMB     214      PYPG     C12      CTL1     0.140000       12.0110           0
     26515 MEMB     214      PYPG     H12A     HAL1     0.900000E-01   1.00800           0
     26516 MEMB     214      PYPG     OC2      OHL     -0.660000       15.9994           0
     26517 MEMB     214      PYPG     HO2      HOL      0.430000       1.00800           0
     26518 MEMB     214      PYPG     C11      CTL2    -0.800000E-01   12.0110           0
     26519 MEMB     214      PYPG     H11A     HAL2     0.900000E-01   1.00800           0
     26520 MEMB     214      PYPG     H11B     HAL2     0.900000E-01   1.00800           0
     26521 MEMB     214      PYPG     P        PL        1.50000       30.9740           0
     26522 MEMB     214      PYPG     O13      O2L     -0.780000       15.9994           0
     26523 MEMB     214      PYPG     O14      O2L     -0.780000       15.9994           0
     26524 MEMB     214      PYPG     O11      OSLP    -0.570000       15.9994           0
     26525 MEMB     214      PYPG     O12      OSLP    -0.570000       15.9994           0
     26526 MEMB     214      PYPG     C1       CTL2    -0.800000E-01   12.0110           0
     26527 MEMB     214      PYPG     HA       HAL2     0.900000E-01   1.00800           0
     26528 MEMB     214      PYPG     HB       HAL2     0.900000E-01   1.00800           0
     26529 MEMB     214      PYPG     C2       CTL1     0.170000       12.0110           0
     26530 MEMB     214      PYPG     HS       HAL1     0.900000E-01   1.00800           0
     26531 MEMB     214      PYPG     O21      OSL     -0.490000       15.9994           0
     26532 MEMB     214      PYPG     C21      CL       0.900000       12.0110           0
     26533 MEMB     214      PYPG     O22      OBL     -0.630000       15.9994           0
     26534 MEMB     214      PYPG     C22      CTL2    -0.220000       12.0110           0
     26535 MEMB     214      PYPG     H2R      HAL2     0.900000E-01   1.00800           0
     26536 MEMB     214      PYPG     H2S      HAL2     0.900000E-01   1.00800           0
     26537 MEMB     214      PYPG     C3       CTL2     0.800000E-01   12.0110           0
     26538 MEMB     214      PYPG     HX       HAL2     0.900000E-01   1.00800           0
     26539 MEMB     214      PYPG     HY       HAL2     0.900000E-01   1.00800           0
     26540 MEMB     214      PYPG     O31      OSL     -0.490000       15.9994           0
     26541 MEMB     214      PYPG     C31      CL       0.900000       12.0110           0
     26542 MEMB     214      PYPG     O32      OBL     -0.630000       15.9994           0
     26543 MEMB     214      PYPG     C32      CTL2    -0.220000       12.0110           0
     26544 MEMB     214      PYPG     H2X      HAL2     0.900000E-01   1.00800           0
     26545 MEMB     214      PYPG     H2Y      HAL2     0.900000E-01   1.00800           0
     26546 MEMB     214      PYPG     C23      CTL2    -0.180000       12.0110           0
     26547 MEMB     214      PYPG     H3R      HAL2     0.900000E-01   1.00800           0
     26548 MEMB     214      PYPG     H3S      HAL2     0.900000E-01   1.00800           0
     26549 MEMB     214      PYPG     C24      CTL2    -0.180000       12.0110           0
     26550 MEMB     214      PYPG     H4R      HAL2     0.900000E-01   1.00800           0
     26551 MEMB     214      PYPG     H4S      HAL2     0.900000E-01   1.00800           0
     26552 MEMB     214      PYPG     C25      CTL2    -0.180000       12.0110           0
     26553 MEMB     214      PYPG     H5R      HAL2     0.900000E-01   1.00800           0
     26554 MEMB     214      PYPG     H5S      HAL2     0.900000E-01   1.00800           0
     26555 MEMB     214      PYPG     C26      CTL2    -0.180000       12.0110           0
     26556 MEMB     214      PYPG     H6R      HAL2     0.900000E-01   1.00800           0
     26557 MEMB     214      PYPG     H6S      HAL2     0.900000E-01   1.00800           0
     26558 MEMB     214      PYPG     C27      CTL2    -0.180000       12.0110           0
     26559 MEMB     214      PYPG     H7R      HAL2     0.900000E-01   1.00800           0
     26560 MEMB     214      PYPG     H7S      HAL2     0.900000E-01   1.00800           0
     26561 MEMB     214      PYPG     C28      CTL2    -0.180000       12.0110           0
     26562 MEMB     214      PYPG     H8R      HAL2     0.900000E-01   1.00800           0
     26563 MEMB     214      PYPG     H8S      HAL2     0.900000E-01   1.00800           0
     26564 MEMB     214      PYPG     C29      CEL1    -0.150000       12.0110           0
     26565 MEMB     214      PYPG     H9R      HEL1     0.150000       1.00800           0
     26566 MEMB     214      PYPG     C210     CEL1    -0.150000       12.0110           0
     26567 MEMB     214      PYPG     H10R     HEL1     0.150000       1.00800           0
     26568 MEMB     214      PYPG     C211     CTL2    -0.180000       12.0110           0
     26569 MEMB     214      PYPG     H11R     HAL2     0.900000E-01   1.00800           0
     26570 MEMB     214      PYPG     H11S     HAL2     0.900000E-01   1.00800           0
     26571 MEMB     214      PYPG     C212     CTL2    -0.180000       12.0110           0
     26572 MEMB     214      PYPG     H12R     HAL2     0.900000E-01   1.00800           0
     26573 MEMB     214      PYPG     H12S     HAL2     0.900000E-01   1.00800           0
     26574 MEMB     214      PYPG     C213     CTL2    -0.180000       12.0110           0
     26575 MEMB     214      PYPG     H13R     HAL2     0.900000E-01   1.00800           0
     26576 MEMB     214      PYPG     H13S     HAL2     0.900000E-01   1.00800           0
     26577 MEMB     214      PYPG     C214     CTL2    -0.180000       12.0110           0
     26578 MEMB     214      PYPG     H14R     HAL2     0.900000E-01   1.00800           0
     26579 MEMB     214      PYPG     H14S     HAL2     0.900000E-01   1.00800           0
     26580 MEMB     214      PYPG     C215     CTL2    -0.180000       12.0110           0
     26581 MEMB     214      PYPG     H15R     HAL2     0.900000E-01   1.00800           0
     26582 MEMB     214      PYPG     H15S     HAL2     0.900000E-01   1.00800           0
     26583 MEMB     214      PYPG     C216     CTL3    -0.270000       12.0110           0
     26584 MEMB     214      PYPG     H16R     HAL3     0.900000E-01   1.00800           0
     26585 MEMB     214      PYPG     H16S     HAL3     0.900000E-01   1.00800           0
     26586 MEMB     214      PYPG     H16T     HAL3     0.900000E-01   1.00800           0
     26587 MEMB     214      PYPG     C33      CTL2    -0.180000       12.0110           0
     26588 MEMB     214      PYPG     H3X      HAL2     0.900000E-01   1.00800           0
     26589 MEMB     214      PYPG     H3Y      HAL2     0.900000E-01   1.00800           0
     26590 MEMB     214      PYPG     C34      CTL2    -0.180000       12.0110           0
     26591 MEMB     214      PYPG     H4X      HAL2     0.900000E-01   1.00800           0
     26592 MEMB     214      PYPG     H4Y      HAL2     0.900000E-01   1.00800           0
     26593 MEMB     214      PYPG     C35      CTL2    -0.180000       12.0110           0
     26594 MEMB     214      PYPG     H5X      HAL2     0.900000E-01   1.00800           0
     26595 MEMB     214      PYPG     H5Y      HAL2     0.900000E-01   1.00800           0
     26596 MEMB     214      PYPG     C36      CTL2    -0.180000       12.0110           0
     26597 MEMB     214      PYPG     H6X      HAL2     0.900000E-01   1.00800           0
     26598 MEMB     214      PYPG     H6Y      HAL2     0.900000E-01   1.00800           0
     26599 MEMB     214      PYPG     C37      CTL2    -0.180000       12.0110           0
     26600 MEMB     214      PYPG     H7X      HAL2     0.900000E-01   1.00800           0
     26601 MEMB     214      PYPG     H7Y      HAL2     0.900000E-01   1.00800           0
     26602 MEMB     214      PYPG     C38      CTL2    -0.180000       12.0110           0
     26603 MEMB     214      PYPG     H8X      HAL2     0.900000E-01   1.00800           0
     26604 MEMB     214      PYPG     H8Y      HAL2     0.900000E-01   1.00800           0
     26605 MEMB     214      PYPG     C39      CTL2    -0.180000       12.0110           0
     26606 MEMB     214      PYPG     H9X      HAL2     0.900000E-01   1.00800           0
     26607 MEMB     214      PYPG     H9Y      HAL2     0.900000E-01   1.00800           0
     26608 MEMB     214      PYPG     C310     CTL2    -0.180000       12.0110           0
     26609 MEMB     214      PYPG     H10X     HAL2     0.900000E-01   1.00800           0
     26610 MEMB     214      PYPG     H10Y     HAL2     0.900000E-01   1.00800           0
     26611 MEMB     214      PYPG     C311     CTL2    -0.180000       12.0110           0
     26612 MEMB     214      PYPG     H11X     HAL2     0.900000E-01   1.00800           0
     26613 MEMB     214      PYPG     H11Y     HAL2     0.900000E-01   1.00800           0
     26614 MEMB     214      PYPG     C312     CTL2    -0.180000       12.0110           0
     26615 MEMB     214      PYPG     H12X     HAL2     0.900000E-01   1.00800           0
     26616 MEMB     214      PYPG     H12Y     HAL2     0.900000E-01   1.00800           0
     26617 MEMB     214      PYPG     C313     CTL2    -0.180000       12.0110           0
     26618 MEMB     214      PYPG     H13X     HAL2     0.900000E-01   1.00800           0
     26619 MEMB     214      PYPG     H13Y     HAL2     0.900000E-01   1.00800           0
     26620 MEMB     214      PYPG     C314     CTL2    -0.180000       12.0110           0
     26621 MEMB     214      PYPG     H14X     HAL2     0.900000E-01   1.00800           0
     26622 MEMB     214      PYPG     H14Y     HAL2     0.900000E-01   1.00800           0
     26623 MEMB     214      PYPG     C315     CTL2    -0.180000       12.0110           0
     26624 MEMB     214      PYPG     H15X     HAL2     0.900000E-01   1.00800           0
     26625 MEMB     214      PYPG     H15Y     HAL2     0.900000E-01   1.00800           0
     26626 MEMB     214      PYPG     C316     CTL3    -0.270000       12.0110           0
     26627 MEMB     214      PYPG     H16X     HAL3     0.900000E-01   1.00800           0
     26628 MEMB     214      PYPG     H16Y     HAL3     0.900000E-01   1.00800           0
     26629 MEMB     214      PYPG     H16Z     HAL3     0.900000E-01   1.00800           0
     26630 MEMB     215      PMPE     N        NH3L    -0.300000       14.0070           0
     26631 MEMB     215      PMPE     HN1      HCL      0.330000       1.00800           0
     26632 MEMB     215      PMPE     HN2      HCL      0.330000       1.00800           0
     26633 MEMB     215      PMPE     HN3      HCL      0.330000       1.00800           0
     26634 MEMB     215      PMPE     C12      CTL2     0.130000       12.0110           0
     26635 MEMB     215      PMPE     H12A     HAL2     0.900000E-01   1.00800           0
     26636 MEMB     215      PMPE     H12B     HAL2     0.900000E-01   1.00800           0
     26637 MEMB     215      PMPE     C11      CTL2    -0.800000E-01   12.0110           0
     26638 MEMB     215      PMPE     H11A     HAL2     0.900000E-01   1.00800           0
     26639 MEMB     215      PMPE     H11B     HAL2     0.900000E-01   1.00800           0
     26640 MEMB     215      PMPE     P        PL        1.50000       30.9740           0
     26641 MEMB     215      PMPE     O13      O2L     -0.780000       15.9994           0
     26642 MEMB     215      PMPE     O14      O2L     -0.780000       15.9994           0
     26643 MEMB     215      PMPE     O11      OSLP    -0.570000       15.9994           0
     26644 MEMB     215      PMPE     O12      OSLP    -0.570000       15.9994           0
     26645 MEMB     215      PMPE     C1       CTL2    -0.800000E-01   12.0110           0
     26646 MEMB     215      PMPE     HA       HAL2     0.900000E-01   1.00800           0
     26647 MEMB     215      PMPE     HB       HAL2     0.900000E-01   1.00800           0
     26648 MEMB     215      PMPE     C2       CTL1     0.170000       12.0110           0
     26649 MEMB     215      PMPE     HS       HAL1     0.900000E-01   1.00800           0
     26650 MEMB     215      PMPE     O21      OSL     -0.490000       15.9994           0
     26651 MEMB     215      PMPE     C21      CL       0.900000       12.0110           0
     26652 MEMB     215      PMPE     O22      OBL     -0.630000       15.9994           0
     26653 MEMB     215      PMPE     C22      CTL2    -0.220000       12.0110           0
     26654 MEMB     215      PMPE     H2R      HAL2     0.900000E-01   1.00800           0
     26655 MEMB     215      PMPE     H2S      HAL2     0.900000E-01   1.00800           0
     26656 MEMB     215      PMPE     C3       CTL2     0.800000E-01   12.0110           0
     26657 MEMB     215      PMPE     HX       HAL2     0.900000E-01   1.00800           0
     26658 MEMB     215      PMPE     HY       HAL2     0.900000E-01   1.00800           0
     26659 MEMB     215      PMPE     O31      OSL     -0.490000       15.9994           0
     26660 MEMB     215      PMPE     C31      CL       0.900000       12.0110           0
     26661 MEMB     215      PMPE     O32      OBL     -0.630000       15.9994           0
     26662 MEMB     215      PMPE     C32      CTL2    -0.220000       12.0110           0
     26663 MEMB     215      PMPE     H2X      HAL2     0.900000E-01   1.00800           0
     26664 MEMB     215      PMPE     H2Y      HAL2     0.900000E-01   1.00800           0
     26665 MEMB     215      PMPE     C23      CTL2    -0.180000       12.0110           0
     26666 MEMB     215      PMPE     H3R      HAL2     0.900000E-01   1.00800           0
     26667 MEMB     215      PMPE     H3S      HAL2     0.900000E-01   1.00800           0
     26668 MEMB     215      PMPE     C24      CTL2    -0.180000       12.0110           0
     26669 MEMB     215      PMPE     H4R      HAL2     0.900000E-01   1.00800           0
     26670 MEMB     215      PMPE     H4S      HAL2     0.900000E-01   1.00800           0
     26671 MEMB     215      PMPE     C25      CTL2    -0.180000       12.0110           0
     26672 MEMB     215      PMPE     H5R      HAL2     0.900000E-01   1.00800           0
     26673 MEMB     215      PMPE     H5S      HAL2     0.900000E-01   1.00800           0
     26674 MEMB     215      PMPE     C26      CTL2    -0.180000       12.0110           0
     26675 MEMB     215      PMPE     H6R      HAL2     0.900000E-01   1.00800           0
     26676 MEMB     215      PMPE     H6S      HAL2     0.900000E-01   1.00800           0
     26677 MEMB     215      PMPE     C27      CTL2    -0.180000       12.0110           0
     26678 MEMB     215      PMPE     H7R      HAL2     0.900000E-01   1.00800           0
     26679 MEMB     215      PMPE     H7S      HAL2     0.900000E-01   1.00800           0
     26680 MEMB     215      PMPE     C28      CTL2    -0.180000       12.0110           0
     26681 MEMB     215      PMPE     H8R      HAL2     0.900000E-01   1.00800           0
     26682 MEMB     215      PMPE     H8S      HAL2     0.900000E-01   1.00800           0
     26683 MEMB     215      PMPE     C29      CG3RC1  -0.900000E-01   12.0110           0
     26684 MEMB     215      PMPE     H9R      HGA1     0.900000E-01   1.00800           0
     26685 MEMB     215      PMPE     C217     CG3C31  -0.180000       12.0110           0
     26686 MEMB     215      PMPE     H17R     HGA2     0.900000E-01   1.00800           0
     26687 MEMB     215      PMPE     H17S     HGA2     0.900000E-01   1.00800           0
     26688 MEMB     215      PMPE     C210     CG3RC1  -0.900000E-01   12.0110           0
     26689 MEMB     215      PMPE     H10R     HGA1     0.900000E-01   1.00800           0
     26690 MEMB     215      PMPE     C211     CTL2    -0.180000       12.0110           0
     26691 MEMB     215      PMPE     H11R     HAL2     0.900000E-01   1.00800           0
     26692 MEMB     215      PMPE     H11S     HAL2     0.900000E-01   1.00800           0
     26693 MEMB     215      PMPE     C212     CTL2    -0.180000       12.0110           0
     26694 MEMB     215      PMPE     H12R     HAL2     0.900000E-01   1.00800           0
     26695 MEMB     215      PMPE     H12S     HAL2     0.900000E-01   1.00800           0
     26696 MEMB     215      PMPE     C213     CTL2    -0.180000       12.0110           0
     26697 MEMB     215      PMPE     H13R     HAL2     0.900000E-01   1.00800           0
     26698 MEMB     215      PMPE     H13S     HAL2     0.900000E-01   1.00800           0
     26699 MEMB     215      PMPE     C214     CTL2    -0.180000       12.0110           0
     26700 MEMB     215      PMPE     H14R     HAL2     0.900000E-01   1.00800           0
     26701 MEMB     215      PMPE     H14S     HAL2     0.900000E-01   1.00800           0
     26702 MEMB     215      PMPE     C215     CTL2    -0.180000       12.0110           0
     26703 MEMB     215      PMPE     H15R     HAL2     0.900000E-01   1.00800           0
     26704 MEMB     215      PMPE     H15S     HAL2     0.900000E-01   1.00800           0
     26705 MEMB     215      PMPE     C216     CTL3    -0.270000       12.0110           0
     26706 MEMB     215      PMPE     H16R     HAL3     0.900000E-01   1.00800           0
     26707 MEMB     215      PMPE     H16S     HAL3     0.900000E-01   1.00800           0
     26708 MEMB     215      PMPE     H16T     HAL3     0.900000E-01   1.00800           0
     26709 MEMB     215      PMPE     C33      CTL2    -0.180000       12.0110           0
     26710 MEMB     215      PMPE     H3X      HAL2     0.900000E-01   1.00800           0
     26711 MEMB     215      PMPE     H3Y      HAL2     0.900000E-01   1.00800           0
     26712 MEMB     215      PMPE     C34      CTL2    -0.180000       12.0110           0
     26713 MEMB     215      PMPE     H4X      HAL2     0.900000E-01   1.00800           0
     26714 MEMB     215      PMPE     H4Y      HAL2     0.900000E-01   1.00800           0
     26715 MEMB     215      PMPE     C35      CTL2    -0.180000       12.0110           0
     26716 MEMB     215      PMPE     H5X      HAL2     0.900000E-01   1.00800           0
     26717 MEMB     215      PMPE     H5Y      HAL2     0.900000E-01   1.00800           0
     26718 MEMB     215      PMPE     C36      CTL2    -0.180000       12.0110           0
     26719 MEMB     215      PMPE     H6X      HAL2     0.900000E-01   1.00800           0
     26720 MEMB     215      PMPE     H6Y      HAL2     0.900000E-01   1.00800           0
     26721 MEMB     215      PMPE     C37      CTL2    -0.180000       12.0110           0
     26722 MEMB     215      PMPE     H7X      HAL2     0.900000E-01   1.00800           0
     26723 MEMB     215      PMPE     H7Y      HAL2     0.900000E-01   1.00800           0
     26724 MEMB     215      PMPE     C38      CTL2    -0.180000       12.0110           0
     26725 MEMB     215      PMPE     H8X      HAL2     0.900000E-01   1.00800           0
     26726 MEMB     215      PMPE     H8Y      HAL2     0.900000E-01   1.00800           0
     26727 MEMB     215      PMPE     C39      CTL2    -0.180000       12.0110           0
     26728 MEMB     215      PMPE     H9X      HAL2     0.900000E-01   1.00800           0
     26729 MEMB     215      PMPE     H9Y      HAL2     0.900000E-01   1.00800           0
     26730 MEMB     215      PMPE     C310     CTL2    -0.180000       12.0110           0
     26731 MEMB     215      PMPE     H10X     HAL2     0.900000E-01   1.00800           0
     26732 MEMB     215      PMPE     H10Y     HAL2     0.900000E-01   1.00800           0
     26733 MEMB     215      PMPE     C311     CTL2    -0.180000       12.0110           0
     26734 MEMB     215      PMPE     H11X     HAL2     0.900000E-01   1.00800           0
     26735 MEMB     215      PMPE     H11Y     HAL2     0.900000E-01   1.00800           0
     26736 MEMB     215      PMPE     C312     CTL2    -0.180000       12.0110           0
     26737 MEMB     215      PMPE     H12X     HAL2     0.900000E-01   1.00800           0
     26738 MEMB     215      PMPE     H12Y     HAL2     0.900000E-01   1.00800           0
     26739 MEMB     215      PMPE     C313     CTL2    -0.180000       12.0110           0
     26740 MEMB     215      PMPE     H13X     HAL2     0.900000E-01   1.00800           0
     26741 MEMB     215      PMPE     H13Y     HAL2     0.900000E-01   1.00800           0
     26742 MEMB     215      PMPE     C314     CTL2    -0.180000       12.0110           0
     26743 MEMB     215      PMPE     H14X     HAL2     0.900000E-01   1.00800           0
     26744 MEMB     215      PMPE     H14Y     HAL2     0.900000E-01   1.00800           0
     26745 MEMB     215      PMPE     C315     CTL2    -0.180000       12.0110           0
     26746 MEMB     215      PMPE     H15X     HAL2     0.900000E-01   1.00800           0
     26747 MEMB     215      PMPE     H15Y     HAL2     0.900000E-01   1.00800           0
     26748 MEMB     215      PMPE     C316     CTL3    -0.270000       12.0110           0
     26749 MEMB     215      PMPE     H16X     HAL3     0.900000E-01   1.00800           0
     26750 MEMB     215      PMPE     H16Y     HAL3     0.900000E-01   1.00800           0
     26751 MEMB     215      PMPE     H16Z     HAL3     0.900000E-01   1.00800           0
     26752 MEMB     216      PMPE     N        NH3L    -0.300000       14.0070           0
     26753 MEMB     216      PMPE     HN1      HCL      0.330000       1.00800           0
     26754 MEMB     216      PMPE     HN2      HCL      0.330000       1.00800           0
     26755 MEMB     216      PMPE     HN3      HCL      0.330000       1.00800           0
     26756 MEMB     216      PMPE     C12      CTL2     0.130000       12.0110           0
     26757 MEMB     216      PMPE     H12A     HAL2     0.900000E-01   1.00800           0
     26758 MEMB     216      PMPE     H12B     HAL2     0.900000E-01   1.00800           0
     26759 MEMB     216      PMPE     C11      CTL2    -0.800000E-01   12.0110           0
     26760 MEMB     216      PMPE     H11A     HAL2     0.900000E-01   1.00800           0
     26761 MEMB     216      PMPE     H11B     HAL2     0.900000E-01   1.00800           0
     26762 MEMB     216      PMPE     P        PL        1.50000       30.9740           0
     26763 MEMB     216      PMPE     O13      O2L     -0.780000       15.9994           0
     26764 MEMB     216      PMPE     O14      O2L     -0.780000       15.9994           0
     26765 MEMB     216      PMPE     O11      OSLP    -0.570000       15.9994           0
     26766 MEMB     216      PMPE     O12      OSLP    -0.570000       15.9994           0
     26767 MEMB     216      PMPE     C1       CTL2    -0.800000E-01   12.0110           0
     26768 MEMB     216      PMPE     HA       HAL2     0.900000E-01   1.00800           0
     26769 MEMB     216      PMPE     HB       HAL2     0.900000E-01   1.00800           0
     26770 MEMB     216      PMPE     C2       CTL1     0.170000       12.0110           0
     26771 MEMB     216      PMPE     HS       HAL1     0.900000E-01   1.00800           0
     26772 MEMB     216      PMPE     O21      OSL     -0.490000       15.9994           0
     26773 MEMB     216      PMPE     C21      CL       0.900000       12.0110           0
     26774 MEMB     216      PMPE     O22      OBL     -0.630000       15.9994           0
     26775 MEMB     216      PMPE     C22      CTL2    -0.220000       12.0110           0
     26776 MEMB     216      PMPE     H2R      HAL2     0.900000E-01   1.00800           0
     26777 MEMB     216      PMPE     H2S      HAL2     0.900000E-01   1.00800           0
     26778 MEMB     216      PMPE     C3       CTL2     0.800000E-01   12.0110           0
     26779 MEMB     216      PMPE     HX       HAL2     0.900000E-01   1.00800           0
     26780 MEMB     216      PMPE     HY       HAL2     0.900000E-01   1.00800           0
     26781 MEMB     216      PMPE     O31      OSL     -0.490000       15.9994           0
     26782 MEMB     216      PMPE     C31      CL       0.900000       12.0110           0
     26783 MEMB     216      PMPE     O32      OBL     -0.630000       15.9994           0
     26784 MEMB     216      PMPE     C32      CTL2    -0.220000       12.0110           0
     26785 MEMB     216      PMPE     H2X      HAL2     0.900000E-01   1.00800           0
     26786 MEMB     216      PMPE     H2Y      HAL2     0.900000E-01   1.00800           0
     26787 MEMB     216      PMPE     C23      CTL2    -0.180000       12.0110           0
     26788 MEMB     216      PMPE     H3R      HAL2     0.900000E-01   1.00800           0
     26789 MEMB     216      PMPE     H3S      HAL2     0.900000E-01   1.00800           0
     26790 MEMB     216      PMPE     C24      CTL2    -0.180000       12.0110           0
     26791 MEMB     216      PMPE     H4R      HAL2     0.900000E-01   1.00800           0
     26792 MEMB     216      PMPE     H4S      HAL2     0.900000E-01   1.00800           0
     26793 MEMB     216      PMPE     C25      CTL2    -0.180000       12.0110           0
     26794 MEMB     216      PMPE     H5R      HAL2     0.900000E-01   1.00800           0
     26795 MEMB     216      PMPE     H5S      HAL2     0.900000E-01   1.00800           0
     26796 MEMB     216      PMPE     C26      CTL2    -0.180000       12.0110           0
     26797 MEMB     216      PMPE     H6R      HAL2     0.900000E-01   1.00800           0
     26798 MEMB     216      PMPE     H6S      HAL2     0.900000E-01   1.00800           0
     26799 MEMB     216      PMPE     C27      CTL2    -0.180000       12.0110           0
     26800 MEMB     216      PMPE     H7R      HAL2     0.900000E-01   1.00800           0
     26801 MEMB     216      PMPE     H7S      HAL2     0.900000E-01   1.00800           0
     26802 MEMB     216      PMPE     C28      CTL2    -0.180000       12.0110           0
     26803 MEMB     216      PMPE     H8R      HAL2     0.900000E-01   1.00800           0
     26804 MEMB     216      PMPE     H8S      HAL2     0.900000E-01   1.00800           0
     26805 MEMB     216      PMPE     C29      CG3RC1  -0.900000E-01   12.0110           0
     26806 MEMB     216      PMPE     H9R      HGA1     0.900000E-01   1.00800           0
     26807 MEMB     216      PMPE     C217     CG3C31  -0.180000       12.0110           0
     26808 MEMB     216      PMPE     H17R     HGA2     0.900000E-01   1.00800           0
     26809 MEMB     216      PMPE     H17S     HGA2     0.900000E-01   1.00800           0
     26810 MEMB     216      PMPE     C210     CG3RC1  -0.900000E-01   12.0110           0
     26811 MEMB     216      PMPE     H10R     HGA1     0.900000E-01   1.00800           0
     26812 MEMB     216      PMPE     C211     CTL2    -0.180000       12.0110           0
     26813 MEMB     216      PMPE     H11R     HAL2     0.900000E-01   1.00800           0
     26814 MEMB     216      PMPE     H11S     HAL2     0.900000E-01   1.00800           0
     26815 MEMB     216      PMPE     C212     CTL2    -0.180000       12.0110           0
     26816 MEMB     216      PMPE     H12R     HAL2     0.900000E-01   1.00800           0
     26817 MEMB     216      PMPE     H12S     HAL2     0.900000E-01   1.00800           0
     26818 MEMB     216      PMPE     C213     CTL2    -0.180000       12.0110           0
     26819 MEMB     216      PMPE     H13R     HAL2     0.900000E-01   1.00800           0
     26820 MEMB     216      PMPE     H13S     HAL2     0.900000E-01   1.00800           0
     26821 MEMB     216      PMPE     C214     CTL2    -0.180000       12.0110           0
     26822 MEMB     216      PMPE     H14R     HAL2     0.900000E-01   1.00800           0
     26823 MEMB     216      PMPE     H14S     HAL2     0.900000E-01   1.00800           0
     26824 MEMB     216      PMPE     C215     CTL2    -0.180000       12.0110           0
     26825 MEMB     216      PMPE     H15R     HAL2     0.900000E-01   1.00800           0
     26826 MEMB     216      PMPE     H15S     HAL2     0.900000E-01   1.00800           0
     26827 MEMB     216      PMPE     C216     CTL3    -0.270000       12.0110           0
     26828 MEMB     216      PMPE     H16R     HAL3     0.900000E-01   1.00800           0
     26829 MEMB     216      PMPE     H16S     HAL3     0.900000E-01   1.00800           0
     26830 MEMB     216      PMPE     H16T     HAL3     0.900000E-01   1.00800           0
     26831 MEMB     216      PMPE     C33      CTL2    -0.180000       12.0110           0
     26832 MEMB     216      PMPE     H3X      HAL2     0.900000E-01   1.00800           0
     26833 MEMB     216      PMPE     H3Y      HAL2     0.900000E-01   1.00800           0
     26834 MEMB     216      PMPE     C34      CTL2    -0.180000       12.0110           0
     26835 MEMB     216      PMPE     H4X      HAL2     0.900000E-01   1.00800           0
     26836 MEMB     216      PMPE     H4Y      HAL2     0.900000E-01   1.00800           0
     26837 MEMB     216      PMPE     C35      CTL2    -0.180000       12.0110           0
     26838 MEMB     216      PMPE     H5X      HAL2     0.900000E-01   1.00800           0
     26839 MEMB     216      PMPE     H5Y      HAL2     0.900000E-01   1.00800           0
     26840 MEMB     216      PMPE     C36      CTL2    -0.180000       12.0110           0
     26841 MEMB     216      PMPE     H6X      HAL2     0.900000E-01   1.00800           0
     26842 MEMB     216      PMPE     H6Y      HAL2     0.900000E-01   1.00800           0
     26843 MEMB     216      PMPE     C37      CTL2    -0.180000       12.0110           0
     26844 MEMB     216      PMPE     H7X      HAL2     0.900000E-01   1.00800           0
     26845 MEMB     216      PMPE     H7Y      HAL2     0.900000E-01   1.00800           0
     26846 MEMB     216      PMPE     C38      CTL2    -0.180000       12.0110           0
     26847 MEMB     216      PMPE     H8X      HAL2     0.900000E-01   1.00800           0
     26848 MEMB     216      PMPE     H8Y      HAL2     0.900000E-01   1.00800           0
     26849 MEMB     216      PMPE     C39      CTL2    -0.180000       12.0110           0
     26850 MEMB     216      PMPE     H9X      HAL2     0.900000E-01   1.00800           0
     26851 MEMB     216      PMPE     H9Y      HAL2     0.900000E-01   1.00800           0
     26852 MEMB     216      PMPE     C310     CTL2    -0.180000       12.0110           0
     26853 MEMB     216      PMPE     H10X     HAL2     0.900000E-01   1.00800           0
     26854 MEMB     216      PMPE     H10Y     HAL2     0.900000E-01   1.00800           0
     26855 MEMB     216      PMPE     C311     CTL2    -0.180000       12.0110           0
     26856 MEMB     216      PMPE     H11X     HAL2     0.900000E-01   1.00800           0
     26857 MEMB     216      PMPE     H11Y     HAL2     0.900000E-01   1.00800           0
     26858 MEMB     216      PMPE     C312     CTL2    -0.180000       12.0110           0
     26859 MEMB     216      PMPE     H12X     HAL2     0.900000E-01   1.00800           0
     26860 MEMB     216      PMPE     H12Y     HAL2     0.900000E-01   1.00800           0
     26861 MEMB     216      PMPE     C313     CTL2    -0.180000       12.0110           0
     26862 MEMB     216      PMPE     H13X     HAL2     0.900000E-01   1.00800           0
     26863 MEMB     216      PMPE     H13Y     HAL2     0.900000E-01   1.00800           0
     26864 MEMB     216      PMPE     C314     CTL2    -0.180000       12.0110           0
     26865 MEMB     216      PMPE     H14X     HAL2     0.900000E-01   1.00800           0
     26866 MEMB     216      PMPE     H14Y     HAL2     0.900000E-01   1.00800           0
     26867 MEMB     216      PMPE     C315     CTL2    -0.180000       12.0110           0
     26868 MEMB     216      PMPE     H15X     HAL2     0.900000E-01   1.00800           0
     26869 MEMB     216      PMPE     H15Y     HAL2     0.900000E-01   1.00800           0
     26870 MEMB     216      PMPE     C316     CTL3    -0.270000       12.0110           0
     26871 MEMB     216      PMPE     H16X     HAL3     0.900000E-01   1.00800           0
     26872 MEMB     216      PMPE     H16Y     HAL3     0.900000E-01   1.00800           0
     26873 MEMB     216      PMPE     H16Z     HAL3     0.900000E-01   1.00800           0
     26874 MEMB     217      OYPE     N        NH3L    -0.300000       14.0070           0
     26875 MEMB     217      OYPE     HN1      HCL      0.330000       1.00800           0
     26876 MEMB     217      OYPE     HN2      HCL      0.330000       1.00800           0
     26877 MEMB     217      OYPE     HN3      HCL      0.330000       1.00800           0
     26878 MEMB     217      OYPE     C12      CTL2     0.130000       12.0110           0
     26879 MEMB     217      OYPE     H12A     HAL2     0.900000E-01   1.00800           0
     26880 MEMB     217      OYPE     H12B     HAL2     0.900000E-01   1.00800           0
     26881 MEMB     217      OYPE     C11      CTL2    -0.800000E-01   12.0110           0
     26882 MEMB     217      OYPE     H11A     HAL2     0.900000E-01   1.00800           0
     26883 MEMB     217      OYPE     H11B     HAL2     0.900000E-01   1.00800           0
     26884 MEMB     217      OYPE     P        PL        1.50000       30.9740           0
     26885 MEMB     217      OYPE     O13      O2L     -0.780000       15.9994           0
     26886 MEMB     217      OYPE     O14      O2L     -0.780000       15.9994           0
     26887 MEMB     217      OYPE     O11      OSLP    -0.570000       15.9994           0
     26888 MEMB     217      OYPE     O12      OSLP    -0.570000       15.9994           0
     26889 MEMB     217      OYPE     C1       CTL2    -0.800000E-01   12.0110           0
     26890 MEMB     217      OYPE     HA       HAL2     0.900000E-01   1.00800           0
     26891 MEMB     217      OYPE     HB       HAL2     0.900000E-01   1.00800           0
     26892 MEMB     217      OYPE     C2       CTL1     0.170000       12.0110           0
     26893 MEMB     217      OYPE     HS       HAL1     0.900000E-01   1.00800           0
     26894 MEMB     217      OYPE     O21      OSL     -0.490000       15.9994           0
     26895 MEMB     217      OYPE     C21      CL       0.900000       12.0110           0
     26896 MEMB     217      OYPE     O22      OBL     -0.630000       15.9994           0
     26897 MEMB     217      OYPE     C22      CTL2    -0.220000       12.0110           0
     26898 MEMB     217      OYPE     H2R      HAL2     0.900000E-01   1.00800           0
     26899 MEMB     217      OYPE     H2S      HAL2     0.900000E-01   1.00800           0
     26900 MEMB     217      OYPE     C3       CTL2     0.800000E-01   12.0110           0
     26901 MEMB     217      OYPE     HX       HAL2     0.900000E-01   1.00800           0
     26902 MEMB     217      OYPE     HY       HAL2     0.900000E-01   1.00800           0
     26903 MEMB     217      OYPE     O31      OSL     -0.490000       15.9994           0
     26904 MEMB     217      OYPE     C31      CL       0.900000       12.0110           0
     26905 MEMB     217      OYPE     O32      OBL     -0.630000       15.9994           0
     26906 MEMB     217      OYPE     C32      CTL2    -0.220000       12.0110           0
     26907 MEMB     217      OYPE     H2X      HAL2     0.900000E-01   1.00800           0
     26908 MEMB     217      OYPE     H2Y      HAL2     0.900000E-01   1.00800           0
     26909 MEMB     217      OYPE     C23      CTL2    -0.180000       12.0110           0
     26910 MEMB     217      OYPE     H3R      HAL2     0.900000E-01   1.00800           0
     26911 MEMB     217      OYPE     H3S      HAL2     0.900000E-01   1.00800           0
     26912 MEMB     217      OYPE     C24      CTL2    -0.180000       12.0110           0
     26913 MEMB     217      OYPE     H4R      HAL2     0.900000E-01   1.00800           0
     26914 MEMB     217      OYPE     H4S      HAL2     0.900000E-01   1.00800           0
     26915 MEMB     217      OYPE     C25      CTL2    -0.180000       12.0110           0
     26916 MEMB     217      OYPE     H5R      HAL2     0.900000E-01   1.00800           0
     26917 MEMB     217      OYPE     H5S      HAL2     0.900000E-01   1.00800           0
     26918 MEMB     217      OYPE     C26      CTL2    -0.180000       12.0110           0
     26919 MEMB     217      OYPE     H6R      HAL2     0.900000E-01   1.00800           0
     26920 MEMB     217      OYPE     H6S      HAL2     0.900000E-01   1.00800           0
     26921 MEMB     217      OYPE     C27      CTL2    -0.180000       12.0110           0
     26922 MEMB     217      OYPE     H7R      HAL2     0.900000E-01   1.00800           0
     26923 MEMB     217      OYPE     H7S      HAL2     0.900000E-01   1.00800           0
     26924 MEMB     217      OYPE     C28      CTL2    -0.180000       12.0110           0
     26925 MEMB     217      OYPE     H8R      HAL2     0.900000E-01   1.00800           0
     26926 MEMB     217      OYPE     H8S      HAL2     0.900000E-01   1.00800           0
     26927 MEMB     217      OYPE     C29      CEL1    -0.150000       12.0110           0
     26928 MEMB     217      OYPE     H9R      HEL1     0.150000       1.00800           0
     26929 MEMB     217      OYPE     C210     CEL1    -0.150000       12.0110           0
     26930 MEMB     217      OYPE     H10R     HEL1     0.150000       1.00800           0
     26931 MEMB     217      OYPE     C211     CTL2    -0.180000       12.0110           0
     26932 MEMB     217      OYPE     H11R     HAL2     0.900000E-01   1.00800           0
     26933 MEMB     217      OYPE     H11S     HAL2     0.900000E-01   1.00800           0
     26934 MEMB     217      OYPE     C212     CTL2    -0.180000       12.0110           0
     26935 MEMB     217      OYPE     H12R     HAL2     0.900000E-01   1.00800           0
     26936 MEMB     217      OYPE     H12S     HAL2     0.900000E-01   1.00800           0
     26937 MEMB     217      OYPE     C213     CTL2    -0.180000       12.0110           0
     26938 MEMB     217      OYPE     H13R     HAL2     0.900000E-01   1.00800           0
     26939 MEMB     217      OYPE     H13S     HAL2     0.900000E-01   1.00800           0
     26940 MEMB     217      OYPE     C214     CTL2    -0.180000       12.0110           0
     26941 MEMB     217      OYPE     H14R     HAL2     0.900000E-01   1.00800           0
     26942 MEMB     217      OYPE     H14S     HAL2     0.900000E-01   1.00800           0
     26943 MEMB     217      OYPE     C215     CTL2    -0.180000       12.0110           0
     26944 MEMB     217      OYPE     H15R     HAL2     0.900000E-01   1.00800           0
     26945 MEMB     217      OYPE     H15S     HAL2     0.900000E-01   1.00800           0
     26946 MEMB     217      OYPE     C216     CTL3    -0.270000       12.0110           0
     26947 MEMB     217      OYPE     H16R     HAL3     0.900000E-01   1.00800           0
     26948 MEMB     217      OYPE     H16S     HAL3     0.900000E-01   1.00800           0
     26949 MEMB     217      OYPE     H16T     HAL3     0.900000E-01   1.00800           0
     26950 MEMB     217      OYPE     C33      CTL2    -0.180000       12.0110           0
     26951 MEMB     217      OYPE     H3X      HAL2     0.900000E-01   1.00800           0
     26952 MEMB     217      OYPE     H3Y      HAL2     0.900000E-01   1.00800           0
     26953 MEMB     217      OYPE     C34      CTL2    -0.180000       12.0110           0
     26954 MEMB     217      OYPE     H4X      HAL2     0.900000E-01   1.00800           0
     26955 MEMB     217      OYPE     H4Y      HAL2     0.900000E-01   1.00800           0
     26956 MEMB     217      OYPE     C35      CTL2    -0.180000       12.0110           0
     26957 MEMB     217      OYPE     H5X      HAL2     0.900000E-01   1.00800           0
     26958 MEMB     217      OYPE     H5Y      HAL2     0.900000E-01   1.00800           0
     26959 MEMB     217      OYPE     C36      CTL2    -0.180000       12.0110           0
     26960 MEMB     217      OYPE     H6X      HAL2     0.900000E-01   1.00800           0
     26961 MEMB     217      OYPE     H6Y      HAL2     0.900000E-01   1.00800           0
     26962 MEMB     217      OYPE     C37      CTL2    -0.180000       12.0110           0
     26963 MEMB     217      OYPE     H7X      HAL2     0.900000E-01   1.00800           0
     26964 MEMB     217      OYPE     H7Y      HAL2     0.900000E-01   1.00800           0
     26965 MEMB     217      OYPE     C38      CTL2    -0.180000       12.0110           0
     26966 MEMB     217      OYPE     H8X      HAL2     0.900000E-01   1.00800           0
     26967 MEMB     217      OYPE     H8Y      HAL2     0.900000E-01   1.00800           0
     26968 MEMB     217      OYPE     C39      CEL1    -0.150000       12.0110           0
     26969 MEMB     217      OYPE     H9X      HEL1     0.150000       1.00800           0
     26970 MEMB     217      OYPE     C310     CEL1    -0.150000       12.0110           0
     26971 MEMB     217      OYPE     H10X     HEL1     0.150000       1.00800           0
     26972 MEMB     217      OYPE     C311     CTL2    -0.180000       12.0110           0
     26973 MEMB     217      OYPE     H11X     HAL2     0.900000E-01   1.00800           0
     26974 MEMB     217      OYPE     H11Y     HAL2     0.900000E-01   1.00800           0
     26975 MEMB     217      OYPE     C312     CTL2    -0.180000       12.0110           0
     26976 MEMB     217      OYPE     H12X     HAL2     0.900000E-01   1.00800           0
     26977 MEMB     217      OYPE     H12Y     HAL2     0.900000E-01   1.00800           0
     26978 MEMB     217      OYPE     C313     CTL2    -0.180000       12.0110           0
     26979 MEMB     217      OYPE     H13X     HAL2     0.900000E-01   1.00800           0
     26980 MEMB     217      OYPE     H13Y     HAL2     0.900000E-01   1.00800           0
     26981 MEMB     217      OYPE     C314     CTL2    -0.180000       12.0110           0
     26982 MEMB     217      OYPE     H14X     HAL2     0.900000E-01   1.00800           0
     26983 MEMB     217      OYPE     H14Y     HAL2     0.900000E-01   1.00800           0
     26984 MEMB     217      OYPE     C315     CTL2    -0.180000       12.0110           0
     26985 MEMB     217      OYPE     H15X     HAL2     0.900000E-01   1.00800           0
     26986 MEMB     217      OYPE     H15Y     HAL2     0.900000E-01   1.00800           0
     26987 MEMB     217      OYPE     C316     CTL2    -0.180000       12.0110           0
     26988 MEMB     217      OYPE     H16X     HAL2     0.900000E-01   1.00800           0
     26989 MEMB     217      OYPE     H16Y     HAL2     0.900000E-01   1.00800           0
     26990 MEMB     217      OYPE     C317     CTL2    -0.180000       12.0110           0
     26991 MEMB     217      OYPE     H17X     HAL2     0.900000E-01   1.00800           0
     26992 MEMB     217      OYPE     H17Y     HAL2     0.900000E-01   1.00800           0
     26993 MEMB     217      OYPE     C318     CTL3    -0.270000       12.0110           0
     26994 MEMB     217      OYPE     H18X     HAL3     0.900000E-01   1.00800           0
     26995 MEMB     217      OYPE     H18Y     HAL3     0.900000E-01   1.00800           0
     26996 MEMB     217      OYPE     H18Z     HAL3     0.900000E-01   1.00800           0
     26997 MEMB     218      PMPE     N        NH3L    -0.300000       14.0070           0
     26998 MEMB     218      PMPE     HN1      HCL      0.330000       1.00800           0
     26999 MEMB     218      PMPE     HN2      HCL      0.330000       1.00800           0
     27000 MEMB     218      PMPE     HN3      HCL      0.330000       1.00800           0
     27001 MEMB     218      PMPE     C12      CTL2     0.130000       12.0110           0
     27002 MEMB     218      PMPE     H12A     HAL2     0.900000E-01   1.00800           0
     27003 MEMB     218      PMPE     H12B     HAL2     0.900000E-01   1.00800           0
     27004 MEMB     218      PMPE     C11      CTL2    -0.800000E-01   12.0110           0
     27005 MEMB     218      PMPE     H11A     HAL2     0.900000E-01   1.00800           0
     27006 MEMB     218      PMPE     H11B     HAL2     0.900000E-01   1.00800           0
     27007 MEMB     218      PMPE     P        PL        1.50000       30.9740           0
     27008 MEMB     218      PMPE     O13      O2L     -0.780000       15.9994           0
     27009 MEMB     218      PMPE     O14      O2L     -0.780000       15.9994           0
     27010 MEMB     218      PMPE     O11      OSLP    -0.570000       15.9994           0
     27011 MEMB     218      PMPE     O12      OSLP    -0.570000       15.9994           0
     27012 MEMB     218      PMPE     C1       CTL2    -0.800000E-01   12.0110           0
     27013 MEMB     218      PMPE     HA       HAL2     0.900000E-01   1.00800           0
     27014 MEMB     218      PMPE     HB       HAL2     0.900000E-01   1.00800           0
     27015 MEMB     218      PMPE     C2       CTL1     0.170000       12.0110           0
     27016 MEMB     218      PMPE     HS       HAL1     0.900000E-01   1.00800           0
     27017 MEMB     218      PMPE     O21      OSL     -0.490000       15.9994           0
     27018 MEMB     218      PMPE     C21      CL       0.900000       12.0110           0
     27019 MEMB     218      PMPE     O22      OBL     -0.630000       15.9994           0
     27020 MEMB     218      PMPE     C22      CTL2    -0.220000       12.0110           0
     27021 MEMB     218      PMPE     H2R      HAL2     0.900000E-01   1.00800           0
     27022 MEMB     218      PMPE     H2S      HAL2     0.900000E-01   1.00800           0
     27023 MEMB     218      PMPE     C3       CTL2     0.800000E-01   12.0110           0
     27024 MEMB     218      PMPE     HX       HAL2     0.900000E-01   1.00800           0
     27025 MEMB     218      PMPE     HY       HAL2     0.900000E-01   1.00800           0
     27026 MEMB     218      PMPE     O31      OSL     -0.490000       15.9994           0
     27027 MEMB     218      PMPE     C31      CL       0.900000       12.0110           0
     27028 MEMB     218      PMPE     O32      OBL     -0.630000       15.9994           0
     27029 MEMB     218      PMPE     C32      CTL2    -0.220000       12.0110           0
     27030 MEMB     218      PMPE     H2X      HAL2     0.900000E-01   1.00800           0
     27031 MEMB     218      PMPE     H2Y      HAL2     0.900000E-01   1.00800           0
     27032 MEMB     218      PMPE     C23      CTL2    -0.180000       12.0110           0
     27033 MEMB     218      PMPE     H3R      HAL2     0.900000E-01   1.00800           0
     27034 MEMB     218      PMPE     H3S      HAL2     0.900000E-01   1.00800           0
     27035 MEMB     218      PMPE     C24      CTL2    -0.180000       12.0110           0
     27036 MEMB     218      PMPE     H4R      HAL2     0.900000E-01   1.00800           0
     27037 MEMB     218      PMPE     H4S      HAL2     0.900000E-01   1.00800           0
     27038 MEMB     218      PMPE     C25      CTL2    -0.180000       12.0110           0
     27039 MEMB     218      PMPE     H5R      HAL2     0.900000E-01   1.00800           0
     27040 MEMB     218      PMPE     H5S      HAL2     0.900000E-01   1.00800           0
     27041 MEMB     218      PMPE     C26      CTL2    -0.180000       12.0110           0
     27042 MEMB     218      PMPE     H6R      HAL2     0.900000E-01   1.00800           0
     27043 MEMB     218      PMPE     H6S      HAL2     0.900000E-01   1.00800           0
     27044 MEMB     218      PMPE     C27      CTL2    -0.180000       12.0110           0
     27045 MEMB     218      PMPE     H7R      HAL2     0.900000E-01   1.00800           0
     27046 MEMB     218      PMPE     H7S      HAL2     0.900000E-01   1.00800           0
     27047 MEMB     218      PMPE     C28      CTL2    -0.180000       12.0110           0
     27048 MEMB     218      PMPE     H8R      HAL2     0.900000E-01   1.00800           0
     27049 MEMB     218      PMPE     H8S      HAL2     0.900000E-01   1.00800           0
     27050 MEMB     218      PMPE     C29      CG3RC1  -0.900000E-01   12.0110           0
     27051 MEMB     218      PMPE     H9R      HGA1     0.900000E-01   1.00800           0
     27052 MEMB     218      PMPE     C217     CG3C31  -0.180000       12.0110           0
     27053 MEMB     218      PMPE     H17R     HGA2     0.900000E-01   1.00800           0
     27054 MEMB     218      PMPE     H17S     HGA2     0.900000E-01   1.00800           0
     27055 MEMB     218      PMPE     C210     CG3RC1  -0.900000E-01   12.0110           0
     27056 MEMB     218      PMPE     H10R     HGA1     0.900000E-01   1.00800           0
     27057 MEMB     218      PMPE     C211     CTL2    -0.180000       12.0110           0
     27058 MEMB     218      PMPE     H11R     HAL2     0.900000E-01   1.00800           0
     27059 MEMB     218      PMPE     H11S     HAL2     0.900000E-01   1.00800           0
     27060 MEMB     218      PMPE     C212     CTL2    -0.180000       12.0110           0
     27061 MEMB     218      PMPE     H12R     HAL2     0.900000E-01   1.00800           0
     27062 MEMB     218      PMPE     H12S     HAL2     0.900000E-01   1.00800           0
     27063 MEMB     218      PMPE     C213     CTL2    -0.180000       12.0110           0
     27064 MEMB     218      PMPE     H13R     HAL2     0.900000E-01   1.00800           0
     27065 MEMB     218      PMPE     H13S     HAL2     0.900000E-01   1.00800           0
     27066 MEMB     218      PMPE     C214     CTL2    -0.180000       12.0110           0
     27067 MEMB     218      PMPE     H14R     HAL2     0.900000E-01   1.00800           0
     27068 MEMB     218      PMPE     H14S     HAL2     0.900000E-01   1.00800           0
     27069 MEMB     218      PMPE     C215     CTL2    -0.180000       12.0110           0
     27070 MEMB     218      PMPE     H15R     HAL2     0.900000E-01   1.00800           0
     27071 MEMB     218      PMPE     H15S     HAL2     0.900000E-01   1.00800           0
     27072 MEMB     218      PMPE     C216     CTL3    -0.270000       12.0110           0
     27073 MEMB     218      PMPE     H16R     HAL3     0.900000E-01   1.00800           0
     27074 MEMB     218      PMPE     H16S     HAL3     0.900000E-01   1.00800           0
     27075 MEMB     218      PMPE     H16T     HAL3     0.900000E-01   1.00800           0
     27076 MEMB     218      PMPE     C33      CTL2    -0.180000       12.0110           0
     27077 MEMB     218      PMPE     H3X      HAL2     0.900000E-01   1.00800           0
     27078 MEMB     218      PMPE     H3Y      HAL2     0.900000E-01   1.00800           0
     27079 MEMB     218      PMPE     C34      CTL2    -0.180000       12.0110           0
     27080 MEMB     218      PMPE     H4X      HAL2     0.900000E-01   1.00800           0
     27081 MEMB     218      PMPE     H4Y      HAL2     0.900000E-01   1.00800           0
     27082 MEMB     218      PMPE     C35      CTL2    -0.180000       12.0110           0
     27083 MEMB     218      PMPE     H5X      HAL2     0.900000E-01   1.00800           0
     27084 MEMB     218      PMPE     H5Y      HAL2     0.900000E-01   1.00800           0
     27085 MEMB     218      PMPE     C36      CTL2    -0.180000       12.0110           0
     27086 MEMB     218      PMPE     H6X      HAL2     0.900000E-01   1.00800           0
     27087 MEMB     218      PMPE     H6Y      HAL2     0.900000E-01   1.00800           0
     27088 MEMB     218      PMPE     C37      CTL2    -0.180000       12.0110           0
     27089 MEMB     218      PMPE     H7X      HAL2     0.900000E-01   1.00800           0
     27090 MEMB     218      PMPE     H7Y      HAL2     0.900000E-01   1.00800           0
     27091 MEMB     218      PMPE     C38      CTL2    -0.180000       12.0110           0
     27092 MEMB     218      PMPE     H8X      HAL2     0.900000E-01   1.00800           0
     27093 MEMB     218      PMPE     H8Y      HAL2     0.900000E-01   1.00800           0
     27094 MEMB     218      PMPE     C39      CTL2    -0.180000       12.0110           0
     27095 MEMB     218      PMPE     H9X      HAL2     0.900000E-01   1.00800           0
     27096 MEMB     218      PMPE     H9Y      HAL2     0.900000E-01   1.00800           0
     27097 MEMB     218      PMPE     C310     CTL2    -0.180000       12.0110           0
     27098 MEMB     218      PMPE     H10X     HAL2     0.900000E-01   1.00800           0
     27099 MEMB     218      PMPE     H10Y     HAL2     0.900000E-01   1.00800           0
     27100 MEMB     218      PMPE     C311     CTL2    -0.180000       12.0110           0
     27101 MEMB     218      PMPE     H11X     HAL2     0.900000E-01   1.00800           0
     27102 MEMB     218      PMPE     H11Y     HAL2     0.900000E-01   1.00800           0
     27103 MEMB     218      PMPE     C312     CTL2    -0.180000       12.0110           0
     27104 MEMB     218      PMPE     H12X     HAL2     0.900000E-01   1.00800           0
     27105 MEMB     218      PMPE     H12Y     HAL2     0.900000E-01   1.00800           0
     27106 MEMB     218      PMPE     C313     CTL2    -0.180000       12.0110           0
     27107 MEMB     218      PMPE     H13X     HAL2     0.900000E-01   1.00800           0
     27108 MEMB     218      PMPE     H13Y     HAL2     0.900000E-01   1.00800           0
     27109 MEMB     218      PMPE     C314     CTL2    -0.180000       12.0110           0
     27110 MEMB     218      PMPE     H14X     HAL2     0.900000E-01   1.00800           0
     27111 MEMB     218      PMPE     H14Y     HAL2     0.900000E-01   1.00800           0
     27112 MEMB     218      PMPE     C315     CTL2    -0.180000       12.0110           0
     27113 MEMB     218      PMPE     H15X     HAL2     0.900000E-01   1.00800           0
     27114 MEMB     218      PMPE     H15Y     HAL2     0.900000E-01   1.00800           0
     27115 MEMB     218      PMPE     C316     CTL3    -0.270000       12.0110           0
     27116 MEMB     218      PMPE     H16X     HAL3     0.900000E-01   1.00800           0
     27117 MEMB     218      PMPE     H16Y     HAL3     0.900000E-01   1.00800           0
     27118 MEMB     218      PMPE     H16Z     HAL3     0.900000E-01   1.00800           0
     27119 MEMB     219      PMPG     C13      CTL2     0.500000E-01   12.0110           0
     27120 MEMB     219      PMPG     H13A     HAL2     0.900000E-01   1.00800           0
     27121 MEMB     219      PMPG     H13B     HAL2     0.900000E-01   1.00800           0
     27122 MEMB     219      PMPG     OC3      OHL     -0.660000       15.9994           0
     27123 MEMB     219      PMPG     HO3      HOL      0.430000       1.00800           0
     27124 MEMB     219      PMPG     C12      CTL1     0.140000       12.0110           0
     27125 MEMB     219      PMPG     H12A     HAL1     0.900000E-01   1.00800           0
     27126 MEMB     219      PMPG     OC2      OHL     -0.660000       15.9994           0
     27127 MEMB     219      PMPG     HO2      HOL      0.430000       1.00800           0
     27128 MEMB     219      PMPG     C11      CTL2    -0.800000E-01   12.0110           0
     27129 MEMB     219      PMPG     H11A     HAL2     0.900000E-01   1.00800           0
     27130 MEMB     219      PMPG     H11B     HAL2     0.900000E-01   1.00800           0
     27131 MEMB     219      PMPG     P        PL        1.50000       30.9740           0
     27132 MEMB     219      PMPG     O13      O2L     -0.780000       15.9994           0
     27133 MEMB     219      PMPG     O14      O2L     -0.780000       15.9994           0
     27134 MEMB     219      PMPG     O11      OSLP    -0.570000       15.9994           0
     27135 MEMB     219      PMPG     O12      OSLP    -0.570000       15.9994           0
     27136 MEMB     219      PMPG     C1       CTL2    -0.800000E-01   12.0110           0
     27137 MEMB     219      PMPG     HA       HAL2     0.900000E-01   1.00800           0
     27138 MEMB     219      PMPG     HB       HAL2     0.900000E-01   1.00800           0
     27139 MEMB     219      PMPG     C2       CTL1     0.170000       12.0110           0
     27140 MEMB     219      PMPG     HS       HAL1     0.900000E-01   1.00800           0
     27141 MEMB     219      PMPG     O21      OSL     -0.490000       15.9994           0
     27142 MEMB     219      PMPG     C21      CL       0.900000       12.0110           0
     27143 MEMB     219      PMPG     O22      OBL     -0.630000       15.9994           0
     27144 MEMB     219      PMPG     C22      CTL2    -0.220000       12.0110           0
     27145 MEMB     219      PMPG     H2R      HAL2     0.900000E-01   1.00800           0
     27146 MEMB     219      PMPG     H2S      HAL2     0.900000E-01   1.00800           0
     27147 MEMB     219      PMPG     C3       CTL2     0.800000E-01   12.0110           0
     27148 MEMB     219      PMPG     HX       HAL2     0.900000E-01   1.00800           0
     27149 MEMB     219      PMPG     HY       HAL2     0.900000E-01   1.00800           0
     27150 MEMB     219      PMPG     O31      OSL     -0.490000       15.9994           0
     27151 MEMB     219      PMPG     C31      CL       0.900000       12.0110           0
     27152 MEMB     219      PMPG     O32      OBL     -0.630000       15.9994           0
     27153 MEMB     219      PMPG     C32      CTL2    -0.220000       12.0110           0
     27154 MEMB     219      PMPG     H2X      HAL2     0.900000E-01   1.00800           0
     27155 MEMB     219      PMPG     H2Y      HAL2     0.900000E-01   1.00800           0
     27156 MEMB     219      PMPG     C23      CTL2    -0.180000       12.0110           0
     27157 MEMB     219      PMPG     H3R      HAL2     0.900000E-01   1.00800           0
     27158 MEMB     219      PMPG     H3S      HAL2     0.900000E-01   1.00800           0
     27159 MEMB     219      PMPG     C24      CTL2    -0.180000       12.0110           0
     27160 MEMB     219      PMPG     H4R      HAL2     0.900000E-01   1.00800           0
     27161 MEMB     219      PMPG     H4S      HAL2     0.900000E-01   1.00800           0
     27162 MEMB     219      PMPG     C25      CTL2    -0.180000       12.0110           0
     27163 MEMB     219      PMPG     H5R      HAL2     0.900000E-01   1.00800           0
     27164 MEMB     219      PMPG     H5S      HAL2     0.900000E-01   1.00800           0
     27165 MEMB     219      PMPG     C26      CTL2    -0.180000       12.0110           0
     27166 MEMB     219      PMPG     H6R      HAL2     0.900000E-01   1.00800           0
     27167 MEMB     219      PMPG     H6S      HAL2     0.900000E-01   1.00800           0
     27168 MEMB     219      PMPG     C27      CTL2    -0.180000       12.0110           0
     27169 MEMB     219      PMPG     H7R      HAL2     0.900000E-01   1.00800           0
     27170 MEMB     219      PMPG     H7S      HAL2     0.900000E-01   1.00800           0
     27171 MEMB     219      PMPG     C28      CTL2    -0.180000       12.0110           0
     27172 MEMB     219      PMPG     H8R      HAL2     0.900000E-01   1.00800           0
     27173 MEMB     219      PMPG     H8S      HAL2     0.900000E-01   1.00800           0
     27174 MEMB     219      PMPG     C29      CG3RC1  -0.900000E-01   12.0110           0
     27175 MEMB     219      PMPG     H9R      HGA1     0.900000E-01   1.00800           0
     27176 MEMB     219      PMPG     C217     CG3C31  -0.180000       12.0110           0
     27177 MEMB     219      PMPG     H17R     HGA2     0.900000E-01   1.00800           0
     27178 MEMB     219      PMPG     H17S     HGA2     0.900000E-01   1.00800           0
     27179 MEMB     219      PMPG     C210     CG3RC1  -0.900000E-01   12.0110           0
     27180 MEMB     219      PMPG     H10R     HGA1     0.900000E-01   1.00800           0
     27181 MEMB     219      PMPG     C211     CTL2    -0.180000       12.0110           0
     27182 MEMB     219      PMPG     H11R     HAL2     0.900000E-01   1.00800           0
     27183 MEMB     219      PMPG     H11S     HAL2     0.900000E-01   1.00800           0
     27184 MEMB     219      PMPG     C212     CTL2    -0.180000       12.0110           0
     27185 MEMB     219      PMPG     H12R     HAL2     0.900000E-01   1.00800           0
     27186 MEMB     219      PMPG     H12S     HAL2     0.900000E-01   1.00800           0
     27187 MEMB     219      PMPG     C213     CTL2    -0.180000       12.0110           0
     27188 MEMB     219      PMPG     H13R     HAL2     0.900000E-01   1.00800           0
     27189 MEMB     219      PMPG     H13S     HAL2     0.900000E-01   1.00800           0
     27190 MEMB     219      PMPG     C214     CTL2    -0.180000       12.0110           0
     27191 MEMB     219      PMPG     H14R     HAL2     0.900000E-01   1.00800           0
     27192 MEMB     219      PMPG     H14S     HAL2     0.900000E-01   1.00800           0
     27193 MEMB     219      PMPG     C215     CTL2    -0.180000       12.0110           0
     27194 MEMB     219      PMPG     H15R     HAL2     0.900000E-01   1.00800           0
     27195 MEMB     219      PMPG     H15S     HAL2     0.900000E-01   1.00800           0
     27196 MEMB     219      PMPG     C216     CTL3    -0.270000       12.0110           0
     27197 MEMB     219      PMPG     H16R     HAL3     0.900000E-01   1.00800           0
     27198 MEMB     219      PMPG     H16S     HAL3     0.900000E-01   1.00800           0
     27199 MEMB     219      PMPG     H16T     HAL3     0.900000E-01   1.00800           0
     27200 MEMB     219      PMPG     C33      CTL2    -0.180000       12.0110           0
     27201 MEMB     219      PMPG     H3X      HAL2     0.900000E-01   1.00800           0
     27202 MEMB     219      PMPG     H3Y      HAL2     0.900000E-01   1.00800           0
     27203 MEMB     219      PMPG     C34      CTL2    -0.180000       12.0110           0
     27204 MEMB     219      PMPG     H4X      HAL2     0.900000E-01   1.00800           0
     27205 MEMB     219      PMPG     H4Y      HAL2     0.900000E-01   1.00800           0
     27206 MEMB     219      PMPG     C35      CTL2    -0.180000       12.0110           0
     27207 MEMB     219      PMPG     H5X      HAL2     0.900000E-01   1.00800           0
     27208 MEMB     219      PMPG     H5Y      HAL2     0.900000E-01   1.00800           0
     27209 MEMB     219      PMPG     C36      CTL2    -0.180000       12.0110           0
     27210 MEMB     219      PMPG     H6X      HAL2     0.900000E-01   1.00800           0
     27211 MEMB     219      PMPG     H6Y      HAL2     0.900000E-01   1.00800           0
     27212 MEMB     219      PMPG     C37      CTL2    -0.180000       12.0110           0
     27213 MEMB     219      PMPG     H7X      HAL2     0.900000E-01   1.00800           0
     27214 MEMB     219      PMPG     H7Y      HAL2     0.900000E-01   1.00800           0
     27215 MEMB     219      PMPG     C38      CTL2    -0.180000       12.0110           0
     27216 MEMB     219      PMPG     H8X      HAL2     0.900000E-01   1.00800           0
     27217 MEMB     219      PMPG     H8Y      HAL2     0.900000E-01   1.00800           0
     27218 MEMB     219      PMPG     C39      CTL2    -0.180000       12.0110           0
     27219 MEMB     219      PMPG     H9X      HAL2     0.900000E-01   1.00800           0
     27220 MEMB     219      PMPG     H9Y      HAL2     0.900000E-01   1.00800           0
     27221 MEMB     219      PMPG     C310     CTL2    -0.180000       12.0110           0
     27222 MEMB     219      PMPG     H10X     HAL2     0.900000E-01   1.00800           0
     27223 MEMB     219      PMPG     H10Y     HAL2     0.900000E-01   1.00800           0
     27224 MEMB     219      PMPG     C311     CTL2    -0.180000       12.0110           0
     27225 MEMB     219      PMPG     H11X     HAL2     0.900000E-01   1.00800           0
     27226 MEMB     219      PMPG     H11Y     HAL2     0.900000E-01   1.00800           0
     27227 MEMB     219      PMPG     C312     CTL2    -0.180000       12.0110           0
     27228 MEMB     219      PMPG     H12X     HAL2     0.900000E-01   1.00800           0
     27229 MEMB     219      PMPG     H12Y     HAL2     0.900000E-01   1.00800           0
     27230 MEMB     219      PMPG     C313     CTL2    -0.180000       12.0110           0
     27231 MEMB     219      PMPG     H13X     HAL2     0.900000E-01   1.00800           0
     27232 MEMB     219      PMPG     H13Y     HAL2     0.900000E-01   1.00800           0
     27233 MEMB     219      PMPG     C314     CTL2    -0.180000       12.0110           0
     27234 MEMB     219      PMPG     H14X     HAL2     0.900000E-01   1.00800           0
     27235 MEMB     219      PMPG     H14Y     HAL2     0.900000E-01   1.00800           0
     27236 MEMB     219      PMPG     C315     CTL2    -0.180000       12.0110           0
     27237 MEMB     219      PMPG     H15X     HAL2     0.900000E-01   1.00800           0
     27238 MEMB     219      PMPG     H15Y     HAL2     0.900000E-01   1.00800           0
     27239 MEMB     219      PMPG     C316     CTL3    -0.270000       12.0110           0
     27240 MEMB     219      PMPG     H16X     HAL3     0.900000E-01   1.00800           0
     27241 MEMB     219      PMPG     H16Y     HAL3     0.900000E-01   1.00800           0
     27242 MEMB     219      PMPG     H16Z     HAL3     0.900000E-01   1.00800           0
     27243 MEMB     220      PMPE     N        NH3L    -0.300000       14.0070           0
     27244 MEMB     220      PMPE     HN1      HCL      0.330000       1.00800           0
     27245 MEMB     220      PMPE     HN2      HCL      0.330000       1.00800           0
     27246 MEMB     220      PMPE     HN3      HCL      0.330000       1.00800           0
     27247 MEMB     220      PMPE     C12      CTL2     0.130000       12.0110           0
     27248 MEMB     220      PMPE     H12A     HAL2     0.900000E-01   1.00800           0
     27249 MEMB     220      PMPE     H12B     HAL2     0.900000E-01   1.00800           0
     27250 MEMB     220      PMPE     C11      CTL2    -0.800000E-01   12.0110           0
     27251 MEMB     220      PMPE     H11A     HAL2     0.900000E-01   1.00800           0
     27252 MEMB     220      PMPE     H11B     HAL2     0.900000E-01   1.00800           0
     27253 MEMB     220      PMPE     P        PL        1.50000       30.9740           0
     27254 MEMB     220      PMPE     O13      O2L     -0.780000       15.9994           0
     27255 MEMB     220      PMPE     O14      O2L     -0.780000       15.9994           0
     27256 MEMB     220      PMPE     O11      OSLP    -0.570000       15.9994           0
     27257 MEMB     220      PMPE     O12      OSLP    -0.570000       15.9994           0
     27258 MEMB     220      PMPE     C1       CTL2    -0.800000E-01   12.0110           0
     27259 MEMB     220      PMPE     HA       HAL2     0.900000E-01   1.00800           0
     27260 MEMB     220      PMPE     HB       HAL2     0.900000E-01   1.00800           0
     27261 MEMB     220      PMPE     C2       CTL1     0.170000       12.0110           0
     27262 MEMB     220      PMPE     HS       HAL1     0.900000E-01   1.00800           0
     27263 MEMB     220      PMPE     O21      OSL     -0.490000       15.9994           0
     27264 MEMB     220      PMPE     C21      CL       0.900000       12.0110           0
     27265 MEMB     220      PMPE     O22      OBL     -0.630000       15.9994           0
     27266 MEMB     220      PMPE     C22      CTL2    -0.220000       12.0110           0
     27267 MEMB     220      PMPE     H2R      HAL2     0.900000E-01   1.00800           0
     27268 MEMB     220      PMPE     H2S      HAL2     0.900000E-01   1.00800           0
     27269 MEMB     220      PMPE     C3       CTL2     0.800000E-01   12.0110           0
     27270 MEMB     220      PMPE     HX       HAL2     0.900000E-01   1.00800           0
     27271 MEMB     220      PMPE     HY       HAL2     0.900000E-01   1.00800           0
     27272 MEMB     220      PMPE     O31      OSL     -0.490000       15.9994           0
     27273 MEMB     220      PMPE     C31      CL       0.900000       12.0110           0
     27274 MEMB     220      PMPE     O32      OBL     -0.630000       15.9994           0
     27275 MEMB     220      PMPE     C32      CTL2    -0.220000       12.0110           0
     27276 MEMB     220      PMPE     H2X      HAL2     0.900000E-01   1.00800           0
     27277 MEMB     220      PMPE     H2Y      HAL2     0.900000E-01   1.00800           0
     27278 MEMB     220      PMPE     C23      CTL2    -0.180000       12.0110           0
     27279 MEMB     220      PMPE     H3R      HAL2     0.900000E-01   1.00800           0
     27280 MEMB     220      PMPE     H3S      HAL2     0.900000E-01   1.00800           0
     27281 MEMB     220      PMPE     C24      CTL2    -0.180000       12.0110           0
     27282 MEMB     220      PMPE     H4R      HAL2     0.900000E-01   1.00800           0
     27283 MEMB     220      PMPE     H4S      HAL2     0.900000E-01   1.00800           0
     27284 MEMB     220      PMPE     C25      CTL2    -0.180000       12.0110           0
     27285 MEMB     220      PMPE     H5R      HAL2     0.900000E-01   1.00800           0
     27286 MEMB     220      PMPE     H5S      HAL2     0.900000E-01   1.00800           0
     27287 MEMB     220      PMPE     C26      CTL2    -0.180000       12.0110           0
     27288 MEMB     220      PMPE     H6R      HAL2     0.900000E-01   1.00800           0
     27289 MEMB     220      PMPE     H6S      HAL2     0.900000E-01   1.00800           0
     27290 MEMB     220      PMPE     C27      CTL2    -0.180000       12.0110           0
     27291 MEMB     220      PMPE     H7R      HAL2     0.900000E-01   1.00800           0
     27292 MEMB     220      PMPE     H7S      HAL2     0.900000E-01   1.00800           0
     27293 MEMB     220      PMPE     C28      CTL2    -0.180000       12.0110           0
     27294 MEMB     220      PMPE     H8R      HAL2     0.900000E-01   1.00800           0
     27295 MEMB     220      PMPE     H8S      HAL2     0.900000E-01   1.00800           0
     27296 MEMB     220      PMPE     C29      CG3RC1  -0.900000E-01   12.0110           0
     27297 MEMB     220      PMPE     H9R      HGA1     0.900000E-01   1.00800           0
     27298 MEMB     220      PMPE     C217     CG3C31  -0.180000       12.0110           0
     27299 MEMB     220      PMPE     H17R     HGA2     0.900000E-01   1.00800           0
     27300 MEMB     220      PMPE     H17S     HGA2     0.900000E-01   1.00800           0
     27301 MEMB     220      PMPE     C210     CG3RC1  -0.900000E-01   12.0110           0
     27302 MEMB     220      PMPE     H10R     HGA1     0.900000E-01   1.00800           0
     27303 MEMB     220      PMPE     C211     CTL2    -0.180000       12.0110           0
     27304 MEMB     220      PMPE     H11R     HAL2     0.900000E-01   1.00800           0
     27305 MEMB     220      PMPE     H11S     HAL2     0.900000E-01   1.00800           0
     27306 MEMB     220      PMPE     C212     CTL2    -0.180000       12.0110           0
     27307 MEMB     220      PMPE     H12R     HAL2     0.900000E-01   1.00800           0
     27308 MEMB     220      PMPE     H12S     HAL2     0.900000E-01   1.00800           0
     27309 MEMB     220      PMPE     C213     CTL2    -0.180000       12.0110           0
     27310 MEMB     220      PMPE     H13R     HAL2     0.900000E-01   1.00800           0
     27311 MEMB     220      PMPE     H13S     HAL2     0.900000E-01   1.00800           0
     27312 MEMB     220      PMPE     C214     CTL2    -0.180000       12.0110           0
     27313 MEMB     220      PMPE     H14R     HAL2     0.900000E-01   1.00800           0
     27314 MEMB     220      PMPE     H14S     HAL2     0.900000E-01   1.00800           0
     27315 MEMB     220      PMPE     C215     CTL2    -0.180000       12.0110           0
     27316 MEMB     220      PMPE     H15R     HAL2     0.900000E-01   1.00800           0
     27317 MEMB     220      PMPE     H15S     HAL2     0.900000E-01   1.00800           0
     27318 MEMB     220      PMPE     C216     CTL3    -0.270000       12.0110           0
     27319 MEMB     220      PMPE     H16R     HAL3     0.900000E-01   1.00800           0
     27320 MEMB     220      PMPE     H16S     HAL3     0.900000E-01   1.00800           0
     27321 MEMB     220      PMPE     H16T     HAL3     0.900000E-01   1.00800           0
     27322 MEMB     220      PMPE     C33      CTL2    -0.180000       12.0110           0
     27323 MEMB     220      PMPE     H3X      HAL2     0.900000E-01   1.00800           0
     27324 MEMB     220      PMPE     H3Y      HAL2     0.900000E-01   1.00800           0
     27325 MEMB     220      PMPE     C34      CTL2    -0.180000       12.0110           0
     27326 MEMB     220      PMPE     H4X      HAL2     0.900000E-01   1.00800           0
     27327 MEMB     220      PMPE     H4Y      HAL2     0.900000E-01   1.00800           0
     27328 MEMB     220      PMPE     C35      CTL2    -0.180000       12.0110           0
     27329 MEMB     220      PMPE     H5X      HAL2     0.900000E-01   1.00800           0
     27330 MEMB     220      PMPE     H5Y      HAL2     0.900000E-01   1.00800           0
     27331 MEMB     220      PMPE     C36      CTL2    -0.180000       12.0110           0
     27332 MEMB     220      PMPE     H6X      HAL2     0.900000E-01   1.00800           0
     27333 MEMB     220      PMPE     H6Y      HAL2     0.900000E-01   1.00800           0
     27334 MEMB     220      PMPE     C37      CTL2    -0.180000       12.0110           0
     27335 MEMB     220      PMPE     H7X      HAL2     0.900000E-01   1.00800           0
     27336 MEMB     220      PMPE     H7Y      HAL2     0.900000E-01   1.00800           0
     27337 MEMB     220      PMPE     C38      CTL2    -0.180000       12.0110           0
     27338 MEMB     220      PMPE     H8X      HAL2     0.900000E-01   1.00800           0
     27339 MEMB     220      PMPE     H8Y      HAL2     0.900000E-01   1.00800           0
     27340 MEMB     220      PMPE     C39      CTL2    -0.180000       12.0110           0
     27341 MEMB     220      PMPE     H9X      HAL2     0.900000E-01   1.00800           0
     27342 MEMB     220      PMPE     H9Y      HAL2     0.900000E-01   1.00800           0
     27343 MEMB     220      PMPE     C310     CTL2    -0.180000       12.0110           0
     27344 MEMB     220      PMPE     H10X     HAL2     0.900000E-01   1.00800           0
     27345 MEMB     220      PMPE     H10Y     HAL2     0.900000E-01   1.00800           0
     27346 MEMB     220      PMPE     C311     CTL2    -0.180000       12.0110           0
     27347 MEMB     220      PMPE     H11X     HAL2     0.900000E-01   1.00800           0
     27348 MEMB     220      PMPE     H11Y     HAL2     0.900000E-01   1.00800           0
     27349 MEMB     220      PMPE     C312     CTL2    -0.180000       12.0110           0
     27350 MEMB     220      PMPE     H12X     HAL2     0.900000E-01   1.00800           0
     27351 MEMB     220      PMPE     H12Y     HAL2     0.900000E-01   1.00800           0
     27352 MEMB     220      PMPE     C313     CTL2    -0.180000       12.0110           0
     27353 MEMB     220      PMPE     H13X     HAL2     0.900000E-01   1.00800           0
     27354 MEMB     220      PMPE     H13Y     HAL2     0.900000E-01   1.00800           0
     27355 MEMB     220      PMPE     C314     CTL2    -0.180000       12.0110           0
     27356 MEMB     220      PMPE     H14X     HAL2     0.900000E-01   1.00800           0
     27357 MEMB     220      PMPE     H14Y     HAL2     0.900000E-01   1.00800           0
     27358 MEMB     220      PMPE     C315     CTL2    -0.180000       12.0110           0
     27359 MEMB     220      PMPE     H15X     HAL2     0.900000E-01   1.00800           0
     27360 MEMB     220      PMPE     H15Y     HAL2     0.900000E-01   1.00800           0
     27361 MEMB     220      PMPE     C316     CTL3    -0.270000       12.0110           0
     27362 MEMB     220      PMPE     H16X     HAL3     0.900000E-01   1.00800           0
     27363 MEMB     220      PMPE     H16Y     HAL3     0.900000E-01   1.00800           0
     27364 MEMB     220      PMPE     H16Z     HAL3     0.900000E-01   1.00800           0
     27365 MEMB     221      PMPE     N        NH3L    -0.300000       14.0070           0
     27366 MEMB     221      PMPE     HN1      HCL      0.330000       1.00800           0
     27367 MEMB     221      PMPE     HN2      HCL      0.330000       1.00800           0
     27368 MEMB     221      PMPE     HN3      HCL      0.330000       1.00800           0
     27369 MEMB     221      PMPE     C12      CTL2     0.130000       12.0110           0
     27370 MEMB     221      PMPE     H12A     HAL2     0.900000E-01   1.00800           0
     27371 MEMB     221      PMPE     H12B     HAL2     0.900000E-01   1.00800           0
     27372 MEMB     221      PMPE     C11      CTL2    -0.800000E-01   12.0110           0
     27373 MEMB     221      PMPE     H11A     HAL2     0.900000E-01   1.00800           0
     27374 MEMB     221      PMPE     H11B     HAL2     0.900000E-01   1.00800           0
     27375 MEMB     221      PMPE     P        PL        1.50000       30.9740           0
     27376 MEMB     221      PMPE     O13      O2L     -0.780000       15.9994           0
     27377 MEMB     221      PMPE     O14      O2L     -0.780000       15.9994           0
     27378 MEMB     221      PMPE     O11      OSLP    -0.570000       15.9994           0
     27379 MEMB     221      PMPE     O12      OSLP    -0.570000       15.9994           0
     27380 MEMB     221      PMPE     C1       CTL2    -0.800000E-01   12.0110           0
     27381 MEMB     221      PMPE     HA       HAL2     0.900000E-01   1.00800           0
     27382 MEMB     221      PMPE     HB       HAL2     0.900000E-01   1.00800           0
     27383 MEMB     221      PMPE     C2       CTL1     0.170000       12.0110           0
     27384 MEMB     221      PMPE     HS       HAL1     0.900000E-01   1.00800           0
     27385 MEMB     221      PMPE     O21      OSL     -0.490000       15.9994           0
     27386 MEMB     221      PMPE     C21      CL       0.900000       12.0110           0
     27387 MEMB     221      PMPE     O22      OBL     -0.630000       15.9994           0
     27388 MEMB     221      PMPE     C22      CTL2    -0.220000       12.0110           0
     27389 MEMB     221      PMPE     H2R      HAL2     0.900000E-01   1.00800           0
     27390 MEMB     221      PMPE     H2S      HAL2     0.900000E-01   1.00800           0
     27391 MEMB     221      PMPE     C3       CTL2     0.800000E-01   12.0110           0
     27392 MEMB     221      PMPE     HX       HAL2     0.900000E-01   1.00800           0
     27393 MEMB     221      PMPE     HY       HAL2     0.900000E-01   1.00800           0
     27394 MEMB     221      PMPE     O31      OSL     -0.490000       15.9994           0
     27395 MEMB     221      PMPE     C31      CL       0.900000       12.0110           0
     27396 MEMB     221      PMPE     O32      OBL     -0.630000       15.9994           0
     27397 MEMB     221      PMPE     C32      CTL2    -0.220000       12.0110           0
     27398 MEMB     221      PMPE     H2X      HAL2     0.900000E-01   1.00800           0
     27399 MEMB     221      PMPE     H2Y      HAL2     0.900000E-01   1.00800           0
     27400 MEMB     221      PMPE     C23      CTL2    -0.180000       12.0110           0
     27401 MEMB     221      PMPE     H3R      HAL2     0.900000E-01   1.00800           0
     27402 MEMB     221      PMPE     H3S      HAL2     0.900000E-01   1.00800           0
     27403 MEMB     221      PMPE     C24      CTL2    -0.180000       12.0110           0
     27404 MEMB     221      PMPE     H4R      HAL2     0.900000E-01   1.00800           0
     27405 MEMB     221      PMPE     H4S      HAL2     0.900000E-01   1.00800           0
     27406 MEMB     221      PMPE     C25      CTL2    -0.180000       12.0110           0
     27407 MEMB     221      PMPE     H5R      HAL2     0.900000E-01   1.00800           0
     27408 MEMB     221      PMPE     H5S      HAL2     0.900000E-01   1.00800           0
     27409 MEMB     221      PMPE     C26      CTL2    -0.180000       12.0110           0
     27410 MEMB     221      PMPE     H6R      HAL2     0.900000E-01   1.00800           0
     27411 MEMB     221      PMPE     H6S      HAL2     0.900000E-01   1.00800           0
     27412 MEMB     221      PMPE     C27      CTL2    -0.180000       12.0110           0
     27413 MEMB     221      PMPE     H7R      HAL2     0.900000E-01   1.00800           0
     27414 MEMB     221      PMPE     H7S      HAL2     0.900000E-01   1.00800           0
     27415 MEMB     221      PMPE     C28      CTL2    -0.180000       12.0110           0
     27416 MEMB     221      PMPE     H8R      HAL2     0.900000E-01   1.00800           0
     27417 MEMB     221      PMPE     H8S      HAL2     0.900000E-01   1.00800           0
     27418 MEMB     221      PMPE     C29      CG3RC1  -0.900000E-01   12.0110           0
     27419 MEMB     221      PMPE     H9R      HGA1     0.900000E-01   1.00800           0
     27420 MEMB     221      PMPE     C217     CG3C31  -0.180000       12.0110           0
     27421 MEMB     221      PMPE     H17R     HGA2     0.900000E-01   1.00800           0
     27422 MEMB     221      PMPE     H17S     HGA2     0.900000E-01   1.00800           0
     27423 MEMB     221      PMPE     C210     CG3RC1  -0.900000E-01   12.0110           0
     27424 MEMB     221      PMPE     H10R     HGA1     0.900000E-01   1.00800           0
     27425 MEMB     221      PMPE     C211     CTL2    -0.180000       12.0110           0
     27426 MEMB     221      PMPE     H11R     HAL2     0.900000E-01   1.00800           0
     27427 MEMB     221      PMPE     H11S     HAL2     0.900000E-01   1.00800           0
     27428 MEMB     221      PMPE     C212     CTL2    -0.180000       12.0110           0
     27429 MEMB     221      PMPE     H12R     HAL2     0.900000E-01   1.00800           0
     27430 MEMB     221      PMPE     H12S     HAL2     0.900000E-01   1.00800           0
     27431 MEMB     221      PMPE     C213     CTL2    -0.180000       12.0110           0
     27432 MEMB     221      PMPE     H13R     HAL2     0.900000E-01   1.00800           0
     27433 MEMB     221      PMPE     H13S     HAL2     0.900000E-01   1.00800           0
     27434 MEMB     221      PMPE     C214     CTL2    -0.180000       12.0110           0
     27435 MEMB     221      PMPE     H14R     HAL2     0.900000E-01   1.00800           0
     27436 MEMB     221      PMPE     H14S     HAL2     0.900000E-01   1.00800           0
     27437 MEMB     221      PMPE     C215     CTL2    -0.180000       12.0110           0
     27438 MEMB     221      PMPE     H15R     HAL2     0.900000E-01   1.00800           0
     27439 MEMB     221      PMPE     H15S     HAL2     0.900000E-01   1.00800           0
     27440 MEMB     221      PMPE     C216     CTL3    -0.270000       12.0110           0
     27441 MEMB     221      PMPE     H16R     HAL3     0.900000E-01   1.00800           0
     27442 MEMB     221      PMPE     H16S     HAL3     0.900000E-01   1.00800           0
     27443 MEMB     221      PMPE     H16T     HAL3     0.900000E-01   1.00800           0
     27444 MEMB     221      PMPE     C33      CTL2    -0.180000       12.0110           0
     27445 MEMB     221      PMPE     H3X      HAL2     0.900000E-01   1.00800           0
     27446 MEMB     221      PMPE     H3Y      HAL2     0.900000E-01   1.00800           0
     27447 MEMB     221      PMPE     C34      CTL2    -0.180000       12.0110           0
     27448 MEMB     221      PMPE     H4X      HAL2     0.900000E-01   1.00800           0
     27449 MEMB     221      PMPE     H4Y      HAL2     0.900000E-01   1.00800           0
     27450 MEMB     221      PMPE     C35      CTL2    -0.180000       12.0110           0
     27451 MEMB     221      PMPE     H5X      HAL2     0.900000E-01   1.00800           0
     27452 MEMB     221      PMPE     H5Y      HAL2     0.900000E-01   1.00800           0
     27453 MEMB     221      PMPE     C36      CTL2    -0.180000       12.0110           0
     27454 MEMB     221      PMPE     H6X      HAL2     0.900000E-01   1.00800           0
     27455 MEMB     221      PMPE     H6Y      HAL2     0.900000E-01   1.00800           0
     27456 MEMB     221      PMPE     C37      CTL2    -0.180000       12.0110           0
     27457 MEMB     221      PMPE     H7X      HAL2     0.900000E-01   1.00800           0
     27458 MEMB     221      PMPE     H7Y      HAL2     0.900000E-01   1.00800           0
     27459 MEMB     221      PMPE     C38      CTL2    -0.180000       12.0110           0
     27460 MEMB     221      PMPE     H8X      HAL2     0.900000E-01   1.00800           0
     27461 MEMB     221      PMPE     H8Y      HAL2     0.900000E-01   1.00800           0
     27462 MEMB     221      PMPE     C39      CTL2    -0.180000       12.0110           0
     27463 MEMB     221      PMPE     H9X      HAL2     0.900000E-01   1.00800           0
     27464 MEMB     221      PMPE     H9Y      HAL2     0.900000E-01   1.00800           0
     27465 MEMB     221      PMPE     C310     CTL2    -0.180000       12.0110           0
     27466 MEMB     221      PMPE     H10X     HAL2     0.900000E-01   1.00800           0
     27467 MEMB     221      PMPE     H10Y     HAL2     0.900000E-01   1.00800           0
     27468 MEMB     221      PMPE     C311     CTL2    -0.180000       12.0110           0
     27469 MEMB     221      PMPE     H11X     HAL2     0.900000E-01   1.00800           0
     27470 MEMB     221      PMPE     H11Y     HAL2     0.900000E-01   1.00800           0
     27471 MEMB     221      PMPE     C312     CTL2    -0.180000       12.0110           0
     27472 MEMB     221      PMPE     H12X     HAL2     0.900000E-01   1.00800           0
     27473 MEMB     221      PMPE     H12Y     HAL2     0.900000E-01   1.00800           0
     27474 MEMB     221      PMPE     C313     CTL2    -0.180000       12.0110           0
     27475 MEMB     221      PMPE     H13X     HAL2     0.900000E-01   1.00800           0
     27476 MEMB     221      PMPE     H13Y     HAL2     0.900000E-01   1.00800           0
     27477 MEMB     221      PMPE     C314     CTL2    -0.180000       12.0110           0
     27478 MEMB     221      PMPE     H14X     HAL2     0.900000E-01   1.00800           0
     27479 MEMB     221      PMPE     H14Y     HAL2     0.900000E-01   1.00800           0
     27480 MEMB     221      PMPE     C315     CTL2    -0.180000       12.0110           0
     27481 MEMB     221      PMPE     H15X     HAL2     0.900000E-01   1.00800           0
     27482 MEMB     221      PMPE     H15Y     HAL2     0.900000E-01   1.00800           0
     27483 MEMB     221      PMPE     C316     CTL3    -0.270000       12.0110           0
     27484 MEMB     221      PMPE     H16X     HAL3     0.900000E-01   1.00800           0
     27485 MEMB     221      PMPE     H16Y     HAL3     0.900000E-01   1.00800           0
     27486 MEMB     221      PMPE     H16Z     HAL3     0.900000E-01   1.00800           0
     27487 MEMB     222      PMPE     N        NH3L    -0.300000       14.0070           0
     27488 MEMB     222      PMPE     HN1      HCL      0.330000       1.00800           0
     27489 MEMB     222      PMPE     HN2      HCL      0.330000       1.00800           0
     27490 MEMB     222      PMPE     HN3      HCL      0.330000       1.00800           0
     27491 MEMB     222      PMPE     C12      CTL2     0.130000       12.0110           0
     27492 MEMB     222      PMPE     H12A     HAL2     0.900000E-01   1.00800           0
     27493 MEMB     222      PMPE     H12B     HAL2     0.900000E-01   1.00800           0
     27494 MEMB     222      PMPE     C11      CTL2    -0.800000E-01   12.0110           0
     27495 MEMB     222      PMPE     H11A     HAL2     0.900000E-01   1.00800           0
     27496 MEMB     222      PMPE     H11B     HAL2     0.900000E-01   1.00800           0
     27497 MEMB     222      PMPE     P        PL        1.50000       30.9740           0
     27498 MEMB     222      PMPE     O13      O2L     -0.780000       15.9994           0
     27499 MEMB     222      PMPE     O14      O2L     -0.780000       15.9994           0
     27500 MEMB     222      PMPE     O11      OSLP    -0.570000       15.9994           0
     27501 MEMB     222      PMPE     O12      OSLP    -0.570000       15.9994           0
     27502 MEMB     222      PMPE     C1       CTL2    -0.800000E-01   12.0110           0
     27503 MEMB     222      PMPE     HA       HAL2     0.900000E-01   1.00800           0
     27504 MEMB     222      PMPE     HB       HAL2     0.900000E-01   1.00800           0
     27505 MEMB     222      PMPE     C2       CTL1     0.170000       12.0110           0
     27506 MEMB     222      PMPE     HS       HAL1     0.900000E-01   1.00800           0
     27507 MEMB     222      PMPE     O21      OSL     -0.490000       15.9994           0
     27508 MEMB     222      PMPE     C21      CL       0.900000       12.0110           0
     27509 MEMB     222      PMPE     O22      OBL     -0.630000       15.9994           0
     27510 MEMB     222      PMPE     C22      CTL2    -0.220000       12.0110           0
     27511 MEMB     222      PMPE     H2R      HAL2     0.900000E-01   1.00800           0
     27512 MEMB     222      PMPE     H2S      HAL2     0.900000E-01   1.00800           0
     27513 MEMB     222      PMPE     C3       CTL2     0.800000E-01   12.0110           0
     27514 MEMB     222      PMPE     HX       HAL2     0.900000E-01   1.00800           0
     27515 MEMB     222      PMPE     HY       HAL2     0.900000E-01   1.00800           0
     27516 MEMB     222      PMPE     O31      OSL     -0.490000       15.9994           0
     27517 MEMB     222      PMPE     C31      CL       0.900000       12.0110           0
     27518 MEMB     222      PMPE     O32      OBL     -0.630000       15.9994           0
     27519 MEMB     222      PMPE     C32      CTL2    -0.220000       12.0110           0
     27520 MEMB     222      PMPE     H2X      HAL2     0.900000E-01   1.00800           0
     27521 MEMB     222      PMPE     H2Y      HAL2     0.900000E-01   1.00800           0
     27522 MEMB     222      PMPE     C23      CTL2    -0.180000       12.0110           0
     27523 MEMB     222      PMPE     H3R      HAL2     0.900000E-01   1.00800           0
     27524 MEMB     222      PMPE     H3S      HAL2     0.900000E-01   1.00800           0
     27525 MEMB     222      PMPE     C24      CTL2    -0.180000       12.0110           0
     27526 MEMB     222      PMPE     H4R      HAL2     0.900000E-01   1.00800           0
     27527 MEMB     222      PMPE     H4S      HAL2     0.900000E-01   1.00800           0
     27528 MEMB     222      PMPE     C25      CTL2    -0.180000       12.0110           0
     27529 MEMB     222      PMPE     H5R      HAL2     0.900000E-01   1.00800           0
     27530 MEMB     222      PMPE     H5S      HAL2     0.900000E-01   1.00800           0
     27531 MEMB     222      PMPE     C26      CTL2    -0.180000       12.0110           0
     27532 MEMB     222      PMPE     H6R      HAL2     0.900000E-01   1.00800           0
     27533 MEMB     222      PMPE     H6S      HAL2     0.900000E-01   1.00800           0
     27534 MEMB     222      PMPE     C27      CTL2    -0.180000       12.0110           0
     27535 MEMB     222      PMPE     H7R      HAL2     0.900000E-01   1.00800           0
     27536 MEMB     222      PMPE     H7S      HAL2     0.900000E-01   1.00800           0
     27537 MEMB     222      PMPE     C28      CTL2    -0.180000       12.0110           0
     27538 MEMB     222      PMPE     H8R      HAL2     0.900000E-01   1.00800           0
     27539 MEMB     222      PMPE     H8S      HAL2     0.900000E-01   1.00800           0
     27540 MEMB     222      PMPE     C29      CG3RC1  -0.900000E-01   12.0110           0
     27541 MEMB     222      PMPE     H9R      HGA1     0.900000E-01   1.00800           0
     27542 MEMB     222      PMPE     C217     CG3C31  -0.180000       12.0110           0
     27543 MEMB     222      PMPE     H17R     HGA2     0.900000E-01   1.00800           0
     27544 MEMB     222      PMPE     H17S     HGA2     0.900000E-01   1.00800           0
     27545 MEMB     222      PMPE     C210     CG3RC1  -0.900000E-01   12.0110           0
     27546 MEMB     222      PMPE     H10R     HGA1     0.900000E-01   1.00800           0
     27547 MEMB     222      PMPE     C211     CTL2    -0.180000       12.0110           0
     27548 MEMB     222      PMPE     H11R     HAL2     0.900000E-01   1.00800           0
     27549 MEMB     222      PMPE     H11S     HAL2     0.900000E-01   1.00800           0
     27550 MEMB     222      PMPE     C212     CTL2    -0.180000       12.0110           0
     27551 MEMB     222      PMPE     H12R     HAL2     0.900000E-01   1.00800           0
     27552 MEMB     222      PMPE     H12S     HAL2     0.900000E-01   1.00800           0
     27553 MEMB     222      PMPE     C213     CTL2    -0.180000       12.0110           0
     27554 MEMB     222      PMPE     H13R     HAL2     0.900000E-01   1.00800           0
     27555 MEMB     222      PMPE     H13S     HAL2     0.900000E-01   1.00800           0
     27556 MEMB     222      PMPE     C214     CTL2    -0.180000       12.0110           0
     27557 MEMB     222      PMPE     H14R     HAL2     0.900000E-01   1.00800           0
     27558 MEMB     222      PMPE     H14S     HAL2     0.900000E-01   1.00800           0
     27559 MEMB     222      PMPE     C215     CTL2    -0.180000       12.0110           0
     27560 MEMB     222      PMPE     H15R     HAL2     0.900000E-01   1.00800           0
     27561 MEMB     222      PMPE     H15S     HAL2     0.900000E-01   1.00800           0
     27562 MEMB     222      PMPE     C216     CTL3    -0.270000       12.0110           0
     27563 MEMB     222      PMPE     H16R     HAL3     0.900000E-01   1.00800           0
     27564 MEMB     222      PMPE     H16S     HAL3     0.900000E-01   1.00800           0
     27565 MEMB     222      PMPE     H16T     HAL3     0.900000E-01   1.00800           0
     27566 MEMB     222      PMPE     C33      CTL2    -0.180000       12.0110           0
     27567 MEMB     222      PMPE     H3X      HAL2     0.900000E-01   1.00800           0
     27568 MEMB     222      PMPE     H3Y      HAL2     0.900000E-01   1.00800           0
     27569 MEMB     222      PMPE     C34      CTL2    -0.180000       12.0110           0
     27570 MEMB     222      PMPE     H4X      HAL2     0.900000E-01   1.00800           0
     27571 MEMB     222      PMPE     H4Y      HAL2     0.900000E-01   1.00800           0
     27572 MEMB     222      PMPE     C35      CTL2    -0.180000       12.0110           0
     27573 MEMB     222      PMPE     H5X      HAL2     0.900000E-01   1.00800           0
     27574 MEMB     222      PMPE     H5Y      HAL2     0.900000E-01   1.00800           0
     27575 MEMB     222      PMPE     C36      CTL2    -0.180000       12.0110           0
     27576 MEMB     222      PMPE     H6X      HAL2     0.900000E-01   1.00800           0
     27577 MEMB     222      PMPE     H6Y      HAL2     0.900000E-01   1.00800           0
     27578 MEMB     222      PMPE     C37      CTL2    -0.180000       12.0110           0
     27579 MEMB     222      PMPE     H7X      HAL2     0.900000E-01   1.00800           0
     27580 MEMB     222      PMPE     H7Y      HAL2     0.900000E-01   1.00800           0
     27581 MEMB     222      PMPE     C38      CTL2    -0.180000       12.0110           0
     27582 MEMB     222      PMPE     H8X      HAL2     0.900000E-01   1.00800           0
     27583 MEMB     222      PMPE     H8Y      HAL2     0.900000E-01   1.00800           0
     27584 MEMB     222      PMPE     C39      CTL2    -0.180000       12.0110           0
     27585 MEMB     222      PMPE     H9X      HAL2     0.900000E-01   1.00800           0
     27586 MEMB     222      PMPE     H9Y      HAL2     0.900000E-01   1.00800           0
     27587 MEMB     222      PMPE     C310     CTL2    -0.180000       12.0110           0
     27588 MEMB     222      PMPE     H10X     HAL2     0.900000E-01   1.00800           0
     27589 MEMB     222      PMPE     H10Y     HAL2     0.900000E-01   1.00800           0
     27590 MEMB     222      PMPE     C311     CTL2    -0.180000       12.0110           0
     27591 MEMB     222      PMPE     H11X     HAL2     0.900000E-01   1.00800           0
     27592 MEMB     222      PMPE     H11Y     HAL2     0.900000E-01   1.00800           0
     27593 MEMB     222      PMPE     C312     CTL2    -0.180000       12.0110           0
     27594 MEMB     222      PMPE     H12X     HAL2     0.900000E-01   1.00800           0
     27595 MEMB     222      PMPE     H12Y     HAL2     0.900000E-01   1.00800           0
     27596 MEMB     222      PMPE     C313     CTL2    -0.180000       12.0110           0
     27597 MEMB     222      PMPE     H13X     HAL2     0.900000E-01   1.00800           0
     27598 MEMB     222      PMPE     H13Y     HAL2     0.900000E-01   1.00800           0
     27599 MEMB     222      PMPE     C314     CTL2    -0.180000       12.0110           0
     27600 MEMB     222      PMPE     H14X     HAL2     0.900000E-01   1.00800           0
     27601 MEMB     222      PMPE     H14Y     HAL2     0.900000E-01   1.00800           0
     27602 MEMB     222      PMPE     C315     CTL2    -0.180000       12.0110           0
     27603 MEMB     222      PMPE     H15X     HAL2     0.900000E-01   1.00800           0
     27604 MEMB     222      PMPE     H15Y     HAL2     0.900000E-01   1.00800           0
     27605 MEMB     222      PMPE     C316     CTL3    -0.270000       12.0110           0
     27606 MEMB     222      PMPE     H16X     HAL3     0.900000E-01   1.00800           0
     27607 MEMB     222      PMPE     H16Y     HAL3     0.900000E-01   1.00800           0
     27608 MEMB     222      PMPE     H16Z     HAL3     0.900000E-01   1.00800           0
     27609 MEMB     223      PMPE     N        NH3L    -0.300000       14.0070           0
     27610 MEMB     223      PMPE     HN1      HCL      0.330000       1.00800           0
     27611 MEMB     223      PMPE     HN2      HCL      0.330000       1.00800           0
     27612 MEMB     223      PMPE     HN3      HCL      0.330000       1.00800           0
     27613 MEMB     223      PMPE     C12      CTL2     0.130000       12.0110           0
     27614 MEMB     223      PMPE     H12A     HAL2     0.900000E-01   1.00800           0
     27615 MEMB     223      PMPE     H12B     HAL2     0.900000E-01   1.00800           0
     27616 MEMB     223      PMPE     C11      CTL2    -0.800000E-01   12.0110           0
     27617 MEMB     223      PMPE     H11A     HAL2     0.900000E-01   1.00800           0
     27618 MEMB     223      PMPE     H11B     HAL2     0.900000E-01   1.00800           0
     27619 MEMB     223      PMPE     P        PL        1.50000       30.9740           0
     27620 MEMB     223      PMPE     O13      O2L     -0.780000       15.9994           0
     27621 MEMB     223      PMPE     O14      O2L     -0.780000       15.9994           0
     27622 MEMB     223      PMPE     O11      OSLP    -0.570000       15.9994           0
     27623 MEMB     223      PMPE     O12      OSLP    -0.570000       15.9994           0
     27624 MEMB     223      PMPE     C1       CTL2    -0.800000E-01   12.0110           0
     27625 MEMB     223      PMPE     HA       HAL2     0.900000E-01   1.00800           0
     27626 MEMB     223      PMPE     HB       HAL2     0.900000E-01   1.00800           0
     27627 MEMB     223      PMPE     C2       CTL1     0.170000       12.0110           0
     27628 MEMB     223      PMPE     HS       HAL1     0.900000E-01   1.00800           0
     27629 MEMB     223      PMPE     O21      OSL     -0.490000       15.9994           0
     27630 MEMB     223      PMPE     C21      CL       0.900000       12.0110           0
     27631 MEMB     223      PMPE     O22      OBL     -0.630000       15.9994           0
     27632 MEMB     223      PMPE     C22      CTL2    -0.220000       12.0110           0
     27633 MEMB     223      PMPE     H2R      HAL2     0.900000E-01   1.00800           0
     27634 MEMB     223      PMPE     H2S      HAL2     0.900000E-01   1.00800           0
     27635 MEMB     223      PMPE     C3       CTL2     0.800000E-01   12.0110           0
     27636 MEMB     223      PMPE     HX       HAL2     0.900000E-01   1.00800           0
     27637 MEMB     223      PMPE     HY       HAL2     0.900000E-01   1.00800           0
     27638 MEMB     223      PMPE     O31      OSL     -0.490000       15.9994           0
     27639 MEMB     223      PMPE     C31      CL       0.900000       12.0110           0
     27640 MEMB     223      PMPE     O32      OBL     -0.630000       15.9994           0
     27641 MEMB     223      PMPE     C32      CTL2    -0.220000       12.0110           0
     27642 MEMB     223      PMPE     H2X      HAL2     0.900000E-01   1.00800           0
     27643 MEMB     223      PMPE     H2Y      HAL2     0.900000E-01   1.00800           0
     27644 MEMB     223      PMPE     C23      CTL2    -0.180000       12.0110           0
     27645 MEMB     223      PMPE     H3R      HAL2     0.900000E-01   1.00800           0
     27646 MEMB     223      PMPE     H3S      HAL2     0.900000E-01   1.00800           0
     27647 MEMB     223      PMPE     C24      CTL2    -0.180000       12.0110           0
     27648 MEMB     223      PMPE     H4R      HAL2     0.900000E-01   1.00800           0
     27649 MEMB     223      PMPE     H4S      HAL2     0.900000E-01   1.00800           0
     27650 MEMB     223      PMPE     C25      CTL2    -0.180000       12.0110           0
     27651 MEMB     223      PMPE     H5R      HAL2     0.900000E-01   1.00800           0
     27652 MEMB     223      PMPE     H5S      HAL2     0.900000E-01   1.00800           0
     27653 MEMB     223      PMPE     C26      CTL2    -0.180000       12.0110           0
     27654 MEMB     223      PMPE     H6R      HAL2     0.900000E-01   1.00800           0
     27655 MEMB     223      PMPE     H6S      HAL2     0.900000E-01   1.00800           0
     27656 MEMB     223      PMPE     C27      CTL2    -0.180000       12.0110           0
     27657 MEMB     223      PMPE     H7R      HAL2     0.900000E-01   1.00800           0
     27658 MEMB     223      PMPE     H7S      HAL2     0.900000E-01   1.00800           0
     27659 MEMB     223      PMPE     C28      CTL2    -0.180000       12.0110           0
     27660 MEMB     223      PMPE     H8R      HAL2     0.900000E-01   1.00800           0
     27661 MEMB     223      PMPE     H8S      HAL2     0.900000E-01   1.00800           0
     27662 MEMB     223      PMPE     C29      CG3RC1  -0.900000E-01   12.0110           0
     27663 MEMB     223      PMPE     H9R      HGA1     0.900000E-01   1.00800           0
     27664 MEMB     223      PMPE     C217     CG3C31  -0.180000       12.0110           0
     27665 MEMB     223      PMPE     H17R     HGA2     0.900000E-01   1.00800           0
     27666 MEMB     223      PMPE     H17S     HGA2     0.900000E-01   1.00800           0
     27667 MEMB     223      PMPE     C210     CG3RC1  -0.900000E-01   12.0110           0
     27668 MEMB     223      PMPE     H10R     HGA1     0.900000E-01   1.00800           0
     27669 MEMB     223      PMPE     C211     CTL2    -0.180000       12.0110           0
     27670 MEMB     223      PMPE     H11R     HAL2     0.900000E-01   1.00800           0
     27671 MEMB     223      PMPE     H11S     HAL2     0.900000E-01   1.00800           0
     27672 MEMB     223      PMPE     C212     CTL2    -0.180000       12.0110           0
     27673 MEMB     223      PMPE     H12R     HAL2     0.900000E-01   1.00800           0
     27674 MEMB     223      PMPE     H12S     HAL2     0.900000E-01   1.00800           0
     27675 MEMB     223      PMPE     C213     CTL2    -0.180000       12.0110           0
     27676 MEMB     223      PMPE     H13R     HAL2     0.900000E-01   1.00800           0
     27677 MEMB     223      PMPE     H13S     HAL2     0.900000E-01   1.00800           0
     27678 MEMB     223      PMPE     C214     CTL2    -0.180000       12.0110           0
     27679 MEMB     223      PMPE     H14R     HAL2     0.900000E-01   1.00800           0
     27680 MEMB     223      PMPE     H14S     HAL2     0.900000E-01   1.00800           0
     27681 MEMB     223      PMPE     C215     CTL2    -0.180000       12.0110           0
     27682 MEMB     223      PMPE     H15R     HAL2     0.900000E-01   1.00800           0
     27683 MEMB     223      PMPE     H15S     HAL2     0.900000E-01   1.00800           0
     27684 MEMB     223      PMPE     C216     CTL3    -0.270000       12.0110           0
     27685 MEMB     223      PMPE     H16R     HAL3     0.900000E-01   1.00800           0
     27686 MEMB     223      PMPE     H16S     HAL3     0.900000E-01   1.00800           0
     27687 MEMB     223      PMPE     H16T     HAL3     0.900000E-01   1.00800           0
     27688 MEMB     223      PMPE     C33      CTL2    -0.180000       12.0110           0
     27689 MEMB     223      PMPE     H3X      HAL2     0.900000E-01   1.00800           0
     27690 MEMB     223      PMPE     H3Y      HAL2     0.900000E-01   1.00800           0
     27691 MEMB     223      PMPE     C34      CTL2    -0.180000       12.0110           0
     27692 MEMB     223      PMPE     H4X      HAL2     0.900000E-01   1.00800           0
     27693 MEMB     223      PMPE     H4Y      HAL2     0.900000E-01   1.00800           0
     27694 MEMB     223      PMPE     C35      CTL2    -0.180000       12.0110           0
     27695 MEMB     223      PMPE     H5X      HAL2     0.900000E-01   1.00800           0
     27696 MEMB     223      PMPE     H5Y      HAL2     0.900000E-01   1.00800           0
     27697 MEMB     223      PMPE     C36      CTL2    -0.180000       12.0110           0
     27698 MEMB     223      PMPE     H6X      HAL2     0.900000E-01   1.00800           0
     27699 MEMB     223      PMPE     H6Y      HAL2     0.900000E-01   1.00800           0
     27700 MEMB     223      PMPE     C37      CTL2    -0.180000       12.0110           0
     27701 MEMB     223      PMPE     H7X      HAL2     0.900000E-01   1.00800           0
     27702 MEMB     223      PMPE     H7Y      HAL2     0.900000E-01   1.00800           0
     27703 MEMB     223      PMPE     C38      CTL2    -0.180000       12.0110           0
     27704 MEMB     223      PMPE     H8X      HAL2     0.900000E-01   1.00800           0
     27705 MEMB     223      PMPE     H8Y      HAL2     0.900000E-01   1.00800           0
     27706 MEMB     223      PMPE     C39      CTL2    -0.180000       12.0110           0
     27707 MEMB     223      PMPE     H9X      HAL2     0.900000E-01   1.00800           0
     27708 MEMB     223      PMPE     H9Y      HAL2     0.900000E-01   1.00800           0
     27709 MEMB     223      PMPE     C310     CTL2    -0.180000       12.0110           0
     27710 MEMB     223      PMPE     H10X     HAL2     0.900000E-01   1.00800           0
     27711 MEMB     223      PMPE     H10Y     HAL2     0.900000E-01   1.00800           0
     27712 MEMB     223      PMPE     C311     CTL2    -0.180000       12.0110           0
     27713 MEMB     223      PMPE     H11X     HAL2     0.900000E-01   1.00800           0
     27714 MEMB     223      PMPE     H11Y     HAL2     0.900000E-01   1.00800           0
     27715 MEMB     223      PMPE     C312     CTL2    -0.180000       12.0110           0
     27716 MEMB     223      PMPE     H12X     HAL2     0.900000E-01   1.00800           0
     27717 MEMB     223      PMPE     H12Y     HAL2     0.900000E-01   1.00800           0
     27718 MEMB     223      PMPE     C313     CTL2    -0.180000       12.0110           0
     27719 MEMB     223      PMPE     H13X     HAL2     0.900000E-01   1.00800           0
     27720 MEMB     223      PMPE     H13Y     HAL2     0.900000E-01   1.00800           0
     27721 MEMB     223      PMPE     C314     CTL2    -0.180000       12.0110           0
     27722 MEMB     223      PMPE     H14X     HAL2     0.900000E-01   1.00800           0
     27723 MEMB     223      PMPE     H14Y     HAL2     0.900000E-01   1.00800           0
     27724 MEMB     223      PMPE     C315     CTL2    -0.180000       12.0110           0
     27725 MEMB     223      PMPE     H15X     HAL2     0.900000E-01   1.00800           0
     27726 MEMB     223      PMPE     H15Y     HAL2     0.900000E-01   1.00800           0
     27727 MEMB     223      PMPE     C316     CTL3    -0.270000       12.0110           0
     27728 MEMB     223      PMPE     H16X     HAL3     0.900000E-01   1.00800           0
     27729 MEMB     223      PMPE     H16Y     HAL3     0.900000E-01   1.00800           0
     27730 MEMB     223      PMPE     H16Z     HAL3     0.900000E-01   1.00800           0
     27731 MEMB     224      POPE     N        NH3L    -0.300000       14.0070           0
     27732 MEMB     224      POPE     HN1      HCL      0.330000       1.00800           0
     27733 MEMB     224      POPE     HN2      HCL      0.330000       1.00800           0
     27734 MEMB     224      POPE     HN3      HCL      0.330000       1.00800           0
     27735 MEMB     224      POPE     C12      CTL2     0.130000       12.0110           0
     27736 MEMB     224      POPE     H12A     HAL2     0.900000E-01   1.00800           0
     27737 MEMB     224      POPE     H12B     HAL2     0.900000E-01   1.00800           0
     27738 MEMB     224      POPE     C11      CTL2    -0.800000E-01   12.0110           0
     27739 MEMB     224      POPE     H11A     HAL2     0.900000E-01   1.00800           0
     27740 MEMB     224      POPE     H11B     HAL2     0.900000E-01   1.00800           0
     27741 MEMB     224      POPE     P        PL        1.50000       30.9740           0
     27742 MEMB     224      POPE     O13      O2L     -0.780000       15.9994           0
     27743 MEMB     224      POPE     O14      O2L     -0.780000       15.9994           0
     27744 MEMB     224      POPE     O11      OSLP    -0.570000       15.9994           0
     27745 MEMB     224      POPE     O12      OSLP    -0.570000       15.9994           0
     27746 MEMB     224      POPE     C1       CTL2    -0.800000E-01   12.0110           0
     27747 MEMB     224      POPE     HA       HAL2     0.900000E-01   1.00800           0
     27748 MEMB     224      POPE     HB       HAL2     0.900000E-01   1.00800           0
     27749 MEMB     224      POPE     C2       CTL1     0.170000       12.0110           0
     27750 MEMB     224      POPE     HS       HAL1     0.900000E-01   1.00800           0
     27751 MEMB     224      POPE     O21      OSL     -0.490000       15.9994           0
     27752 MEMB     224      POPE     C21      CL       0.900000       12.0110           0
     27753 MEMB     224      POPE     O22      OBL     -0.630000       15.9994           0
     27754 MEMB     224      POPE     C22      CTL2    -0.220000       12.0110           0
     27755 MEMB     224      POPE     H2R      HAL2     0.900000E-01   1.00800           0
     27756 MEMB     224      POPE     H2S      HAL2     0.900000E-01   1.00800           0
     27757 MEMB     224      POPE     C3       CTL2     0.800000E-01   12.0110           0
     27758 MEMB     224      POPE     HX       HAL2     0.900000E-01   1.00800           0
     27759 MEMB     224      POPE     HY       HAL2     0.900000E-01   1.00800           0
     27760 MEMB     224      POPE     O31      OSL     -0.490000       15.9994           0
     27761 MEMB     224      POPE     C31      CL       0.900000       12.0110           0
     27762 MEMB     224      POPE     O32      OBL     -0.630000       15.9994           0
     27763 MEMB     224      POPE     C32      CTL2    -0.220000       12.0110           0
     27764 MEMB     224      POPE     H2X      HAL2     0.900000E-01   1.00800           0
     27765 MEMB     224      POPE     H2Y      HAL2     0.900000E-01   1.00800           0
     27766 MEMB     224      POPE     C23      CTL2    -0.180000       12.0110           0
     27767 MEMB     224      POPE     H3R      HAL2     0.900000E-01   1.00800           0
     27768 MEMB     224      POPE     H3S      HAL2     0.900000E-01   1.00800           0
     27769 MEMB     224      POPE     C24      CTL2    -0.180000       12.0110           0
     27770 MEMB     224      POPE     H4R      HAL2     0.900000E-01   1.00800           0
     27771 MEMB     224      POPE     H4S      HAL2     0.900000E-01   1.00800           0
     27772 MEMB     224      POPE     C25      CTL2    -0.180000       12.0110           0
     27773 MEMB     224      POPE     H5R      HAL2     0.900000E-01   1.00800           0
     27774 MEMB     224      POPE     H5S      HAL2     0.900000E-01   1.00800           0
     27775 MEMB     224      POPE     C26      CTL2    -0.180000       12.0110           0
     27776 MEMB     224      POPE     H6R      HAL2     0.900000E-01   1.00800           0
     27777 MEMB     224      POPE     H6S      HAL2     0.900000E-01   1.00800           0
     27778 MEMB     224      POPE     C27      CTL2    -0.180000       12.0110           0
     27779 MEMB     224      POPE     H7R      HAL2     0.900000E-01   1.00800           0
     27780 MEMB     224      POPE     H7S      HAL2     0.900000E-01   1.00800           0
     27781 MEMB     224      POPE     C28      CTL2    -0.180000       12.0110           0
     27782 MEMB     224      POPE     H8R      HAL2     0.900000E-01   1.00800           0
     27783 MEMB     224      POPE     H8S      HAL2     0.900000E-01   1.00800           0
     27784 MEMB     224      POPE     C29      CEL1    -0.150000       12.0110           0
     27785 MEMB     224      POPE     H91      HEL1     0.150000       1.00800           0
     27786 MEMB     224      POPE     C210     CEL1    -0.150000       12.0110           0
     27787 MEMB     224      POPE     H101     HEL1     0.150000       1.00800           0
     27788 MEMB     224      POPE     C211     CTL2    -0.180000       12.0110           0
     27789 MEMB     224      POPE     H11R     HAL2     0.900000E-01   1.00800           0
     27790 MEMB     224      POPE     H11S     HAL2     0.900000E-01   1.00800           0
     27791 MEMB     224      POPE     C212     CTL2    -0.180000       12.0110           0
     27792 MEMB     224      POPE     H12R     HAL2     0.900000E-01   1.00800           0
     27793 MEMB     224      POPE     H12S     HAL2     0.900000E-01   1.00800           0
     27794 MEMB     224      POPE     C213     CTL2    -0.180000       12.0110           0
     27795 MEMB     224      POPE     H13R     HAL2     0.900000E-01   1.00800           0
     27796 MEMB     224      POPE     H13S     HAL2     0.900000E-01   1.00800           0
     27797 MEMB     224      POPE     C214     CTL2    -0.180000       12.0110           0
     27798 MEMB     224      POPE     H14R     HAL2     0.900000E-01   1.00800           0
     27799 MEMB     224      POPE     H14S     HAL2     0.900000E-01   1.00800           0
     27800 MEMB     224      POPE     C215     CTL2    -0.180000       12.0110           0
     27801 MEMB     224      POPE     H15R     HAL2     0.900000E-01   1.00800           0
     27802 MEMB     224      POPE     H15S     HAL2     0.900000E-01   1.00800           0
     27803 MEMB     224      POPE     C216     CTL2    -0.180000       12.0110           0
     27804 MEMB     224      POPE     H16R     HAL2     0.900000E-01   1.00800           0
     27805 MEMB     224      POPE     H16S     HAL2     0.900000E-01   1.00800           0
     27806 MEMB     224      POPE     C217     CTL2    -0.180000       12.0110           0
     27807 MEMB     224      POPE     H17R     HAL2     0.900000E-01   1.00800           0
     27808 MEMB     224      POPE     H17S     HAL2     0.900000E-01   1.00800           0
     27809 MEMB     224      POPE     C218     CTL3    -0.270000       12.0110           0
     27810 MEMB     224      POPE     H18R     HAL3     0.900000E-01   1.00800           0
     27811 MEMB     224      POPE     H18S     HAL3     0.900000E-01   1.00800           0
     27812 MEMB     224      POPE     H18T     HAL3     0.900000E-01   1.00800           0
     27813 MEMB     224      POPE     C33      CTL2    -0.180000       12.0110           0
     27814 MEMB     224      POPE     H3X      HAL2     0.900000E-01   1.00800           0
     27815 MEMB     224      POPE     H3Y      HAL2     0.900000E-01   1.00800           0
     27816 MEMB     224      POPE     C34      CTL2    -0.180000       12.0110           0
     27817 MEMB     224      POPE     H4X      HAL2     0.900000E-01   1.00800           0
     27818 MEMB     224      POPE     H4Y      HAL2     0.900000E-01   1.00800           0
     27819 MEMB     224      POPE     C35      CTL2    -0.180000       12.0110           0
     27820 MEMB     224      POPE     H5X      HAL2     0.900000E-01   1.00800           0
     27821 MEMB     224      POPE     H5Y      HAL2     0.900000E-01   1.00800           0
     27822 MEMB     224      POPE     C36      CTL2    -0.180000       12.0110           0
     27823 MEMB     224      POPE     H6X      HAL2     0.900000E-01   1.00800           0
     27824 MEMB     224      POPE     H6Y      HAL2     0.900000E-01   1.00800           0
     27825 MEMB     224      POPE     C37      CTL2    -0.180000       12.0110           0
     27826 MEMB     224      POPE     H7X      HAL2     0.900000E-01   1.00800           0
     27827 MEMB     224      POPE     H7Y      HAL2     0.900000E-01   1.00800           0
     27828 MEMB     224      POPE     C38      CTL2    -0.180000       12.0110           0
     27829 MEMB     224      POPE     H8X      HAL2     0.900000E-01   1.00800           0
     27830 MEMB     224      POPE     H8Y      HAL2     0.900000E-01   1.00800           0
     27831 MEMB     224      POPE     C39      CTL2    -0.180000       12.0110           0
     27832 MEMB     224      POPE     H9X      HAL2     0.900000E-01   1.00800           0
     27833 MEMB     224      POPE     H9Y      HAL2     0.900000E-01   1.00800           0
     27834 MEMB     224      POPE     C310     CTL2    -0.180000       12.0110           0
     27835 MEMB     224      POPE     H10X     HAL2     0.900000E-01   1.00800           0
     27836 MEMB     224      POPE     H10Y     HAL2     0.900000E-01   1.00800           0
     27837 MEMB     224      POPE     C311     CTL2    -0.180000       12.0110           0
     27838 MEMB     224      POPE     H11X     HAL2     0.900000E-01   1.00800           0
     27839 MEMB     224      POPE     H11Y     HAL2     0.900000E-01   1.00800           0
     27840 MEMB     224      POPE     C312     CTL2    -0.180000       12.0110           0
     27841 MEMB     224      POPE     H12X     HAL2     0.900000E-01   1.00800           0
     27842 MEMB     224      POPE     H12Y     HAL2     0.900000E-01   1.00800           0
     27843 MEMB     224      POPE     C313     CTL2    -0.180000       12.0110           0
     27844 MEMB     224      POPE     H13X     HAL2     0.900000E-01   1.00800           0
     27845 MEMB     224      POPE     H13Y     HAL2     0.900000E-01   1.00800           0
     27846 MEMB     224      POPE     C314     CTL2    -0.180000       12.0110           0
     27847 MEMB     224      POPE     H14X     HAL2     0.900000E-01   1.00800           0
     27848 MEMB     224      POPE     H14Y     HAL2     0.900000E-01   1.00800           0
     27849 MEMB     224      POPE     C315     CTL2    -0.180000       12.0110           0
     27850 MEMB     224      POPE     H15X     HAL2     0.900000E-01   1.00800           0
     27851 MEMB     224      POPE     H15Y     HAL2     0.900000E-01   1.00800           0
     27852 MEMB     224      POPE     C316     CTL3    -0.270000       12.0110           0
     27853 MEMB     224      POPE     H16X     HAL3     0.900000E-01   1.00800           0
     27854 MEMB     224      POPE     H16Y     HAL3     0.900000E-01   1.00800           0
     27855 MEMB     224      POPE     H16Z     HAL3     0.900000E-01   1.00800           0
     27856 MEMB     225      PVCL2    C3       CTL2    -0.800000E-01   12.0110           0
     27857 MEMB     225      PVCL2    HG31     HAL2     0.900000E-01   1.00800           0
     27858 MEMB     225      PVCL2    HG32     HAL2     0.900000E-01   1.00800           0
     27859 MEMB     225      PVCL2    P3       PL        1.50000       30.9740           0
     27860 MEMB     225      PVCL2    OP33     O2L     -0.780000       15.9994           0
     27861 MEMB     225      PVCL2    OP34     O2L     -0.780000       15.9994           0
     27862 MEMB     225      PVCL2    OP31     OSLP    -0.570000       15.9994           0
     27863 MEMB     225      PVCL2    OP32     OSLP    -0.570000       15.9994           0
     27864 MEMB     225      PVCL2    C31      CTL2    -0.800000E-01   12.0110           0
     27865 MEMB     225      PVCL2    H31J     HAL2     0.900000E-01   1.00800           0
     27866 MEMB     225      PVCL2    H31K     HAL2     0.900000E-01   1.00800           0
     27867 MEMB     225      PVCL2    C2       CTL1     0.140000       12.0110           0
     27868 MEMB     225      PVCL2    HG22     HAL1     0.900000E-01   1.00800           0
     27869 MEMB     225      PVCL2    OG12     OHL     -0.650000       15.9994           0
     27870 MEMB     225      PVCL2    HO12     HOL      0.420000       1.00800           0
     27871 MEMB     225      PVCL2    C1       CTL2    -0.800000E-01   12.0110           0
     27872 MEMB     225      PVCL2    HG11     HAL2     0.900000E-01   1.00800           0
     27873 MEMB     225      PVCL2    HG12     HAL2     0.900000E-01   1.00800           0
     27874 MEMB     225      PVCL2    P1       PL        1.50000       30.9740           0
     27875 MEMB     225      PVCL2    OP13     O2L     -0.780000       15.9994           0
     27876 MEMB     225      PVCL2    OP14     O2L     -0.780000       15.9994           0
     27877 MEMB     225      PVCL2    OP11     OSLP    -0.570000       15.9994           0
     27878 MEMB     225      PVCL2    OP12     OSLP    -0.570000       15.9994           0
     27879 MEMB     225      PVCL2    C11      CTL2    -0.800000E-01   12.0110           0
     27880 MEMB     225      PVCL2    H11J     HAL2     0.900000E-01   1.00800           0
     27881 MEMB     225      PVCL2    H11K     HAL2     0.900000E-01   1.00800           0
     27882 MEMB     225      PVCL2    C12      CTL1     0.170000       12.0110           0
     27883 MEMB     225      PVCL2    H12J     HAL1     0.900000E-01   1.00800           0
     27884 MEMB     225      PVCL2    O12      OSL     -0.490000       15.9994           0
     27885 MEMB     225      PVCL2    CA1      CL       0.900000       12.0110           0
     27886 MEMB     225      PVCL2    OA1      OBL     -0.630000       15.9994           0
     27887 MEMB     225      PVCL2    CA2      CTL2    -0.220000       12.0110           0
     27888 MEMB     225      PVCL2    H2A      HAL2     0.900000E-01   1.00800           0
     27889 MEMB     225      PVCL2    H2B      HAL2     0.900000E-01   1.00800           0
     27890 MEMB     225      PVCL2    C13      CTL2     0.800000E-01   12.0110           0
     27891 MEMB     225      PVCL2    H13J     HAL2     0.900000E-01   1.00800           0
     27892 MEMB     225      PVCL2    H13K     HAL2     0.900000E-01   1.00800           0
     27893 MEMB     225      PVCL2    O13      OSL     -0.490000       15.9994           0
     27894 MEMB     225      PVCL2    CB1      CL       0.900000       12.0110           0
     27895 MEMB     225      PVCL2    OB1      OBL     -0.630000       15.9994           0
     27896 MEMB     225      PVCL2    CB2      CTL2    -0.220000       12.0110           0
     27897 MEMB     225      PVCL2    H2D      HAL2     0.900000E-01   1.00800           0
     27898 MEMB     225      PVCL2    H2E      HAL2     0.900000E-01   1.00800           0
     27899 MEMB     225      PVCL2    C32      CTL1     0.170000       12.0110           0
     27900 MEMB     225      PVCL2    H32J     HAL1     0.900000E-01   1.00800           0
     27901 MEMB     225      PVCL2    O32      OSL     -0.490000       15.9994           0
     27902 MEMB     225      PVCL2    CC1      CL       0.900000       12.0110           0
     27903 MEMB     225      PVCL2    OC1      OBL     -0.630000       15.9994           0
     27904 MEMB     225      PVCL2    CC2      CTL2    -0.220000       12.0110           0
     27905 MEMB     225      PVCL2    H2R      HAL2     0.900000E-01   1.00800           0
     27906 MEMB     225      PVCL2    H2S      HAL2     0.900000E-01   1.00800           0
     27907 MEMB     225      PVCL2    C33      CTL2     0.800000E-01   12.0110           0
     27908 MEMB     225      PVCL2    H33J     HAL2     0.900000E-01   1.00800           0
     27909 MEMB     225      PVCL2    H33K     HAL2     0.900000E-01   1.00800           0
     27910 MEMB     225      PVCL2    O33      OSL     -0.490000       15.9994           0
     27911 MEMB     225      PVCL2    CD1      CL       0.900000       12.0110           0
     27912 MEMB     225      PVCL2    OD1      OBL     -0.630000       15.9994           0
     27913 MEMB     225      PVCL2    CD2      CTL2    -0.220000       12.0110           0
     27914 MEMB     225      PVCL2    H2X      HAL2     0.900000E-01   1.00800           0
     27915 MEMB     225      PVCL2    H2Y      HAL2     0.900000E-01   1.00800           0
     27916 MEMB     225      PVCL2    CA3      CTL2    -0.180000       12.0110           0
     27917 MEMB     225      PVCL2    H3A      HAL2     0.900000E-01   1.00800           0
     27918 MEMB     225      PVCL2    H3B      HAL2     0.900000E-01   1.00800           0
     27919 MEMB     225      PVCL2    CA4      CTL2    -0.180000       12.0110           0
     27920 MEMB     225      PVCL2    H4A      HAL2     0.900000E-01   1.00800           0
     27921 MEMB     225      PVCL2    H4B      HAL2     0.900000E-01   1.00800           0
     27922 MEMB     225      PVCL2    CA5      CTL2    -0.180000       12.0110           0
     27923 MEMB     225      PVCL2    H5A      HAL2     0.900000E-01   1.00800           0
     27924 MEMB     225      PVCL2    H5B      HAL2     0.900000E-01   1.00800           0
     27925 MEMB     225      PVCL2    CA6      CTL2    -0.180000       12.0110           0
     27926 MEMB     225      PVCL2    H6A      HAL2     0.900000E-01   1.00800           0
     27927 MEMB     225      PVCL2    H6B      HAL2     0.900000E-01   1.00800           0
     27928 MEMB     225      PVCL2    CA7      CTL2    -0.180000       12.0110           0
     27929 MEMB     225      PVCL2    H7A      HAL2     0.900000E-01   1.00800           0
     27930 MEMB     225      PVCL2    H7B      HAL2     0.900000E-01   1.00800           0
     27931 MEMB     225      PVCL2    CA8      CTL2    -0.180000       12.0110           0
     27932 MEMB     225      PVCL2    H8A      HAL2     0.900000E-01   1.00800           0
     27933 MEMB     225      PVCL2    H8B      HAL2     0.900000E-01   1.00800           0
     27934 MEMB     225      PVCL2    CA9      CTL2    -0.180000       12.0110           0
     27935 MEMB     225      PVCL2    H9A      HAL2     0.900000E-01   1.00800           0
     27936 MEMB     225      PVCL2    H9B      HAL2     0.900000E-01   1.00800           0
     27937 MEMB     225      PVCL2    CA10     CTL2    -0.180000       12.0110           0
     27938 MEMB     225      PVCL2    H10A     HAL2     0.900000E-01   1.00800           0
     27939 MEMB     225      PVCL2    H10B     HAL2     0.900000E-01   1.00800           0
     27940 MEMB     225      PVCL2    CA11     CEL1    -0.150000       12.0110           0
     27941 MEMB     225      PVCL2    H11A     HEL1     0.150000       1.00800           0
     27942 MEMB     225      PVCL2    CA12     CEL1    -0.150000       12.0110           0
     27943 MEMB     225      PVCL2    H12A     HEL1     0.150000       1.00800           0
     27944 MEMB     225      PVCL2    CA13     CTL2    -0.180000       12.0110           0
     27945 MEMB     225      PVCL2    H13A     HAL2     0.900000E-01   1.00800           0
     27946 MEMB     225      PVCL2    H13B     HAL2     0.900000E-01   1.00800           0
     27947 MEMB     225      PVCL2    CA14     CTL2    -0.180000       12.0110           0
     27948 MEMB     225      PVCL2    H14A     HAL2     0.900000E-01   1.00800           0
     27949 MEMB     225      PVCL2    H14B     HAL2     0.900000E-01   1.00800           0
     27950 MEMB     225      PVCL2    CA15     CTL2    -0.180000       12.0110           0
     27951 MEMB     225      PVCL2    H15A     HAL2     0.900000E-01   1.00800           0
     27952 MEMB     225      PVCL2    H15B     HAL2     0.900000E-01   1.00800           0
     27953 MEMB     225      PVCL2    CA16     CTL2    -0.180000       12.0110           0
     27954 MEMB     225      PVCL2    H16A     HAL2     0.900000E-01   1.00800           0
     27955 MEMB     225      PVCL2    H16B     HAL2     0.900000E-01   1.00800           0
     27956 MEMB     225      PVCL2    CA17     CTL2    -0.180000       12.0110           0
     27957 MEMB     225      PVCL2    H17A     HAL2     0.900000E-01   1.00800           0
     27958 MEMB     225      PVCL2    H17B     HAL2     0.900000E-01   1.00800           0
     27959 MEMB     225      PVCL2    CA18     CTL3    -0.270000       12.0110           0
     27960 MEMB     225      PVCL2    H18A     HAL3     0.900000E-01   1.00800           0
     27961 MEMB     225      PVCL2    H18B     HAL3     0.900000E-01   1.00800           0
     27962 MEMB     225      PVCL2    H18C     HAL3     0.900000E-01   1.00800           0
     27963 MEMB     225      PVCL2    CB3      CTL2    -0.180000       12.0110           0
     27964 MEMB     225      PVCL2    H3D      HAL2     0.900000E-01   1.00800           0
     27965 MEMB     225      PVCL2    H3E      HAL2     0.900000E-01   1.00800           0
     27966 MEMB     225      PVCL2    CB4      CTL2    -0.180000       12.0110           0
     27967 MEMB     225      PVCL2    H4D      HAL2     0.900000E-01   1.00800           0
     27968 MEMB     225      PVCL2    H4E      HAL2     0.900000E-01   1.00800           0
     27969 MEMB     225      PVCL2    CB5      CTL2    -0.180000       12.0110           0
     27970 MEMB     225      PVCL2    H5D      HAL2     0.900000E-01   1.00800           0
     27971 MEMB     225      PVCL2    H5E      HAL2     0.900000E-01   1.00800           0
     27972 MEMB     225      PVCL2    CB6      CTL2    -0.180000       12.0110           0
     27973 MEMB     225      PVCL2    H6D      HAL2     0.900000E-01   1.00800           0
     27974 MEMB     225      PVCL2    H6E      HAL2     0.900000E-01   1.00800           0
     27975 MEMB     225      PVCL2    CB7      CTL2    -0.180000       12.0110           0
     27976 MEMB     225      PVCL2    H7D      HAL2     0.900000E-01   1.00800           0
     27977 MEMB     225      PVCL2    H7E      HAL2     0.900000E-01   1.00800           0
     27978 MEMB     225      PVCL2    CB8      CTL2    -0.180000       12.0110           0
     27979 MEMB     225      PVCL2    H8D      HAL2     0.900000E-01   1.00800           0
     27980 MEMB     225      PVCL2    H8E      HAL2     0.900000E-01   1.00800           0
     27981 MEMB     225      PVCL2    CB9      CTL2    -0.180000       12.0110           0
     27982 MEMB     225      PVCL2    H9D      HAL2     0.900000E-01   1.00800           0
     27983 MEMB     225      PVCL2    H9E      HAL2     0.900000E-01   1.00800           0
     27984 MEMB     225      PVCL2    CB10     CTL2    -0.180000       12.0110           0
     27985 MEMB     225      PVCL2    H10D     HAL2     0.900000E-01   1.00800           0
     27986 MEMB     225      PVCL2    H10E     HAL2     0.900000E-01   1.00800           0
     27987 MEMB     225      PVCL2    CB11     CTL2    -0.180000       12.0110           0
     27988 MEMB     225      PVCL2    H11D     HAL2     0.900000E-01   1.00800           0
     27989 MEMB     225      PVCL2    H11E     HAL2     0.900000E-01   1.00800           0
     27990 MEMB     225      PVCL2    CB12     CTL2    -0.180000       12.0110           0
     27991 MEMB     225      PVCL2    H12D     HAL2     0.900000E-01   1.00800           0
     27992 MEMB     225      PVCL2    H12E     HAL2     0.900000E-01   1.00800           0
     27993 MEMB     225      PVCL2    CB13     CTL2    -0.180000       12.0110           0
     27994 MEMB     225      PVCL2    H13D     HAL2     0.900000E-01   1.00800           0
     27995 MEMB     225      PVCL2    H13E     HAL2     0.900000E-01   1.00800           0
     27996 MEMB     225      PVCL2    CB14     CTL2    -0.180000       12.0110           0
     27997 MEMB     225      PVCL2    H14D     HAL2     0.900000E-01   1.00800           0
     27998 MEMB     225      PVCL2    H14E     HAL2     0.900000E-01   1.00800           0
     27999 MEMB     225      PVCL2    CB15     CTL2    -0.180000       12.0110           0
     28000 MEMB     225      PVCL2    H15D     HAL2     0.900000E-01   1.00800           0
     28001 MEMB     225      PVCL2    H15E     HAL2     0.900000E-01   1.00800           0
     28002 MEMB     225      PVCL2    CB16     CTL3    -0.270000       12.0110           0
     28003 MEMB     225      PVCL2    H16D     HAL3     0.900000E-01   1.00800           0
     28004 MEMB     225      PVCL2    H16E     HAL3     0.900000E-01   1.00800           0
     28005 MEMB     225      PVCL2    H16F     HAL3     0.900000E-01   1.00800           0
     28006 MEMB     225      PVCL2    CC3      CTL2    -0.180000       12.0110           0
     28007 MEMB     225      PVCL2    H3R      HAL2     0.900000E-01   1.00800           0
     28008 MEMB     225      PVCL2    H3S      HAL2     0.900000E-01   1.00800           0
     28009 MEMB     225      PVCL2    CC4      CTL2    -0.180000       12.0110           0
     28010 MEMB     225      PVCL2    H4R      HAL2     0.900000E-01   1.00800           0
     28011 MEMB     225      PVCL2    H4S      HAL2     0.900000E-01   1.00800           0
     28012 MEMB     225      PVCL2    CC5      CTL2    -0.180000       12.0110           0
     28013 MEMB     225      PVCL2    H5R      HAL2     0.900000E-01   1.00800           0
     28014 MEMB     225      PVCL2    H5S      HAL2     0.900000E-01   1.00800           0
     28015 MEMB     225      PVCL2    CC6      CTL2    -0.180000       12.0110           0
     28016 MEMB     225      PVCL2    H6R      HAL2     0.900000E-01   1.00800           0
     28017 MEMB     225      PVCL2    H6S      HAL2     0.900000E-01   1.00800           0
     28018 MEMB     225      PVCL2    CC7      CTL2    -0.180000       12.0110           0
     28019 MEMB     225      PVCL2    H7R      HAL2     0.900000E-01   1.00800           0
     28020 MEMB     225      PVCL2    H7S      HAL2     0.900000E-01   1.00800           0
     28021 MEMB     225      PVCL2    CC8      CTL2    -0.180000       12.0110           0
     28022 MEMB     225      PVCL2    H8R      HAL2     0.900000E-01   1.00800           0
     28023 MEMB     225      PVCL2    H8S      HAL2     0.900000E-01   1.00800           0
     28024 MEMB     225      PVCL2    CC9      CTL2    -0.180000       12.0110           0
     28025 MEMB     225      PVCL2    H9R      HAL2     0.900000E-01   1.00800           0
     28026 MEMB     225      PVCL2    H9S      HAL2     0.900000E-01   1.00800           0
     28027 MEMB     225      PVCL2    CC10     CTL2    -0.180000       12.0110           0
     28028 MEMB     225      PVCL2    H10R     HAL2     0.900000E-01   1.00800           0
     28029 MEMB     225      PVCL2    H10S     HAL2     0.900000E-01   1.00800           0
     28030 MEMB     225      PVCL2    CC11     CEL1    -0.150000       12.0110           0
     28031 MEMB     225      PVCL2    H11R     HEL1     0.150000       1.00800           0
     28032 MEMB     225      PVCL2    CC12     CEL1    -0.150000       12.0110           0
     28033 MEMB     225      PVCL2    H12R     HEL1     0.150000       1.00800           0
     28034 MEMB     225      PVCL2    CC13     CTL2    -0.180000       12.0110           0
     28035 MEMB     225      PVCL2    H13R     HAL2     0.900000E-01   1.00800           0
     28036 MEMB     225      PVCL2    H13S     HAL2     0.900000E-01   1.00800           0
     28037 MEMB     225      PVCL2    CC14     CTL2    -0.180000       12.0110           0
     28038 MEMB     225      PVCL2    H14R     HAL2     0.900000E-01   1.00800           0
     28039 MEMB     225      PVCL2    H14S     HAL2     0.900000E-01   1.00800           0
     28040 MEMB     225      PVCL2    CC15     CTL2    -0.180000       12.0110           0
     28041 MEMB     225      PVCL2    H15R     HAL2     0.900000E-01   1.00800           0
     28042 MEMB     225      PVCL2    H15S     HAL2     0.900000E-01   1.00800           0
     28043 MEMB     225      PVCL2    CC16     CTL2    -0.180000       12.0110           0
     28044 MEMB     225      PVCL2    H16R     HAL2     0.900000E-01   1.00800           0
     28045 MEMB     225      PVCL2    H16S     HAL2     0.900000E-01   1.00800           0
     28046 MEMB     225      PVCL2    CC17     CTL2    -0.180000       12.0110           0
     28047 MEMB     225      PVCL2    H17R     HAL2     0.900000E-01   1.00800           0
     28048 MEMB     225      PVCL2    H17S     HAL2     0.900000E-01   1.00800           0
     28049 MEMB     225      PVCL2    CC18     CTL3    -0.270000       12.0110           0
     28050 MEMB     225      PVCL2    H18R     HAL3     0.900000E-01   1.00800           0
     28051 MEMB     225      PVCL2    H18S     HAL3     0.900000E-01   1.00800           0
     28052 MEMB     225      PVCL2    H18T     HAL3     0.900000E-01   1.00800           0
     28053 MEMB     225      PVCL2    CD3      CTL2    -0.180000       12.0110           0
     28054 MEMB     225      PVCL2    H3X      HAL2     0.900000E-01   1.00800           0
     28055 MEMB     225      PVCL2    H3Y      HAL2     0.900000E-01   1.00800           0
     28056 MEMB     225      PVCL2    CD4      CTL2    -0.180000       12.0110           0
     28057 MEMB     225      PVCL2    H4X      HAL2     0.900000E-01   1.00800           0
     28058 MEMB     225      PVCL2    H4Y      HAL2     0.900000E-01   1.00800           0
     28059 MEMB     225      PVCL2    CD5      CTL2    -0.180000       12.0110           0
     28060 MEMB     225      PVCL2    H5X      HAL2     0.900000E-01   1.00800           0
     28061 MEMB     225      PVCL2    H5Y      HAL2     0.900000E-01   1.00800           0
     28062 MEMB     225      PVCL2    CD6      CTL2    -0.180000       12.0110           0
     28063 MEMB     225      PVCL2    H6X      HAL2     0.900000E-01   1.00800           0
     28064 MEMB     225      PVCL2    H6Y      HAL2     0.900000E-01   1.00800           0
     28065 MEMB     225      PVCL2    CD7      CTL2    -0.180000       12.0110           0
     28066 MEMB     225      PVCL2    H7X      HAL2     0.900000E-01   1.00800           0
     28067 MEMB     225      PVCL2    H7Y      HAL2     0.900000E-01   1.00800           0
     28068 MEMB     225      PVCL2    CD8      CTL2    -0.180000       12.0110           0
     28069 MEMB     225      PVCL2    H8X      HAL2     0.900000E-01   1.00800           0
     28070 MEMB     225      PVCL2    H8Y      HAL2     0.900000E-01   1.00800           0
     28071 MEMB     225      PVCL2    CD9      CTL2    -0.180000       12.0110           0
     28072 MEMB     225      PVCL2    H9X      HAL2     0.900000E-01   1.00800           0
     28073 MEMB     225      PVCL2    H9Y      HAL2     0.900000E-01   1.00800           0
     28074 MEMB     225      PVCL2    CD10     CTL2    -0.180000       12.0110           0
     28075 MEMB     225      PVCL2    H10X     HAL2     0.900000E-01   1.00800           0
     28076 MEMB     225      PVCL2    H10Y     HAL2     0.900000E-01   1.00800           0
     28077 MEMB     225      PVCL2    CD11     CTL2    -0.180000       12.0110           0
     28078 MEMB     225      PVCL2    H11X     HAL2     0.900000E-01   1.00800           0
     28079 MEMB     225      PVCL2    H11Y     HAL2     0.900000E-01   1.00800           0
     28080 MEMB     225      PVCL2    CD12     CTL2    -0.180000       12.0110           0
     28081 MEMB     225      PVCL2    H12X     HAL2     0.900000E-01   1.00800           0
     28082 MEMB     225      PVCL2    H12Y     HAL2     0.900000E-01   1.00800           0
     28083 MEMB     225      PVCL2    CD13     CTL2    -0.180000       12.0110           0
     28084 MEMB     225      PVCL2    H13X     HAL2     0.900000E-01   1.00800           0
     28085 MEMB     225      PVCL2    H13Y     HAL2     0.900000E-01   1.00800           0
     28086 MEMB     225      PVCL2    CD14     CTL2    -0.180000       12.0110           0
     28087 MEMB     225      PVCL2    H14X     HAL2     0.900000E-01   1.00800           0
     28088 MEMB     225      PVCL2    H14Y     HAL2     0.900000E-01   1.00800           0
     28089 MEMB     225      PVCL2    CD15     CTL2    -0.180000       12.0110           0
     28090 MEMB     225      PVCL2    H15X     HAL2     0.900000E-01   1.00800           0
     28091 MEMB     225      PVCL2    H15Y     HAL2     0.900000E-01   1.00800           0
     28092 MEMB     225      PVCL2    CD16     CTL3    -0.270000       12.0110           0
     28093 MEMB     225      PVCL2    H16X     HAL3     0.900000E-01   1.00800           0
     28094 MEMB     225      PVCL2    H16Y     HAL3     0.900000E-01   1.00800           0
     28095 MEMB     225      PVCL2    H16Z     HAL3     0.900000E-01   1.00800           0
     28096 MEMB     226      OYPE     N        NH3L    -0.300000       14.0070           0
     28097 MEMB     226      OYPE     HN1      HCL      0.330000       1.00800           0
     28098 MEMB     226      OYPE     HN2      HCL      0.330000       1.00800           0
     28099 MEMB     226      OYPE     HN3      HCL      0.330000       1.00800           0
     28100 MEMB     226      OYPE     C12      CTL2     0.130000       12.0110           0
     28101 MEMB     226      OYPE     H12A     HAL2     0.900000E-01   1.00800           0
     28102 MEMB     226      OYPE     H12B     HAL2     0.900000E-01   1.00800           0
     28103 MEMB     226      OYPE     C11      CTL2    -0.800000E-01   12.0110           0
     28104 MEMB     226      OYPE     H11A     HAL2     0.900000E-01   1.00800           0
     28105 MEMB     226      OYPE     H11B     HAL2     0.900000E-01   1.00800           0
     28106 MEMB     226      OYPE     P        PL        1.50000       30.9740           0
     28107 MEMB     226      OYPE     O13      O2L     -0.780000       15.9994           0
     28108 MEMB     226      OYPE     O14      O2L     -0.780000       15.9994           0
     28109 MEMB     226      OYPE     O11      OSLP    -0.570000       15.9994           0
     28110 MEMB     226      OYPE     O12      OSLP    -0.570000       15.9994           0
     28111 MEMB     226      OYPE     C1       CTL2    -0.800000E-01   12.0110           0
     28112 MEMB     226      OYPE     HA       HAL2     0.900000E-01   1.00800           0
     28113 MEMB     226      OYPE     HB       HAL2     0.900000E-01   1.00800           0
     28114 MEMB     226      OYPE     C2       CTL1     0.170000       12.0110           0
     28115 MEMB     226      OYPE     HS       HAL1     0.900000E-01   1.00800           0
     28116 MEMB     226      OYPE     O21      OSL     -0.490000       15.9994           0
     28117 MEMB     226      OYPE     C21      CL       0.900000       12.0110           0
     28118 MEMB     226      OYPE     O22      OBL     -0.630000       15.9994           0
     28119 MEMB     226      OYPE     C22      CTL2    -0.220000       12.0110           0
     28120 MEMB     226      OYPE     H2R      HAL2     0.900000E-01   1.00800           0
     28121 MEMB     226      OYPE     H2S      HAL2     0.900000E-01   1.00800           0
     28122 MEMB     226      OYPE     C3       CTL2     0.800000E-01   12.0110           0
     28123 MEMB     226      OYPE     HX       HAL2     0.900000E-01   1.00800           0
     28124 MEMB     226      OYPE     HY       HAL2     0.900000E-01   1.00800           0
     28125 MEMB     226      OYPE     O31      OSL     -0.490000       15.9994           0
     28126 MEMB     226      OYPE     C31      CL       0.900000       12.0110           0
     28127 MEMB     226      OYPE     O32      OBL     -0.630000       15.9994           0
     28128 MEMB     226      OYPE     C32      CTL2    -0.220000       12.0110           0
     28129 MEMB     226      OYPE     H2X      HAL2     0.900000E-01   1.00800           0
     28130 MEMB     226      OYPE     H2Y      HAL2     0.900000E-01   1.00800           0
     28131 MEMB     226      OYPE     C23      CTL2    -0.180000       12.0110           0
     28132 MEMB     226      OYPE     H3R      HAL2     0.900000E-01   1.00800           0
     28133 MEMB     226      OYPE     H3S      HAL2     0.900000E-01   1.00800           0
     28134 MEMB     226      OYPE     C24      CTL2    -0.180000       12.0110           0
     28135 MEMB     226      OYPE     H4R      HAL2     0.900000E-01   1.00800           0
     28136 MEMB     226      OYPE     H4S      HAL2     0.900000E-01   1.00800           0
     28137 MEMB     226      OYPE     C25      CTL2    -0.180000       12.0110           0
     28138 MEMB     226      OYPE     H5R      HAL2     0.900000E-01   1.00800           0
     28139 MEMB     226      OYPE     H5S      HAL2     0.900000E-01   1.00800           0
     28140 MEMB     226      OYPE     C26      CTL2    -0.180000       12.0110           0
     28141 MEMB     226      OYPE     H6R      HAL2     0.900000E-01   1.00800           0
     28142 MEMB     226      OYPE     H6S      HAL2     0.900000E-01   1.00800           0
     28143 MEMB     226      OYPE     C27      CTL2    -0.180000       12.0110           0
     28144 MEMB     226      OYPE     H7R      HAL2     0.900000E-01   1.00800           0
     28145 MEMB     226      OYPE     H7S      HAL2     0.900000E-01   1.00800           0
     28146 MEMB     226      OYPE     C28      CTL2    -0.180000       12.0110           0
     28147 MEMB     226      OYPE     H8R      HAL2     0.900000E-01   1.00800           0
     28148 MEMB     226      OYPE     H8S      HAL2     0.900000E-01   1.00800           0
     28149 MEMB     226      OYPE     C29      CEL1    -0.150000       12.0110           0
     28150 MEMB     226      OYPE     H9R      HEL1     0.150000       1.00800           0
     28151 MEMB     226      OYPE     C210     CEL1    -0.150000       12.0110           0
     28152 MEMB     226      OYPE     H10R     HEL1     0.150000       1.00800           0
     28153 MEMB     226      OYPE     C211     CTL2    -0.180000       12.0110           0
     28154 MEMB     226      OYPE     H11R     HAL2     0.900000E-01   1.00800           0
     28155 MEMB     226      OYPE     H11S     HAL2     0.900000E-01   1.00800           0
     28156 MEMB     226      OYPE     C212     CTL2    -0.180000       12.0110           0
     28157 MEMB     226      OYPE     H12R     HAL2     0.900000E-01   1.00800           0
     28158 MEMB     226      OYPE     H12S     HAL2     0.900000E-01   1.00800           0
     28159 MEMB     226      OYPE     C213     CTL2    -0.180000       12.0110           0
     28160 MEMB     226      OYPE     H13R     HAL2     0.900000E-01   1.00800           0
     28161 MEMB     226      OYPE     H13S     HAL2     0.900000E-01   1.00800           0
     28162 MEMB     226      OYPE     C214     CTL2    -0.180000       12.0110           0
     28163 MEMB     226      OYPE     H14R     HAL2     0.900000E-01   1.00800           0
     28164 MEMB     226      OYPE     H14S     HAL2     0.900000E-01   1.00800           0
     28165 MEMB     226      OYPE     C215     CTL2    -0.180000       12.0110           0
     28166 MEMB     226      OYPE     H15R     HAL2     0.900000E-01   1.00800           0
     28167 MEMB     226      OYPE     H15S     HAL2     0.900000E-01   1.00800           0
     28168 MEMB     226      OYPE     C216     CTL3    -0.270000       12.0110           0
     28169 MEMB     226      OYPE     H16R     HAL3     0.900000E-01   1.00800           0
     28170 MEMB     226      OYPE     H16S     HAL3     0.900000E-01   1.00800           0
     28171 MEMB     226      OYPE     H16T     HAL3     0.900000E-01   1.00800           0
     28172 MEMB     226      OYPE     C33      CTL2    -0.180000       12.0110           0
     28173 MEMB     226      OYPE     H3X      HAL2     0.900000E-01   1.00800           0
     28174 MEMB     226      OYPE     H3Y      HAL2     0.900000E-01   1.00800           0
     28175 MEMB     226      OYPE     C34      CTL2    -0.180000       12.0110           0
     28176 MEMB     226      OYPE     H4X      HAL2     0.900000E-01   1.00800           0
     28177 MEMB     226      OYPE     H4Y      HAL2     0.900000E-01   1.00800           0
     28178 MEMB     226      OYPE     C35      CTL2    -0.180000       12.0110           0
     28179 MEMB     226      OYPE     H5X      HAL2     0.900000E-01   1.00800           0
     28180 MEMB     226      OYPE     H5Y      HAL2     0.900000E-01   1.00800           0
     28181 MEMB     226      OYPE     C36      CTL2    -0.180000       12.0110           0
     28182 MEMB     226      OYPE     H6X      HAL2     0.900000E-01   1.00800           0
     28183 MEMB     226      OYPE     H6Y      HAL2     0.900000E-01   1.00800           0
     28184 MEMB     226      OYPE     C37      CTL2    -0.180000       12.0110           0
     28185 MEMB     226      OYPE     H7X      HAL2     0.900000E-01   1.00800           0
     28186 MEMB     226      OYPE     H7Y      HAL2     0.900000E-01   1.00800           0
     28187 MEMB     226      OYPE     C38      CTL2    -0.180000       12.0110           0
     28188 MEMB     226      OYPE     H8X      HAL2     0.900000E-01   1.00800           0
     28189 MEMB     226      OYPE     H8Y      HAL2     0.900000E-01   1.00800           0
     28190 MEMB     226      OYPE     C39      CEL1    -0.150000       12.0110           0
     28191 MEMB     226      OYPE     H9X      HEL1     0.150000       1.00800           0
     28192 MEMB     226      OYPE     C310     CEL1    -0.150000       12.0110           0
     28193 MEMB     226      OYPE     H10X     HEL1     0.150000       1.00800           0
     28194 MEMB     226      OYPE     C311     CTL2    -0.180000       12.0110           0
     28195 MEMB     226      OYPE     H11X     HAL2     0.900000E-01   1.00800           0
     28196 MEMB     226      OYPE     H11Y     HAL2     0.900000E-01   1.00800           0
     28197 MEMB     226      OYPE     C312     CTL2    -0.180000       12.0110           0
     28198 MEMB     226      OYPE     H12X     HAL2     0.900000E-01   1.00800           0
     28199 MEMB     226      OYPE     H12Y     HAL2     0.900000E-01   1.00800           0
     28200 MEMB     226      OYPE     C313     CTL2    -0.180000       12.0110           0
     28201 MEMB     226      OYPE     H13X     HAL2     0.900000E-01   1.00800           0
     28202 MEMB     226      OYPE     H13Y     HAL2     0.900000E-01   1.00800           0
     28203 MEMB     226      OYPE     C314     CTL2    -0.180000       12.0110           0
     28204 MEMB     226      OYPE     H14X     HAL2     0.900000E-01   1.00800           0
     28205 MEMB     226      OYPE     H14Y     HAL2     0.900000E-01   1.00800           0
     28206 MEMB     226      OYPE     C315     CTL2    -0.180000       12.0110           0
     28207 MEMB     226      OYPE     H15X     HAL2     0.900000E-01   1.00800           0
     28208 MEMB     226      OYPE     H15Y     HAL2     0.900000E-01   1.00800           0
     28209 MEMB     226      OYPE     C316     CTL2    -0.180000       12.0110           0
     28210 MEMB     226      OYPE     H16X     HAL2     0.900000E-01   1.00800           0
     28211 MEMB     226      OYPE     H16Y     HAL2     0.900000E-01   1.00800           0
     28212 MEMB     226      OYPE     C317     CTL2    -0.180000       12.0110           0
     28213 MEMB     226      OYPE     H17X     HAL2     0.900000E-01   1.00800           0
     28214 MEMB     226      OYPE     H17Y     HAL2     0.900000E-01   1.00800           0
     28215 MEMB     226      OYPE     C318     CTL3    -0.270000       12.0110           0
     28216 MEMB     226      OYPE     H18X     HAL3     0.900000E-01   1.00800           0
     28217 MEMB     226      OYPE     H18Y     HAL3     0.900000E-01   1.00800           0
     28218 MEMB     226      OYPE     H18Z     HAL3     0.900000E-01   1.00800           0
     28219 MEMB     227      QMPE     N        NH3L    -0.300000       14.0070           0
     28220 MEMB     227      QMPE     HN1      HCL      0.330000       1.00800           0
     28221 MEMB     227      QMPE     HN2      HCL      0.330000       1.00800           0
     28222 MEMB     227      QMPE     HN3      HCL      0.330000       1.00800           0
     28223 MEMB     227      QMPE     C12      CTL2     0.130000       12.0110           0
     28224 MEMB     227      QMPE     H12A     HAL2     0.900000E-01   1.00800           0
     28225 MEMB     227      QMPE     H12B     HAL2     0.900000E-01   1.00800           0
     28226 MEMB     227      QMPE     C11      CTL2    -0.800000E-01   12.0110           0
     28227 MEMB     227      QMPE     H11A     HAL2     0.900000E-01   1.00800           0
     28228 MEMB     227      QMPE     H11B     HAL2     0.900000E-01   1.00800           0
     28229 MEMB     227      QMPE     P        PL        1.50000       30.9740           0
     28230 MEMB     227      QMPE     O13      O2L     -0.780000       15.9994           0
     28231 MEMB     227      QMPE     O14      O2L     -0.780000       15.9994           0
     28232 MEMB     227      QMPE     O11      OSLP    -0.570000       15.9994           0
     28233 MEMB     227      QMPE     O12      OSLP    -0.570000       15.9994           0
     28234 MEMB     227      QMPE     C1       CTL2    -0.800000E-01   12.0110           0
     28235 MEMB     227      QMPE     HA       HAL2     0.900000E-01   1.00800           0
     28236 MEMB     227      QMPE     HB       HAL2     0.900000E-01   1.00800           0
     28237 MEMB     227      QMPE     C2       CTL1     0.170000       12.0110           0
     28238 MEMB     227      QMPE     HS       HAL1     0.900000E-01   1.00800           0
     28239 MEMB     227      QMPE     O21      OSL     -0.490000       15.9994           0
     28240 MEMB     227      QMPE     C21      CL       0.900000       12.0110           0
     28241 MEMB     227      QMPE     O22      OBL     -0.630000       15.9994           0
     28242 MEMB     227      QMPE     C22      CTL2    -0.220000       12.0110           0
     28243 MEMB     227      QMPE     H2R      HAL2     0.900000E-01   1.00800           0
     28244 MEMB     227      QMPE     H2S      HAL2     0.900000E-01   1.00800           0
     28245 MEMB     227      QMPE     C3       CTL2     0.800000E-01   12.0110           0
     28246 MEMB     227      QMPE     HX       HAL2     0.900000E-01   1.00800           0
     28247 MEMB     227      QMPE     HY       HAL2     0.900000E-01   1.00800           0
     28248 MEMB     227      QMPE     O31      OSL     -0.490000       15.9994           0
     28249 MEMB     227      QMPE     C31      CL       0.900000       12.0110           0
     28250 MEMB     227      QMPE     O32      OBL     -0.630000       15.9994           0
     28251 MEMB     227      QMPE     C32      CTL2    -0.220000       12.0110           0
     28252 MEMB     227      QMPE     H2X      HAL2     0.900000E-01   1.00800           0
     28253 MEMB     227      QMPE     H2Y      HAL2     0.900000E-01   1.00800           0
     28254 MEMB     227      QMPE     C23      CTL2    -0.180000       12.0110           0
     28255 MEMB     227      QMPE     H3R      HAL2     0.900000E-01   1.00800           0
     28256 MEMB     227      QMPE     H3S      HAL2     0.900000E-01   1.00800           0
     28257 MEMB     227      QMPE     C24      CTL2    -0.180000       12.0110           0
     28258 MEMB     227      QMPE     H4R      HAL2     0.900000E-01   1.00800           0
     28259 MEMB     227      QMPE     H4S      HAL2     0.900000E-01   1.00800           0
     28260 MEMB     227      QMPE     C25      CTL2    -0.180000       12.0110           0
     28261 MEMB     227      QMPE     H5R      HAL2     0.900000E-01   1.00800           0
     28262 MEMB     227      QMPE     H5S      HAL2     0.900000E-01   1.00800           0
     28263 MEMB     227      QMPE     C26      CTL2    -0.180000       12.0110           0
     28264 MEMB     227      QMPE     H6R      HAL2     0.900000E-01   1.00800           0
     28265 MEMB     227      QMPE     H6S      HAL2     0.900000E-01   1.00800           0
     28266 MEMB     227      QMPE     C27      CTL2    -0.180000       12.0110           0
     28267 MEMB     227      QMPE     H7R      HAL2     0.900000E-01   1.00800           0
     28268 MEMB     227      QMPE     H7S      HAL2     0.900000E-01   1.00800           0
     28269 MEMB     227      QMPE     C28      CTL2    -0.180000       12.0110           0
     28270 MEMB     227      QMPE     H8R      HAL2     0.900000E-01   1.00800           0
     28271 MEMB     227      QMPE     H8S      HAL2     0.900000E-01   1.00800           0
     28272 MEMB     227      QMPE     C29      CG3RC1  -0.900000E-01   12.0110           0
     28273 MEMB     227      QMPE     H9R      HGA1     0.900000E-01   1.00800           0
     28274 MEMB     227      QMPE     C217     CG3C31  -0.180000       12.0110           0
     28275 MEMB     227      QMPE     H17R     HGA2     0.900000E-01   1.00800           0
     28276 MEMB     227      QMPE     H17S     HGA2     0.900000E-01   1.00800           0
     28277 MEMB     227      QMPE     C210     CG3RC1  -0.900000E-01   12.0110           0
     28278 MEMB     227      QMPE     H10R     HGA1     0.900000E-01   1.00800           0
     28279 MEMB     227      QMPE     C211     CTL2    -0.180000       12.0110           0
     28280 MEMB     227      QMPE     H11R     HAL2     0.900000E-01   1.00800           0
     28281 MEMB     227      QMPE     H11S     HAL2     0.900000E-01   1.00800           0
     28282 MEMB     227      QMPE     C212     CTL2    -0.180000       12.0110           0
     28283 MEMB     227      QMPE     H12R     HAL2     0.900000E-01   1.00800           0
     28284 MEMB     227      QMPE     H12S     HAL2     0.900000E-01   1.00800           0
     28285 MEMB     227      QMPE     C213     CTL2    -0.180000       12.0110           0
     28286 MEMB     227      QMPE     H13R     HAL2     0.900000E-01   1.00800           0
     28287 MEMB     227      QMPE     H13S     HAL2     0.900000E-01   1.00800           0
     28288 MEMB     227      QMPE     C214     CTL2    -0.180000       12.0110           0
     28289 MEMB     227      QMPE     H14R     HAL2     0.900000E-01   1.00800           0
     28290 MEMB     227      QMPE     H14S     HAL2     0.900000E-01   1.00800           0
     28291 MEMB     227      QMPE     C215     CTL2    -0.180000       12.0110           0
     28292 MEMB     227      QMPE     H15R     HAL2     0.900000E-01   1.00800           0
     28293 MEMB     227      QMPE     H15S     HAL2     0.900000E-01   1.00800           0
     28294 MEMB     227      QMPE     C216     CTL3    -0.270000       12.0110           0
     28295 MEMB     227      QMPE     H16R     HAL3     0.900000E-01   1.00800           0
     28296 MEMB     227      QMPE     H16S     HAL3     0.900000E-01   1.00800           0
     28297 MEMB     227      QMPE     H16T     HAL3     0.900000E-01   1.00800           0
     28298 MEMB     227      QMPE     C33      CTL2    -0.180000       12.0110           0
     28299 MEMB     227      QMPE     H3X      HAL2     0.900000E-01   1.00800           0
     28300 MEMB     227      QMPE     H3Y      HAL2     0.900000E-01   1.00800           0
     28301 MEMB     227      QMPE     C34      CTL2    -0.180000       12.0110           0
     28302 MEMB     227      QMPE     H4X      HAL2     0.900000E-01   1.00800           0
     28303 MEMB     227      QMPE     H4Y      HAL2     0.900000E-01   1.00800           0
     28304 MEMB     227      QMPE     C35      CTL2    -0.180000       12.0110           0
     28305 MEMB     227      QMPE     H5X      HAL2     0.900000E-01   1.00800           0
     28306 MEMB     227      QMPE     H5Y      HAL2     0.900000E-01   1.00800           0
     28307 MEMB     227      QMPE     C36      CTL2    -0.180000       12.0110           0
     28308 MEMB     227      QMPE     H6X      HAL2     0.900000E-01   1.00800           0
     28309 MEMB     227      QMPE     H6Y      HAL2     0.900000E-01   1.00800           0
     28310 MEMB     227      QMPE     C37      CTL2    -0.180000       12.0110           0
     28311 MEMB     227      QMPE     H7X      HAL2     0.900000E-01   1.00800           0
     28312 MEMB     227      QMPE     H7Y      HAL2     0.900000E-01   1.00800           0
     28313 MEMB     227      QMPE     C38      CTL2    -0.180000       12.0110           0
     28314 MEMB     227      QMPE     H8X      HAL2     0.900000E-01   1.00800           0
     28315 MEMB     227      QMPE     H8Y      HAL2     0.900000E-01   1.00800           0
     28316 MEMB     227      QMPE     C39      CTL2    -0.180000       12.0110           0
     28317 MEMB     227      QMPE     H9X      HAL2     0.900000E-01   1.00800           0
     28318 MEMB     227      QMPE     H9Y      HAL2     0.900000E-01   1.00800           0
     28319 MEMB     227      QMPE     C310     CTL2    -0.180000       12.0110           0
     28320 MEMB     227      QMPE     H10X     HAL2     0.900000E-01   1.00800           0
     28321 MEMB     227      QMPE     H10Y     HAL2     0.900000E-01   1.00800           0
     28322 MEMB     227      QMPE     C311     CTL2    -0.180000       12.0110           0
     28323 MEMB     227      QMPE     H11X     HAL2     0.900000E-01   1.00800           0
     28324 MEMB     227      QMPE     H11Y     HAL2     0.900000E-01   1.00800           0
     28325 MEMB     227      QMPE     C312     CTL2    -0.180000       12.0110           0
     28326 MEMB     227      QMPE     H12X     HAL2     0.900000E-01   1.00800           0
     28327 MEMB     227      QMPE     H12Y     HAL2     0.900000E-01   1.00800           0
     28328 MEMB     227      QMPE     C313     CTL2    -0.180000       12.0110           0
     28329 MEMB     227      QMPE     H13X     HAL2     0.900000E-01   1.00800           0
     28330 MEMB     227      QMPE     H13Y     HAL2     0.900000E-01   1.00800           0
     28331 MEMB     227      QMPE     C314     CTL2    -0.180000       12.0110           0
     28332 MEMB     227      QMPE     H14X     HAL2     0.900000E-01   1.00800           0
     28333 MEMB     227      QMPE     H14Y     HAL2     0.900000E-01   1.00800           0
     28334 MEMB     227      QMPE     C315     CTL3    -0.270000       12.0110           0
     28335 MEMB     227      QMPE     H15X     HAL3     0.900000E-01   1.00800           0
     28336 MEMB     227      QMPE     H15Y     HAL3     0.900000E-01   1.00800           0
     28337 MEMB     227      QMPE     H15Z     HAL3     0.900000E-01   1.00800           0
     28338 MEMB     228      QMPE     N        NH3L    -0.300000       14.0070           0
     28339 MEMB     228      QMPE     HN1      HCL      0.330000       1.00800           0
     28340 MEMB     228      QMPE     HN2      HCL      0.330000       1.00800           0
     28341 MEMB     228      QMPE     HN3      HCL      0.330000       1.00800           0
     28342 MEMB     228      QMPE     C12      CTL2     0.130000       12.0110           0
     28343 MEMB     228      QMPE     H12A     HAL2     0.900000E-01   1.00800           0
     28344 MEMB     228      QMPE     H12B     HAL2     0.900000E-01   1.00800           0
     28345 MEMB     228      QMPE     C11      CTL2    -0.800000E-01   12.0110           0
     28346 MEMB     228      QMPE     H11A     HAL2     0.900000E-01   1.00800           0
     28347 MEMB     228      QMPE     H11B     HAL2     0.900000E-01   1.00800           0
     28348 MEMB     228      QMPE     P        PL        1.50000       30.9740           0
     28349 MEMB     228      QMPE     O13      O2L     -0.780000       15.9994           0
     28350 MEMB     228      QMPE     O14      O2L     -0.780000       15.9994           0
     28351 MEMB     228      QMPE     O11      OSLP    -0.570000       15.9994           0
     28352 MEMB     228      QMPE     O12      OSLP    -0.570000       15.9994           0
     28353 MEMB     228      QMPE     C1       CTL2    -0.800000E-01   12.0110           0
     28354 MEMB     228      QMPE     HA       HAL2     0.900000E-01   1.00800           0
     28355 MEMB     228      QMPE     HB       HAL2     0.900000E-01   1.00800           0
     28356 MEMB     228      QMPE     C2       CTL1     0.170000       12.0110           0
     28357 MEMB     228      QMPE     HS       HAL1     0.900000E-01   1.00800           0
     28358 MEMB     228      QMPE     O21      OSL     -0.490000       15.9994           0
     28359 MEMB     228      QMPE     C21      CL       0.900000       12.0110           0
     28360 MEMB     228      QMPE     O22      OBL     -0.630000       15.9994           0
     28361 MEMB     228      QMPE     C22      CTL2    -0.220000       12.0110           0
     28362 MEMB     228      QMPE     H2R      HAL2     0.900000E-01   1.00800           0
     28363 MEMB     228      QMPE     H2S      HAL2     0.900000E-01   1.00800           0
     28364 MEMB     228      QMPE     C3       CTL2     0.800000E-01   12.0110           0
     28365 MEMB     228      QMPE     HX       HAL2     0.900000E-01   1.00800           0
     28366 MEMB     228      QMPE     HY       HAL2     0.900000E-01   1.00800           0
     28367 MEMB     228      QMPE     O31      OSL     -0.490000       15.9994           0
     28368 MEMB     228      QMPE     C31      CL       0.900000       12.0110           0
     28369 MEMB     228      QMPE     O32      OBL     -0.630000       15.9994           0
     28370 MEMB     228      QMPE     C32      CTL2    -0.220000       12.0110           0
     28371 MEMB     228      QMPE     H2X      HAL2     0.900000E-01   1.00800           0
     28372 MEMB     228      QMPE     H2Y      HAL2     0.900000E-01   1.00800           0
     28373 MEMB     228      QMPE     C23      CTL2    -0.180000       12.0110           0
     28374 MEMB     228      QMPE     H3R      HAL2     0.900000E-01   1.00800           0
     28375 MEMB     228      QMPE     H3S      HAL2     0.900000E-01   1.00800           0
     28376 MEMB     228      QMPE     C24      CTL2    -0.180000       12.0110           0
     28377 MEMB     228      QMPE     H4R      HAL2     0.900000E-01   1.00800           0
     28378 MEMB     228      QMPE     H4S      HAL2     0.900000E-01   1.00800           0
     28379 MEMB     228      QMPE     C25      CTL2    -0.180000       12.0110           0
     28380 MEMB     228      QMPE     H5R      HAL2     0.900000E-01   1.00800           0
     28381 MEMB     228      QMPE     H5S      HAL2     0.900000E-01   1.00800           0
     28382 MEMB     228      QMPE     C26      CTL2    -0.180000       12.0110           0
     28383 MEMB     228      QMPE     H6R      HAL2     0.900000E-01   1.00800           0
     28384 MEMB     228      QMPE     H6S      HAL2     0.900000E-01   1.00800           0
     28385 MEMB     228      QMPE     C27      CTL2    -0.180000       12.0110           0
     28386 MEMB     228      QMPE     H7R      HAL2     0.900000E-01   1.00800           0
     28387 MEMB     228      QMPE     H7S      HAL2     0.900000E-01   1.00800           0
     28388 MEMB     228      QMPE     C28      CTL2    -0.180000       12.0110           0
     28389 MEMB     228      QMPE     H8R      HAL2     0.900000E-01   1.00800           0
     28390 MEMB     228      QMPE     H8S      HAL2     0.900000E-01   1.00800           0
     28391 MEMB     228      QMPE     C29      CG3RC1  -0.900000E-01   12.0110           0
     28392 MEMB     228      QMPE     H9R      HGA1     0.900000E-01   1.00800           0
     28393 MEMB     228      QMPE     C217     CG3C31  -0.180000       12.0110           0
     28394 MEMB     228      QMPE     H17R     HGA2     0.900000E-01   1.00800           0
     28395 MEMB     228      QMPE     H17S     HGA2     0.900000E-01   1.00800           0
     28396 MEMB     228      QMPE     C210     CG3RC1  -0.900000E-01   12.0110           0
     28397 MEMB     228      QMPE     H10R     HGA1     0.900000E-01   1.00800           0
     28398 MEMB     228      QMPE     C211     CTL2    -0.180000       12.0110           0
     28399 MEMB     228      QMPE     H11R     HAL2     0.900000E-01   1.00800           0
     28400 MEMB     228      QMPE     H11S     HAL2     0.900000E-01   1.00800           0
     28401 MEMB     228      QMPE     C212     CTL2    -0.180000       12.0110           0
     28402 MEMB     228      QMPE     H12R     HAL2     0.900000E-01   1.00800           0
     28403 MEMB     228      QMPE     H12S     HAL2     0.900000E-01   1.00800           0
     28404 MEMB     228      QMPE     C213     CTL2    -0.180000       12.0110           0
     28405 MEMB     228      QMPE     H13R     HAL2     0.900000E-01   1.00800           0
     28406 MEMB     228      QMPE     H13S     HAL2     0.900000E-01   1.00800           0
     28407 MEMB     228      QMPE     C214     CTL2    -0.180000       12.0110           0
     28408 MEMB     228      QMPE     H14R     HAL2     0.900000E-01   1.00800           0
     28409 MEMB     228      QMPE     H14S     HAL2     0.900000E-01   1.00800           0
     28410 MEMB     228      QMPE     C215     CTL2    -0.180000       12.0110           0
     28411 MEMB     228      QMPE     H15R     HAL2     0.900000E-01   1.00800           0
     28412 MEMB     228      QMPE     H15S     HAL2     0.900000E-01   1.00800           0
     28413 MEMB     228      QMPE     C216     CTL3    -0.270000       12.0110           0
     28414 MEMB     228      QMPE     H16R     HAL3     0.900000E-01   1.00800           0
     28415 MEMB     228      QMPE     H16S     HAL3     0.900000E-01   1.00800           0
     28416 MEMB     228      QMPE     H16T     HAL3     0.900000E-01   1.00800           0
     28417 MEMB     228      QMPE     C33      CTL2    -0.180000       12.0110           0
     28418 MEMB     228      QMPE     H3X      HAL2     0.900000E-01   1.00800           0
     28419 MEMB     228      QMPE     H3Y      HAL2     0.900000E-01   1.00800           0
     28420 MEMB     228      QMPE     C34      CTL2    -0.180000       12.0110           0
     28421 MEMB     228      QMPE     H4X      HAL2     0.900000E-01   1.00800           0
     28422 MEMB     228      QMPE     H4Y      HAL2     0.900000E-01   1.00800           0
     28423 MEMB     228      QMPE     C35      CTL2    -0.180000       12.0110           0
     28424 MEMB     228      QMPE     H5X      HAL2     0.900000E-01   1.00800           0
     28425 MEMB     228      QMPE     H5Y      HAL2     0.900000E-01   1.00800           0
     28426 MEMB     228      QMPE     C36      CTL2    -0.180000       12.0110           0
     28427 MEMB     228      QMPE     H6X      HAL2     0.900000E-01   1.00800           0
     28428 MEMB     228      QMPE     H6Y      HAL2     0.900000E-01   1.00800           0
     28429 MEMB     228      QMPE     C37      CTL2    -0.180000       12.0110           0
     28430 MEMB     228      QMPE     H7X      HAL2     0.900000E-01   1.00800           0
     28431 MEMB     228      QMPE     H7Y      HAL2     0.900000E-01   1.00800           0
     28432 MEMB     228      QMPE     C38      CTL2    -0.180000       12.0110           0
     28433 MEMB     228      QMPE     H8X      HAL2     0.900000E-01   1.00800           0
     28434 MEMB     228      QMPE     H8Y      HAL2     0.900000E-01   1.00800           0
     28435 MEMB     228      QMPE     C39      CTL2    -0.180000       12.0110           0
     28436 MEMB     228      QMPE     H9X      HAL2     0.900000E-01   1.00800           0
     28437 MEMB     228      QMPE     H9Y      HAL2     0.900000E-01   1.00800           0
     28438 MEMB     228      QMPE     C310     CTL2    -0.180000       12.0110           0
     28439 MEMB     228      QMPE     H10X     HAL2     0.900000E-01   1.00800           0
     28440 MEMB     228      QMPE     H10Y     HAL2     0.900000E-01   1.00800           0
     28441 MEMB     228      QMPE     C311     CTL2    -0.180000       12.0110           0
     28442 MEMB     228      QMPE     H11X     HAL2     0.900000E-01   1.00800           0
     28443 MEMB     228      QMPE     H11Y     HAL2     0.900000E-01   1.00800           0
     28444 MEMB     228      QMPE     C312     CTL2    -0.180000       12.0110           0
     28445 MEMB     228      QMPE     H12X     HAL2     0.900000E-01   1.00800           0
     28446 MEMB     228      QMPE     H12Y     HAL2     0.900000E-01   1.00800           0
     28447 MEMB     228      QMPE     C313     CTL2    -0.180000       12.0110           0
     28448 MEMB     228      QMPE     H13X     HAL2     0.900000E-01   1.00800           0
     28449 MEMB     228      QMPE     H13Y     HAL2     0.900000E-01   1.00800           0
     28450 MEMB     228      QMPE     C314     CTL2    -0.180000       12.0110           0
     28451 MEMB     228      QMPE     H14X     HAL2     0.900000E-01   1.00800           0
     28452 MEMB     228      QMPE     H14Y     HAL2     0.900000E-01   1.00800           0
     28453 MEMB     228      QMPE     C315     CTL3    -0.270000       12.0110           0
     28454 MEMB     228      QMPE     H15X     HAL3     0.900000E-01   1.00800           0
     28455 MEMB     228      QMPE     H15Y     HAL3     0.900000E-01   1.00800           0
     28456 MEMB     228      QMPE     H15Z     HAL3     0.900000E-01   1.00800           0
     28457 MEMB     229      PMPE     N        NH3L    -0.300000       14.0070           0
     28458 MEMB     229      PMPE     HN1      HCL      0.330000       1.00800           0
     28459 MEMB     229      PMPE     HN2      HCL      0.330000       1.00800           0
     28460 MEMB     229      PMPE     HN3      HCL      0.330000       1.00800           0
     28461 MEMB     229      PMPE     C12      CTL2     0.130000       12.0110           0
     28462 MEMB     229      PMPE     H12A     HAL2     0.900000E-01   1.00800           0
     28463 MEMB     229      PMPE     H12B     HAL2     0.900000E-01   1.00800           0
     28464 MEMB     229      PMPE     C11      CTL2    -0.800000E-01   12.0110           0
     28465 MEMB     229      PMPE     H11A     HAL2     0.900000E-01   1.00800           0
     28466 MEMB     229      PMPE     H11B     HAL2     0.900000E-01   1.00800           0
     28467 MEMB     229      PMPE     P        PL        1.50000       30.9740           0
     28468 MEMB     229      PMPE     O13      O2L     -0.780000       15.9994           0
     28469 MEMB     229      PMPE     O14      O2L     -0.780000       15.9994           0
     28470 MEMB     229      PMPE     O11      OSLP    -0.570000       15.9994           0
     28471 MEMB     229      PMPE     O12      OSLP    -0.570000       15.9994           0
     28472 MEMB     229      PMPE     C1       CTL2    -0.800000E-01   12.0110           0
     28473 MEMB     229      PMPE     HA       HAL2     0.900000E-01   1.00800           0
     28474 MEMB     229      PMPE     HB       HAL2     0.900000E-01   1.00800           0
     28475 MEMB     229      PMPE     C2       CTL1     0.170000       12.0110           0
     28476 MEMB     229      PMPE     HS       HAL1     0.900000E-01   1.00800           0
     28477 MEMB     229      PMPE     O21      OSL     -0.490000       15.9994           0
     28478 MEMB     229      PMPE     C21      CL       0.900000       12.0110           0
     28479 MEMB     229      PMPE     O22      OBL     -0.630000       15.9994           0
     28480 MEMB     229      PMPE     C22      CTL2    -0.220000       12.0110           0
     28481 MEMB     229      PMPE     H2R      HAL2     0.900000E-01   1.00800           0
     28482 MEMB     229      PMPE     H2S      HAL2     0.900000E-01   1.00800           0
     28483 MEMB     229      PMPE     C3       CTL2     0.800000E-01   12.0110           0
     28484 MEMB     229      PMPE     HX       HAL2     0.900000E-01   1.00800           0
     28485 MEMB     229      PMPE     HY       HAL2     0.900000E-01   1.00800           0
     28486 MEMB     229      PMPE     O31      OSL     -0.490000       15.9994           0
     28487 MEMB     229      PMPE     C31      CL       0.900000       12.0110           0
     28488 MEMB     229      PMPE     O32      OBL     -0.630000       15.9994           0
     28489 MEMB     229      PMPE     C32      CTL2    -0.220000       12.0110           0
     28490 MEMB     229      PMPE     H2X      HAL2     0.900000E-01   1.00800           0
     28491 MEMB     229      PMPE     H2Y      HAL2     0.900000E-01   1.00800           0
     28492 MEMB     229      PMPE     C23      CTL2    -0.180000       12.0110           0
     28493 MEMB     229      PMPE     H3R      HAL2     0.900000E-01   1.00800           0
     28494 MEMB     229      PMPE     H3S      HAL2     0.900000E-01   1.00800           0
     28495 MEMB     229      PMPE     C24      CTL2    -0.180000       12.0110           0
     28496 MEMB     229      PMPE     H4R      HAL2     0.900000E-01   1.00800           0
     28497 MEMB     229      PMPE     H4S      HAL2     0.900000E-01   1.00800           0
     28498 MEMB     229      PMPE     C25      CTL2    -0.180000       12.0110           0
     28499 MEMB     229      PMPE     H5R      HAL2     0.900000E-01   1.00800           0
     28500 MEMB     229      PMPE     H5S      HAL2     0.900000E-01   1.00800           0
     28501 MEMB     229      PMPE     C26      CTL2    -0.180000       12.0110           0
     28502 MEMB     229      PMPE     H6R      HAL2     0.900000E-01   1.00800           0
     28503 MEMB     229      PMPE     H6S      HAL2     0.900000E-01   1.00800           0
     28504 MEMB     229      PMPE     C27      CTL2    -0.180000       12.0110           0
     28505 MEMB     229      PMPE     H7R      HAL2     0.900000E-01   1.00800           0
     28506 MEMB     229      PMPE     H7S      HAL2     0.900000E-01   1.00800           0
     28507 MEMB     229      PMPE     C28      CTL2    -0.180000       12.0110           0
     28508 MEMB     229      PMPE     H8R      HAL2     0.900000E-01   1.00800           0
     28509 MEMB     229      PMPE     H8S      HAL2     0.900000E-01   1.00800           0
     28510 MEMB     229      PMPE     C29      CG3RC1  -0.900000E-01   12.0110           0
     28511 MEMB     229      PMPE     H9R      HGA1     0.900000E-01   1.00800           0
     28512 MEMB     229      PMPE     C217     CG3C31  -0.180000       12.0110           0
     28513 MEMB     229      PMPE     H17R     HGA2     0.900000E-01   1.00800           0
     28514 MEMB     229      PMPE     H17S     HGA2     0.900000E-01   1.00800           0
     28515 MEMB     229      PMPE     C210     CG3RC1  -0.900000E-01   12.0110           0
     28516 MEMB     229      PMPE     H10R     HGA1     0.900000E-01   1.00800           0
     28517 MEMB     229      PMPE     C211     CTL2    -0.180000       12.0110           0
     28518 MEMB     229      PMPE     H11R     HAL2     0.900000E-01   1.00800           0
     28519 MEMB     229      PMPE     H11S     HAL2     0.900000E-01   1.00800           0
     28520 MEMB     229      PMPE     C212     CTL2    -0.180000       12.0110           0
     28521 MEMB     229      PMPE     H12R     HAL2     0.900000E-01   1.00800           0
     28522 MEMB     229      PMPE     H12S     HAL2     0.900000E-01   1.00800           0
     28523 MEMB     229      PMPE     C213     CTL2    -0.180000       12.0110           0
     28524 MEMB     229      PMPE     H13R     HAL2     0.900000E-01   1.00800           0
     28525 MEMB     229      PMPE     H13S     HAL2     0.900000E-01   1.00800           0
     28526 MEMB     229      PMPE     C214     CTL2    -0.180000       12.0110           0
     28527 MEMB     229      PMPE     H14R     HAL2     0.900000E-01   1.00800           0
     28528 MEMB     229      PMPE     H14S     HAL2     0.900000E-01   1.00800           0
     28529 MEMB     229      PMPE     C215     CTL2    -0.180000       12.0110           0
     28530 MEMB     229      PMPE     H15R     HAL2     0.900000E-01   1.00800           0
     28531 MEMB     229      PMPE     H15S     HAL2     0.900000E-01   1.00800           0
     28532 MEMB     229      PMPE     C216     CTL3    -0.270000       12.0110           0
     28533 MEMB     229      PMPE     H16R     HAL3     0.900000E-01   1.00800           0
     28534 MEMB     229      PMPE     H16S     HAL3     0.900000E-01   1.00800           0
     28535 MEMB     229      PMPE     H16T     HAL3     0.900000E-01   1.00800           0
     28536 MEMB     229      PMPE     C33      CTL2    -0.180000       12.0110           0
     28537 MEMB     229      PMPE     H3X      HAL2     0.900000E-01   1.00800           0
     28538 MEMB     229      PMPE     H3Y      HAL2     0.900000E-01   1.00800           0
     28539 MEMB     229      PMPE     C34      CTL2    -0.180000       12.0110           0
     28540 MEMB     229      PMPE     H4X      HAL2     0.900000E-01   1.00800           0
     28541 MEMB     229      PMPE     H4Y      HAL2     0.900000E-01   1.00800           0
     28542 MEMB     229      PMPE     C35      CTL2    -0.180000       12.0110           0
     28543 MEMB     229      PMPE     H5X      HAL2     0.900000E-01   1.00800           0
     28544 MEMB     229      PMPE     H5Y      HAL2     0.900000E-01   1.00800           0
     28545 MEMB     229      PMPE     C36      CTL2    -0.180000       12.0110           0
     28546 MEMB     229      PMPE     H6X      HAL2     0.900000E-01   1.00800           0
     28547 MEMB     229      PMPE     H6Y      HAL2     0.900000E-01   1.00800           0
     28548 MEMB     229      PMPE     C37      CTL2    -0.180000       12.0110           0
     28549 MEMB     229      PMPE     H7X      HAL2     0.900000E-01   1.00800           0
     28550 MEMB     229      PMPE     H7Y      HAL2     0.900000E-01   1.00800           0
     28551 MEMB     229      PMPE     C38      CTL2    -0.180000       12.0110           0
     28552 MEMB     229      PMPE     H8X      HAL2     0.900000E-01   1.00800           0
     28553 MEMB     229      PMPE     H8Y      HAL2     0.900000E-01   1.00800           0
     28554 MEMB     229      PMPE     C39      CTL2    -0.180000       12.0110           0
     28555 MEMB     229      PMPE     H9X      HAL2     0.900000E-01   1.00800           0
     28556 MEMB     229      PMPE     H9Y      HAL2     0.900000E-01   1.00800           0
     28557 MEMB     229      PMPE     C310     CTL2    -0.180000       12.0110           0
     28558 MEMB     229      PMPE     H10X     HAL2     0.900000E-01   1.00800           0
     28559 MEMB     229      PMPE     H10Y     HAL2     0.900000E-01   1.00800           0
     28560 MEMB     229      PMPE     C311     CTL2    -0.180000       12.0110           0
     28561 MEMB     229      PMPE     H11X     HAL2     0.900000E-01   1.00800           0
     28562 MEMB     229      PMPE     H11Y     HAL2     0.900000E-01   1.00800           0
     28563 MEMB     229      PMPE     C312     CTL2    -0.180000       12.0110           0
     28564 MEMB     229      PMPE     H12X     HAL2     0.900000E-01   1.00800           0
     28565 MEMB     229      PMPE     H12Y     HAL2     0.900000E-01   1.00800           0
     28566 MEMB     229      PMPE     C313     CTL2    -0.180000       12.0110           0
     28567 MEMB     229      PMPE     H13X     HAL2     0.900000E-01   1.00800           0
     28568 MEMB     229      PMPE     H13Y     HAL2     0.900000E-01   1.00800           0
     28569 MEMB     229      PMPE     C314     CTL2    -0.180000       12.0110           0
     28570 MEMB     229      PMPE     H14X     HAL2     0.900000E-01   1.00800           0
     28571 MEMB     229      PMPE     H14Y     HAL2     0.900000E-01   1.00800           0
     28572 MEMB     229      PMPE     C315     CTL2    -0.180000       12.0110           0
     28573 MEMB     229      PMPE     H15X     HAL2     0.900000E-01   1.00800           0
     28574 MEMB     229      PMPE     H15Y     HAL2     0.900000E-01   1.00800           0
     28575 MEMB     229      PMPE     C316     CTL3    -0.270000       12.0110           0
     28576 MEMB     229      PMPE     H16X     HAL3     0.900000E-01   1.00800           0
     28577 MEMB     229      PMPE     H16Y     HAL3     0.900000E-01   1.00800           0
     28578 MEMB     229      PMPE     H16Z     HAL3     0.900000E-01   1.00800           0
     28579 MEMB     230      PMPE     N        NH3L    -0.300000       14.0070           0
     28580 MEMB     230      PMPE     HN1      HCL      0.330000       1.00800           0
     28581 MEMB     230      PMPE     HN2      HCL      0.330000       1.00800           0
     28582 MEMB     230      PMPE     HN3      HCL      0.330000       1.00800           0
     28583 MEMB     230      PMPE     C12      CTL2     0.130000       12.0110           0
     28584 MEMB     230      PMPE     H12A     HAL2     0.900000E-01   1.00800           0
     28585 MEMB     230      PMPE     H12B     HAL2     0.900000E-01   1.00800           0
     28586 MEMB     230      PMPE     C11      CTL2    -0.800000E-01   12.0110           0
     28587 MEMB     230      PMPE     H11A     HAL2     0.900000E-01   1.00800           0
     28588 MEMB     230      PMPE     H11B     HAL2     0.900000E-01   1.00800           0
     28589 MEMB     230      PMPE     P        PL        1.50000       30.9740           0
     28590 MEMB     230      PMPE     O13      O2L     -0.780000       15.9994           0
     28591 MEMB     230      PMPE     O14      O2L     -0.780000       15.9994           0
     28592 MEMB     230      PMPE     O11      OSLP    -0.570000       15.9994           0
     28593 MEMB     230      PMPE     O12      OSLP    -0.570000       15.9994           0
     28594 MEMB     230      PMPE     C1       CTL2    -0.800000E-01   12.0110           0
     28595 MEMB     230      PMPE     HA       HAL2     0.900000E-01   1.00800           0
     28596 MEMB     230      PMPE     HB       HAL2     0.900000E-01   1.00800           0
     28597 MEMB     230      PMPE     C2       CTL1     0.170000       12.0110           0
     28598 MEMB     230      PMPE     HS       HAL1     0.900000E-01   1.00800           0
     28599 MEMB     230      PMPE     O21      OSL     -0.490000       15.9994           0
     28600 MEMB     230      PMPE     C21      CL       0.900000       12.0110           0
     28601 MEMB     230      PMPE     O22      OBL     -0.630000       15.9994           0
     28602 MEMB     230      PMPE     C22      CTL2    -0.220000       12.0110           0
     28603 MEMB     230      PMPE     H2R      HAL2     0.900000E-01   1.00800           0
     28604 MEMB     230      PMPE     H2S      HAL2     0.900000E-01   1.00800           0
     28605 MEMB     230      PMPE     C3       CTL2     0.800000E-01   12.0110           0
     28606 MEMB     230      PMPE     HX       HAL2     0.900000E-01   1.00800           0
     28607 MEMB     230      PMPE     HY       HAL2     0.900000E-01   1.00800           0
     28608 MEMB     230      PMPE     O31      OSL     -0.490000       15.9994           0
     28609 MEMB     230      PMPE     C31      CL       0.900000       12.0110           0
     28610 MEMB     230      PMPE     O32      OBL     -0.630000       15.9994           0
     28611 MEMB     230      PMPE     C32      CTL2    -0.220000       12.0110           0
     28612 MEMB     230      PMPE     H2X      HAL2     0.900000E-01   1.00800           0
     28613 MEMB     230      PMPE     H2Y      HAL2     0.900000E-01   1.00800           0
     28614 MEMB     230      PMPE     C23      CTL2    -0.180000       12.0110           0
     28615 MEMB     230      PMPE     H3R      HAL2     0.900000E-01   1.00800           0
     28616 MEMB     230      PMPE     H3S      HAL2     0.900000E-01   1.00800           0
     28617 MEMB     230      PMPE     C24      CTL2    -0.180000       12.0110           0
     28618 MEMB     230      PMPE     H4R      HAL2     0.900000E-01   1.00800           0
     28619 MEMB     230      PMPE     H4S      HAL2     0.900000E-01   1.00800           0
     28620 MEMB     230      PMPE     C25      CTL2    -0.180000       12.0110           0
     28621 MEMB     230      PMPE     H5R      HAL2     0.900000E-01   1.00800           0
     28622 MEMB     230      PMPE     H5S      HAL2     0.900000E-01   1.00800           0
     28623 MEMB     230      PMPE     C26      CTL2    -0.180000       12.0110           0
     28624 MEMB     230      PMPE     H6R      HAL2     0.900000E-01   1.00800           0
     28625 MEMB     230      PMPE     H6S      HAL2     0.900000E-01   1.00800           0
     28626 MEMB     230      PMPE     C27      CTL2    -0.180000       12.0110           0
     28627 MEMB     230      PMPE     H7R      HAL2     0.900000E-01   1.00800           0
     28628 MEMB     230      PMPE     H7S      HAL2     0.900000E-01   1.00800           0
     28629 MEMB     230      PMPE     C28      CTL2    -0.180000       12.0110           0
     28630 MEMB     230      PMPE     H8R      HAL2     0.900000E-01   1.00800           0
     28631 MEMB     230      PMPE     H8S      HAL2     0.900000E-01   1.00800           0
     28632 MEMB     230      PMPE     C29      CG3RC1  -0.900000E-01   12.0110           0
     28633 MEMB     230      PMPE     H9R      HGA1     0.900000E-01   1.00800           0
     28634 MEMB     230      PMPE     C217     CG3C31  -0.180000       12.0110           0
     28635 MEMB     230      PMPE     H17R     HGA2     0.900000E-01   1.00800           0
     28636 MEMB     230      PMPE     H17S     HGA2     0.900000E-01   1.00800           0
     28637 MEMB     230      PMPE     C210     CG3RC1  -0.900000E-01   12.0110           0
     28638 MEMB     230      PMPE     H10R     HGA1     0.900000E-01   1.00800           0
     28639 MEMB     230      PMPE     C211     CTL2    -0.180000       12.0110           0
     28640 MEMB     230      PMPE     H11R     HAL2     0.900000E-01   1.00800           0
     28641 MEMB     230      PMPE     H11S     HAL2     0.900000E-01   1.00800           0
     28642 MEMB     230      PMPE     C212     CTL2    -0.180000       12.0110           0
     28643 MEMB     230      PMPE     H12R     HAL2     0.900000E-01   1.00800           0
     28644 MEMB     230      PMPE     H12S     HAL2     0.900000E-01   1.00800           0
     28645 MEMB     230      PMPE     C213     CTL2    -0.180000       12.0110           0
     28646 MEMB     230      PMPE     H13R     HAL2     0.900000E-01   1.00800           0
     28647 MEMB     230      PMPE     H13S     HAL2     0.900000E-01   1.00800           0
     28648 MEMB     230      PMPE     C214     CTL2    -0.180000       12.0110           0
     28649 MEMB     230      PMPE     H14R     HAL2     0.900000E-01   1.00800           0
     28650 MEMB     230      PMPE     H14S     HAL2     0.900000E-01   1.00800           0
     28651 MEMB     230      PMPE     C215     CTL2    -0.180000       12.0110           0
     28652 MEMB     230      PMPE     H15R     HAL2     0.900000E-01   1.00800           0
     28653 MEMB     230      PMPE     H15S     HAL2     0.900000E-01   1.00800           0
     28654 MEMB     230      PMPE     C216     CTL3    -0.270000       12.0110           0
     28655 MEMB     230      PMPE     H16R     HAL3     0.900000E-01   1.00800           0
     28656 MEMB     230      PMPE     H16S     HAL3     0.900000E-01   1.00800           0
     28657 MEMB     230      PMPE     H16T     HAL3     0.900000E-01   1.00800           0
     28658 MEMB     230      PMPE     C33      CTL2    -0.180000       12.0110           0
     28659 MEMB     230      PMPE     H3X      HAL2     0.900000E-01   1.00800           0
     28660 MEMB     230      PMPE     H3Y      HAL2     0.900000E-01   1.00800           0
     28661 MEMB     230      PMPE     C34      CTL2    -0.180000       12.0110           0
     28662 MEMB     230      PMPE     H4X      HAL2     0.900000E-01   1.00800           0
     28663 MEMB     230      PMPE     H4Y      HAL2     0.900000E-01   1.00800           0
     28664 MEMB     230      PMPE     C35      CTL2    -0.180000       12.0110           0
     28665 MEMB     230      PMPE     H5X      HAL2     0.900000E-01   1.00800           0
     28666 MEMB     230      PMPE     H5Y      HAL2     0.900000E-01   1.00800           0
     28667 MEMB     230      PMPE     C36      CTL2    -0.180000       12.0110           0
     28668 MEMB     230      PMPE     H6X      HAL2     0.900000E-01   1.00800           0
     28669 MEMB     230      PMPE     H6Y      HAL2     0.900000E-01   1.00800           0
     28670 MEMB     230      PMPE     C37      CTL2    -0.180000       12.0110           0
     28671 MEMB     230      PMPE     H7X      HAL2     0.900000E-01   1.00800           0
     28672 MEMB     230      PMPE     H7Y      HAL2     0.900000E-01   1.00800           0
     28673 MEMB     230      PMPE     C38      CTL2    -0.180000       12.0110           0
     28674 MEMB     230      PMPE     H8X      HAL2     0.900000E-01   1.00800           0
     28675 MEMB     230      PMPE     H8Y      HAL2     0.900000E-01   1.00800           0
     28676 MEMB     230      PMPE     C39      CTL2    -0.180000       12.0110           0
     28677 MEMB     230      PMPE     H9X      HAL2     0.900000E-01   1.00800           0
     28678 MEMB     230      PMPE     H9Y      HAL2     0.900000E-01   1.00800           0
     28679 MEMB     230      PMPE     C310     CTL2    -0.180000       12.0110           0
     28680 MEMB     230      PMPE     H10X     HAL2     0.900000E-01   1.00800           0
     28681 MEMB     230      PMPE     H10Y     HAL2     0.900000E-01   1.00800           0
     28682 MEMB     230      PMPE     C311     CTL2    -0.180000       12.0110           0
     28683 MEMB     230      PMPE     H11X     HAL2     0.900000E-01   1.00800           0
     28684 MEMB     230      PMPE     H11Y     HAL2     0.900000E-01   1.00800           0
     28685 MEMB     230      PMPE     C312     CTL2    -0.180000       12.0110           0
     28686 MEMB     230      PMPE     H12X     HAL2     0.900000E-01   1.00800           0
     28687 MEMB     230      PMPE     H12Y     HAL2     0.900000E-01   1.00800           0
     28688 MEMB     230      PMPE     C313     CTL2    -0.180000       12.0110           0
     28689 MEMB     230      PMPE     H13X     HAL2     0.900000E-01   1.00800           0
     28690 MEMB     230      PMPE     H13Y     HAL2     0.900000E-01   1.00800           0
     28691 MEMB     230      PMPE     C314     CTL2    -0.180000       12.0110           0
     28692 MEMB     230      PMPE     H14X     HAL2     0.900000E-01   1.00800           0
     28693 MEMB     230      PMPE     H14Y     HAL2     0.900000E-01   1.00800           0
     28694 MEMB     230      PMPE     C315     CTL2    -0.180000       12.0110           0
     28695 MEMB     230      PMPE     H15X     HAL2     0.900000E-01   1.00800           0
     28696 MEMB     230      PMPE     H15Y     HAL2     0.900000E-01   1.00800           0
     28697 MEMB     230      PMPE     C316     CTL3    -0.270000       12.0110           0
     28698 MEMB     230      PMPE     H16X     HAL3     0.900000E-01   1.00800           0
     28699 MEMB     230      PMPE     H16Y     HAL3     0.900000E-01   1.00800           0
     28700 MEMB     230      PMPE     H16Z     HAL3     0.900000E-01   1.00800           0
     28701 MEMB     231      PMPG     C13      CTL2     0.500000E-01   12.0110           0
     28702 MEMB     231      PMPG     H13A     HAL2     0.900000E-01   1.00800           0
     28703 MEMB     231      PMPG     H13B     HAL2     0.900000E-01   1.00800           0
     28704 MEMB     231      PMPG     OC3      OHL     -0.660000       15.9994           0
     28705 MEMB     231      PMPG     HO3      HOL      0.430000       1.00800           0
     28706 MEMB     231      PMPG     C12      CTL1     0.140000       12.0110           0
     28707 MEMB     231      PMPG     H12A     HAL1     0.900000E-01   1.00800           0
     28708 MEMB     231      PMPG     OC2      OHL     -0.660000       15.9994           0
     28709 MEMB     231      PMPG     HO2      HOL      0.430000       1.00800           0
     28710 MEMB     231      PMPG     C11      CTL2    -0.800000E-01   12.0110           0
     28711 MEMB     231      PMPG     H11A     HAL2     0.900000E-01   1.00800           0
     28712 MEMB     231      PMPG     H11B     HAL2     0.900000E-01   1.00800           0
     28713 MEMB     231      PMPG     P        PL        1.50000       30.9740           0
     28714 MEMB     231      PMPG     O13      O2L     -0.780000       15.9994           0
     28715 MEMB     231      PMPG     O14      O2L     -0.780000       15.9994           0
     28716 MEMB     231      PMPG     O11      OSLP    -0.570000       15.9994           0
     28717 MEMB     231      PMPG     O12      OSLP    -0.570000       15.9994           0
     28718 MEMB     231      PMPG     C1       CTL2    -0.800000E-01   12.0110           0
     28719 MEMB     231      PMPG     HA       HAL2     0.900000E-01   1.00800           0
     28720 MEMB     231      PMPG     HB       HAL2     0.900000E-01   1.00800           0
     28721 MEMB     231      PMPG     C2       CTL1     0.170000       12.0110           0
     28722 MEMB     231      PMPG     HS       HAL1     0.900000E-01   1.00800           0
     28723 MEMB     231      PMPG     O21      OSL     -0.490000       15.9994           0
     28724 MEMB     231      PMPG     C21      CL       0.900000       12.0110           0
     28725 MEMB     231      PMPG     O22      OBL     -0.630000       15.9994           0
     28726 MEMB     231      PMPG     C22      CTL2    -0.220000       12.0110           0
     28727 MEMB     231      PMPG     H2R      HAL2     0.900000E-01   1.00800           0
     28728 MEMB     231      PMPG     H2S      HAL2     0.900000E-01   1.00800           0
     28729 MEMB     231      PMPG     C3       CTL2     0.800000E-01   12.0110           0
     28730 MEMB     231      PMPG     HX       HAL2     0.900000E-01   1.00800           0
     28731 MEMB     231      PMPG     HY       HAL2     0.900000E-01   1.00800           0
     28732 MEMB     231      PMPG     O31      OSL     -0.490000       15.9994           0
     28733 MEMB     231      PMPG     C31      CL       0.900000       12.0110           0
     28734 MEMB     231      PMPG     O32      OBL     -0.630000       15.9994           0
     28735 MEMB     231      PMPG     C32      CTL2    -0.220000       12.0110           0
     28736 MEMB     231      PMPG     H2X      HAL2     0.900000E-01   1.00800           0
     28737 MEMB     231      PMPG     H2Y      HAL2     0.900000E-01   1.00800           0
     28738 MEMB     231      PMPG     C23      CTL2    -0.180000       12.0110           0
     28739 MEMB     231      PMPG     H3R      HAL2     0.900000E-01   1.00800           0
     28740 MEMB     231      PMPG     H3S      HAL2     0.900000E-01   1.00800           0
     28741 MEMB     231      PMPG     C24      CTL2    -0.180000       12.0110           0
     28742 MEMB     231      PMPG     H4R      HAL2     0.900000E-01   1.00800           0
     28743 MEMB     231      PMPG     H4S      HAL2     0.900000E-01   1.00800           0
     28744 MEMB     231      PMPG     C25      CTL2    -0.180000       12.0110           0
     28745 MEMB     231      PMPG     H5R      HAL2     0.900000E-01   1.00800           0
     28746 MEMB     231      PMPG     H5S      HAL2     0.900000E-01   1.00800           0
     28747 MEMB     231      PMPG     C26      CTL2    -0.180000       12.0110           0
     28748 MEMB     231      PMPG     H6R      HAL2     0.900000E-01   1.00800           0
     28749 MEMB     231      PMPG     H6S      HAL2     0.900000E-01   1.00800           0
     28750 MEMB     231      PMPG     C27      CTL2    -0.180000       12.0110           0
     28751 MEMB     231      PMPG     H7R      HAL2     0.900000E-01   1.00800           0
     28752 MEMB     231      PMPG     H7S      HAL2     0.900000E-01   1.00800           0
     28753 MEMB     231      PMPG     C28      CTL2    -0.180000       12.0110           0
     28754 MEMB     231      PMPG     H8R      HAL2     0.900000E-01   1.00800           0
     28755 MEMB     231      PMPG     H8S      HAL2     0.900000E-01   1.00800           0
     28756 MEMB     231      PMPG     C29      CG3RC1  -0.900000E-01   12.0110           0
     28757 MEMB     231      PMPG     H9R      HGA1     0.900000E-01   1.00800           0
     28758 MEMB     231      PMPG     C217     CG3C31  -0.180000       12.0110           0
     28759 MEMB     231      PMPG     H17R     HGA2     0.900000E-01   1.00800           0
     28760 MEMB     231      PMPG     H17S     HGA2     0.900000E-01   1.00800           0
     28761 MEMB     231      PMPG     C210     CG3RC1  -0.900000E-01   12.0110           0
     28762 MEMB     231      PMPG     H10R     HGA1     0.900000E-01   1.00800           0
     28763 MEMB     231      PMPG     C211     CTL2    -0.180000       12.0110           0
     28764 MEMB     231      PMPG     H11R     HAL2     0.900000E-01   1.00800           0
     28765 MEMB     231      PMPG     H11S     HAL2     0.900000E-01   1.00800           0
     28766 MEMB     231      PMPG     C212     CTL2    -0.180000       12.0110           0
     28767 MEMB     231      PMPG     H12R     HAL2     0.900000E-01   1.00800           0
     28768 MEMB     231      PMPG     H12S     HAL2     0.900000E-01   1.00800           0
     28769 MEMB     231      PMPG     C213     CTL2    -0.180000       12.0110           0
     28770 MEMB     231      PMPG     H13R     HAL2     0.900000E-01   1.00800           0
     28771 MEMB     231      PMPG     H13S     HAL2     0.900000E-01   1.00800           0
     28772 MEMB     231      PMPG     C214     CTL2    -0.180000       12.0110           0
     28773 MEMB     231      PMPG     H14R     HAL2     0.900000E-01   1.00800           0
     28774 MEMB     231      PMPG     H14S     HAL2     0.900000E-01   1.00800           0
     28775 MEMB     231      PMPG     C215     CTL2    -0.180000       12.0110           0
     28776 MEMB     231      PMPG     H15R     HAL2     0.900000E-01   1.00800           0
     28777 MEMB     231      PMPG     H15S     HAL2     0.900000E-01   1.00800           0
     28778 MEMB     231      PMPG     C216     CTL3    -0.270000       12.0110           0
     28779 MEMB     231      PMPG     H16R     HAL3     0.900000E-01   1.00800           0
     28780 MEMB     231      PMPG     H16S     HAL3     0.900000E-01   1.00800           0
     28781 MEMB     231      PMPG     H16T     HAL3     0.900000E-01   1.00800           0
     28782 MEMB     231      PMPG     C33      CTL2    -0.180000       12.0110           0
     28783 MEMB     231      PMPG     H3X      HAL2     0.900000E-01   1.00800           0
     28784 MEMB     231      PMPG     H3Y      HAL2     0.900000E-01   1.00800           0
     28785 MEMB     231      PMPG     C34      CTL2    -0.180000       12.0110           0
     28786 MEMB     231      PMPG     H4X      HAL2     0.900000E-01   1.00800           0
     28787 MEMB     231      PMPG     H4Y      HAL2     0.900000E-01   1.00800           0
     28788 MEMB     231      PMPG     C35      CTL2    -0.180000       12.0110           0
     28789 MEMB     231      PMPG     H5X      HAL2     0.900000E-01   1.00800           0
     28790 MEMB     231      PMPG     H5Y      HAL2     0.900000E-01   1.00800           0
     28791 MEMB     231      PMPG     C36      CTL2    -0.180000       12.0110           0
     28792 MEMB     231      PMPG     H6X      HAL2     0.900000E-01   1.00800           0
     28793 MEMB     231      PMPG     H6Y      HAL2     0.900000E-01   1.00800           0
     28794 MEMB     231      PMPG     C37      CTL2    -0.180000       12.0110           0
     28795 MEMB     231      PMPG     H7X      HAL2     0.900000E-01   1.00800           0
     28796 MEMB     231      PMPG     H7Y      HAL2     0.900000E-01   1.00800           0
     28797 MEMB     231      PMPG     C38      CTL2    -0.180000       12.0110           0
     28798 MEMB     231      PMPG     H8X      HAL2     0.900000E-01   1.00800           0
     28799 MEMB     231      PMPG     H8Y      HAL2     0.900000E-01   1.00800           0
     28800 MEMB     231      PMPG     C39      CTL2    -0.180000       12.0110           0
     28801 MEMB     231      PMPG     H9X      HAL2     0.900000E-01   1.00800           0
     28802 MEMB     231      PMPG     H9Y      HAL2     0.900000E-01   1.00800           0
     28803 MEMB     231      PMPG     C310     CTL2    -0.180000       12.0110           0
     28804 MEMB     231      PMPG     H10X     HAL2     0.900000E-01   1.00800           0
     28805 MEMB     231      PMPG     H10Y     HAL2     0.900000E-01   1.00800           0
     28806 MEMB     231      PMPG     C311     CTL2    -0.180000       12.0110           0
     28807 MEMB     231      PMPG     H11X     HAL2     0.900000E-01   1.00800           0
     28808 MEMB     231      PMPG     H11Y     HAL2     0.900000E-01   1.00800           0
     28809 MEMB     231      PMPG     C312     CTL2    -0.180000       12.0110           0
     28810 MEMB     231      PMPG     H12X     HAL2     0.900000E-01   1.00800           0
     28811 MEMB     231      PMPG     H12Y     HAL2     0.900000E-01   1.00800           0
     28812 MEMB     231      PMPG     C313     CTL2    -0.180000       12.0110           0
     28813 MEMB     231      PMPG     H13X     HAL2     0.900000E-01   1.00800           0
     28814 MEMB     231      PMPG     H13Y     HAL2     0.900000E-01   1.00800           0
     28815 MEMB     231      PMPG     C314     CTL2    -0.180000       12.0110           0
     28816 MEMB     231      PMPG     H14X     HAL2     0.900000E-01   1.00800           0
     28817 MEMB     231      PMPG     H14Y     HAL2     0.900000E-01   1.00800           0
     28818 MEMB     231      PMPG     C315     CTL2    -0.180000       12.0110           0
     28819 MEMB     231      PMPG     H15X     HAL2     0.900000E-01   1.00800           0
     28820 MEMB     231      PMPG     H15Y     HAL2     0.900000E-01   1.00800           0
     28821 MEMB     231      PMPG     C316     CTL3    -0.270000       12.0110           0
     28822 MEMB     231      PMPG     H16X     HAL3     0.900000E-01   1.00800           0
     28823 MEMB     231      PMPG     H16Y     HAL3     0.900000E-01   1.00800           0
     28824 MEMB     231      PMPG     H16Z     HAL3     0.900000E-01   1.00800           0
     28825 MEMB     232      PMPE     N        NH3L    -0.300000       14.0070           0
     28826 MEMB     232      PMPE     HN1      HCL      0.330000       1.00800           0
     28827 MEMB     232      PMPE     HN2      HCL      0.330000       1.00800           0
     28828 MEMB     232      PMPE     HN3      HCL      0.330000       1.00800           0
     28829 MEMB     232      PMPE     C12      CTL2     0.130000       12.0110           0
     28830 MEMB     232      PMPE     H12A     HAL2     0.900000E-01   1.00800           0
     28831 MEMB     232      PMPE     H12B     HAL2     0.900000E-01   1.00800           0
     28832 MEMB     232      PMPE     C11      CTL2    -0.800000E-01   12.0110           0
     28833 MEMB     232      PMPE     H11A     HAL2     0.900000E-01   1.00800           0
     28834 MEMB     232      PMPE     H11B     HAL2     0.900000E-01   1.00800           0
     28835 MEMB     232      PMPE     P        PL        1.50000       30.9740           0
     28836 MEMB     232      PMPE     O13      O2L     -0.780000       15.9994           0
     28837 MEMB     232      PMPE     O14      O2L     -0.780000       15.9994           0
     28838 MEMB     232      PMPE     O11      OSLP    -0.570000       15.9994           0
     28839 MEMB     232      PMPE     O12      OSLP    -0.570000       15.9994           0
     28840 MEMB     232      PMPE     C1       CTL2    -0.800000E-01   12.0110           0
     28841 MEMB     232      PMPE     HA       HAL2     0.900000E-01   1.00800           0
     28842 MEMB     232      PMPE     HB       HAL2     0.900000E-01   1.00800           0
     28843 MEMB     232      PMPE     C2       CTL1     0.170000       12.0110           0
     28844 MEMB     232      PMPE     HS       HAL1     0.900000E-01   1.00800           0
     28845 MEMB     232      PMPE     O21      OSL     -0.490000       15.9994           0
     28846 MEMB     232      PMPE     C21      CL       0.900000       12.0110           0
     28847 MEMB     232      PMPE     O22      OBL     -0.630000       15.9994           0
     28848 MEMB     232      PMPE     C22      CTL2    -0.220000       12.0110           0
     28849 MEMB     232      PMPE     H2R      HAL2     0.900000E-01   1.00800           0
     28850 MEMB     232      PMPE     H2S      HAL2     0.900000E-01   1.00800           0
     28851 MEMB     232      PMPE     C3       CTL2     0.800000E-01   12.0110           0
     28852 MEMB     232      PMPE     HX       HAL2     0.900000E-01   1.00800           0
     28853 MEMB     232      PMPE     HY       HAL2     0.900000E-01   1.00800           0
     28854 MEMB     232      PMPE     O31      OSL     -0.490000       15.9994           0
     28855 MEMB     232      PMPE     C31      CL       0.900000       12.0110           0
     28856 MEMB     232      PMPE     O32      OBL     -0.630000       15.9994           0
     28857 MEMB     232      PMPE     C32      CTL2    -0.220000       12.0110           0
     28858 MEMB     232      PMPE     H2X      HAL2     0.900000E-01   1.00800           0
     28859 MEMB     232      PMPE     H2Y      HAL2     0.900000E-01   1.00800           0
     28860 MEMB     232      PMPE     C23      CTL2    -0.180000       12.0110           0
     28861 MEMB     232      PMPE     H3R      HAL2     0.900000E-01   1.00800           0
     28862 MEMB     232      PMPE     H3S      HAL2     0.900000E-01   1.00800           0
     28863 MEMB     232      PMPE     C24      CTL2    -0.180000       12.0110           0
     28864 MEMB     232      PMPE     H4R      HAL2     0.900000E-01   1.00800           0
     28865 MEMB     232      PMPE     H4S      HAL2     0.900000E-01   1.00800           0
     28866 MEMB     232      PMPE     C25      CTL2    -0.180000       12.0110           0
     28867 MEMB     232      PMPE     H5R      HAL2     0.900000E-01   1.00800           0
     28868 MEMB     232      PMPE     H5S      HAL2     0.900000E-01   1.00800           0
     28869 MEMB     232      PMPE     C26      CTL2    -0.180000       12.0110           0
     28870 MEMB     232      PMPE     H6R      HAL2     0.900000E-01   1.00800           0
     28871 MEMB     232      PMPE     H6S      HAL2     0.900000E-01   1.00800           0
     28872 MEMB     232      PMPE     C27      CTL2    -0.180000       12.0110           0
     28873 MEMB     232      PMPE     H7R      HAL2     0.900000E-01   1.00800           0
     28874 MEMB     232      PMPE     H7S      HAL2     0.900000E-01   1.00800           0
     28875 MEMB     232      PMPE     C28      CTL2    -0.180000       12.0110           0
     28876 MEMB     232      PMPE     H8R      HAL2     0.900000E-01   1.00800           0
     28877 MEMB     232      PMPE     H8S      HAL2     0.900000E-01   1.00800           0
     28878 MEMB     232      PMPE     C29      CG3RC1  -0.900000E-01   12.0110           0
     28879 MEMB     232      PMPE     H9R      HGA1     0.900000E-01   1.00800           0
     28880 MEMB     232      PMPE     C217     CG3C31  -0.180000       12.0110           0
     28881 MEMB     232      PMPE     H17R     HGA2     0.900000E-01   1.00800           0
     28882 MEMB     232      PMPE     H17S     HGA2     0.900000E-01   1.00800           0
     28883 MEMB     232      PMPE     C210     CG3RC1  -0.900000E-01   12.0110           0
     28884 MEMB     232      PMPE     H10R     HGA1     0.900000E-01   1.00800           0
     28885 MEMB     232      PMPE     C211     CTL2    -0.180000       12.0110           0
     28886 MEMB     232      PMPE     H11R     HAL2     0.900000E-01   1.00800           0
     28887 MEMB     232      PMPE     H11S     HAL2     0.900000E-01   1.00800           0
     28888 MEMB     232      PMPE     C212     CTL2    -0.180000       12.0110           0
     28889 MEMB     232      PMPE     H12R     HAL2     0.900000E-01   1.00800           0
     28890 MEMB     232      PMPE     H12S     HAL2     0.900000E-01   1.00800           0
     28891 MEMB     232      PMPE     C213     CTL2    -0.180000       12.0110           0
     28892 MEMB     232      PMPE     H13R     HAL2     0.900000E-01   1.00800           0
     28893 MEMB     232      PMPE     H13S     HAL2     0.900000E-01   1.00800           0
     28894 MEMB     232      PMPE     C214     CTL2    -0.180000       12.0110           0
     28895 MEMB     232      PMPE     H14R     HAL2     0.900000E-01   1.00800           0
     28896 MEMB     232      PMPE     H14S     HAL2     0.900000E-01   1.00800           0
     28897 MEMB     232      PMPE     C215     CTL2    -0.180000       12.0110           0
     28898 MEMB     232      PMPE     H15R     HAL2     0.900000E-01   1.00800           0
     28899 MEMB     232      PMPE     H15S     HAL2     0.900000E-01   1.00800           0
     28900 MEMB     232      PMPE     C216     CTL3    -0.270000       12.0110           0
     28901 MEMB     232      PMPE     H16R     HAL3     0.900000E-01   1.00800           0
     28902 MEMB     232      PMPE     H16S     HAL3     0.900000E-01   1.00800           0
     28903 MEMB     232      PMPE     H16T     HAL3     0.900000E-01   1.00800           0
     28904 MEMB     232      PMPE     C33      CTL2    -0.180000       12.0110           0
     28905 MEMB     232      PMPE     H3X      HAL2     0.900000E-01   1.00800           0
     28906 MEMB     232      PMPE     H3Y      HAL2     0.900000E-01   1.00800           0
     28907 MEMB     232      PMPE     C34      CTL2    -0.180000       12.0110           0
     28908 MEMB     232      PMPE     H4X      HAL2     0.900000E-01   1.00800           0
     28909 MEMB     232      PMPE     H4Y      HAL2     0.900000E-01   1.00800           0
     28910 MEMB     232      PMPE     C35      CTL2    -0.180000       12.0110           0
     28911 MEMB     232      PMPE     H5X      HAL2     0.900000E-01   1.00800           0
     28912 MEMB     232      PMPE     H5Y      HAL2     0.900000E-01   1.00800           0
     28913 MEMB     232      PMPE     C36      CTL2    -0.180000       12.0110           0
     28914 MEMB     232      PMPE     H6X      HAL2     0.900000E-01   1.00800           0
     28915 MEMB     232      PMPE     H6Y      HAL2     0.900000E-01   1.00800           0
     28916 MEMB     232      PMPE     C37      CTL2    -0.180000       12.0110           0
     28917 MEMB     232      PMPE     H7X      HAL2     0.900000E-01   1.00800           0
     28918 MEMB     232      PMPE     H7Y      HAL2     0.900000E-01   1.00800           0
     28919 MEMB     232      PMPE     C38      CTL2    -0.180000       12.0110           0
     28920 MEMB     232      PMPE     H8X      HAL2     0.900000E-01   1.00800           0
     28921 MEMB     232      PMPE     H8Y      HAL2     0.900000E-01   1.00800           0
     28922 MEMB     232      PMPE     C39      CTL2    -0.180000       12.0110           0
     28923 MEMB     232      PMPE     H9X      HAL2     0.900000E-01   1.00800           0
     28924 MEMB     232      PMPE     H9Y      HAL2     0.900000E-01   1.00800           0
     28925 MEMB     232      PMPE     C310     CTL2    -0.180000       12.0110           0
     28926 MEMB     232      PMPE     H10X     HAL2     0.900000E-01   1.00800           0
     28927 MEMB     232      PMPE     H10Y     HAL2     0.900000E-01   1.00800           0
     28928 MEMB     232      PMPE     C311     CTL2    -0.180000       12.0110           0
     28929 MEMB     232      PMPE     H11X     HAL2     0.900000E-01   1.00800           0
     28930 MEMB     232      PMPE     H11Y     HAL2     0.900000E-01   1.00800           0
     28931 MEMB     232      PMPE     C312     CTL2    -0.180000       12.0110           0
     28932 MEMB     232      PMPE     H12X     HAL2     0.900000E-01   1.00800           0
     28933 MEMB     232      PMPE     H12Y     HAL2     0.900000E-01   1.00800           0
     28934 MEMB     232      PMPE     C313     CTL2    -0.180000       12.0110           0
     28935 MEMB     232      PMPE     H13X     HAL2     0.900000E-01   1.00800           0
     28936 MEMB     232      PMPE     H13Y     HAL2     0.900000E-01   1.00800           0
     28937 MEMB     232      PMPE     C314     CTL2    -0.180000       12.0110           0
     28938 MEMB     232      PMPE     H14X     HAL2     0.900000E-01   1.00800           0
     28939 MEMB     232      PMPE     H14Y     HAL2     0.900000E-01   1.00800           0
     28940 MEMB     232      PMPE     C315     CTL2    -0.180000       12.0110           0
     28941 MEMB     232      PMPE     H15X     HAL2     0.900000E-01   1.00800           0
     28942 MEMB     232      PMPE     H15Y     HAL2     0.900000E-01   1.00800           0
     28943 MEMB     232      PMPE     C316     CTL3    -0.270000       12.0110           0
     28944 MEMB     232      PMPE     H16X     HAL3     0.900000E-01   1.00800           0
     28945 MEMB     232      PMPE     H16Y     HAL3     0.900000E-01   1.00800           0
     28946 MEMB     232      PMPE     H16Z     HAL3     0.900000E-01   1.00800           0
     28947 MEMB     233      QMPE     N        NH3L    -0.300000       14.0070           0
     28948 MEMB     233      QMPE     HN1      HCL      0.330000       1.00800           0
     28949 MEMB     233      QMPE     HN2      HCL      0.330000       1.00800           0
     28950 MEMB     233      QMPE     HN3      HCL      0.330000       1.00800           0
     28951 MEMB     233      QMPE     C12      CTL2     0.130000       12.0110           0
     28952 MEMB     233      QMPE     H12A     HAL2     0.900000E-01   1.00800           0
     28953 MEMB     233      QMPE     H12B     HAL2     0.900000E-01   1.00800           0
     28954 MEMB     233      QMPE     C11      CTL2    -0.800000E-01   12.0110           0
     28955 MEMB     233      QMPE     H11A     HAL2     0.900000E-01   1.00800           0
     28956 MEMB     233      QMPE     H11B     HAL2     0.900000E-01   1.00800           0
     28957 MEMB     233      QMPE     P        PL        1.50000       30.9740           0
     28958 MEMB     233      QMPE     O13      O2L     -0.780000       15.9994           0
     28959 MEMB     233      QMPE     O14      O2L     -0.780000       15.9994           0
     28960 MEMB     233      QMPE     O11      OSLP    -0.570000       15.9994           0
     28961 MEMB     233      QMPE     O12      OSLP    -0.570000       15.9994           0
     28962 MEMB     233      QMPE     C1       CTL2    -0.800000E-01   12.0110           0
     28963 MEMB     233      QMPE     HA       HAL2     0.900000E-01   1.00800           0
     28964 MEMB     233      QMPE     HB       HAL2     0.900000E-01   1.00800           0
     28965 MEMB     233      QMPE     C2       CTL1     0.170000       12.0110           0
     28966 MEMB     233      QMPE     HS       HAL1     0.900000E-01   1.00800           0
     28967 MEMB     233      QMPE     O21      OSL     -0.490000       15.9994           0
     28968 MEMB     233      QMPE     C21      CL       0.900000       12.0110           0
     28969 MEMB     233      QMPE     O22      OBL     -0.630000       15.9994           0
     28970 MEMB     233      QMPE     C22      CTL2    -0.220000       12.0110           0
     28971 MEMB     233      QMPE     H2R      HAL2     0.900000E-01   1.00800           0
     28972 MEMB     233      QMPE     H2S      HAL2     0.900000E-01   1.00800           0
     28973 MEMB     233      QMPE     C3       CTL2     0.800000E-01   12.0110           0
     28974 MEMB     233      QMPE     HX       HAL2     0.900000E-01   1.00800           0
     28975 MEMB     233      QMPE     HY       HAL2     0.900000E-01   1.00800           0
     28976 MEMB     233      QMPE     O31      OSL     -0.490000       15.9994           0
     28977 MEMB     233      QMPE     C31      CL       0.900000       12.0110           0
     28978 MEMB     233      QMPE     O32      OBL     -0.630000       15.9994           0
     28979 MEMB     233      QMPE     C32      CTL2    -0.220000       12.0110           0
     28980 MEMB     233      QMPE     H2X      HAL2     0.900000E-01   1.00800           0
     28981 MEMB     233      QMPE     H2Y      HAL2     0.900000E-01   1.00800           0
     28982 MEMB     233      QMPE     C23      CTL2    -0.180000       12.0110           0
     28983 MEMB     233      QMPE     H3R      HAL2     0.900000E-01   1.00800           0
     28984 MEMB     233      QMPE     H3S      HAL2     0.900000E-01   1.00800           0
     28985 MEMB     233      QMPE     C24      CTL2    -0.180000       12.0110           0
     28986 MEMB     233      QMPE     H4R      HAL2     0.900000E-01   1.00800           0
     28987 MEMB     233      QMPE     H4S      HAL2     0.900000E-01   1.00800           0
     28988 MEMB     233      QMPE     C25      CTL2    -0.180000       12.0110           0
     28989 MEMB     233      QMPE     H5R      HAL2     0.900000E-01   1.00800           0
     28990 MEMB     233      QMPE     H5S      HAL2     0.900000E-01   1.00800           0
     28991 MEMB     233      QMPE     C26      CTL2    -0.180000       12.0110           0
     28992 MEMB     233      QMPE     H6R      HAL2     0.900000E-01   1.00800           0
     28993 MEMB     233      QMPE     H6S      HAL2     0.900000E-01   1.00800           0
     28994 MEMB     233      QMPE     C27      CTL2    -0.180000       12.0110           0
     28995 MEMB     233      QMPE     H7R      HAL2     0.900000E-01   1.00800           0
     28996 MEMB     233      QMPE     H7S      HAL2     0.900000E-01   1.00800           0
     28997 MEMB     233      QMPE     C28      CTL2    -0.180000       12.0110           0
     28998 MEMB     233      QMPE     H8R      HAL2     0.900000E-01   1.00800           0
     28999 MEMB     233      QMPE     H8S      HAL2     0.900000E-01   1.00800           0
     29000 MEMB     233      QMPE     C29      CG3RC1  -0.900000E-01   12.0110           0
     29001 MEMB     233      QMPE     H9R      HGA1     0.900000E-01   1.00800           0
     29002 MEMB     233      QMPE     C217     CG3C31  -0.180000       12.0110           0
     29003 MEMB     233      QMPE     H17R     HGA2     0.900000E-01   1.00800           0
     29004 MEMB     233      QMPE     H17S     HGA2     0.900000E-01   1.00800           0
     29005 MEMB     233      QMPE     C210     CG3RC1  -0.900000E-01   12.0110           0
     29006 MEMB     233      QMPE     H10R     HGA1     0.900000E-01   1.00800           0
     29007 MEMB     233      QMPE     C211     CTL2    -0.180000       12.0110           0
     29008 MEMB     233      QMPE     H11R     HAL2     0.900000E-01   1.00800           0
     29009 MEMB     233      QMPE     H11S     HAL2     0.900000E-01   1.00800           0
     29010 MEMB     233      QMPE     C212     CTL2    -0.180000       12.0110           0
     29011 MEMB     233      QMPE     H12R     HAL2     0.900000E-01   1.00800           0
     29012 MEMB     233      QMPE     H12S     HAL2     0.900000E-01   1.00800           0
     29013 MEMB     233      QMPE     C213     CTL2    -0.180000       12.0110           0
     29014 MEMB     233      QMPE     H13R     HAL2     0.900000E-01   1.00800           0
     29015 MEMB     233      QMPE     H13S     HAL2     0.900000E-01   1.00800           0
     29016 MEMB     233      QMPE     C214     CTL2    -0.180000       12.0110           0
     29017 MEMB     233      QMPE     H14R     HAL2     0.900000E-01   1.00800           0
     29018 MEMB     233      QMPE     H14S     HAL2     0.900000E-01   1.00800           0
     29019 MEMB     233      QMPE     C215     CTL2    -0.180000       12.0110           0
     29020 MEMB     233      QMPE     H15R     HAL2     0.900000E-01   1.00800           0
     29021 MEMB     233      QMPE     H15S     HAL2     0.900000E-01   1.00800           0
     29022 MEMB     233      QMPE     C216     CTL3    -0.270000       12.0110           0
     29023 MEMB     233      QMPE     H16R     HAL3     0.900000E-01   1.00800           0
     29024 MEMB     233      QMPE     H16S     HAL3     0.900000E-01   1.00800           0
     29025 MEMB     233      QMPE     H16T     HAL3     0.900000E-01   1.00800           0
     29026 MEMB     233      QMPE     C33      CTL2    -0.180000       12.0110           0
     29027 MEMB     233      QMPE     H3X      HAL2     0.900000E-01   1.00800           0
     29028 MEMB     233      QMPE     H3Y      HAL2     0.900000E-01   1.00800           0
     29029 MEMB     233      QMPE     C34      CTL2    -0.180000       12.0110           0
     29030 MEMB     233      QMPE     H4X      HAL2     0.900000E-01   1.00800           0
     29031 MEMB     233      QMPE     H4Y      HAL2     0.900000E-01   1.00800           0
     29032 MEMB     233      QMPE     C35      CTL2    -0.180000       12.0110           0
     29033 MEMB     233      QMPE     H5X      HAL2     0.900000E-01   1.00800           0
     29034 MEMB     233      QMPE     H5Y      HAL2     0.900000E-01   1.00800           0
     29035 MEMB     233      QMPE     C36      CTL2    -0.180000       12.0110           0
     29036 MEMB     233      QMPE     H6X      HAL2     0.900000E-01   1.00800           0
     29037 MEMB     233      QMPE     H6Y      HAL2     0.900000E-01   1.00800           0
     29038 MEMB     233      QMPE     C37      CTL2    -0.180000       12.0110           0
     29039 MEMB     233      QMPE     H7X      HAL2     0.900000E-01   1.00800           0
     29040 MEMB     233      QMPE     H7Y      HAL2     0.900000E-01   1.00800           0
     29041 MEMB     233      QMPE     C38      CTL2    -0.180000       12.0110           0
     29042 MEMB     233      QMPE     H8X      HAL2     0.900000E-01   1.00800           0
     29043 MEMB     233      QMPE     H8Y      HAL2     0.900000E-01   1.00800           0
     29044 MEMB     233      QMPE     C39      CTL2    -0.180000       12.0110           0
     29045 MEMB     233      QMPE     H9X      HAL2     0.900000E-01   1.00800           0
     29046 MEMB     233      QMPE     H9Y      HAL2     0.900000E-01   1.00800           0
     29047 MEMB     233      QMPE     C310     CTL2    -0.180000       12.0110           0
     29048 MEMB     233      QMPE     H10X     HAL2     0.900000E-01   1.00800           0
     29049 MEMB     233      QMPE     H10Y     HAL2     0.900000E-01   1.00800           0
     29050 MEMB     233      QMPE     C311     CTL2    -0.180000       12.0110           0
     29051 MEMB     233      QMPE     H11X     HAL2     0.900000E-01   1.00800           0
     29052 MEMB     233      QMPE     H11Y     HAL2     0.900000E-01   1.00800           0
     29053 MEMB     233      QMPE     C312     CTL2    -0.180000       12.0110           0
     29054 MEMB     233      QMPE     H12X     HAL2     0.900000E-01   1.00800           0
     29055 MEMB     233      QMPE     H12Y     HAL2     0.900000E-01   1.00800           0
     29056 MEMB     233      QMPE     C313     CTL2    -0.180000       12.0110           0
     29057 MEMB     233      QMPE     H13X     HAL2     0.900000E-01   1.00800           0
     29058 MEMB     233      QMPE     H13Y     HAL2     0.900000E-01   1.00800           0
     29059 MEMB     233      QMPE     C314     CTL2    -0.180000       12.0110           0
     29060 MEMB     233      QMPE     H14X     HAL2     0.900000E-01   1.00800           0
     29061 MEMB     233      QMPE     H14Y     HAL2     0.900000E-01   1.00800           0
     29062 MEMB     233      QMPE     C315     CTL3    -0.270000       12.0110           0
     29063 MEMB     233      QMPE     H15X     HAL3     0.900000E-01   1.00800           0
     29064 MEMB     233      QMPE     H15Y     HAL3     0.900000E-01   1.00800           0
     29065 MEMB     233      QMPE     H15Z     HAL3     0.900000E-01   1.00800           0
     29066 MEMB     234      PMPG     C13      CTL2     0.500000E-01   12.0110           0
     29067 MEMB     234      PMPG     H13A     HAL2     0.900000E-01   1.00800           0
     29068 MEMB     234      PMPG     H13B     HAL2     0.900000E-01   1.00800           0
     29069 MEMB     234      PMPG     OC3      OHL     -0.660000       15.9994           0
     29070 MEMB     234      PMPG     HO3      HOL      0.430000       1.00800           0
     29071 MEMB     234      PMPG     C12      CTL1     0.140000       12.0110           0
     29072 MEMB     234      PMPG     H12A     HAL1     0.900000E-01   1.00800           0
     29073 MEMB     234      PMPG     OC2      OHL     -0.660000       15.9994           0
     29074 MEMB     234      PMPG     HO2      HOL      0.430000       1.00800           0
     29075 MEMB     234      PMPG     C11      CTL2    -0.800000E-01   12.0110           0
     29076 MEMB     234      PMPG     H11A     HAL2     0.900000E-01   1.00800           0
     29077 MEMB     234      PMPG     H11B     HAL2     0.900000E-01   1.00800           0
     29078 MEMB     234      PMPG     P        PL        1.50000       30.9740           0
     29079 MEMB     234      PMPG     O13      O2L     -0.780000       15.9994           0
     29080 MEMB     234      PMPG     O14      O2L     -0.780000       15.9994           0
     29081 MEMB     234      PMPG     O11      OSLP    -0.570000       15.9994           0
     29082 MEMB     234      PMPG     O12      OSLP    -0.570000       15.9994           0
     29083 MEMB     234      PMPG     C1       CTL2    -0.800000E-01   12.0110           0
     29084 MEMB     234      PMPG     HA       HAL2     0.900000E-01   1.00800           0
     29085 MEMB     234      PMPG     HB       HAL2     0.900000E-01   1.00800           0
     29086 MEMB     234      PMPG     C2       CTL1     0.170000       12.0110           0
     29087 MEMB     234      PMPG     HS       HAL1     0.900000E-01   1.00800           0
     29088 MEMB     234      PMPG     O21      OSL     -0.490000       15.9994           0
     29089 MEMB     234      PMPG     C21      CL       0.900000       12.0110           0
     29090 MEMB     234      PMPG     O22      OBL     -0.630000       15.9994           0
     29091 MEMB     234      PMPG     C22      CTL2    -0.220000       12.0110           0
     29092 MEMB     234      PMPG     H2R      HAL2     0.900000E-01   1.00800           0
     29093 MEMB     234      PMPG     H2S      HAL2     0.900000E-01   1.00800           0
     29094 MEMB     234      PMPG     C3       CTL2     0.800000E-01   12.0110           0
     29095 MEMB     234      PMPG     HX       HAL2     0.900000E-01   1.00800           0
     29096 MEMB     234      PMPG     HY       HAL2     0.900000E-01   1.00800           0
     29097 MEMB     234      PMPG     O31      OSL     -0.490000       15.9994           0
     29098 MEMB     234      PMPG     C31      CL       0.900000       12.0110           0
     29099 MEMB     234      PMPG     O32      OBL     -0.630000       15.9994           0
     29100 MEMB     234      PMPG     C32      CTL2    -0.220000       12.0110           0
     29101 MEMB     234      PMPG     H2X      HAL2     0.900000E-01   1.00800           0
     29102 MEMB     234      PMPG     H2Y      HAL2     0.900000E-01   1.00800           0
     29103 MEMB     234      PMPG     C23      CTL2    -0.180000       12.0110           0
     29104 MEMB     234      PMPG     H3R      HAL2     0.900000E-01   1.00800           0
     29105 MEMB     234      PMPG     H3S      HAL2     0.900000E-01   1.00800           0
     29106 MEMB     234      PMPG     C24      CTL2    -0.180000       12.0110           0
     29107 MEMB     234      PMPG     H4R      HAL2     0.900000E-01   1.00800           0
     29108 MEMB     234      PMPG     H4S      HAL2     0.900000E-01   1.00800           0
     29109 MEMB     234      PMPG     C25      CTL2    -0.180000       12.0110           0
     29110 MEMB     234      PMPG     H5R      HAL2     0.900000E-01   1.00800           0
     29111 MEMB     234      PMPG     H5S      HAL2     0.900000E-01   1.00800           0
     29112 MEMB     234      PMPG     C26      CTL2    -0.180000       12.0110           0
     29113 MEMB     234      PMPG     H6R      HAL2     0.900000E-01   1.00800           0
     29114 MEMB     234      PMPG     H6S      HAL2     0.900000E-01   1.00800           0
     29115 MEMB     234      PMPG     C27      CTL2    -0.180000       12.0110           0
     29116 MEMB     234      PMPG     H7R      HAL2     0.900000E-01   1.00800           0
     29117 MEMB     234      PMPG     H7S      HAL2     0.900000E-01   1.00800           0
     29118 MEMB     234      PMPG     C28      CTL2    -0.180000       12.0110           0
     29119 MEMB     234      PMPG     H8R      HAL2     0.900000E-01   1.00800           0
     29120 MEMB     234      PMPG     H8S      HAL2     0.900000E-01   1.00800           0
     29121 MEMB     234      PMPG     C29      CG3RC1  -0.900000E-01   12.0110           0
     29122 MEMB     234      PMPG     H9R      HGA1     0.900000E-01   1.00800           0
     29123 MEMB     234      PMPG     C217     CG3C31  -0.180000       12.0110           0
     29124 MEMB     234      PMPG     H17R     HGA2     0.900000E-01   1.00800           0
     29125 MEMB     234      PMPG     H17S     HGA2     0.900000E-01   1.00800           0
     29126 MEMB     234      PMPG     C210     CG3RC1  -0.900000E-01   12.0110           0
     29127 MEMB     234      PMPG     H10R     HGA1     0.900000E-01   1.00800           0
     29128 MEMB     234      PMPG     C211     CTL2    -0.180000       12.0110           0
     29129 MEMB     234      PMPG     H11R     HAL2     0.900000E-01   1.00800           0
     29130 MEMB     234      PMPG     H11S     HAL2     0.900000E-01   1.00800           0
     29131 MEMB     234      PMPG     C212     CTL2    -0.180000       12.0110           0
     29132 MEMB     234      PMPG     H12R     HAL2     0.900000E-01   1.00800           0
     29133 MEMB     234      PMPG     H12S     HAL2     0.900000E-01   1.00800           0
     29134 MEMB     234      PMPG     C213     CTL2    -0.180000       12.0110           0
     29135 MEMB     234      PMPG     H13R     HAL2     0.900000E-01   1.00800           0
     29136 MEMB     234      PMPG     H13S     HAL2     0.900000E-01   1.00800           0
     29137 MEMB     234      PMPG     C214     CTL2    -0.180000       12.0110           0
     29138 MEMB     234      PMPG     H14R     HAL2     0.900000E-01   1.00800           0
     29139 MEMB     234      PMPG     H14S     HAL2     0.900000E-01   1.00800           0
     29140 MEMB     234      PMPG     C215     CTL2    -0.180000       12.0110           0
     29141 MEMB     234      PMPG     H15R     HAL2     0.900000E-01   1.00800           0
     29142 MEMB     234      PMPG     H15S     HAL2     0.900000E-01   1.00800           0
     29143 MEMB     234      PMPG     C216     CTL3    -0.270000       12.0110           0
     29144 MEMB     234      PMPG     H16R     HAL3     0.900000E-01   1.00800           0
     29145 MEMB     234      PMPG     H16S     HAL3     0.900000E-01   1.00800           0
     29146 MEMB     234      PMPG     H16T     HAL3     0.900000E-01   1.00800           0
     29147 MEMB     234      PMPG     C33      CTL2    -0.180000       12.0110           0
     29148 MEMB     234      PMPG     H3X      HAL2     0.900000E-01   1.00800           0
     29149 MEMB     234      PMPG     H3Y      HAL2     0.900000E-01   1.00800           0
     29150 MEMB     234      PMPG     C34      CTL2    -0.180000       12.0110           0
     29151 MEMB     234      PMPG     H4X      HAL2     0.900000E-01   1.00800           0
     29152 MEMB     234      PMPG     H4Y      HAL2     0.900000E-01   1.00800           0
     29153 MEMB     234      PMPG     C35      CTL2    -0.180000       12.0110           0
     29154 MEMB     234      PMPG     H5X      HAL2     0.900000E-01   1.00800           0
     29155 MEMB     234      PMPG     H5Y      HAL2     0.900000E-01   1.00800           0
     29156 MEMB     234      PMPG     C36      CTL2    -0.180000       12.0110           0
     29157 MEMB     234      PMPG     H6X      HAL2     0.900000E-01   1.00800           0
     29158 MEMB     234      PMPG     H6Y      HAL2     0.900000E-01   1.00800           0
     29159 MEMB     234      PMPG     C37      CTL2    -0.180000       12.0110           0
     29160 MEMB     234      PMPG     H7X      HAL2     0.900000E-01   1.00800           0
     29161 MEMB     234      PMPG     H7Y      HAL2     0.900000E-01   1.00800           0
     29162 MEMB     234      PMPG     C38      CTL2    -0.180000       12.0110           0
     29163 MEMB     234      PMPG     H8X      HAL2     0.900000E-01   1.00800           0
     29164 MEMB     234      PMPG     H8Y      HAL2     0.900000E-01   1.00800           0
     29165 MEMB     234      PMPG     C39      CTL2    -0.180000       12.0110           0
     29166 MEMB     234      PMPG     H9X      HAL2     0.900000E-01   1.00800           0
     29167 MEMB     234      PMPG     H9Y      HAL2     0.900000E-01   1.00800           0
     29168 MEMB     234      PMPG     C310     CTL2    -0.180000       12.0110           0
     29169 MEMB     234      PMPG     H10X     HAL2     0.900000E-01   1.00800           0
     29170 MEMB     234      PMPG     H10Y     HAL2     0.900000E-01   1.00800           0
     29171 MEMB     234      PMPG     C311     CTL2    -0.180000       12.0110           0
     29172 MEMB     234      PMPG     H11X     HAL2     0.900000E-01   1.00800           0
     29173 MEMB     234      PMPG     H11Y     HAL2     0.900000E-01   1.00800           0
     29174 MEMB     234      PMPG     C312     CTL2    -0.180000       12.0110           0
     29175 MEMB     234      PMPG     H12X     HAL2     0.900000E-01   1.00800           0
     29176 MEMB     234      PMPG     H12Y     HAL2     0.900000E-01   1.00800           0
     29177 MEMB     234      PMPG     C313     CTL2    -0.180000       12.0110           0
     29178 MEMB     234      PMPG     H13X     HAL2     0.900000E-01   1.00800           0
     29179 MEMB     234      PMPG     H13Y     HAL2     0.900000E-01   1.00800           0
     29180 MEMB     234      PMPG     C314     CTL2    -0.180000       12.0110           0
     29181 MEMB     234      PMPG     H14X     HAL2     0.900000E-01   1.00800           0
     29182 MEMB     234      PMPG     H14Y     HAL2     0.900000E-01   1.00800           0
     29183 MEMB     234      PMPG     C315     CTL2    -0.180000       12.0110           0
     29184 MEMB     234      PMPG     H15X     HAL2     0.900000E-01   1.00800           0
     29185 MEMB     234      PMPG     H15Y     HAL2     0.900000E-01   1.00800           0
     29186 MEMB     234      PMPG     C316     CTL3    -0.270000       12.0110           0
     29187 MEMB     234      PMPG     H16X     HAL3     0.900000E-01   1.00800           0
     29188 MEMB     234      PMPG     H16Y     HAL3     0.900000E-01   1.00800           0
     29189 MEMB     234      PMPG     H16Z     HAL3     0.900000E-01   1.00800           0
     29190 MEMB     235      PMPE     N        NH3L    -0.300000       14.0070           0
     29191 MEMB     235      PMPE     HN1      HCL      0.330000       1.00800           0
     29192 MEMB     235      PMPE     HN2      HCL      0.330000       1.00800           0
     29193 MEMB     235      PMPE     HN3      HCL      0.330000       1.00800           0
     29194 MEMB     235      PMPE     C12      CTL2     0.130000       12.0110           0
     29195 MEMB     235      PMPE     H12A     HAL2     0.900000E-01   1.00800           0
     29196 MEMB     235      PMPE     H12B     HAL2     0.900000E-01   1.00800           0
     29197 MEMB     235      PMPE     C11      CTL2    -0.800000E-01   12.0110           0
     29198 MEMB     235      PMPE     H11A     HAL2     0.900000E-01   1.00800           0
     29199 MEMB     235      PMPE     H11B     HAL2     0.900000E-01   1.00800           0
     29200 MEMB     235      PMPE     P        PL        1.50000       30.9740           0
     29201 MEMB     235      PMPE     O13      O2L     -0.780000       15.9994           0
     29202 MEMB     235      PMPE     O14      O2L     -0.780000       15.9994           0
     29203 MEMB     235      PMPE     O11      OSLP    -0.570000       15.9994           0
     29204 MEMB     235      PMPE     O12      OSLP    -0.570000       15.9994           0
     29205 MEMB     235      PMPE     C1       CTL2    -0.800000E-01   12.0110           0
     29206 MEMB     235      PMPE     HA       HAL2     0.900000E-01   1.00800           0
     29207 MEMB     235      PMPE     HB       HAL2     0.900000E-01   1.00800           0
     29208 MEMB     235      PMPE     C2       CTL1     0.170000       12.0110           0
     29209 MEMB     235      PMPE     HS       HAL1     0.900000E-01   1.00800           0
     29210 MEMB     235      PMPE     O21      OSL     -0.490000       15.9994           0
     29211 MEMB     235      PMPE     C21      CL       0.900000       12.0110           0
     29212 MEMB     235      PMPE     O22      OBL     -0.630000       15.9994           0
     29213 MEMB     235      PMPE     C22      CTL2    -0.220000       12.0110           0
     29214 MEMB     235      PMPE     H2R      HAL2     0.900000E-01   1.00800           0
     29215 MEMB     235      PMPE     H2S      HAL2     0.900000E-01   1.00800           0
     29216 MEMB     235      PMPE     C3       CTL2     0.800000E-01   12.0110           0
     29217 MEMB     235      PMPE     HX       HAL2     0.900000E-01   1.00800           0
     29218 MEMB     235      PMPE     HY       HAL2     0.900000E-01   1.00800           0
     29219 MEMB     235      PMPE     O31      OSL     -0.490000       15.9994           0
     29220 MEMB     235      PMPE     C31      CL       0.900000       12.0110           0
     29221 MEMB     235      PMPE     O32      OBL     -0.630000       15.9994           0
     29222 MEMB     235      PMPE     C32      CTL2    -0.220000       12.0110           0
     29223 MEMB     235      PMPE     H2X      HAL2     0.900000E-01   1.00800           0
     29224 MEMB     235      PMPE     H2Y      HAL2     0.900000E-01   1.00800           0
     29225 MEMB     235      PMPE     C23      CTL2    -0.180000       12.0110           0
     29226 MEMB     235      PMPE     H3R      HAL2     0.900000E-01   1.00800           0
     29227 MEMB     235      PMPE     H3S      HAL2     0.900000E-01   1.00800           0
     29228 MEMB     235      PMPE     C24      CTL2    -0.180000       12.0110           0
     29229 MEMB     235      PMPE     H4R      HAL2     0.900000E-01   1.00800           0
     29230 MEMB     235      PMPE     H4S      HAL2     0.900000E-01   1.00800           0
     29231 MEMB     235      PMPE     C25      CTL2    -0.180000       12.0110           0
     29232 MEMB     235      PMPE     H5R      HAL2     0.900000E-01   1.00800           0
     29233 MEMB     235      PMPE     H5S      HAL2     0.900000E-01   1.00800           0
     29234 MEMB     235      PMPE     C26      CTL2    -0.180000       12.0110           0
     29235 MEMB     235      PMPE     H6R      HAL2     0.900000E-01   1.00800           0
     29236 MEMB     235      PMPE     H6S      HAL2     0.900000E-01   1.00800           0
     29237 MEMB     235      PMPE     C27      CTL2    -0.180000       12.0110           0
     29238 MEMB     235      PMPE     H7R      HAL2     0.900000E-01   1.00800           0
     29239 MEMB     235      PMPE     H7S      HAL2     0.900000E-01   1.00800           0
     29240 MEMB     235      PMPE     C28      CTL2    -0.180000       12.0110           0
     29241 MEMB     235      PMPE     H8R      HAL2     0.900000E-01   1.00800           0
     29242 MEMB     235      PMPE     H8S      HAL2     0.900000E-01   1.00800           0
     29243 MEMB     235      PMPE     C29      CG3RC1  -0.900000E-01   12.0110           0
     29244 MEMB     235      PMPE     H9R      HGA1     0.900000E-01   1.00800           0
     29245 MEMB     235      PMPE     C217     CG3C31  -0.180000       12.0110           0
     29246 MEMB     235      PMPE     H17R     HGA2     0.900000E-01   1.00800           0
     29247 MEMB     235      PMPE     H17S     HGA2     0.900000E-01   1.00800           0
     29248 MEMB     235      PMPE     C210     CG3RC1  -0.900000E-01   12.0110           0
     29249 MEMB     235      PMPE     H10R     HGA1     0.900000E-01   1.00800           0
     29250 MEMB     235      PMPE     C211     CTL2    -0.180000       12.0110           0
     29251 MEMB     235      PMPE     H11R     HAL2     0.900000E-01   1.00800           0
     29252 MEMB     235      PMPE     H11S     HAL2     0.900000E-01   1.00800           0
     29253 MEMB     235      PMPE     C212     CTL2    -0.180000       12.0110           0
     29254 MEMB     235      PMPE     H12R     HAL2     0.900000E-01   1.00800           0
     29255 MEMB     235      PMPE     H12S     HAL2     0.900000E-01   1.00800           0
     29256 MEMB     235      PMPE     C213     CTL2    -0.180000       12.0110           0
     29257 MEMB     235      PMPE     H13R     HAL2     0.900000E-01   1.00800           0
     29258 MEMB     235      PMPE     H13S     HAL2     0.900000E-01   1.00800           0
     29259 MEMB     235      PMPE     C214     CTL2    -0.180000       12.0110           0
     29260 MEMB     235      PMPE     H14R     HAL2     0.900000E-01   1.00800           0
     29261 MEMB     235      PMPE     H14S     HAL2     0.900000E-01   1.00800           0
     29262 MEMB     235      PMPE     C215     CTL2    -0.180000       12.0110           0
     29263 MEMB     235      PMPE     H15R     HAL2     0.900000E-01   1.00800           0
     29264 MEMB     235      PMPE     H15S     HAL2     0.900000E-01   1.00800           0
     29265 MEMB     235      PMPE     C216     CTL3    -0.270000       12.0110           0
     29266 MEMB     235      PMPE     H16R     HAL3     0.900000E-01   1.00800           0
     29267 MEMB     235      PMPE     H16S     HAL3     0.900000E-01   1.00800           0
     29268 MEMB     235      PMPE     H16T     HAL3     0.900000E-01   1.00800           0
     29269 MEMB     235      PMPE     C33      CTL2    -0.180000       12.0110           0
     29270 MEMB     235      PMPE     H3X      HAL2     0.900000E-01   1.00800           0
     29271 MEMB     235      PMPE     H3Y      HAL2     0.900000E-01   1.00800           0
     29272 MEMB     235      PMPE     C34      CTL2    -0.180000       12.0110           0
     29273 MEMB     235      PMPE     H4X      HAL2     0.900000E-01   1.00800           0
     29274 MEMB     235      PMPE     H4Y      HAL2     0.900000E-01   1.00800           0
     29275 MEMB     235      PMPE     C35      CTL2    -0.180000       12.0110           0
     29276 MEMB     235      PMPE     H5X      HAL2     0.900000E-01   1.00800           0
     29277 MEMB     235      PMPE     H5Y      HAL2     0.900000E-01   1.00800           0
     29278 MEMB     235      PMPE     C36      CTL2    -0.180000       12.0110           0
     29279 MEMB     235      PMPE     H6X      HAL2     0.900000E-01   1.00800           0
     29280 MEMB     235      PMPE     H6Y      HAL2     0.900000E-01   1.00800           0
     29281 MEMB     235      PMPE     C37      CTL2    -0.180000       12.0110           0
     29282 MEMB     235      PMPE     H7X      HAL2     0.900000E-01   1.00800           0
     29283 MEMB     235      PMPE     H7Y      HAL2     0.900000E-01   1.00800           0
     29284 MEMB     235      PMPE     C38      CTL2    -0.180000       12.0110           0
     29285 MEMB     235      PMPE     H8X      HAL2     0.900000E-01   1.00800           0
     29286 MEMB     235      PMPE     H8Y      HAL2     0.900000E-01   1.00800           0
     29287 MEMB     235      PMPE     C39      CTL2    -0.180000       12.0110           0
     29288 MEMB     235      PMPE     H9X      HAL2     0.900000E-01   1.00800           0
     29289 MEMB     235      PMPE     H9Y      HAL2     0.900000E-01   1.00800           0
     29290 MEMB     235      PMPE     C310     CTL2    -0.180000       12.0110           0
     29291 MEMB     235      PMPE     H10X     HAL2     0.900000E-01   1.00800           0
     29292 MEMB     235      PMPE     H10Y     HAL2     0.900000E-01   1.00800           0
     29293 MEMB     235      PMPE     C311     CTL2    -0.180000       12.0110           0
     29294 MEMB     235      PMPE     H11X     HAL2     0.900000E-01   1.00800           0
     29295 MEMB     235      PMPE     H11Y     HAL2     0.900000E-01   1.00800           0
     29296 MEMB     235      PMPE     C312     CTL2    -0.180000       12.0110           0
     29297 MEMB     235      PMPE     H12X     HAL2     0.900000E-01   1.00800           0
     29298 MEMB     235      PMPE     H12Y     HAL2     0.900000E-01   1.00800           0
     29299 MEMB     235      PMPE     C313     CTL2    -0.180000       12.0110           0
     29300 MEMB     235      PMPE     H13X     HAL2     0.900000E-01   1.00800           0
     29301 MEMB     235      PMPE     H13Y     HAL2     0.900000E-01   1.00800           0
     29302 MEMB     235      PMPE     C314     CTL2    -0.180000       12.0110           0
     29303 MEMB     235      PMPE     H14X     HAL2     0.900000E-01   1.00800           0
     29304 MEMB     235      PMPE     H14Y     HAL2     0.900000E-01   1.00800           0
     29305 MEMB     235      PMPE     C315     CTL2    -0.180000       12.0110           0
     29306 MEMB     235      PMPE     H15X     HAL2     0.900000E-01   1.00800           0
     29307 MEMB     235      PMPE     H15Y     HAL2     0.900000E-01   1.00800           0
     29308 MEMB     235      PMPE     C316     CTL3    -0.270000       12.0110           0
     29309 MEMB     235      PMPE     H16X     HAL3     0.900000E-01   1.00800           0
     29310 MEMB     235      PMPE     H16Y     HAL3     0.900000E-01   1.00800           0
     29311 MEMB     235      PMPE     H16Z     HAL3     0.900000E-01   1.00800           0
     29312 MEMB     236      PMPE     N        NH3L    -0.300000       14.0070           0
     29313 MEMB     236      PMPE     HN1      HCL      0.330000       1.00800           0
     29314 MEMB     236      PMPE     HN2      HCL      0.330000       1.00800           0
     29315 MEMB     236      PMPE     HN3      HCL      0.330000       1.00800           0
     29316 MEMB     236      PMPE     C12      CTL2     0.130000       12.0110           0
     29317 MEMB     236      PMPE     H12A     HAL2     0.900000E-01   1.00800           0
     29318 MEMB     236      PMPE     H12B     HAL2     0.900000E-01   1.00800           0
     29319 MEMB     236      PMPE     C11      CTL2    -0.800000E-01   12.0110           0
     29320 MEMB     236      PMPE     H11A     HAL2     0.900000E-01   1.00800           0
     29321 MEMB     236      PMPE     H11B     HAL2     0.900000E-01   1.00800           0
     29322 MEMB     236      PMPE     P        PL        1.50000       30.9740           0
     29323 MEMB     236      PMPE     O13      O2L     -0.780000       15.9994           0
     29324 MEMB     236      PMPE     O14      O2L     -0.780000       15.9994           0
     29325 MEMB     236      PMPE     O11      OSLP    -0.570000       15.9994           0
     29326 MEMB     236      PMPE     O12      OSLP    -0.570000       15.9994           0
     29327 MEMB     236      PMPE     C1       CTL2    -0.800000E-01   12.0110           0
     29328 MEMB     236      PMPE     HA       HAL2     0.900000E-01   1.00800           0
     29329 MEMB     236      PMPE     HB       HAL2     0.900000E-01   1.00800           0
     29330 MEMB     236      PMPE     C2       CTL1     0.170000       12.0110           0
     29331 MEMB     236      PMPE     HS       HAL1     0.900000E-01   1.00800           0
     29332 MEMB     236      PMPE     O21      OSL     -0.490000       15.9994           0
     29333 MEMB     236      PMPE     C21      CL       0.900000       12.0110           0
     29334 MEMB     236      PMPE     O22      OBL     -0.630000       15.9994           0
     29335 MEMB     236      PMPE     C22      CTL2    -0.220000       12.0110           0
     29336 MEMB     236      PMPE     H2R      HAL2     0.900000E-01   1.00800           0
     29337 MEMB     236      PMPE     H2S      HAL2     0.900000E-01   1.00800           0
     29338 MEMB     236      PMPE     C3       CTL2     0.800000E-01   12.0110           0
     29339 MEMB     236      PMPE     HX       HAL2     0.900000E-01   1.00800           0
     29340 MEMB     236      PMPE     HY       HAL2     0.900000E-01   1.00800           0
     29341 MEMB     236      PMPE     O31      OSL     -0.490000       15.9994           0
     29342 MEMB     236      PMPE     C31      CL       0.900000       12.0110           0
     29343 MEMB     236      PMPE     O32      OBL     -0.630000       15.9994           0
     29344 MEMB     236      PMPE     C32      CTL2    -0.220000       12.0110           0
     29345 MEMB     236      PMPE     H2X      HAL2     0.900000E-01   1.00800           0
     29346 MEMB     236      PMPE     H2Y      HAL2     0.900000E-01   1.00800           0
     29347 MEMB     236      PMPE     C23      CTL2    -0.180000       12.0110           0
     29348 MEMB     236      PMPE     H3R      HAL2     0.900000E-01   1.00800           0
     29349 MEMB     236      PMPE     H3S      HAL2     0.900000E-01   1.00800           0
     29350 MEMB     236      PMPE     C24      CTL2    -0.180000       12.0110           0
     29351 MEMB     236      PMPE     H4R      HAL2     0.900000E-01   1.00800           0
     29352 MEMB     236      PMPE     H4S      HAL2     0.900000E-01   1.00800           0
     29353 MEMB     236      PMPE     C25      CTL2    -0.180000       12.0110           0
     29354 MEMB     236      PMPE     H5R      HAL2     0.900000E-01   1.00800           0
     29355 MEMB     236      PMPE     H5S      HAL2     0.900000E-01   1.00800           0
     29356 MEMB     236      PMPE     C26      CTL2    -0.180000       12.0110           0
     29357 MEMB     236      PMPE     H6R      HAL2     0.900000E-01   1.00800           0
     29358 MEMB     236      PMPE     H6S      HAL2     0.900000E-01   1.00800           0
     29359 MEMB     236      PMPE     C27      CTL2    -0.180000       12.0110           0
     29360 MEMB     236      PMPE     H7R      HAL2     0.900000E-01   1.00800           0
     29361 MEMB     236      PMPE     H7S      HAL2     0.900000E-01   1.00800           0
     29362 MEMB     236      PMPE     C28      CTL2    -0.180000       12.0110           0
     29363 MEMB     236      PMPE     H8R      HAL2     0.900000E-01   1.00800           0
     29364 MEMB     236      PMPE     H8S      HAL2     0.900000E-01   1.00800           0
     29365 MEMB     236      PMPE     C29      CG3RC1  -0.900000E-01   12.0110           0
     29366 MEMB     236      PMPE     H9R      HGA1     0.900000E-01   1.00800           0
     29367 MEMB     236      PMPE     C217     CG3C31  -0.180000       12.0110           0
     29368 MEMB     236      PMPE     H17R     HGA2     0.900000E-01   1.00800           0
     29369 MEMB     236      PMPE     H17S     HGA2     0.900000E-01   1.00800           0
     29370 MEMB     236      PMPE     C210     CG3RC1  -0.900000E-01   12.0110           0
     29371 MEMB     236      PMPE     H10R     HGA1     0.900000E-01   1.00800           0
     29372 MEMB     236      PMPE     C211     CTL2    -0.180000       12.0110           0
     29373 MEMB     236      PMPE     H11R     HAL2     0.900000E-01   1.00800           0
     29374 MEMB     236      PMPE     H11S     HAL2     0.900000E-01   1.00800           0
     29375 MEMB     236      PMPE     C212     CTL2    -0.180000       12.0110           0
     29376 MEMB     236      PMPE     H12R     HAL2     0.900000E-01   1.00800           0
     29377 MEMB     236      PMPE     H12S     HAL2     0.900000E-01   1.00800           0
     29378 MEMB     236      PMPE     C213     CTL2    -0.180000       12.0110           0
     29379 MEMB     236      PMPE     H13R     HAL2     0.900000E-01   1.00800           0
     29380 MEMB     236      PMPE     H13S     HAL2     0.900000E-01   1.00800           0
     29381 MEMB     236      PMPE     C214     CTL2    -0.180000       12.0110           0
     29382 MEMB     236      PMPE     H14R     HAL2     0.900000E-01   1.00800           0
     29383 MEMB     236      PMPE     H14S     HAL2     0.900000E-01   1.00800           0
     29384 MEMB     236      PMPE     C215     CTL2    -0.180000       12.0110           0
     29385 MEMB     236      PMPE     H15R     HAL2     0.900000E-01   1.00800           0
     29386 MEMB     236      PMPE     H15S     HAL2     0.900000E-01   1.00800           0
     29387 MEMB     236      PMPE     C216     CTL3    -0.270000       12.0110           0
     29388 MEMB     236      PMPE     H16R     HAL3     0.900000E-01   1.00800           0
     29389 MEMB     236      PMPE     H16S     HAL3     0.900000E-01   1.00800           0
     29390 MEMB     236      PMPE     H16T     HAL3     0.900000E-01   1.00800           0
     29391 MEMB     236      PMPE     C33      CTL2    -0.180000       12.0110           0
     29392 MEMB     236      PMPE     H3X      HAL2     0.900000E-01   1.00800           0
     29393 MEMB     236      PMPE     H3Y      HAL2     0.900000E-01   1.00800           0
     29394 MEMB     236      PMPE     C34      CTL2    -0.180000       12.0110           0
     29395 MEMB     236      PMPE     H4X      HAL2     0.900000E-01   1.00800           0
     29396 MEMB     236      PMPE     H4Y      HAL2     0.900000E-01   1.00800           0
     29397 MEMB     236      PMPE     C35      CTL2    -0.180000       12.0110           0
     29398 MEMB     236      PMPE     H5X      HAL2     0.900000E-01   1.00800           0
     29399 MEMB     236      PMPE     H5Y      HAL2     0.900000E-01   1.00800           0
     29400 MEMB     236      PMPE     C36      CTL2    -0.180000       12.0110           0
     29401 MEMB     236      PMPE     H6X      HAL2     0.900000E-01   1.00800           0
     29402 MEMB     236      PMPE     H6Y      HAL2     0.900000E-01   1.00800           0
     29403 MEMB     236      PMPE     C37      CTL2    -0.180000       12.0110           0
     29404 MEMB     236      PMPE     H7X      HAL2     0.900000E-01   1.00800           0
     29405 MEMB     236      PMPE     H7Y      HAL2     0.900000E-01   1.00800           0
     29406 MEMB     236      PMPE     C38      CTL2    -0.180000       12.0110           0
     29407 MEMB     236      PMPE     H8X      HAL2     0.900000E-01   1.00800           0
     29408 MEMB     236      PMPE     H8Y      HAL2     0.900000E-01   1.00800           0
     29409 MEMB     236      PMPE     C39      CTL2    -0.180000       12.0110           0
     29410 MEMB     236      PMPE     H9X      HAL2     0.900000E-01   1.00800           0
     29411 MEMB     236      PMPE     H9Y      HAL2     0.900000E-01   1.00800           0
     29412 MEMB     236      PMPE     C310     CTL2    -0.180000       12.0110           0
     29413 MEMB     236      PMPE     H10X     HAL2     0.900000E-01   1.00800           0
     29414 MEMB     236      PMPE     H10Y     HAL2     0.900000E-01   1.00800           0
     29415 MEMB     236      PMPE     C311     CTL2    -0.180000       12.0110           0
     29416 MEMB     236      PMPE     H11X     HAL2     0.900000E-01   1.00800           0
     29417 MEMB     236      PMPE     H11Y     HAL2     0.900000E-01   1.00800           0
     29418 MEMB     236      PMPE     C312     CTL2    -0.180000       12.0110           0
     29419 MEMB     236      PMPE     H12X     HAL2     0.900000E-01   1.00800           0
     29420 MEMB     236      PMPE     H12Y     HAL2     0.900000E-01   1.00800           0
     29421 MEMB     236      PMPE     C313     CTL2    -0.180000       12.0110           0
     29422 MEMB     236      PMPE     H13X     HAL2     0.900000E-01   1.00800           0
     29423 MEMB     236      PMPE     H13Y     HAL2     0.900000E-01   1.00800           0
     29424 MEMB     236      PMPE     C314     CTL2    -0.180000       12.0110           0
     29425 MEMB     236      PMPE     H14X     HAL2     0.900000E-01   1.00800           0
     29426 MEMB     236      PMPE     H14Y     HAL2     0.900000E-01   1.00800           0
     29427 MEMB     236      PMPE     C315     CTL2    -0.180000       12.0110           0
     29428 MEMB     236      PMPE     H15X     HAL2     0.900000E-01   1.00800           0
     29429 MEMB     236      PMPE     H15Y     HAL2     0.900000E-01   1.00800           0
     29430 MEMB     236      PMPE     C316     CTL3    -0.270000       12.0110           0
     29431 MEMB     236      PMPE     H16X     HAL3     0.900000E-01   1.00800           0
     29432 MEMB     236      PMPE     H16Y     HAL3     0.900000E-01   1.00800           0
     29433 MEMB     236      PMPE     H16Z     HAL3     0.900000E-01   1.00800           0
     29434 MEMB     237      PMPE     N        NH3L    -0.300000       14.0070           0
     29435 MEMB     237      PMPE     HN1      HCL      0.330000       1.00800           0
     29436 MEMB     237      PMPE     HN2      HCL      0.330000       1.00800           0
     29437 MEMB     237      PMPE     HN3      HCL      0.330000       1.00800           0
     29438 MEMB     237      PMPE     C12      CTL2     0.130000       12.0110           0
     29439 MEMB     237      PMPE     H12A     HAL2     0.900000E-01   1.00800           0
     29440 MEMB     237      PMPE     H12B     HAL2     0.900000E-01   1.00800           0
     29441 MEMB     237      PMPE     C11      CTL2    -0.800000E-01   12.0110           0
     29442 MEMB     237      PMPE     H11A     HAL2     0.900000E-01   1.00800           0
     29443 MEMB     237      PMPE     H11B     HAL2     0.900000E-01   1.00800           0
     29444 MEMB     237      PMPE     P        PL        1.50000       30.9740           0
     29445 MEMB     237      PMPE     O13      O2L     -0.780000       15.9994           0
     29446 MEMB     237      PMPE     O14      O2L     -0.780000       15.9994           0
     29447 MEMB     237      PMPE     O11      OSLP    -0.570000       15.9994           0
     29448 MEMB     237      PMPE     O12      OSLP    -0.570000       15.9994           0
     29449 MEMB     237      PMPE     C1       CTL2    -0.800000E-01   12.0110           0
     29450 MEMB     237      PMPE     HA       HAL2     0.900000E-01   1.00800           0
     29451 MEMB     237      PMPE     HB       HAL2     0.900000E-01   1.00800           0
     29452 MEMB     237      PMPE     C2       CTL1     0.170000       12.0110           0
     29453 MEMB     237      PMPE     HS       HAL1     0.900000E-01   1.00800           0
     29454 MEMB     237      PMPE     O21      OSL     -0.490000       15.9994           0
     29455 MEMB     237      PMPE     C21      CL       0.900000       12.0110           0
     29456 MEMB     237      PMPE     O22      OBL     -0.630000       15.9994           0
     29457 MEMB     237      PMPE     C22      CTL2    -0.220000       12.0110           0
     29458 MEMB     237      PMPE     H2R      HAL2     0.900000E-01   1.00800           0
     29459 MEMB     237      PMPE     H2S      HAL2     0.900000E-01   1.00800           0
     29460 MEMB     237      PMPE     C3       CTL2     0.800000E-01   12.0110           0
     29461 MEMB     237      PMPE     HX       HAL2     0.900000E-01   1.00800           0
     29462 MEMB     237      PMPE     HY       HAL2     0.900000E-01   1.00800           0
     29463 MEMB     237      PMPE     O31      OSL     -0.490000       15.9994           0
     29464 MEMB     237      PMPE     C31      CL       0.900000       12.0110           0
     29465 MEMB     237      PMPE     O32      OBL     -0.630000       15.9994           0
     29466 MEMB     237      PMPE     C32      CTL2    -0.220000       12.0110           0
     29467 MEMB     237      PMPE     H2X      HAL2     0.900000E-01   1.00800           0
     29468 MEMB     237      PMPE     H2Y      HAL2     0.900000E-01   1.00800           0
     29469 MEMB     237      PMPE     C23      CTL2    -0.180000       12.0110           0
     29470 MEMB     237      PMPE     H3R      HAL2     0.900000E-01   1.00800           0
     29471 MEMB     237      PMPE     H3S      HAL2     0.900000E-01   1.00800           0
     29472 MEMB     237      PMPE     C24      CTL2    -0.180000       12.0110           0
     29473 MEMB     237      PMPE     H4R      HAL2     0.900000E-01   1.00800           0
     29474 MEMB     237      PMPE     H4S      HAL2     0.900000E-01   1.00800           0
     29475 MEMB     237      PMPE     C25      CTL2    -0.180000       12.0110           0
     29476 MEMB     237      PMPE     H5R      HAL2     0.900000E-01   1.00800           0
     29477 MEMB     237      PMPE     H5S      HAL2     0.900000E-01   1.00800           0
     29478 MEMB     237      PMPE     C26      CTL2    -0.180000       12.0110           0
     29479 MEMB     237      PMPE     H6R      HAL2     0.900000E-01   1.00800           0
     29480 MEMB     237      PMPE     H6S      HAL2     0.900000E-01   1.00800           0
     29481 MEMB     237      PMPE     C27      CTL2    -0.180000       12.0110           0
     29482 MEMB     237      PMPE     H7R      HAL2     0.900000E-01   1.00800           0
     29483 MEMB     237      PMPE     H7S      HAL2     0.900000E-01   1.00800           0
     29484 MEMB     237      PMPE     C28      CTL2    -0.180000       12.0110           0
     29485 MEMB     237      PMPE     H8R      HAL2     0.900000E-01   1.00800           0
     29486 MEMB     237      PMPE     H8S      HAL2     0.900000E-01   1.00800           0
     29487 MEMB     237      PMPE     C29      CG3RC1  -0.900000E-01   12.0110           0
     29488 MEMB     237      PMPE     H9R      HGA1     0.900000E-01   1.00800           0
     29489 MEMB     237      PMPE     C217     CG3C31  -0.180000       12.0110           0
     29490 MEMB     237      PMPE     H17R     HGA2     0.900000E-01   1.00800           0
     29491 MEMB     237      PMPE     H17S     HGA2     0.900000E-01   1.00800           0
     29492 MEMB     237      PMPE     C210     CG3RC1  -0.900000E-01   12.0110           0
     29493 MEMB     237      PMPE     H10R     HGA1     0.900000E-01   1.00800           0
     29494 MEMB     237      PMPE     C211     CTL2    -0.180000       12.0110           0
     29495 MEMB     237      PMPE     H11R     HAL2     0.900000E-01   1.00800           0
     29496 MEMB     237      PMPE     H11S     HAL2     0.900000E-01   1.00800           0
     29497 MEMB     237      PMPE     C212     CTL2    -0.180000       12.0110           0
     29498 MEMB     237      PMPE     H12R     HAL2     0.900000E-01   1.00800           0
     29499 MEMB     237      PMPE     H12S     HAL2     0.900000E-01   1.00800           0
     29500 MEMB     237      PMPE     C213     CTL2    -0.180000       12.0110           0
     29501 MEMB     237      PMPE     H13R     HAL2     0.900000E-01   1.00800           0
     29502 MEMB     237      PMPE     H13S     HAL2     0.900000E-01   1.00800           0
     29503 MEMB     237      PMPE     C214     CTL2    -0.180000       12.0110           0
     29504 MEMB     237      PMPE     H14R     HAL2     0.900000E-01   1.00800           0
     29505 MEMB     237      PMPE     H14S     HAL2     0.900000E-01   1.00800           0
     29506 MEMB     237      PMPE     C215     CTL2    -0.180000       12.0110           0
     29507 MEMB     237      PMPE     H15R     HAL2     0.900000E-01   1.00800           0
     29508 MEMB     237      PMPE     H15S     HAL2     0.900000E-01   1.00800           0
     29509 MEMB     237      PMPE     C216     CTL3    -0.270000       12.0110           0
     29510 MEMB     237      PMPE     H16R     HAL3     0.900000E-01   1.00800           0
     29511 MEMB     237      PMPE     H16S     HAL3     0.900000E-01   1.00800           0
     29512 MEMB     237      PMPE     H16T     HAL3     0.900000E-01   1.00800           0
     29513 MEMB     237      PMPE     C33      CTL2    -0.180000       12.0110           0
     29514 MEMB     237      PMPE     H3X      HAL2     0.900000E-01   1.00800           0
     29515 MEMB     237      PMPE     H3Y      HAL2     0.900000E-01   1.00800           0
     29516 MEMB     237      PMPE     C34      CTL2    -0.180000       12.0110           0
     29517 MEMB     237      PMPE     H4X      HAL2     0.900000E-01   1.00800           0
     29518 MEMB     237      PMPE     H4Y      HAL2     0.900000E-01   1.00800           0
     29519 MEMB     237      PMPE     C35      CTL2    -0.180000       12.0110           0
     29520 MEMB     237      PMPE     H5X      HAL2     0.900000E-01   1.00800           0
     29521 MEMB     237      PMPE     H5Y      HAL2     0.900000E-01   1.00800           0
     29522 MEMB     237      PMPE     C36      CTL2    -0.180000       12.0110           0
     29523 MEMB     237      PMPE     H6X      HAL2     0.900000E-01   1.00800           0
     29524 MEMB     237      PMPE     H6Y      HAL2     0.900000E-01   1.00800           0
     29525 MEMB     237      PMPE     C37      CTL2    -0.180000       12.0110           0
     29526 MEMB     237      PMPE     H7X      HAL2     0.900000E-01   1.00800           0
     29527 MEMB     237      PMPE     H7Y      HAL2     0.900000E-01   1.00800           0
     29528 MEMB     237      PMPE     C38      CTL2    -0.180000       12.0110           0
     29529 MEMB     237      PMPE     H8X      HAL2     0.900000E-01   1.00800           0
     29530 MEMB     237      PMPE     H8Y      HAL2     0.900000E-01   1.00800           0
     29531 MEMB     237      PMPE     C39      CTL2    -0.180000       12.0110           0
     29532 MEMB     237      PMPE     H9X      HAL2     0.900000E-01   1.00800           0
     29533 MEMB     237      PMPE     H9Y      HAL2     0.900000E-01   1.00800           0
     29534 MEMB     237      PMPE     C310     CTL2    -0.180000       12.0110           0
     29535 MEMB     237      PMPE     H10X     HAL2     0.900000E-01   1.00800           0
     29536 MEMB     237      PMPE     H10Y     HAL2     0.900000E-01   1.00800           0
     29537 MEMB     237      PMPE     C311     CTL2    -0.180000       12.0110           0
     29538 MEMB     237      PMPE     H11X     HAL2     0.900000E-01   1.00800           0
     29539 MEMB     237      PMPE     H11Y     HAL2     0.900000E-01   1.00800           0
     29540 MEMB     237      PMPE     C312     CTL2    -0.180000       12.0110           0
     29541 MEMB     237      PMPE     H12X     HAL2     0.900000E-01   1.00800           0
     29542 MEMB     237      PMPE     H12Y     HAL2     0.900000E-01   1.00800           0
     29543 MEMB     237      PMPE     C313     CTL2    -0.180000       12.0110           0
     29544 MEMB     237      PMPE     H13X     HAL2     0.900000E-01   1.00800           0
     29545 MEMB     237      PMPE     H13Y     HAL2     0.900000E-01   1.00800           0
     29546 MEMB     237      PMPE     C314     CTL2    -0.180000       12.0110           0
     29547 MEMB     237      PMPE     H14X     HAL2     0.900000E-01   1.00800           0
     29548 MEMB     237      PMPE     H14Y     HAL2     0.900000E-01   1.00800           0
     29549 MEMB     237      PMPE     C315     CTL2    -0.180000       12.0110           0
     29550 MEMB     237      PMPE     H15X     HAL2     0.900000E-01   1.00800           0
     29551 MEMB     237      PMPE     H15Y     HAL2     0.900000E-01   1.00800           0
     29552 MEMB     237      PMPE     C316     CTL3    -0.270000       12.0110           0
     29553 MEMB     237      PMPE     H16X     HAL3     0.900000E-01   1.00800           0
     29554 MEMB     237      PMPE     H16Y     HAL3     0.900000E-01   1.00800           0
     29555 MEMB     237      PMPE     H16Z     HAL3     0.900000E-01   1.00800           0
     29556 MEMB     238      PMPE     N        NH3L    -0.300000       14.0070           0
     29557 MEMB     238      PMPE     HN1      HCL      0.330000       1.00800           0
     29558 MEMB     238      PMPE     HN2      HCL      0.330000       1.00800           0
     29559 MEMB     238      PMPE     HN3      HCL      0.330000       1.00800           0
     29560 MEMB     238      PMPE     C12      CTL2     0.130000       12.0110           0
     29561 MEMB     238      PMPE     H12A     HAL2     0.900000E-01   1.00800           0
     29562 MEMB     238      PMPE     H12B     HAL2     0.900000E-01   1.00800           0
     29563 MEMB     238      PMPE     C11      CTL2    -0.800000E-01   12.0110           0
     29564 MEMB     238      PMPE     H11A     HAL2     0.900000E-01   1.00800           0
     29565 MEMB     238      PMPE     H11B     HAL2     0.900000E-01   1.00800           0
     29566 MEMB     238      PMPE     P        PL        1.50000       30.9740           0
     29567 MEMB     238      PMPE     O13      O2L     -0.780000       15.9994           0
     29568 MEMB     238      PMPE     O14      O2L     -0.780000       15.9994           0
     29569 MEMB     238      PMPE     O11      OSLP    -0.570000       15.9994           0
     29570 MEMB     238      PMPE     O12      OSLP    -0.570000       15.9994           0
     29571 MEMB     238      PMPE     C1       CTL2    -0.800000E-01   12.0110           0
     29572 MEMB     238      PMPE     HA       HAL2     0.900000E-01   1.00800           0
     29573 MEMB     238      PMPE     HB       HAL2     0.900000E-01   1.00800           0
     29574 MEMB     238      PMPE     C2       CTL1     0.170000       12.0110           0
     29575 MEMB     238      PMPE     HS       HAL1     0.900000E-01   1.00800           0
     29576 MEMB     238      PMPE     O21      OSL     -0.490000       15.9994           0
     29577 MEMB     238      PMPE     C21      CL       0.900000       12.0110           0
     29578 MEMB     238      PMPE     O22      OBL     -0.630000       15.9994           0
     29579 MEMB     238      PMPE     C22      CTL2    -0.220000       12.0110           0
     29580 MEMB     238      PMPE     H2R      HAL2     0.900000E-01   1.00800           0
     29581 MEMB     238      PMPE     H2S      HAL2     0.900000E-01   1.00800           0
     29582 MEMB     238      PMPE     C3       CTL2     0.800000E-01   12.0110           0
     29583 MEMB     238      PMPE     HX       HAL2     0.900000E-01   1.00800           0
     29584 MEMB     238      PMPE     HY       HAL2     0.900000E-01   1.00800           0
     29585 MEMB     238      PMPE     O31      OSL     -0.490000       15.9994           0
     29586 MEMB     238      PMPE     C31      CL       0.900000       12.0110           0
     29587 MEMB     238      PMPE     O32      OBL     -0.630000       15.9994           0
     29588 MEMB     238      PMPE     C32      CTL2    -0.220000       12.0110           0
     29589 MEMB     238      PMPE     H2X      HAL2     0.900000E-01   1.00800           0
     29590 MEMB     238      PMPE     H2Y      HAL2     0.900000E-01   1.00800           0
     29591 MEMB     238      PMPE     C23      CTL2    -0.180000       12.0110           0
     29592 MEMB     238      PMPE     H3R      HAL2     0.900000E-01   1.00800           0
     29593 MEMB     238      PMPE     H3S      HAL2     0.900000E-01   1.00800           0
     29594 MEMB     238      PMPE     C24      CTL2    -0.180000       12.0110           0
     29595 MEMB     238      PMPE     H4R      HAL2     0.900000E-01   1.00800           0
     29596 MEMB     238      PMPE     H4S      HAL2     0.900000E-01   1.00800           0
     29597 MEMB     238      PMPE     C25      CTL2    -0.180000       12.0110           0
     29598 MEMB     238      PMPE     H5R      HAL2     0.900000E-01   1.00800           0
     29599 MEMB     238      PMPE     H5S      HAL2     0.900000E-01   1.00800           0
     29600 MEMB     238      PMPE     C26      CTL2    -0.180000       12.0110           0
     29601 MEMB     238      PMPE     H6R      HAL2     0.900000E-01   1.00800           0
     29602 MEMB     238      PMPE     H6S      HAL2     0.900000E-01   1.00800           0
     29603 MEMB     238      PMPE     C27      CTL2    -0.180000       12.0110           0
     29604 MEMB     238      PMPE     H7R      HAL2     0.900000E-01   1.00800           0
     29605 MEMB     238      PMPE     H7S      HAL2     0.900000E-01   1.00800           0
     29606 MEMB     238      PMPE     C28      CTL2    -0.180000       12.0110           0
     29607 MEMB     238      PMPE     H8R      HAL2     0.900000E-01   1.00800           0
     29608 MEMB     238      PMPE     H8S      HAL2     0.900000E-01   1.00800           0
     29609 MEMB     238      PMPE     C29      CG3RC1  -0.900000E-01   12.0110           0
     29610 MEMB     238      PMPE     H9R      HGA1     0.900000E-01   1.00800           0
     29611 MEMB     238      PMPE     C217     CG3C31  -0.180000       12.0110           0
     29612 MEMB     238      PMPE     H17R     HGA2     0.900000E-01   1.00800           0
     29613 MEMB     238      PMPE     H17S     HGA2     0.900000E-01   1.00800           0
     29614 MEMB     238      PMPE     C210     CG3RC1  -0.900000E-01   12.0110           0
     29615 MEMB     238      PMPE     H10R     HGA1     0.900000E-01   1.00800           0
     29616 MEMB     238      PMPE     C211     CTL2    -0.180000       12.0110           0
     29617 MEMB     238      PMPE     H11R     HAL2     0.900000E-01   1.00800           0
     29618 MEMB     238      PMPE     H11S     HAL2     0.900000E-01   1.00800           0
     29619 MEMB     238      PMPE     C212     CTL2    -0.180000       12.0110           0
     29620 MEMB     238      PMPE     H12R     HAL2     0.900000E-01   1.00800           0
     29621 MEMB     238      PMPE     H12S     HAL2     0.900000E-01   1.00800           0
     29622 MEMB     238      PMPE     C213     CTL2    -0.180000       12.0110           0
     29623 MEMB     238      PMPE     H13R     HAL2     0.900000E-01   1.00800           0
     29624 MEMB     238      PMPE     H13S     HAL2     0.900000E-01   1.00800           0
     29625 MEMB     238      PMPE     C214     CTL2    -0.180000       12.0110           0
     29626 MEMB     238      PMPE     H14R     HAL2     0.900000E-01   1.00800           0
     29627 MEMB     238      PMPE     H14S     HAL2     0.900000E-01   1.00800           0
     29628 MEMB     238      PMPE     C215     CTL2    -0.180000       12.0110           0
     29629 MEMB     238      PMPE     H15R     HAL2     0.900000E-01   1.00800           0
     29630 MEMB     238      PMPE     H15S     HAL2     0.900000E-01   1.00800           0
     29631 MEMB     238      PMPE     C216     CTL3    -0.270000       12.0110           0
     29632 MEMB     238      PMPE     H16R     HAL3     0.900000E-01   1.00800           0
     29633 MEMB     238      PMPE     H16S     HAL3     0.900000E-01   1.00800           0
     29634 MEMB     238      PMPE     H16T     HAL3     0.900000E-01   1.00800           0
     29635 MEMB     238      PMPE     C33      CTL2    -0.180000       12.0110           0
     29636 MEMB     238      PMPE     H3X      HAL2     0.900000E-01   1.00800           0
     29637 MEMB     238      PMPE     H3Y      HAL2     0.900000E-01   1.00800           0
     29638 MEMB     238      PMPE     C34      CTL2    -0.180000       12.0110           0
     29639 MEMB     238      PMPE     H4X      HAL2     0.900000E-01   1.00800           0
     29640 MEMB     238      PMPE     H4Y      HAL2     0.900000E-01   1.00800           0
     29641 MEMB     238      PMPE     C35      CTL2    -0.180000       12.0110           0
     29642 MEMB     238      PMPE     H5X      HAL2     0.900000E-01   1.00800           0
     29643 MEMB     238      PMPE     H5Y      HAL2     0.900000E-01   1.00800           0
     29644 MEMB     238      PMPE     C36      CTL2    -0.180000       12.0110           0
     29645 MEMB     238      PMPE     H6X      HAL2     0.900000E-01   1.00800           0
     29646 MEMB     238      PMPE     H6Y      HAL2     0.900000E-01   1.00800           0
     29647 MEMB     238      PMPE     C37      CTL2    -0.180000       12.0110           0
     29648 MEMB     238      PMPE     H7X      HAL2     0.900000E-01   1.00800           0
     29649 MEMB     238      PMPE     H7Y      HAL2     0.900000E-01   1.00800           0
     29650 MEMB     238      PMPE     C38      CTL2    -0.180000       12.0110           0
     29651 MEMB     238      PMPE     H8X      HAL2     0.900000E-01   1.00800           0
     29652 MEMB     238      PMPE     H8Y      HAL2     0.900000E-01   1.00800           0
     29653 MEMB     238      PMPE     C39      CTL2    -0.180000       12.0110           0
     29654 MEMB     238      PMPE     H9X      HAL2     0.900000E-01   1.00800           0
     29655 MEMB     238      PMPE     H9Y      HAL2     0.900000E-01   1.00800           0
     29656 MEMB     238      PMPE     C310     CTL2    -0.180000       12.0110           0
     29657 MEMB     238      PMPE     H10X     HAL2     0.900000E-01   1.00800           0
     29658 MEMB     238      PMPE     H10Y     HAL2     0.900000E-01   1.00800           0
     29659 MEMB     238      PMPE     C311     CTL2    -0.180000       12.0110           0
     29660 MEMB     238      PMPE     H11X     HAL2     0.900000E-01   1.00800           0
     29661 MEMB     238      PMPE     H11Y     HAL2     0.900000E-01   1.00800           0
     29662 MEMB     238      PMPE     C312     CTL2    -0.180000       12.0110           0
     29663 MEMB     238      PMPE     H12X     HAL2     0.900000E-01   1.00800           0
     29664 MEMB     238      PMPE     H12Y     HAL2     0.900000E-01   1.00800           0
     29665 MEMB     238      PMPE     C313     CTL2    -0.180000       12.0110           0
     29666 MEMB     238      PMPE     H13X     HAL2     0.900000E-01   1.00800           0
     29667 MEMB     238      PMPE     H13Y     HAL2     0.900000E-01   1.00800           0
     29668 MEMB     238      PMPE     C314     CTL2    -0.180000       12.0110           0
     29669 MEMB     238      PMPE     H14X     HAL2     0.900000E-01   1.00800           0
     29670 MEMB     238      PMPE     H14Y     HAL2     0.900000E-01   1.00800           0
     29671 MEMB     238      PMPE     C315     CTL2    -0.180000       12.0110           0
     29672 MEMB     238      PMPE     H15X     HAL2     0.900000E-01   1.00800           0
     29673 MEMB     238      PMPE     H15Y     HAL2     0.900000E-01   1.00800           0
     29674 MEMB     238      PMPE     C316     CTL3    -0.270000       12.0110           0
     29675 MEMB     238      PMPE     H16X     HAL3     0.900000E-01   1.00800           0
     29676 MEMB     238      PMPE     H16Y     HAL3     0.900000E-01   1.00800           0
     29677 MEMB     238      PMPE     H16Z     HAL3     0.900000E-01   1.00800           0
     29678 MEMB     239      PMPG     C13      CTL2     0.500000E-01   12.0110           0
     29679 MEMB     239      PMPG     H13A     HAL2     0.900000E-01   1.00800           0
     29680 MEMB     239      PMPG     H13B     HAL2     0.900000E-01   1.00800           0
     29681 MEMB     239      PMPG     OC3      OHL     -0.660000       15.9994           0
     29682 MEMB     239      PMPG     HO3      HOL      0.430000       1.00800           0
     29683 MEMB     239      PMPG     C12      CTL1     0.140000       12.0110           0
     29684 MEMB     239      PMPG     H12A     HAL1     0.900000E-01   1.00800           0
     29685 MEMB     239      PMPG     OC2      OHL     -0.660000       15.9994           0
     29686 MEMB     239      PMPG     HO2      HOL      0.430000       1.00800           0
     29687 MEMB     239      PMPG     C11      CTL2    -0.800000E-01   12.0110           0
     29688 MEMB     239      PMPG     H11A     HAL2     0.900000E-01   1.00800           0
     29689 MEMB     239      PMPG     H11B     HAL2     0.900000E-01   1.00800           0
     29690 MEMB     239      PMPG     P        PL        1.50000       30.9740           0
     29691 MEMB     239      PMPG     O13      O2L     -0.780000       15.9994           0
     29692 MEMB     239      PMPG     O14      O2L     -0.780000       15.9994           0
     29693 MEMB     239      PMPG     O11      OSLP    -0.570000       15.9994           0
     29694 MEMB     239      PMPG     O12      OSLP    -0.570000       15.9994           0
     29695 MEMB     239      PMPG     C1       CTL2    -0.800000E-01   12.0110           0
     29696 MEMB     239      PMPG     HA       HAL2     0.900000E-01   1.00800           0
     29697 MEMB     239      PMPG     HB       HAL2     0.900000E-01   1.00800           0
     29698 MEMB     239      PMPG     C2       CTL1     0.170000       12.0110           0
     29699 MEMB     239      PMPG     HS       HAL1     0.900000E-01   1.00800           0
     29700 MEMB     239      PMPG     O21      OSL     -0.490000       15.9994           0
     29701 MEMB     239      PMPG     C21      CL       0.900000       12.0110           0
     29702 MEMB     239      PMPG     O22      OBL     -0.630000       15.9994           0
     29703 MEMB     239      PMPG     C22      CTL2    -0.220000       12.0110           0
     29704 MEMB     239      PMPG     H2R      HAL2     0.900000E-01   1.00800           0
     29705 MEMB     239      PMPG     H2S      HAL2     0.900000E-01   1.00800           0
     29706 MEMB     239      PMPG     C3       CTL2     0.800000E-01   12.0110           0
     29707 MEMB     239      PMPG     HX       HAL2     0.900000E-01   1.00800           0
     29708 MEMB     239      PMPG     HY       HAL2     0.900000E-01   1.00800           0
     29709 MEMB     239      PMPG     O31      OSL     -0.490000       15.9994           0
     29710 MEMB     239      PMPG     C31      CL       0.900000       12.0110           0
     29711 MEMB     239      PMPG     O32      OBL     -0.630000       15.9994           0
     29712 MEMB     239      PMPG     C32      CTL2    -0.220000       12.0110           0
     29713 MEMB     239      PMPG     H2X      HAL2     0.900000E-01   1.00800           0
     29714 MEMB     239      PMPG     H2Y      HAL2     0.900000E-01   1.00800           0
     29715 MEMB     239      PMPG     C23      CTL2    -0.180000       12.0110           0
     29716 MEMB     239      PMPG     H3R      HAL2     0.900000E-01   1.00800           0
     29717 MEMB     239      PMPG     H3S      HAL2     0.900000E-01   1.00800           0
     29718 MEMB     239      PMPG     C24      CTL2    -0.180000       12.0110           0
     29719 MEMB     239      PMPG     H4R      HAL2     0.900000E-01   1.00800           0
     29720 MEMB     239      PMPG     H4S      HAL2     0.900000E-01   1.00800           0
     29721 MEMB     239      PMPG     C25      CTL2    -0.180000       12.0110           0
     29722 MEMB     239      PMPG     H5R      HAL2     0.900000E-01   1.00800           0
     29723 MEMB     239      PMPG     H5S      HAL2     0.900000E-01   1.00800           0
     29724 MEMB     239      PMPG     C26      CTL2    -0.180000       12.0110           0
     29725 MEMB     239      PMPG     H6R      HAL2     0.900000E-01   1.00800           0
     29726 MEMB     239      PMPG     H6S      HAL2     0.900000E-01   1.00800           0
     29727 MEMB     239      PMPG     C27      CTL2    -0.180000       12.0110           0
     29728 MEMB     239      PMPG     H7R      HAL2     0.900000E-01   1.00800           0
     29729 MEMB     239      PMPG     H7S      HAL2     0.900000E-01   1.00800           0
     29730 MEMB     239      PMPG     C28      CTL2    -0.180000       12.0110           0
     29731 MEMB     239      PMPG     H8R      HAL2     0.900000E-01   1.00800           0
     29732 MEMB     239      PMPG     H8S      HAL2     0.900000E-01   1.00800           0
     29733 MEMB     239      PMPG     C29      CG3RC1  -0.900000E-01   12.0110           0
     29734 MEMB     239      PMPG     H9R      HGA1     0.900000E-01   1.00800           0
     29735 MEMB     239      PMPG     C217     CG3C31  -0.180000       12.0110           0
     29736 MEMB     239      PMPG     H17R     HGA2     0.900000E-01   1.00800           0
     29737 MEMB     239      PMPG     H17S     HGA2     0.900000E-01   1.00800           0
     29738 MEMB     239      PMPG     C210     CG3RC1  -0.900000E-01   12.0110           0
     29739 MEMB     239      PMPG     H10R     HGA1     0.900000E-01   1.00800           0
     29740 MEMB     239      PMPG     C211     CTL2    -0.180000       12.0110           0
     29741 MEMB     239      PMPG     H11R     HAL2     0.900000E-01   1.00800           0
     29742 MEMB     239      PMPG     H11S     HAL2     0.900000E-01   1.00800           0
     29743 MEMB     239      PMPG     C212     CTL2    -0.180000       12.0110           0
     29744 MEMB     239      PMPG     H12R     HAL2     0.900000E-01   1.00800           0
     29745 MEMB     239      PMPG     H12S     HAL2     0.900000E-01   1.00800           0
     29746 MEMB     239      PMPG     C213     CTL2    -0.180000       12.0110           0
     29747 MEMB     239      PMPG     H13R     HAL2     0.900000E-01   1.00800           0
     29748 MEMB     239      PMPG     H13S     HAL2     0.900000E-01   1.00800           0
     29749 MEMB     239      PMPG     C214     CTL2    -0.180000       12.0110           0
     29750 MEMB     239      PMPG     H14R     HAL2     0.900000E-01   1.00800           0
     29751 MEMB     239      PMPG     H14S     HAL2     0.900000E-01   1.00800           0
     29752 MEMB     239      PMPG     C215     CTL2    -0.180000       12.0110           0
     29753 MEMB     239      PMPG     H15R     HAL2     0.900000E-01   1.00800           0
     29754 MEMB     239      PMPG     H15S     HAL2     0.900000E-01   1.00800           0
     29755 MEMB     239      PMPG     C216     CTL3    -0.270000       12.0110           0
     29756 MEMB     239      PMPG     H16R     HAL3     0.900000E-01   1.00800           0
     29757 MEMB     239      PMPG     H16S     HAL3     0.900000E-01   1.00800           0
     29758 MEMB     239      PMPG     H16T     HAL3     0.900000E-01   1.00800           0
     29759 MEMB     239      PMPG     C33      CTL2    -0.180000       12.0110           0
     29760 MEMB     239      PMPG     H3X      HAL2     0.900000E-01   1.00800           0
     29761 MEMB     239      PMPG     H3Y      HAL2     0.900000E-01   1.00800           0
     29762 MEMB     239      PMPG     C34      CTL2    -0.180000       12.0110           0
     29763 MEMB     239      PMPG     H4X      HAL2     0.900000E-01   1.00800           0
     29764 MEMB     239      PMPG     H4Y      HAL2     0.900000E-01   1.00800           0
     29765 MEMB     239      PMPG     C35      CTL2    -0.180000       12.0110           0
     29766 MEMB     239      PMPG     H5X      HAL2     0.900000E-01   1.00800           0
     29767 MEMB     239      PMPG     H5Y      HAL2     0.900000E-01   1.00800           0
     29768 MEMB     239      PMPG     C36      CTL2    -0.180000       12.0110           0
     29769 MEMB     239      PMPG     H6X      HAL2     0.900000E-01   1.00800           0
     29770 MEMB     239      PMPG     H6Y      HAL2     0.900000E-01   1.00800           0
     29771 MEMB     239      PMPG     C37      CTL2    -0.180000       12.0110           0
     29772 MEMB     239      PMPG     H7X      HAL2     0.900000E-01   1.00800           0
     29773 MEMB     239      PMPG     H7Y      HAL2     0.900000E-01   1.00800           0
     29774 MEMB     239      PMPG     C38      CTL2    -0.180000       12.0110           0
     29775 MEMB     239      PMPG     H8X      HAL2     0.900000E-01   1.00800           0
     29776 MEMB     239      PMPG     H8Y      HAL2     0.900000E-01   1.00800           0
     29777 MEMB     239      PMPG     C39      CTL2    -0.180000       12.0110           0
     29778 MEMB     239      PMPG     H9X      HAL2     0.900000E-01   1.00800           0
     29779 MEMB     239      PMPG     H9Y      HAL2     0.900000E-01   1.00800           0
     29780 MEMB     239      PMPG     C310     CTL2    -0.180000       12.0110           0
     29781 MEMB     239      PMPG     H10X     HAL2     0.900000E-01   1.00800           0
     29782 MEMB     239      PMPG     H10Y     HAL2     0.900000E-01   1.00800           0
     29783 MEMB     239      PMPG     C311     CTL2    -0.180000       12.0110           0
     29784 MEMB     239      PMPG     H11X     HAL2     0.900000E-01   1.00800           0
     29785 MEMB     239      PMPG     H11Y     HAL2     0.900000E-01   1.00800           0
     29786 MEMB     239      PMPG     C312     CTL2    -0.180000       12.0110           0
     29787 MEMB     239      PMPG     H12X     HAL2     0.900000E-01   1.00800           0
     29788 MEMB     239      PMPG     H12Y     HAL2     0.900000E-01   1.00800           0
     29789 MEMB     239      PMPG     C313     CTL2    -0.180000       12.0110           0
     29790 MEMB     239      PMPG     H13X     HAL2     0.900000E-01   1.00800           0
     29791 MEMB     239      PMPG     H13Y     HAL2     0.900000E-01   1.00800           0
     29792 MEMB     239      PMPG     C314     CTL2    -0.180000       12.0110           0
     29793 MEMB     239      PMPG     H14X     HAL2     0.900000E-01   1.00800           0
     29794 MEMB     239      PMPG     H14Y     HAL2     0.900000E-01   1.00800           0
     29795 MEMB     239      PMPG     C315     CTL2    -0.180000       12.0110           0
     29796 MEMB     239      PMPG     H15X     HAL2     0.900000E-01   1.00800           0
     29797 MEMB     239      PMPG     H15Y     HAL2     0.900000E-01   1.00800           0
     29798 MEMB     239      PMPG     C316     CTL3    -0.270000       12.0110           0
     29799 MEMB     239      PMPG     H16X     HAL3     0.900000E-01   1.00800           0
     29800 MEMB     239      PMPG     H16Y     HAL3     0.900000E-01   1.00800           0
     29801 MEMB     239      PMPG     H16Z     HAL3     0.900000E-01   1.00800           0
     29802 MEMB     240      PMPE     N        NH3L    -0.300000       14.0070           0
     29803 MEMB     240      PMPE     HN1      HCL      0.330000       1.00800           0
     29804 MEMB     240      PMPE     HN2      HCL      0.330000       1.00800           0
     29805 MEMB     240      PMPE     HN3      HCL      0.330000       1.00800           0
     29806 MEMB     240      PMPE     C12      CTL2     0.130000       12.0110           0
     29807 MEMB     240      PMPE     H12A     HAL2     0.900000E-01   1.00800           0
     29808 MEMB     240      PMPE     H12B     HAL2     0.900000E-01   1.00800           0
     29809 MEMB     240      PMPE     C11      CTL2    -0.800000E-01   12.0110           0
     29810 MEMB     240      PMPE     H11A     HAL2     0.900000E-01   1.00800           0
     29811 MEMB     240      PMPE     H11B     HAL2     0.900000E-01   1.00800           0
     29812 MEMB     240      PMPE     P        PL        1.50000       30.9740           0
     29813 MEMB     240      PMPE     O13      O2L     -0.780000       15.9994           0
     29814 MEMB     240      PMPE     O14      O2L     -0.780000       15.9994           0
     29815 MEMB     240      PMPE     O11      OSLP    -0.570000       15.9994           0
     29816 MEMB     240      PMPE     O12      OSLP    -0.570000       15.9994           0
     29817 MEMB     240      PMPE     C1       CTL2    -0.800000E-01   12.0110           0
     29818 MEMB     240      PMPE     HA       HAL2     0.900000E-01   1.00800           0
     29819 MEMB     240      PMPE     HB       HAL2     0.900000E-01   1.00800           0
     29820 MEMB     240      PMPE     C2       CTL1     0.170000       12.0110           0
     29821 MEMB     240      PMPE     HS       HAL1     0.900000E-01   1.00800           0
     29822 MEMB     240      PMPE     O21      OSL     -0.490000       15.9994           0
     29823 MEMB     240      PMPE     C21      CL       0.900000       12.0110           0
     29824 MEMB     240      PMPE     O22      OBL     -0.630000       15.9994           0
     29825 MEMB     240      PMPE     C22      CTL2    -0.220000       12.0110           0
     29826 MEMB     240      PMPE     H2R      HAL2     0.900000E-01   1.00800           0
     29827 MEMB     240      PMPE     H2S      HAL2     0.900000E-01   1.00800           0
     29828 MEMB     240      PMPE     C3       CTL2     0.800000E-01   12.0110           0
     29829 MEMB     240      PMPE     HX       HAL2     0.900000E-01   1.00800           0
     29830 MEMB     240      PMPE     HY       HAL2     0.900000E-01   1.00800           0
     29831 MEMB     240      PMPE     O31      OSL     -0.490000       15.9994           0
     29832 MEMB     240      PMPE     C31      CL       0.900000       12.0110           0
     29833 MEMB     240      PMPE     O32      OBL     -0.630000       15.9994           0
     29834 MEMB     240      PMPE     C32      CTL2    -0.220000       12.0110           0
     29835 MEMB     240      PMPE     H2X      HAL2     0.900000E-01   1.00800           0
     29836 MEMB     240      PMPE     H2Y      HAL2     0.900000E-01   1.00800           0
     29837 MEMB     240      PMPE     C23      CTL2    -0.180000       12.0110           0
     29838 MEMB     240      PMPE     H3R      HAL2     0.900000E-01   1.00800           0
     29839 MEMB     240      PMPE     H3S      HAL2     0.900000E-01   1.00800           0
     29840 MEMB     240      PMPE     C24      CTL2    -0.180000       12.0110           0
     29841 MEMB     240      PMPE     H4R      HAL2     0.900000E-01   1.00800           0
     29842 MEMB     240      PMPE     H4S      HAL2     0.900000E-01   1.00800           0
     29843 MEMB     240      PMPE     C25      CTL2    -0.180000       12.0110           0
     29844 MEMB     240      PMPE     H5R      HAL2     0.900000E-01   1.00800           0
     29845 MEMB     240      PMPE     H5S      HAL2     0.900000E-01   1.00800           0
     29846 MEMB     240      PMPE     C26      CTL2    -0.180000       12.0110           0
     29847 MEMB     240      PMPE     H6R      HAL2     0.900000E-01   1.00800           0
     29848 MEMB     240      PMPE     H6S      HAL2     0.900000E-01   1.00800           0
     29849 MEMB     240      PMPE     C27      CTL2    -0.180000       12.0110           0
     29850 MEMB     240      PMPE     H7R      HAL2     0.900000E-01   1.00800           0
     29851 MEMB     240      PMPE     H7S      HAL2     0.900000E-01   1.00800           0
     29852 MEMB     240      PMPE     C28      CTL2    -0.180000       12.0110           0
     29853 MEMB     240      PMPE     H8R      HAL2     0.900000E-01   1.00800           0
     29854 MEMB     240      PMPE     H8S      HAL2     0.900000E-01   1.00800           0
     29855 MEMB     240      PMPE     C29      CG3RC1  -0.900000E-01   12.0110           0
     29856 MEMB     240      PMPE     H9R      HGA1     0.900000E-01   1.00800           0
     29857 MEMB     240      PMPE     C217     CG3C31  -0.180000       12.0110           0
     29858 MEMB     240      PMPE     H17R     HGA2     0.900000E-01   1.00800           0
     29859 MEMB     240      PMPE     H17S     HGA2     0.900000E-01   1.00800           0
     29860 MEMB     240      PMPE     C210     CG3RC1  -0.900000E-01   12.0110           0
     29861 MEMB     240      PMPE     H10R     HGA1     0.900000E-01   1.00800           0
     29862 MEMB     240      PMPE     C211     CTL2    -0.180000       12.0110           0
     29863 MEMB     240      PMPE     H11R     HAL2     0.900000E-01   1.00800           0
     29864 MEMB     240      PMPE     H11S     HAL2     0.900000E-01   1.00800           0
     29865 MEMB     240      PMPE     C212     CTL2    -0.180000       12.0110           0
     29866 MEMB     240      PMPE     H12R     HAL2     0.900000E-01   1.00800           0
     29867 MEMB     240      PMPE     H12S     HAL2     0.900000E-01   1.00800           0
     29868 MEMB     240      PMPE     C213     CTL2    -0.180000       12.0110           0
     29869 MEMB     240      PMPE     H13R     HAL2     0.900000E-01   1.00800           0
     29870 MEMB     240      PMPE     H13S     HAL2     0.900000E-01   1.00800           0
     29871 MEMB     240      PMPE     C214     CTL2    -0.180000       12.0110           0
     29872 MEMB     240      PMPE     H14R     HAL2     0.900000E-01   1.00800           0
     29873 MEMB     240      PMPE     H14S     HAL2     0.900000E-01   1.00800           0
     29874 MEMB     240      PMPE     C215     CTL2    -0.180000       12.0110           0
     29875 MEMB     240      PMPE     H15R     HAL2     0.900000E-01   1.00800           0
     29876 MEMB     240      PMPE     H15S     HAL2     0.900000E-01   1.00800           0
     29877 MEMB     240      PMPE     C216     CTL3    -0.270000       12.0110           0
     29878 MEMB     240      PMPE     H16R     HAL3     0.900000E-01   1.00800           0
     29879 MEMB     240      PMPE     H16S     HAL3     0.900000E-01   1.00800           0
     29880 MEMB     240      PMPE     H16T     HAL3     0.900000E-01   1.00800           0
     29881 MEMB     240      PMPE     C33      CTL2    -0.180000       12.0110           0
     29882 MEMB     240      PMPE     H3X      HAL2     0.900000E-01   1.00800           0
     29883 MEMB     240      PMPE     H3Y      HAL2     0.900000E-01   1.00800           0
     29884 MEMB     240      PMPE     C34      CTL2    -0.180000       12.0110           0
     29885 MEMB     240      PMPE     H4X      HAL2     0.900000E-01   1.00800           0
     29886 MEMB     240      PMPE     H4Y      HAL2     0.900000E-01   1.00800           0
     29887 MEMB     240      PMPE     C35      CTL2    -0.180000       12.0110           0
     29888 MEMB     240      PMPE     H5X      HAL2     0.900000E-01   1.00800           0
     29889 MEMB     240      PMPE     H5Y      HAL2     0.900000E-01   1.00800           0
     29890 MEMB     240      PMPE     C36      CTL2    -0.180000       12.0110           0
     29891 MEMB     240      PMPE     H6X      HAL2     0.900000E-01   1.00800           0
     29892 MEMB     240      PMPE     H6Y      HAL2     0.900000E-01   1.00800           0
     29893 MEMB     240      PMPE     C37      CTL2    -0.180000       12.0110           0
     29894 MEMB     240      PMPE     H7X      HAL2     0.900000E-01   1.00800           0
     29895 MEMB     240      PMPE     H7Y      HAL2     0.900000E-01   1.00800           0
     29896 MEMB     240      PMPE     C38      CTL2    -0.180000       12.0110           0
     29897 MEMB     240      PMPE     H8X      HAL2     0.900000E-01   1.00800           0
     29898 MEMB     240      PMPE     H8Y      HAL2     0.900000E-01   1.00800           0
     29899 MEMB     240      PMPE     C39      CTL2    -0.180000       12.0110           0
     29900 MEMB     240      PMPE     H9X      HAL2     0.900000E-01   1.00800           0
     29901 MEMB     240      PMPE     H9Y      HAL2     0.900000E-01   1.00800           0
     29902 MEMB     240      PMPE     C310     CTL2    -0.180000       12.0110           0
     29903 MEMB     240      PMPE     H10X     HAL2     0.900000E-01   1.00800           0
     29904 MEMB     240      PMPE     H10Y     HAL2     0.900000E-01   1.00800           0
     29905 MEMB     240      PMPE     C311     CTL2    -0.180000       12.0110           0
     29906 MEMB     240      PMPE     H11X     HAL2     0.900000E-01   1.00800           0
     29907 MEMB     240      PMPE     H11Y     HAL2     0.900000E-01   1.00800           0
     29908 MEMB     240      PMPE     C312     CTL2    -0.180000       12.0110           0
     29909 MEMB     240      PMPE     H12X     HAL2     0.900000E-01   1.00800           0
     29910 MEMB     240      PMPE     H12Y     HAL2     0.900000E-01   1.00800           0
     29911 MEMB     240      PMPE     C313     CTL2    -0.180000       12.0110           0
     29912 MEMB     240      PMPE     H13X     HAL2     0.900000E-01   1.00800           0
     29913 MEMB     240      PMPE     H13Y     HAL2     0.900000E-01   1.00800           0
     29914 MEMB     240      PMPE     C314     CTL2    -0.180000       12.0110           0
     29915 MEMB     240      PMPE     H14X     HAL2     0.900000E-01   1.00800           0
     29916 MEMB     240      PMPE     H14Y     HAL2     0.900000E-01   1.00800           0
     29917 MEMB     240      PMPE     C315     CTL2    -0.180000       12.0110           0
     29918 MEMB     240      PMPE     H15X     HAL2     0.900000E-01   1.00800           0
     29919 MEMB     240      PMPE     H15Y     HAL2     0.900000E-01   1.00800           0
     29920 MEMB     240      PMPE     C316     CTL3    -0.270000       12.0110           0
     29921 MEMB     240      PMPE     H16X     HAL3     0.900000E-01   1.00800           0
     29922 MEMB     240      PMPE     H16Y     HAL3     0.900000E-01   1.00800           0
     29923 MEMB     240      PMPE     H16Z     HAL3     0.900000E-01   1.00800           0
     29924 MEMB     241      POPE     N        NH3L    -0.300000       14.0070           0
     29925 MEMB     241      POPE     HN1      HCL      0.330000       1.00800           0
     29926 MEMB     241      POPE     HN2      HCL      0.330000       1.00800           0
     29927 MEMB     241      POPE     HN3      HCL      0.330000       1.00800           0
     29928 MEMB     241      POPE     C12      CTL2     0.130000       12.0110           0
     29929 MEMB     241      POPE     H12A     HAL2     0.900000E-01   1.00800           0
     29930 MEMB     241      POPE     H12B     HAL2     0.900000E-01   1.00800           0
     29931 MEMB     241      POPE     C11      CTL2    -0.800000E-01   12.0110           0
     29932 MEMB     241      POPE     H11A     HAL2     0.900000E-01   1.00800           0
     29933 MEMB     241      POPE     H11B     HAL2     0.900000E-01   1.00800           0
     29934 MEMB     241      POPE     P        PL        1.50000       30.9740           0
     29935 MEMB     241      POPE     O13      O2L     -0.780000       15.9994           0
     29936 MEMB     241      POPE     O14      O2L     -0.780000       15.9994           0
     29937 MEMB     241      POPE     O11      OSLP    -0.570000       15.9994           0
     29938 MEMB     241      POPE     O12      OSLP    -0.570000       15.9994           0
     29939 MEMB     241      POPE     C1       CTL2    -0.800000E-01   12.0110           0
     29940 MEMB     241      POPE     HA       HAL2     0.900000E-01   1.00800           0
     29941 MEMB     241      POPE     HB       HAL2     0.900000E-01   1.00800           0
     29942 MEMB     241      POPE     C2       CTL1     0.170000       12.0110           0
     29943 MEMB     241      POPE     HS       HAL1     0.900000E-01   1.00800           0
     29944 MEMB     241      POPE     O21      OSL     -0.490000       15.9994           0
     29945 MEMB     241      POPE     C21      CL       0.900000       12.0110           0
     29946 MEMB     241      POPE     O22      OBL     -0.630000       15.9994           0
     29947 MEMB     241      POPE     C22      CTL2    -0.220000       12.0110           0
     29948 MEMB     241      POPE     H2R      HAL2     0.900000E-01   1.00800           0
     29949 MEMB     241      POPE     H2S      HAL2     0.900000E-01   1.00800           0
     29950 MEMB     241      POPE     C3       CTL2     0.800000E-01   12.0110           0
     29951 MEMB     241      POPE     HX       HAL2     0.900000E-01   1.00800           0
     29952 MEMB     241      POPE     HY       HAL2     0.900000E-01   1.00800           0
     29953 MEMB     241      POPE     O31      OSL     -0.490000       15.9994           0
     29954 MEMB     241      POPE     C31      CL       0.900000       12.0110           0
     29955 MEMB     241      POPE     O32      OBL     -0.630000       15.9994           0
     29956 MEMB     241      POPE     C32      CTL2    -0.220000       12.0110           0
     29957 MEMB     241      POPE     H2X      HAL2     0.900000E-01   1.00800           0
     29958 MEMB     241      POPE     H2Y      HAL2     0.900000E-01   1.00800           0
     29959 MEMB     241      POPE     C23      CTL2    -0.180000       12.0110           0
     29960 MEMB     241      POPE     H3R      HAL2     0.900000E-01   1.00800           0
     29961 MEMB     241      POPE     H3S      HAL2     0.900000E-01   1.00800           0
     29962 MEMB     241      POPE     C24      CTL2    -0.180000       12.0110           0
     29963 MEMB     241      POPE     H4R      HAL2     0.900000E-01   1.00800           0
     29964 MEMB     241      POPE     H4S      HAL2     0.900000E-01   1.00800           0
     29965 MEMB     241      POPE     C25      CTL2    -0.180000       12.0110           0
     29966 MEMB     241      POPE     H5R      HAL2     0.900000E-01   1.00800           0
     29967 MEMB     241      POPE     H5S      HAL2     0.900000E-01   1.00800           0
     29968 MEMB     241      POPE     C26      CTL2    -0.180000       12.0110           0
     29969 MEMB     241      POPE     H6R      HAL2     0.900000E-01   1.00800           0
     29970 MEMB     241      POPE     H6S      HAL2     0.900000E-01   1.00800           0
     29971 MEMB     241      POPE     C27      CTL2    -0.180000       12.0110           0
     29972 MEMB     241      POPE     H7R      HAL2     0.900000E-01   1.00800           0
     29973 MEMB     241      POPE     H7S      HAL2     0.900000E-01   1.00800           0
     29974 MEMB     241      POPE     C28      CTL2    -0.180000       12.0110           0
     29975 MEMB     241      POPE     H8R      HAL2     0.900000E-01   1.00800           0
     29976 MEMB     241      POPE     H8S      HAL2     0.900000E-01   1.00800           0
     29977 MEMB     241      POPE     C29      CEL1    -0.150000       12.0110           0
     29978 MEMB     241      POPE     H91      HEL1     0.150000       1.00800           0
     29979 MEMB     241      POPE     C210     CEL1    -0.150000       12.0110           0
     29980 MEMB     241      POPE     H101     HEL1     0.150000       1.00800           0
     29981 MEMB     241      POPE     C211     CTL2    -0.180000       12.0110           0
     29982 MEMB     241      POPE     H11R     HAL2     0.900000E-01   1.00800           0
     29983 MEMB     241      POPE     H11S     HAL2     0.900000E-01   1.00800           0
     29984 MEMB     241      POPE     C212     CTL2    -0.180000       12.0110           0
     29985 MEMB     241      POPE     H12R     HAL2     0.900000E-01   1.00800           0
     29986 MEMB     241      POPE     H12S     HAL2     0.900000E-01   1.00800           0
     29987 MEMB     241      POPE     C213     CTL2    -0.180000       12.0110           0
     29988 MEMB     241      POPE     H13R     HAL2     0.900000E-01   1.00800           0
     29989 MEMB     241      POPE     H13S     HAL2     0.900000E-01   1.00800           0
     29990 MEMB     241      POPE     C214     CTL2    -0.180000       12.0110           0
     29991 MEMB     241      POPE     H14R     HAL2     0.900000E-01   1.00800           0
     29992 MEMB     241      POPE     H14S     HAL2     0.900000E-01   1.00800           0
     29993 MEMB     241      POPE     C215     CTL2    -0.180000       12.0110           0
     29994 MEMB     241      POPE     H15R     HAL2     0.900000E-01   1.00800           0
     29995 MEMB     241      POPE     H15S     HAL2     0.900000E-01   1.00800           0
     29996 MEMB     241      POPE     C216     CTL2    -0.180000       12.0110           0
     29997 MEMB     241      POPE     H16R     HAL2     0.900000E-01   1.00800           0
     29998 MEMB     241      POPE     H16S     HAL2     0.900000E-01   1.00800           0
     29999 MEMB     241      POPE     C217     CTL2    -0.180000       12.0110           0
     30000 MEMB     241      POPE     H17R     HAL2     0.900000E-01   1.00800           0
     30001 MEMB     241      POPE     H17S     HAL2     0.900000E-01   1.00800           0
     30002 MEMB     241      POPE     C218     CTL3    -0.270000       12.0110           0
     30003 MEMB     241      POPE     H18R     HAL3     0.900000E-01   1.00800           0
     30004 MEMB     241      POPE     H18S     HAL3     0.900000E-01   1.00800           0
     30005 MEMB     241      POPE     H18T     HAL3     0.900000E-01   1.00800           0
     30006 MEMB     241      POPE     C33      CTL2    -0.180000       12.0110           0
     30007 MEMB     241      POPE     H3X      HAL2     0.900000E-01   1.00800           0
     30008 MEMB     241      POPE     H3Y      HAL2     0.900000E-01   1.00800           0
     30009 MEMB     241      POPE     C34      CTL2    -0.180000       12.0110           0
     30010 MEMB     241      POPE     H4X      HAL2     0.900000E-01   1.00800           0
     30011 MEMB     241      POPE     H4Y      HAL2     0.900000E-01   1.00800           0
     30012 MEMB     241      POPE     C35      CTL2    -0.180000       12.0110           0
     30013 MEMB     241      POPE     H5X      HAL2     0.900000E-01   1.00800           0
     30014 MEMB     241      POPE     H5Y      HAL2     0.900000E-01   1.00800           0
     30015 MEMB     241      POPE     C36      CTL2    -0.180000       12.0110           0
     30016 MEMB     241      POPE     H6X      HAL2     0.900000E-01   1.00800           0
     30017 MEMB     241      POPE     H6Y      HAL2     0.900000E-01   1.00800           0
     30018 MEMB     241      POPE     C37      CTL2    -0.180000       12.0110           0
     30019 MEMB     241      POPE     H7X      HAL2     0.900000E-01   1.00800           0
     30020 MEMB     241      POPE     H7Y      HAL2     0.900000E-01   1.00800           0
     30021 MEMB     241      POPE     C38      CTL2    -0.180000       12.0110           0
     30022 MEMB     241      POPE     H8X      HAL2     0.900000E-01   1.00800           0
     30023 MEMB     241      POPE     H8Y      HAL2     0.900000E-01   1.00800           0
     30024 MEMB     241      POPE     C39      CTL2    -0.180000       12.0110           0
     30025 MEMB     241      POPE     H9X      HAL2     0.900000E-01   1.00800           0
     30026 MEMB     241      POPE     H9Y      HAL2     0.900000E-01   1.00800           0
     30027 MEMB     241      POPE     C310     CTL2    -0.180000       12.0110           0
     30028 MEMB     241      POPE     H10X     HAL2     0.900000E-01   1.00800           0
     30029 MEMB     241      POPE     H10Y     HAL2     0.900000E-01   1.00800           0
     30030 MEMB     241      POPE     C311     CTL2    -0.180000       12.0110           0
     30031 MEMB     241      POPE     H11X     HAL2     0.900000E-01   1.00800           0
     30032 MEMB     241      POPE     H11Y     HAL2     0.900000E-01   1.00800           0
     30033 MEMB     241      POPE     C312     CTL2    -0.180000       12.0110           0
     30034 MEMB     241      POPE     H12X     HAL2     0.900000E-01   1.00800           0
     30035 MEMB     241      POPE     H12Y     HAL2     0.900000E-01   1.00800           0
     30036 MEMB     241      POPE     C313     CTL2    -0.180000       12.0110           0
     30037 MEMB     241      POPE     H13X     HAL2     0.900000E-01   1.00800           0
     30038 MEMB     241      POPE     H13Y     HAL2     0.900000E-01   1.00800           0
     30039 MEMB     241      POPE     C314     CTL2    -0.180000       12.0110           0
     30040 MEMB     241      POPE     H14X     HAL2     0.900000E-01   1.00800           0
     30041 MEMB     241      POPE     H14Y     HAL2     0.900000E-01   1.00800           0
     30042 MEMB     241      POPE     C315     CTL2    -0.180000       12.0110           0
     30043 MEMB     241      POPE     H15X     HAL2     0.900000E-01   1.00800           0
     30044 MEMB     241      POPE     H15Y     HAL2     0.900000E-01   1.00800           0
     30045 MEMB     241      POPE     C316     CTL3    -0.270000       12.0110           0
     30046 MEMB     241      POPE     H16X     HAL3     0.900000E-01   1.00800           0
     30047 MEMB     241      POPE     H16Y     HAL3     0.900000E-01   1.00800           0
     30048 MEMB     241      POPE     H16Z     HAL3     0.900000E-01   1.00800           0
     30049 MEMB     242      POPE     N        NH3L    -0.300000       14.0070           0
     30050 MEMB     242      POPE     HN1      HCL      0.330000       1.00800           0
     30051 MEMB     242      POPE     HN2      HCL      0.330000       1.00800           0
     30052 MEMB     242      POPE     HN3      HCL      0.330000       1.00800           0
     30053 MEMB     242      POPE     C12      CTL2     0.130000       12.0110           0
     30054 MEMB     242      POPE     H12A     HAL2     0.900000E-01   1.00800           0
     30055 MEMB     242      POPE     H12B     HAL2     0.900000E-01   1.00800           0
     30056 MEMB     242      POPE     C11      CTL2    -0.800000E-01   12.0110           0
     30057 MEMB     242      POPE     H11A     HAL2     0.900000E-01   1.00800           0
     30058 MEMB     242      POPE     H11B     HAL2     0.900000E-01   1.00800           0
     30059 MEMB     242      POPE     P        PL        1.50000       30.9740           0
     30060 MEMB     242      POPE     O13      O2L     -0.780000       15.9994           0
     30061 MEMB     242      POPE     O14      O2L     -0.780000       15.9994           0
     30062 MEMB     242      POPE     O11      OSLP    -0.570000       15.9994           0
     30063 MEMB     242      POPE     O12      OSLP    -0.570000       15.9994           0
     30064 MEMB     242      POPE     C1       CTL2    -0.800000E-01   12.0110           0
     30065 MEMB     242      POPE     HA       HAL2     0.900000E-01   1.00800           0
     30066 MEMB     242      POPE     HB       HAL2     0.900000E-01   1.00800           0
     30067 MEMB     242      POPE     C2       CTL1     0.170000       12.0110           0
     30068 MEMB     242      POPE     HS       HAL1     0.900000E-01   1.00800           0
     30069 MEMB     242      POPE     O21      OSL     -0.490000       15.9994           0
     30070 MEMB     242      POPE     C21      CL       0.900000       12.0110           0
     30071 MEMB     242      POPE     O22      OBL     -0.630000       15.9994           0
     30072 MEMB     242      POPE     C22      CTL2    -0.220000       12.0110           0
     30073 MEMB     242      POPE     H2R      HAL2     0.900000E-01   1.00800           0
     30074 MEMB     242      POPE     H2S      HAL2     0.900000E-01   1.00800           0
     30075 MEMB     242      POPE     C3       CTL2     0.800000E-01   12.0110           0
     30076 MEMB     242      POPE     HX       HAL2     0.900000E-01   1.00800           0
     30077 MEMB     242      POPE     HY       HAL2     0.900000E-01   1.00800           0
     30078 MEMB     242      POPE     O31      OSL     -0.490000       15.9994           0
     30079 MEMB     242      POPE     C31      CL       0.900000       12.0110           0
     30080 MEMB     242      POPE     O32      OBL     -0.630000       15.9994           0
     30081 MEMB     242      POPE     C32      CTL2    -0.220000       12.0110           0
     30082 MEMB     242      POPE     H2X      HAL2     0.900000E-01   1.00800           0
     30083 MEMB     242      POPE     H2Y      HAL2     0.900000E-01   1.00800           0
     30084 MEMB     242      POPE     C23      CTL2    -0.180000       12.0110           0
     30085 MEMB     242      POPE     H3R      HAL2     0.900000E-01   1.00800           0
     30086 MEMB     242      POPE     H3S      HAL2     0.900000E-01   1.00800           0
     30087 MEMB     242      POPE     C24      CTL2    -0.180000       12.0110           0
     30088 MEMB     242      POPE     H4R      HAL2     0.900000E-01   1.00800           0
     30089 MEMB     242      POPE     H4S      HAL2     0.900000E-01   1.00800           0
     30090 MEMB     242      POPE     C25      CTL2    -0.180000       12.0110           0
     30091 MEMB     242      POPE     H5R      HAL2     0.900000E-01   1.00800           0
     30092 MEMB     242      POPE     H5S      HAL2     0.900000E-01   1.00800           0
     30093 MEMB     242      POPE     C26      CTL2    -0.180000       12.0110           0
     30094 MEMB     242      POPE     H6R      HAL2     0.900000E-01   1.00800           0
     30095 MEMB     242      POPE     H6S      HAL2     0.900000E-01   1.00800           0
     30096 MEMB     242      POPE     C27      CTL2    -0.180000       12.0110           0
     30097 MEMB     242      POPE     H7R      HAL2     0.900000E-01   1.00800           0
     30098 MEMB     242      POPE     H7S      HAL2     0.900000E-01   1.00800           0
     30099 MEMB     242      POPE     C28      CTL2    -0.180000       12.0110           0
     30100 MEMB     242      POPE     H8R      HAL2     0.900000E-01   1.00800           0
     30101 MEMB     242      POPE     H8S      HAL2     0.900000E-01   1.00800           0
     30102 MEMB     242      POPE     C29      CEL1    -0.150000       12.0110           0
     30103 MEMB     242      POPE     H91      HEL1     0.150000       1.00800           0
     30104 MEMB     242      POPE     C210     CEL1    -0.150000       12.0110           0
     30105 MEMB     242      POPE     H101     HEL1     0.150000       1.00800           0
     30106 MEMB     242      POPE     C211     CTL2    -0.180000       12.0110           0
     30107 MEMB     242      POPE     H11R     HAL2     0.900000E-01   1.00800           0
     30108 MEMB     242      POPE     H11S     HAL2     0.900000E-01   1.00800           0
     30109 MEMB     242      POPE     C212     CTL2    -0.180000       12.0110           0
     30110 MEMB     242      POPE     H12R     HAL2     0.900000E-01   1.00800           0
     30111 MEMB     242      POPE     H12S     HAL2     0.900000E-01   1.00800           0
     30112 MEMB     242      POPE     C213     CTL2    -0.180000       12.0110           0
     30113 MEMB     242      POPE     H13R     HAL2     0.900000E-01   1.00800           0
     30114 MEMB     242      POPE     H13S     HAL2     0.900000E-01   1.00800           0
     30115 MEMB     242      POPE     C214     CTL2    -0.180000       12.0110           0
     30116 MEMB     242      POPE     H14R     HAL2     0.900000E-01   1.00800           0
     30117 MEMB     242      POPE     H14S     HAL2     0.900000E-01   1.00800           0
     30118 MEMB     242      POPE     C215     CTL2    -0.180000       12.0110           0
     30119 MEMB     242      POPE     H15R     HAL2     0.900000E-01   1.00800           0
     30120 MEMB     242      POPE     H15S     HAL2     0.900000E-01   1.00800           0
     30121 MEMB     242      POPE     C216     CTL2    -0.180000       12.0110           0
     30122 MEMB     242      POPE     H16R     HAL2     0.900000E-01   1.00800           0
     30123 MEMB     242      POPE     H16S     HAL2     0.900000E-01   1.00800           0
     30124 MEMB     242      POPE     C217     CTL2    -0.180000       12.0110           0
     30125 MEMB     242      POPE     H17R     HAL2     0.900000E-01   1.00800           0
     30126 MEMB     242      POPE     H17S     HAL2     0.900000E-01   1.00800           0
     30127 MEMB     242      POPE     C218     CTL3    -0.270000       12.0110           0
     30128 MEMB     242      POPE     H18R     HAL3     0.900000E-01   1.00800           0
     30129 MEMB     242      POPE     H18S     HAL3     0.900000E-01   1.00800           0
     30130 MEMB     242      POPE     H18T     HAL3     0.900000E-01   1.00800           0
     30131 MEMB     242      POPE     C33      CTL2    -0.180000       12.0110           0
     30132 MEMB     242      POPE     H3X      HAL2     0.900000E-01   1.00800           0
     30133 MEMB     242      POPE     H3Y      HAL2     0.900000E-01   1.00800           0
     30134 MEMB     242      POPE     C34      CTL2    -0.180000       12.0110           0
     30135 MEMB     242      POPE     H4X      HAL2     0.900000E-01   1.00800           0
     30136 MEMB     242      POPE     H4Y      HAL2     0.900000E-01   1.00800           0
     30137 MEMB     242      POPE     C35      CTL2    -0.180000       12.0110           0
     30138 MEMB     242      POPE     H5X      HAL2     0.900000E-01   1.00800           0
     30139 MEMB     242      POPE     H5Y      HAL2     0.900000E-01   1.00800           0
     30140 MEMB     242      POPE     C36      CTL2    -0.180000       12.0110           0
     30141 MEMB     242      POPE     H6X      HAL2     0.900000E-01   1.00800           0
     30142 MEMB     242      POPE     H6Y      HAL2     0.900000E-01   1.00800           0
     30143 MEMB     242      POPE     C37      CTL2    -0.180000       12.0110           0
     30144 MEMB     242      POPE     H7X      HAL2     0.900000E-01   1.00800           0
     30145 MEMB     242      POPE     H7Y      HAL2     0.900000E-01   1.00800           0
     30146 MEMB     242      POPE     C38      CTL2    -0.180000       12.0110           0
     30147 MEMB     242      POPE     H8X      HAL2     0.900000E-01   1.00800           0
     30148 MEMB     242      POPE     H8Y      HAL2     0.900000E-01   1.00800           0
     30149 MEMB     242      POPE     C39      CTL2    -0.180000       12.0110           0
     30150 MEMB     242      POPE     H9X      HAL2     0.900000E-01   1.00800           0
     30151 MEMB     242      POPE     H9Y      HAL2     0.900000E-01   1.00800           0
     30152 MEMB     242      POPE     C310     CTL2    -0.180000       12.0110           0
     30153 MEMB     242      POPE     H10X     HAL2     0.900000E-01   1.00800           0
     30154 MEMB     242      POPE     H10Y     HAL2     0.900000E-01   1.00800           0
     30155 MEMB     242      POPE     C311     CTL2    -0.180000       12.0110           0
     30156 MEMB     242      POPE     H11X     HAL2     0.900000E-01   1.00800           0
     30157 MEMB     242      POPE     H11Y     HAL2     0.900000E-01   1.00800           0
     30158 MEMB     242      POPE     C312     CTL2    -0.180000       12.0110           0
     30159 MEMB     242      POPE     H12X     HAL2     0.900000E-01   1.00800           0
     30160 MEMB     242      POPE     H12Y     HAL2     0.900000E-01   1.00800           0
     30161 MEMB     242      POPE     C313     CTL2    -0.180000       12.0110           0
     30162 MEMB     242      POPE     H13X     HAL2     0.900000E-01   1.00800           0
     30163 MEMB     242      POPE     H13Y     HAL2     0.900000E-01   1.00800           0
     30164 MEMB     242      POPE     C314     CTL2    -0.180000       12.0110           0
     30165 MEMB     242      POPE     H14X     HAL2     0.900000E-01   1.00800           0
     30166 MEMB     242      POPE     H14Y     HAL2     0.900000E-01   1.00800           0
     30167 MEMB     242      POPE     C315     CTL2    -0.180000       12.0110           0
     30168 MEMB     242      POPE     H15X     HAL2     0.900000E-01   1.00800           0
     30169 MEMB     242      POPE     H15Y     HAL2     0.900000E-01   1.00800           0
     30170 MEMB     242      POPE     C316     CTL3    -0.270000       12.0110           0
     30171 MEMB     242      POPE     H16X     HAL3     0.900000E-01   1.00800           0
     30172 MEMB     242      POPE     H16Y     HAL3     0.900000E-01   1.00800           0
     30173 MEMB     242      POPE     H16Z     HAL3     0.900000E-01   1.00800           0
     30174 MEMB     243      OYPE     N        NH3L    -0.300000       14.0070           0
     30175 MEMB     243      OYPE     HN1      HCL      0.330000       1.00800           0
     30176 MEMB     243      OYPE     HN2      HCL      0.330000       1.00800           0
     30177 MEMB     243      OYPE     HN3      HCL      0.330000       1.00800           0
     30178 MEMB     243      OYPE     C12      CTL2     0.130000       12.0110           0
     30179 MEMB     243      OYPE     H12A     HAL2     0.900000E-01   1.00800           0
     30180 MEMB     243      OYPE     H12B     HAL2     0.900000E-01   1.00800           0
     30181 MEMB     243      OYPE     C11      CTL2    -0.800000E-01   12.0110           0
     30182 MEMB     243      OYPE     H11A     HAL2     0.900000E-01   1.00800           0
     30183 MEMB     243      OYPE     H11B     HAL2     0.900000E-01   1.00800           0
     30184 MEMB     243      OYPE     P        PL        1.50000       30.9740           0
     30185 MEMB     243      OYPE     O13      O2L     -0.780000       15.9994           0
     30186 MEMB     243      OYPE     O14      O2L     -0.780000       15.9994           0
     30187 MEMB     243      OYPE     O11      OSLP    -0.570000       15.9994           0
     30188 MEMB     243      OYPE     O12      OSLP    -0.570000       15.9994           0
     30189 MEMB     243      OYPE     C1       CTL2    -0.800000E-01   12.0110           0
     30190 MEMB     243      OYPE     HA       HAL2     0.900000E-01   1.00800           0
     30191 MEMB     243      OYPE     HB       HAL2     0.900000E-01   1.00800           0
     30192 MEMB     243      OYPE     C2       CTL1     0.170000       12.0110           0
     30193 MEMB     243      OYPE     HS       HAL1     0.900000E-01   1.00800           0
     30194 MEMB     243      OYPE     O21      OSL     -0.490000       15.9994           0
     30195 MEMB     243      OYPE     C21      CL       0.900000       12.0110           0
     30196 MEMB     243      OYPE     O22      OBL     -0.630000       15.9994           0
     30197 MEMB     243      OYPE     C22      CTL2    -0.220000       12.0110           0
     30198 MEMB     243      OYPE     H2R      HAL2     0.900000E-01   1.00800           0
     30199 MEMB     243      OYPE     H2S      HAL2     0.900000E-01   1.00800           0
     30200 MEMB     243      OYPE     C3       CTL2     0.800000E-01   12.0110           0
     30201 MEMB     243      OYPE     HX       HAL2     0.900000E-01   1.00800           0
     30202 MEMB     243      OYPE     HY       HAL2     0.900000E-01   1.00800           0
     30203 MEMB     243      OYPE     O31      OSL     -0.490000       15.9994           0
     30204 MEMB     243      OYPE     C31      CL       0.900000       12.0110           0
     30205 MEMB     243      OYPE     O32      OBL     -0.630000       15.9994           0
     30206 MEMB     243      OYPE     C32      CTL2    -0.220000       12.0110           0
     30207 MEMB     243      OYPE     H2X      HAL2     0.900000E-01   1.00800           0
     30208 MEMB     243      OYPE     H2Y      HAL2     0.900000E-01   1.00800           0
     30209 MEMB     243      OYPE     C23      CTL2    -0.180000       12.0110           0
     30210 MEMB     243      OYPE     H3R      HAL2     0.900000E-01   1.00800           0
     30211 MEMB     243      OYPE     H3S      HAL2     0.900000E-01   1.00800           0
     30212 MEMB     243      OYPE     C24      CTL2    -0.180000       12.0110           0
     30213 MEMB     243      OYPE     H4R      HAL2     0.900000E-01   1.00800           0
     30214 MEMB     243      OYPE     H4S      HAL2     0.900000E-01   1.00800           0
     30215 MEMB     243      OYPE     C25      CTL2    -0.180000       12.0110           0
     30216 MEMB     243      OYPE     H5R      HAL2     0.900000E-01   1.00800           0
     30217 MEMB     243      OYPE     H5S      HAL2     0.900000E-01   1.00800           0
     30218 MEMB     243      OYPE     C26      CTL2    -0.180000       12.0110           0
     30219 MEMB     243      OYPE     H6R      HAL2     0.900000E-01   1.00800           0
     30220 MEMB     243      OYPE     H6S      HAL2     0.900000E-01   1.00800           0
     30221 MEMB     243      OYPE     C27      CTL2    -0.180000       12.0110           0
     30222 MEMB     243      OYPE     H7R      HAL2     0.900000E-01   1.00800           0
     30223 MEMB     243      OYPE     H7S      HAL2     0.900000E-01   1.00800           0
     30224 MEMB     243      OYPE     C28      CTL2    -0.180000       12.0110           0
     30225 MEMB     243      OYPE     H8R      HAL2     0.900000E-01   1.00800           0
     30226 MEMB     243      OYPE     H8S      HAL2     0.900000E-01   1.00800           0
     30227 MEMB     243      OYPE     C29      CEL1    -0.150000       12.0110           0
     30228 MEMB     243      OYPE     H9R      HEL1     0.150000       1.00800           0
     30229 MEMB     243      OYPE     C210     CEL1    -0.150000       12.0110           0
     30230 MEMB     243      OYPE     H10R     HEL1     0.150000       1.00800           0
     30231 MEMB     243      OYPE     C211     CTL2    -0.180000       12.0110           0
     30232 MEMB     243      OYPE     H11R     HAL2     0.900000E-01   1.00800           0
     30233 MEMB     243      OYPE     H11S     HAL2     0.900000E-01   1.00800           0
     30234 MEMB     243      OYPE     C212     CTL2    -0.180000       12.0110           0
     30235 MEMB     243      OYPE     H12R     HAL2     0.900000E-01   1.00800           0
     30236 MEMB     243      OYPE     H12S     HAL2     0.900000E-01   1.00800           0
     30237 MEMB     243      OYPE     C213     CTL2    -0.180000       12.0110           0
     30238 MEMB     243      OYPE     H13R     HAL2     0.900000E-01   1.00800           0
     30239 MEMB     243      OYPE     H13S     HAL2     0.900000E-01   1.00800           0
     30240 MEMB     243      OYPE     C214     CTL2    -0.180000       12.0110           0
     30241 MEMB     243      OYPE     H14R     HAL2     0.900000E-01   1.00800           0
     30242 MEMB     243      OYPE     H14S     HAL2     0.900000E-01   1.00800           0
     30243 MEMB     243      OYPE     C215     CTL2    -0.180000       12.0110           0
     30244 MEMB     243      OYPE     H15R     HAL2     0.900000E-01   1.00800           0
     30245 MEMB     243      OYPE     H15S     HAL2     0.900000E-01   1.00800           0
     30246 MEMB     243      OYPE     C216     CTL3    -0.270000       12.0110           0
     30247 MEMB     243      OYPE     H16R     HAL3     0.900000E-01   1.00800           0
     30248 MEMB     243      OYPE     H16S     HAL3     0.900000E-01   1.00800           0
     30249 MEMB     243      OYPE     H16T     HAL3     0.900000E-01   1.00800           0
     30250 MEMB     243      OYPE     C33      CTL2    -0.180000       12.0110           0
     30251 MEMB     243      OYPE     H3X      HAL2     0.900000E-01   1.00800           0
     30252 MEMB     243      OYPE     H3Y      HAL2     0.900000E-01   1.00800           0
     30253 MEMB     243      OYPE     C34      CTL2    -0.180000       12.0110           0
     30254 MEMB     243      OYPE     H4X      HAL2     0.900000E-01   1.00800           0
     30255 MEMB     243      OYPE     H4Y      HAL2     0.900000E-01   1.00800           0
     30256 MEMB     243      OYPE     C35      CTL2    -0.180000       12.0110           0
     30257 MEMB     243      OYPE     H5X      HAL2     0.900000E-01   1.00800           0
     30258 MEMB     243      OYPE     H5Y      HAL2     0.900000E-01   1.00800           0
     30259 MEMB     243      OYPE     C36      CTL2    -0.180000       12.0110           0
     30260 MEMB     243      OYPE     H6X      HAL2     0.900000E-01   1.00800           0
     30261 MEMB     243      OYPE     H6Y      HAL2     0.900000E-01   1.00800           0
     30262 MEMB     243      OYPE     C37      CTL2    -0.180000       12.0110           0
     30263 MEMB     243      OYPE     H7X      HAL2     0.900000E-01   1.00800           0
     30264 MEMB     243      OYPE     H7Y      HAL2     0.900000E-01   1.00800           0
     30265 MEMB     243      OYPE     C38      CTL2    -0.180000       12.0110           0
     30266 MEMB     243      OYPE     H8X      HAL2     0.900000E-01   1.00800           0
     30267 MEMB     243      OYPE     H8Y      HAL2     0.900000E-01   1.00800           0
     30268 MEMB     243      OYPE     C39      CEL1    -0.150000       12.0110           0
     30269 MEMB     243      OYPE     H9X      HEL1     0.150000       1.00800           0
     30270 MEMB     243      OYPE     C310     CEL1    -0.150000       12.0110           0
     30271 MEMB     243      OYPE     H10X     HEL1     0.150000       1.00800           0
     30272 MEMB     243      OYPE     C311     CTL2    -0.180000       12.0110           0
     30273 MEMB     243      OYPE     H11X     HAL2     0.900000E-01   1.00800           0
     30274 MEMB     243      OYPE     H11Y     HAL2     0.900000E-01   1.00800           0
     30275 MEMB     243      OYPE     C312     CTL2    -0.180000       12.0110           0
     30276 MEMB     243      OYPE     H12X     HAL2     0.900000E-01   1.00800           0
     30277 MEMB     243      OYPE     H12Y     HAL2     0.900000E-01   1.00800           0
     30278 MEMB     243      OYPE     C313     CTL2    -0.180000       12.0110           0
     30279 MEMB     243      OYPE     H13X     HAL2     0.900000E-01   1.00800           0
     30280 MEMB     243      OYPE     H13Y     HAL2     0.900000E-01   1.00800           0
     30281 MEMB     243      OYPE     C314     CTL2    -0.180000       12.0110           0
     30282 MEMB     243      OYPE     H14X     HAL2     0.900000E-01   1.00800           0
     30283 MEMB     243      OYPE     H14Y     HAL2     0.900000E-01   1.00800           0
     30284 MEMB     243      OYPE     C315     CTL2    -0.180000       12.0110           0
     30285 MEMB     243      OYPE     H15X     HAL2     0.900000E-01   1.00800           0
     30286 MEMB     243      OYPE     H15Y     HAL2     0.900000E-01   1.00800           0
     30287 MEMB     243      OYPE     C316     CTL2    -0.180000       12.0110           0
     30288 MEMB     243      OYPE     H16X     HAL2     0.900000E-01   1.00800           0
     30289 MEMB     243      OYPE     H16Y     HAL2     0.900000E-01   1.00800           0
     30290 MEMB     243      OYPE     C317     CTL2    -0.180000       12.0110           0
     30291 MEMB     243      OYPE     H17X     HAL2     0.900000E-01   1.00800           0
     30292 MEMB     243      OYPE     H17Y     HAL2     0.900000E-01   1.00800           0
     30293 MEMB     243      OYPE     C318     CTL3    -0.270000       12.0110           0
     30294 MEMB     243      OYPE     H18X     HAL3     0.900000E-01   1.00800           0
     30295 MEMB     243      OYPE     H18Y     HAL3     0.900000E-01   1.00800           0
     30296 MEMB     243      OYPE     H18Z     HAL3     0.900000E-01   1.00800           0
     30297 MEMB     244      QMPE     N        NH3L    -0.300000       14.0070           0
     30298 MEMB     244      QMPE     HN1      HCL      0.330000       1.00800           0
     30299 MEMB     244      QMPE     HN2      HCL      0.330000       1.00800           0
     30300 MEMB     244      QMPE     HN3      HCL      0.330000       1.00800           0
     30301 MEMB     244      QMPE     C12      CTL2     0.130000       12.0110           0
     30302 MEMB     244      QMPE     H12A     HAL2     0.900000E-01   1.00800           0
     30303 MEMB     244      QMPE     H12B     HAL2     0.900000E-01   1.00800           0
     30304 MEMB     244      QMPE     C11      CTL2    -0.800000E-01   12.0110           0
     30305 MEMB     244      QMPE     H11A     HAL2     0.900000E-01   1.00800           0
     30306 MEMB     244      QMPE     H11B     HAL2     0.900000E-01   1.00800           0
     30307 MEMB     244      QMPE     P        PL        1.50000       30.9740           0
     30308 MEMB     244      QMPE     O13      O2L     -0.780000       15.9994           0
     30309 MEMB     244      QMPE     O14      O2L     -0.780000       15.9994           0
     30310 MEMB     244      QMPE     O11      OSLP    -0.570000       15.9994           0
     30311 MEMB     244      QMPE     O12      OSLP    -0.570000       15.9994           0
     30312 MEMB     244      QMPE     C1       CTL2    -0.800000E-01   12.0110           0
     30313 MEMB     244      QMPE     HA       HAL2     0.900000E-01   1.00800           0
     30314 MEMB     244      QMPE     HB       HAL2     0.900000E-01   1.00800           0
     30315 MEMB     244      QMPE     C2       CTL1     0.170000       12.0110           0
     30316 MEMB     244      QMPE     HS       HAL1     0.900000E-01   1.00800           0
     30317 MEMB     244      QMPE     O21      OSL     -0.490000       15.9994           0
     30318 MEMB     244      QMPE     C21      CL       0.900000       12.0110           0
     30319 MEMB     244      QMPE     O22      OBL     -0.630000       15.9994           0
     30320 MEMB     244      QMPE     C22      CTL2    -0.220000       12.0110           0
     30321 MEMB     244      QMPE     H2R      HAL2     0.900000E-01   1.00800           0
     30322 MEMB     244      QMPE     H2S      HAL2     0.900000E-01   1.00800           0
     30323 MEMB     244      QMPE     C3       CTL2     0.800000E-01   12.0110           0
     30324 MEMB     244      QMPE     HX       HAL2     0.900000E-01   1.00800           0
     30325 MEMB     244      QMPE     HY       HAL2     0.900000E-01   1.00800           0
     30326 MEMB     244      QMPE     O31      OSL     -0.490000       15.9994           0
     30327 MEMB     244      QMPE     C31      CL       0.900000       12.0110           0
     30328 MEMB     244      QMPE     O32      OBL     -0.630000       15.9994           0
     30329 MEMB     244      QMPE     C32      CTL2    -0.220000       12.0110           0
     30330 MEMB     244      QMPE     H2X      HAL2     0.900000E-01   1.00800           0
     30331 MEMB     244      QMPE     H2Y      HAL2     0.900000E-01   1.00800           0
     30332 MEMB     244      QMPE     C23      CTL2    -0.180000       12.0110           0
     30333 MEMB     244      QMPE     H3R      HAL2     0.900000E-01   1.00800           0
     30334 MEMB     244      QMPE     H3S      HAL2     0.900000E-01   1.00800           0
     30335 MEMB     244      QMPE     C24      CTL2    -0.180000       12.0110           0
     30336 MEMB     244      QMPE     H4R      HAL2     0.900000E-01   1.00800           0
     30337 MEMB     244      QMPE     H4S      HAL2     0.900000E-01   1.00800           0
     30338 MEMB     244      QMPE     C25      CTL2    -0.180000       12.0110           0
     30339 MEMB     244      QMPE     H5R      HAL2     0.900000E-01   1.00800           0
     30340 MEMB     244      QMPE     H5S      HAL2     0.900000E-01   1.00800           0
     30341 MEMB     244      QMPE     C26      CTL2    -0.180000       12.0110           0
     30342 MEMB     244      QMPE     H6R      HAL2     0.900000E-01   1.00800           0
     30343 MEMB     244      QMPE     H6S      HAL2     0.900000E-01   1.00800           0
     30344 MEMB     244      QMPE     C27      CTL2    -0.180000       12.0110           0
     30345 MEMB     244      QMPE     H7R      HAL2     0.900000E-01   1.00800           0
     30346 MEMB     244      QMPE     H7S      HAL2     0.900000E-01   1.00800           0
     30347 MEMB     244      QMPE     C28      CTL2    -0.180000       12.0110           0
     30348 MEMB     244      QMPE     H8R      HAL2     0.900000E-01   1.00800           0
     30349 MEMB     244      QMPE     H8S      HAL2     0.900000E-01   1.00800           0
     30350 MEMB     244      QMPE     C29      CG3RC1  -0.900000E-01   12.0110           0
     30351 MEMB     244      QMPE     H9R      HGA1     0.900000E-01   1.00800           0
     30352 MEMB     244      QMPE     C217     CG3C31  -0.180000       12.0110           0
     30353 MEMB     244      QMPE     H17R     HGA2     0.900000E-01   1.00800           0
     30354 MEMB     244      QMPE     H17S     HGA2     0.900000E-01   1.00800           0
     30355 MEMB     244      QMPE     C210     CG3RC1  -0.900000E-01   12.0110           0
     30356 MEMB     244      QMPE     H10R     HGA1     0.900000E-01   1.00800           0
     30357 MEMB     244      QMPE     C211     CTL2    -0.180000       12.0110           0
     30358 MEMB     244      QMPE     H11R     HAL2     0.900000E-01   1.00800           0
     30359 MEMB     244      QMPE     H11S     HAL2     0.900000E-01   1.00800           0
     30360 MEMB     244      QMPE     C212     CTL2    -0.180000       12.0110           0
     30361 MEMB     244      QMPE     H12R     HAL2     0.900000E-01   1.00800           0
     30362 MEMB     244      QMPE     H12S     HAL2     0.900000E-01   1.00800           0
     30363 MEMB     244      QMPE     C213     CTL2    -0.180000       12.0110           0
     30364 MEMB     244      QMPE     H13R     HAL2     0.900000E-01   1.00800           0
     30365 MEMB     244      QMPE     H13S     HAL2     0.900000E-01   1.00800           0
     30366 MEMB     244      QMPE     C214     CTL2    -0.180000       12.0110           0
     30367 MEMB     244      QMPE     H14R     HAL2     0.900000E-01   1.00800           0
     30368 MEMB     244      QMPE     H14S     HAL2     0.900000E-01   1.00800           0
     30369 MEMB     244      QMPE     C215     CTL2    -0.180000       12.0110           0
     30370 MEMB     244      QMPE     H15R     HAL2     0.900000E-01   1.00800           0
     30371 MEMB     244      QMPE     H15S     HAL2     0.900000E-01   1.00800           0
     30372 MEMB     244      QMPE     C216     CTL3    -0.270000       12.0110           0
     30373 MEMB     244      QMPE     H16R     HAL3     0.900000E-01   1.00800           0
     30374 MEMB     244      QMPE     H16S     HAL3     0.900000E-01   1.00800           0
     30375 MEMB     244      QMPE     H16T     HAL3     0.900000E-01   1.00800           0
     30376 MEMB     244      QMPE     C33      CTL2    -0.180000       12.0110           0
     30377 MEMB     244      QMPE     H3X      HAL2     0.900000E-01   1.00800           0
     30378 MEMB     244      QMPE     H3Y      HAL2     0.900000E-01   1.00800           0
     30379 MEMB     244      QMPE     C34      CTL2    -0.180000       12.0110           0
     30380 MEMB     244      QMPE     H4X      HAL2     0.900000E-01   1.00800           0
     30381 MEMB     244      QMPE     H4Y      HAL2     0.900000E-01   1.00800           0
     30382 MEMB     244      QMPE     C35      CTL2    -0.180000       12.0110           0
     30383 MEMB     244      QMPE     H5X      HAL2     0.900000E-01   1.00800           0
     30384 MEMB     244      QMPE     H5Y      HAL2     0.900000E-01   1.00800           0
     30385 MEMB     244      QMPE     C36      CTL2    -0.180000       12.0110           0
     30386 MEMB     244      QMPE     H6X      HAL2     0.900000E-01   1.00800           0
     30387 MEMB     244      QMPE     H6Y      HAL2     0.900000E-01   1.00800           0
     30388 MEMB     244      QMPE     C37      CTL2    -0.180000       12.0110           0
     30389 MEMB     244      QMPE     H7X      HAL2     0.900000E-01   1.00800           0
     30390 MEMB     244      QMPE     H7Y      HAL2     0.900000E-01   1.00800           0
     30391 MEMB     244      QMPE     C38      CTL2    -0.180000       12.0110           0
     30392 MEMB     244      QMPE     H8X      HAL2     0.900000E-01   1.00800           0
     30393 MEMB     244      QMPE     H8Y      HAL2     0.900000E-01   1.00800           0
     30394 MEMB     244      QMPE     C39      CTL2    -0.180000       12.0110           0
     30395 MEMB     244      QMPE     H9X      HAL2     0.900000E-01   1.00800           0
     30396 MEMB     244      QMPE     H9Y      HAL2     0.900000E-01   1.00800           0
     30397 MEMB     244      QMPE     C310     CTL2    -0.180000       12.0110           0
     30398 MEMB     244      QMPE     H10X     HAL2     0.900000E-01   1.00800           0
     30399 MEMB     244      QMPE     H10Y     HAL2     0.900000E-01   1.00800           0
     30400 MEMB     244      QMPE     C311     CTL2    -0.180000       12.0110           0
     30401 MEMB     244      QMPE     H11X     HAL2     0.900000E-01   1.00800           0
     30402 MEMB     244      QMPE     H11Y     HAL2     0.900000E-01   1.00800           0
     30403 MEMB     244      QMPE     C312     CTL2    -0.180000       12.0110           0
     30404 MEMB     244      QMPE     H12X     HAL2     0.900000E-01   1.00800           0
     30405 MEMB     244      QMPE     H12Y     HAL2     0.900000E-01   1.00800           0
     30406 MEMB     244      QMPE     C313     CTL2    -0.180000       12.0110           0
     30407 MEMB     244      QMPE     H13X     HAL2     0.900000E-01   1.00800           0
     30408 MEMB     244      QMPE     H13Y     HAL2     0.900000E-01   1.00800           0
     30409 MEMB     244      QMPE     C314     CTL2    -0.180000       12.0110           0
     30410 MEMB     244      QMPE     H14X     HAL2     0.900000E-01   1.00800           0
     30411 MEMB     244      QMPE     H14Y     HAL2     0.900000E-01   1.00800           0
     30412 MEMB     244      QMPE     C315     CTL3    -0.270000       12.0110           0
     30413 MEMB     244      QMPE     H15X     HAL3     0.900000E-01   1.00800           0
     30414 MEMB     244      QMPE     H15Y     HAL3     0.900000E-01   1.00800           0
     30415 MEMB     244      QMPE     H15Z     HAL3     0.900000E-01   1.00800           0
     30416 MEMB     245      PMPE     N        NH3L    -0.300000       14.0070           0
     30417 MEMB     245      PMPE     HN1      HCL      0.330000       1.00800           0
     30418 MEMB     245      PMPE     HN2      HCL      0.330000       1.00800           0
     30419 MEMB     245      PMPE     HN3      HCL      0.330000       1.00800           0
     30420 MEMB     245      PMPE     C12      CTL2     0.130000       12.0110           0
     30421 MEMB     245      PMPE     H12A     HAL2     0.900000E-01   1.00800           0
     30422 MEMB     245      PMPE     H12B     HAL2     0.900000E-01   1.00800           0
     30423 MEMB     245      PMPE     C11      CTL2    -0.800000E-01   12.0110           0
     30424 MEMB     245      PMPE     H11A     HAL2     0.900000E-01   1.00800           0
     30425 MEMB     245      PMPE     H11B     HAL2     0.900000E-01   1.00800           0
     30426 MEMB     245      PMPE     P        PL        1.50000       30.9740           0
     30427 MEMB     245      PMPE     O13      O2L     -0.780000       15.9994           0
     30428 MEMB     245      PMPE     O14      O2L     -0.780000       15.9994           0
     30429 MEMB     245      PMPE     O11      OSLP    -0.570000       15.9994           0
     30430 MEMB     245      PMPE     O12      OSLP    -0.570000       15.9994           0
     30431 MEMB     245      PMPE     C1       CTL2    -0.800000E-01   12.0110           0
     30432 MEMB     245      PMPE     HA       HAL2     0.900000E-01   1.00800           0
     30433 MEMB     245      PMPE     HB       HAL2     0.900000E-01   1.00800           0
     30434 MEMB     245      PMPE     C2       CTL1     0.170000       12.0110           0
     30435 MEMB     245      PMPE     HS       HAL1     0.900000E-01   1.00800           0
     30436 MEMB     245      PMPE     O21      OSL     -0.490000       15.9994           0
     30437 MEMB     245      PMPE     C21      CL       0.900000       12.0110           0
     30438 MEMB     245      PMPE     O22      OBL     -0.630000       15.9994           0
     30439 MEMB     245      PMPE     C22      CTL2    -0.220000       12.0110           0
     30440 MEMB     245      PMPE     H2R      HAL2     0.900000E-01   1.00800           0
     30441 MEMB     245      PMPE     H2S      HAL2     0.900000E-01   1.00800           0
     30442 MEMB     245      PMPE     C3       CTL2     0.800000E-01   12.0110           0
     30443 MEMB     245      PMPE     HX       HAL2     0.900000E-01   1.00800           0
     30444 MEMB     245      PMPE     HY       HAL2     0.900000E-01   1.00800           0
     30445 MEMB     245      PMPE     O31      OSL     -0.490000       15.9994           0
     30446 MEMB     245      PMPE     C31      CL       0.900000       12.0110           0
     30447 MEMB     245      PMPE     O32      OBL     -0.630000       15.9994           0
     30448 MEMB     245      PMPE     C32      CTL2    -0.220000       12.0110           0
     30449 MEMB     245      PMPE     H2X      HAL2     0.900000E-01   1.00800           0
     30450 MEMB     245      PMPE     H2Y      HAL2     0.900000E-01   1.00800           0
     30451 MEMB     245      PMPE     C23      CTL2    -0.180000       12.0110           0
     30452 MEMB     245      PMPE     H3R      HAL2     0.900000E-01   1.00800           0
     30453 MEMB     245      PMPE     H3S      HAL2     0.900000E-01   1.00800           0
     30454 MEMB     245      PMPE     C24      CTL2    -0.180000       12.0110           0
     30455 MEMB     245      PMPE     H4R      HAL2     0.900000E-01   1.00800           0
     30456 MEMB     245      PMPE     H4S      HAL2     0.900000E-01   1.00800           0
     30457 MEMB     245      PMPE     C25      CTL2    -0.180000       12.0110           0
     30458 MEMB     245      PMPE     H5R      HAL2     0.900000E-01   1.00800           0
     30459 MEMB     245      PMPE     H5S      HAL2     0.900000E-01   1.00800           0
     30460 MEMB     245      PMPE     C26      CTL2    -0.180000       12.0110           0
     30461 MEMB     245      PMPE     H6R      HAL2     0.900000E-01   1.00800           0
     30462 MEMB     245      PMPE     H6S      HAL2     0.900000E-01   1.00800           0
     30463 MEMB     245      PMPE     C27      CTL2    -0.180000       12.0110           0
     30464 MEMB     245      PMPE     H7R      HAL2     0.900000E-01   1.00800           0
     30465 MEMB     245      PMPE     H7S      HAL2     0.900000E-01   1.00800           0
     30466 MEMB     245      PMPE     C28      CTL2    -0.180000       12.0110           0
     30467 MEMB     245      PMPE     H8R      HAL2     0.900000E-01   1.00800           0
     30468 MEMB     245      PMPE     H8S      HAL2     0.900000E-01   1.00800           0
     30469 MEMB     245      PMPE     C29      CG3RC1  -0.900000E-01   12.0110           0
     30470 MEMB     245      PMPE     H9R      HGA1     0.900000E-01   1.00800           0
     30471 MEMB     245      PMPE     C217     CG3C31  -0.180000       12.0110           0
     30472 MEMB     245      PMPE     H17R     HGA2     0.900000E-01   1.00800           0
     30473 MEMB     245      PMPE     H17S     HGA2     0.900000E-01   1.00800           0
     30474 MEMB     245      PMPE     C210     CG3RC1  -0.900000E-01   12.0110           0
     30475 MEMB     245      PMPE     H10R     HGA1     0.900000E-01   1.00800           0
     30476 MEMB     245      PMPE     C211     CTL2    -0.180000       12.0110           0
     30477 MEMB     245      PMPE     H11R     HAL2     0.900000E-01   1.00800           0
     30478 MEMB     245      PMPE     H11S     HAL2     0.900000E-01   1.00800           0
     30479 MEMB     245      PMPE     C212     CTL2    -0.180000       12.0110           0
     30480 MEMB     245      PMPE     H12R     HAL2     0.900000E-01   1.00800           0
     30481 MEMB     245      PMPE     H12S     HAL2     0.900000E-01   1.00800           0
     30482 MEMB     245      PMPE     C213     CTL2    -0.180000       12.0110           0
     30483 MEMB     245      PMPE     H13R     HAL2     0.900000E-01   1.00800           0
     30484 MEMB     245      PMPE     H13S     HAL2     0.900000E-01   1.00800           0
     30485 MEMB     245      PMPE     C214     CTL2    -0.180000       12.0110           0
     30486 MEMB     245      PMPE     H14R     HAL2     0.900000E-01   1.00800           0
     30487 MEMB     245      PMPE     H14S     HAL2     0.900000E-01   1.00800           0
     30488 MEMB     245      PMPE     C215     CTL2    -0.180000       12.0110           0
     30489 MEMB     245      PMPE     H15R     HAL2     0.900000E-01   1.00800           0
     30490 MEMB     245      PMPE     H15S     HAL2     0.900000E-01   1.00800           0
     30491 MEMB     245      PMPE     C216     CTL3    -0.270000       12.0110           0
     30492 MEMB     245      PMPE     H16R     HAL3     0.900000E-01   1.00800           0
     30493 MEMB     245      PMPE     H16S     HAL3     0.900000E-01   1.00800           0
     30494 MEMB     245      PMPE     H16T     HAL3     0.900000E-01   1.00800           0
     30495 MEMB     245      PMPE     C33      CTL2    -0.180000       12.0110           0
     30496 MEMB     245      PMPE     H3X      HAL2     0.900000E-01   1.00800           0
     30497 MEMB     245      PMPE     H3Y      HAL2     0.900000E-01   1.00800           0
     30498 MEMB     245      PMPE     C34      CTL2    -0.180000       12.0110           0
     30499 MEMB     245      PMPE     H4X      HAL2     0.900000E-01   1.00800           0
     30500 MEMB     245      PMPE     H4Y      HAL2     0.900000E-01   1.00800           0
     30501 MEMB     245      PMPE     C35      CTL2    -0.180000       12.0110           0
     30502 MEMB     245      PMPE     H5X      HAL2     0.900000E-01   1.00800           0
     30503 MEMB     245      PMPE     H5Y      HAL2     0.900000E-01   1.00800           0
     30504 MEMB     245      PMPE     C36      CTL2    -0.180000       12.0110           0
     30505 MEMB     245      PMPE     H6X      HAL2     0.900000E-01   1.00800           0
     30506 MEMB     245      PMPE     H6Y      HAL2     0.900000E-01   1.00800           0
     30507 MEMB     245      PMPE     C37      CTL2    -0.180000       12.0110           0
     30508 MEMB     245      PMPE     H7X      HAL2     0.900000E-01   1.00800           0
     30509 MEMB     245      PMPE     H7Y      HAL2     0.900000E-01   1.00800           0
     30510 MEMB     245      PMPE     C38      CTL2    -0.180000       12.0110           0
     30511 MEMB     245      PMPE     H8X      HAL2     0.900000E-01   1.00800           0
     30512 MEMB     245      PMPE     H8Y      HAL2     0.900000E-01   1.00800           0
     30513 MEMB     245      PMPE     C39      CTL2    -0.180000       12.0110           0
     30514 MEMB     245      PMPE     H9X      HAL2     0.900000E-01   1.00800           0
     30515 MEMB     245      PMPE     H9Y      HAL2     0.900000E-01   1.00800           0
     30516 MEMB     245      PMPE     C310     CTL2    -0.180000       12.0110           0
     30517 MEMB     245      PMPE     H10X     HAL2     0.900000E-01   1.00800           0
     30518 MEMB     245      PMPE     H10Y     HAL2     0.900000E-01   1.00800           0
     30519 MEMB     245      PMPE     C311     CTL2    -0.180000       12.0110           0
     30520 MEMB     245      PMPE     H11X     HAL2     0.900000E-01   1.00800           0
     30521 MEMB     245      PMPE     H11Y     HAL2     0.900000E-01   1.00800           0
     30522 MEMB     245      PMPE     C312     CTL2    -0.180000       12.0110           0
     30523 MEMB     245      PMPE     H12X     HAL2     0.900000E-01   1.00800           0
     30524 MEMB     245      PMPE     H12Y     HAL2     0.900000E-01   1.00800           0
     30525 MEMB     245      PMPE     C313     CTL2    -0.180000       12.0110           0
     30526 MEMB     245      PMPE     H13X     HAL2     0.900000E-01   1.00800           0
     30527 MEMB     245      PMPE     H13Y     HAL2     0.900000E-01   1.00800           0
     30528 MEMB     245      PMPE     C314     CTL2    -0.180000       12.0110           0
     30529 MEMB     245      PMPE     H14X     HAL2     0.900000E-01   1.00800           0
     30530 MEMB     245      PMPE     H14Y     HAL2     0.900000E-01   1.00800           0
     30531 MEMB     245      PMPE     C315     CTL2    -0.180000       12.0110           0
     30532 MEMB     245      PMPE     H15X     HAL2     0.900000E-01   1.00800           0
     30533 MEMB     245      PMPE     H15Y     HAL2     0.900000E-01   1.00800           0
     30534 MEMB     245      PMPE     C316     CTL3    -0.270000       12.0110           0
     30535 MEMB     245      PMPE     H16X     HAL3     0.900000E-01   1.00800           0
     30536 MEMB     245      PMPE     H16Y     HAL3     0.900000E-01   1.00800           0
     30537 MEMB     245      PMPE     H16Z     HAL3     0.900000E-01   1.00800           0
     30538 MEMB     246      QMPE     N        NH3L    -0.300000       14.0070           0
     30539 MEMB     246      QMPE     HN1      HCL      0.330000       1.00800           0
     30540 MEMB     246      QMPE     HN2      HCL      0.330000       1.00800           0
     30541 MEMB     246      QMPE     HN3      HCL      0.330000       1.00800           0
     30542 MEMB     246      QMPE     C12      CTL2     0.130000       12.0110           0
     30543 MEMB     246      QMPE     H12A     HAL2     0.900000E-01   1.00800           0
     30544 MEMB     246      QMPE     H12B     HAL2     0.900000E-01   1.00800           0
     30545 MEMB     246      QMPE     C11      CTL2    -0.800000E-01   12.0110           0
     30546 MEMB     246      QMPE     H11A     HAL2     0.900000E-01   1.00800           0
     30547 MEMB     246      QMPE     H11B     HAL2     0.900000E-01   1.00800           0
     30548 MEMB     246      QMPE     P        PL        1.50000       30.9740           0
     30549 MEMB     246      QMPE     O13      O2L     -0.780000       15.9994           0
     30550 MEMB     246      QMPE     O14      O2L     -0.780000       15.9994           0
     30551 MEMB     246      QMPE     O11      OSLP    -0.570000       15.9994           0
     30552 MEMB     246      QMPE     O12      OSLP    -0.570000       15.9994           0
     30553 MEMB     246      QMPE     C1       CTL2    -0.800000E-01   12.0110           0
     30554 MEMB     246      QMPE     HA       HAL2     0.900000E-01   1.00800           0
     30555 MEMB     246      QMPE     HB       HAL2     0.900000E-01   1.00800           0
     30556 MEMB     246      QMPE     C2       CTL1     0.170000       12.0110           0
     30557 MEMB     246      QMPE     HS       HAL1     0.900000E-01   1.00800           0
     30558 MEMB     246      QMPE     O21      OSL     -0.490000       15.9994           0
     30559 MEMB     246      QMPE     C21      CL       0.900000       12.0110           0
     30560 MEMB     246      QMPE     O22      OBL     -0.630000       15.9994           0
     30561 MEMB     246      QMPE     C22      CTL2    -0.220000       12.0110           0
     30562 MEMB     246      QMPE     H2R      HAL2     0.900000E-01   1.00800           0
     30563 MEMB     246      QMPE     H2S      HAL2     0.900000E-01   1.00800           0
     30564 MEMB     246      QMPE     C3       CTL2     0.800000E-01   12.0110           0
     30565 MEMB     246      QMPE     HX       HAL2     0.900000E-01   1.00800           0
     30566 MEMB     246      QMPE     HY       HAL2     0.900000E-01   1.00800           0
     30567 MEMB     246      QMPE     O31      OSL     -0.490000       15.9994           0
     30568 MEMB     246      QMPE     C31      CL       0.900000       12.0110           0
     30569 MEMB     246      QMPE     O32      OBL     -0.630000       15.9994           0
     30570 MEMB     246      QMPE     C32      CTL2    -0.220000       12.0110           0
     30571 MEMB     246      QMPE     H2X      HAL2     0.900000E-01   1.00800           0
     30572 MEMB     246      QMPE     H2Y      HAL2     0.900000E-01   1.00800           0
     30573 MEMB     246      QMPE     C23      CTL2    -0.180000       12.0110           0
     30574 MEMB     246      QMPE     H3R      HAL2     0.900000E-01   1.00800           0
     30575 MEMB     246      QMPE     H3S      HAL2     0.900000E-01   1.00800           0
     30576 MEMB     246      QMPE     C24      CTL2    -0.180000       12.0110           0
     30577 MEMB     246      QMPE     H4R      HAL2     0.900000E-01   1.00800           0
     30578 MEMB     246      QMPE     H4S      HAL2     0.900000E-01   1.00800           0
     30579 MEMB     246      QMPE     C25      CTL2    -0.180000       12.0110           0
     30580 MEMB     246      QMPE     H5R      HAL2     0.900000E-01   1.00800           0
     30581 MEMB     246      QMPE     H5S      HAL2     0.900000E-01   1.00800           0
     30582 MEMB     246      QMPE     C26      CTL2    -0.180000       12.0110           0
     30583 MEMB     246      QMPE     H6R      HAL2     0.900000E-01   1.00800           0
     30584 MEMB     246      QMPE     H6S      HAL2     0.900000E-01   1.00800           0
     30585 MEMB     246      QMPE     C27      CTL2    -0.180000       12.0110           0
     30586 MEMB     246      QMPE     H7R      HAL2     0.900000E-01   1.00800           0
     30587 MEMB     246      QMPE     H7S      HAL2     0.900000E-01   1.00800           0
     30588 MEMB     246      QMPE     C28      CTL2    -0.180000       12.0110           0
     30589 MEMB     246      QMPE     H8R      HAL2     0.900000E-01   1.00800           0
     30590 MEMB     246      QMPE     H8S      HAL2     0.900000E-01   1.00800           0
     30591 MEMB     246      QMPE     C29      CG3RC1  -0.900000E-01   12.0110           0
     30592 MEMB     246      QMPE     H9R      HGA1     0.900000E-01   1.00800           0
     30593 MEMB     246      QMPE     C217     CG3C31  -0.180000       12.0110           0
     30594 MEMB     246      QMPE     H17R     HGA2     0.900000E-01   1.00800           0
     30595 MEMB     246      QMPE     H17S     HGA2     0.900000E-01   1.00800           0
     30596 MEMB     246      QMPE     C210     CG3RC1  -0.900000E-01   12.0110           0
     30597 MEMB     246      QMPE     H10R     HGA1     0.900000E-01   1.00800           0
     30598 MEMB     246      QMPE     C211     CTL2    -0.180000       12.0110           0
     30599 MEMB     246      QMPE     H11R     HAL2     0.900000E-01   1.00800           0
     30600 MEMB     246      QMPE     H11S     HAL2     0.900000E-01   1.00800           0
     30601 MEMB     246      QMPE     C212     CTL2    -0.180000       12.0110           0
     30602 MEMB     246      QMPE     H12R     HAL2     0.900000E-01   1.00800           0
     30603 MEMB     246      QMPE     H12S     HAL2     0.900000E-01   1.00800           0
     30604 MEMB     246      QMPE     C213     CTL2    -0.180000       12.0110           0
     30605 MEMB     246      QMPE     H13R     HAL2     0.900000E-01   1.00800           0
     30606 MEMB     246      QMPE     H13S     HAL2     0.900000E-01   1.00800           0
     30607 MEMB     246      QMPE     C214     CTL2    -0.180000       12.0110           0
     30608 MEMB     246      QMPE     H14R     HAL2     0.900000E-01   1.00800           0
     30609 MEMB     246      QMPE     H14S     HAL2     0.900000E-01   1.00800           0
     30610 MEMB     246      QMPE     C215     CTL2    -0.180000       12.0110           0
     30611 MEMB     246      QMPE     H15R     HAL2     0.900000E-01   1.00800           0
     30612 MEMB     246      QMPE     H15S     HAL2     0.900000E-01   1.00800           0
     30613 MEMB     246      QMPE     C216     CTL3    -0.270000       12.0110           0
     30614 MEMB     246      QMPE     H16R     HAL3     0.900000E-01   1.00800           0
     30615 MEMB     246      QMPE     H16S     HAL3     0.900000E-01   1.00800           0
     30616 MEMB     246      QMPE     H16T     HAL3     0.900000E-01   1.00800           0
     30617 MEMB     246      QMPE     C33      CTL2    -0.180000       12.0110           0
     30618 MEMB     246      QMPE     H3X      HAL2     0.900000E-01   1.00800           0
     30619 MEMB     246      QMPE     H3Y      HAL2     0.900000E-01   1.00800           0
     30620 MEMB     246      QMPE     C34      CTL2    -0.180000       12.0110           0
     30621 MEMB     246      QMPE     H4X      HAL2     0.900000E-01   1.00800           0
     30622 MEMB     246      QMPE     H4Y      HAL2     0.900000E-01   1.00800           0
     30623 MEMB     246      QMPE     C35      CTL2    -0.180000       12.0110           0
     30624 MEMB     246      QMPE     H5X      HAL2     0.900000E-01   1.00800           0
     30625 MEMB     246      QMPE     H5Y      HAL2     0.900000E-01   1.00800           0
     30626 MEMB     246      QMPE     C36      CTL2    -0.180000       12.0110           0
     30627 MEMB     246      QMPE     H6X      HAL2     0.900000E-01   1.00800           0
     30628 MEMB     246      QMPE     H6Y      HAL2     0.900000E-01   1.00800           0
     30629 MEMB     246      QMPE     C37      CTL2    -0.180000       12.0110           0
     30630 MEMB     246      QMPE     H7X      HAL2     0.900000E-01   1.00800           0
     30631 MEMB     246      QMPE     H7Y      HAL2     0.900000E-01   1.00800           0
     30632 MEMB     246      QMPE     C38      CTL2    -0.180000       12.0110           0
     30633 MEMB     246      QMPE     H8X      HAL2     0.900000E-01   1.00800           0
     30634 MEMB     246      QMPE     H8Y      HAL2     0.900000E-01   1.00800           0
     30635 MEMB     246      QMPE     C39      CTL2    -0.180000       12.0110           0
     30636 MEMB     246      QMPE     H9X      HAL2     0.900000E-01   1.00800           0
     30637 MEMB     246      QMPE     H9Y      HAL2     0.900000E-01   1.00800           0
     30638 MEMB     246      QMPE     C310     CTL2    -0.180000       12.0110           0
     30639 MEMB     246      QMPE     H10X     HAL2     0.900000E-01   1.00800           0
     30640 MEMB     246      QMPE     H10Y     HAL2     0.900000E-01   1.00800           0
     30641 MEMB     246      QMPE     C311     CTL2    -0.180000       12.0110           0
     30642 MEMB     246      QMPE     H11X     HAL2     0.900000E-01   1.00800           0
     30643 MEMB     246      QMPE     H11Y     HAL2     0.900000E-01   1.00800           0
     30644 MEMB     246      QMPE     C312     CTL2    -0.180000       12.0110           0
     30645 MEMB     246      QMPE     H12X     HAL2     0.900000E-01   1.00800           0
     30646 MEMB     246      QMPE     H12Y     HAL2     0.900000E-01   1.00800           0
     30647 MEMB     246      QMPE     C313     CTL2    -0.180000       12.0110           0
     30648 MEMB     246      QMPE     H13X     HAL2     0.900000E-01   1.00800           0
     30649 MEMB     246      QMPE     H13Y     HAL2     0.900000E-01   1.00800           0
     30650 MEMB     246      QMPE     C314     CTL2    -0.180000       12.0110           0
     30651 MEMB     246      QMPE     H14X     HAL2     0.900000E-01   1.00800           0
     30652 MEMB     246      QMPE     H14Y     HAL2     0.900000E-01   1.00800           0
     30653 MEMB     246      QMPE     C315     CTL3    -0.270000       12.0110           0
     30654 MEMB     246      QMPE     H15X     HAL3     0.900000E-01   1.00800           0
     30655 MEMB     246      QMPE     H15Y     HAL3     0.900000E-01   1.00800           0
     30656 MEMB     246      QMPE     H15Z     HAL3     0.900000E-01   1.00800           0
     30657 MEMB     247      PMPE     N        NH3L    -0.300000       14.0070           0
     30658 MEMB     247      PMPE     HN1      HCL      0.330000       1.00800           0
     30659 MEMB     247      PMPE     HN2      HCL      0.330000       1.00800           0
     30660 MEMB     247      PMPE     HN3      HCL      0.330000       1.00800           0
     30661 MEMB     247      PMPE     C12      CTL2     0.130000       12.0110           0
     30662 MEMB     247      PMPE     H12A     HAL2     0.900000E-01   1.00800           0
     30663 MEMB     247      PMPE     H12B     HAL2     0.900000E-01   1.00800           0
     30664 MEMB     247      PMPE     C11      CTL2    -0.800000E-01   12.0110           0
     30665 MEMB     247      PMPE     H11A     HAL2     0.900000E-01   1.00800           0
     30666 MEMB     247      PMPE     H11B     HAL2     0.900000E-01   1.00800           0
     30667 MEMB     247      PMPE     P        PL        1.50000       30.9740           0
     30668 MEMB     247      PMPE     O13      O2L     -0.780000       15.9994           0
     30669 MEMB     247      PMPE     O14      O2L     -0.780000       15.9994           0
     30670 MEMB     247      PMPE     O11      OSLP    -0.570000       15.9994           0
     30671 MEMB     247      PMPE     O12      OSLP    -0.570000       15.9994           0
     30672 MEMB     247      PMPE     C1       CTL2    -0.800000E-01   12.0110           0
     30673 MEMB     247      PMPE     HA       HAL2     0.900000E-01   1.00800           0
     30674 MEMB     247      PMPE     HB       HAL2     0.900000E-01   1.00800           0
     30675 MEMB     247      PMPE     C2       CTL1     0.170000       12.0110           0
     30676 MEMB     247      PMPE     HS       HAL1     0.900000E-01   1.00800           0
     30677 MEMB     247      PMPE     O21      OSL     -0.490000       15.9994           0
     30678 MEMB     247      PMPE     C21      CL       0.900000       12.0110           0
     30679 MEMB     247      PMPE     O22      OBL     -0.630000       15.9994           0
     30680 MEMB     247      PMPE     C22      CTL2    -0.220000       12.0110           0
     30681 MEMB     247      PMPE     H2R      HAL2     0.900000E-01   1.00800           0
     30682 MEMB     247      PMPE     H2S      HAL2     0.900000E-01   1.00800           0
     30683 MEMB     247      PMPE     C3       CTL2     0.800000E-01   12.0110           0
     30684 MEMB     247      PMPE     HX       HAL2     0.900000E-01   1.00800           0
     30685 MEMB     247      PMPE     HY       HAL2     0.900000E-01   1.00800           0
     30686 MEMB     247      PMPE     O31      OSL     -0.490000       15.9994           0
     30687 MEMB     247      PMPE     C31      CL       0.900000       12.0110           0
     30688 MEMB     247      PMPE     O32      OBL     -0.630000       15.9994           0
     30689 MEMB     247      PMPE     C32      CTL2    -0.220000       12.0110           0
     30690 MEMB     247      PMPE     H2X      HAL2     0.900000E-01   1.00800           0
     30691 MEMB     247      PMPE     H2Y      HAL2     0.900000E-01   1.00800           0
     30692 MEMB     247      PMPE     C23      CTL2    -0.180000       12.0110           0
     30693 MEMB     247      PMPE     H3R      HAL2     0.900000E-01   1.00800           0
     30694 MEMB     247      PMPE     H3S      HAL2     0.900000E-01   1.00800           0
     30695 MEMB     247      PMPE     C24      CTL2    -0.180000       12.0110           0
     30696 MEMB     247      PMPE     H4R      HAL2     0.900000E-01   1.00800           0
     30697 MEMB     247      PMPE     H4S      HAL2     0.900000E-01   1.00800           0
     30698 MEMB     247      PMPE     C25      CTL2    -0.180000       12.0110           0
     30699 MEMB     247      PMPE     H5R      HAL2     0.900000E-01   1.00800           0
     30700 MEMB     247      PMPE     H5S      HAL2     0.900000E-01   1.00800           0
     30701 MEMB     247      PMPE     C26      CTL2    -0.180000       12.0110           0
     30702 MEMB     247      PMPE     H6R      HAL2     0.900000E-01   1.00800           0
     30703 MEMB     247      PMPE     H6S      HAL2     0.900000E-01   1.00800           0
     30704 MEMB     247      PMPE     C27      CTL2    -0.180000       12.0110           0
     30705 MEMB     247      PMPE     H7R      HAL2     0.900000E-01   1.00800           0
     30706 MEMB     247      PMPE     H7S      HAL2     0.900000E-01   1.00800           0
     30707 MEMB     247      PMPE     C28      CTL2    -0.180000       12.0110           0
     30708 MEMB     247      PMPE     H8R      HAL2     0.900000E-01   1.00800           0
     30709 MEMB     247      PMPE     H8S      HAL2     0.900000E-01   1.00800           0
     30710 MEMB     247      PMPE     C29      CG3RC1  -0.900000E-01   12.0110           0
     30711 MEMB     247      PMPE     H9R      HGA1     0.900000E-01   1.00800           0
     30712 MEMB     247      PMPE     C217     CG3C31  -0.180000       12.0110           0
     30713 MEMB     247      PMPE     H17R     HGA2     0.900000E-01   1.00800           0
     30714 MEMB     247      PMPE     H17S     HGA2     0.900000E-01   1.00800           0
     30715 MEMB     247      PMPE     C210     CG3RC1  -0.900000E-01   12.0110           0
     30716 MEMB     247      PMPE     H10R     HGA1     0.900000E-01   1.00800           0
     30717 MEMB     247      PMPE     C211     CTL2    -0.180000       12.0110           0
     30718 MEMB     247      PMPE     H11R     HAL2     0.900000E-01   1.00800           0
     30719 MEMB     247      PMPE     H11S     HAL2     0.900000E-01   1.00800           0
     30720 MEMB     247      PMPE     C212     CTL2    -0.180000       12.0110           0
     30721 MEMB     247      PMPE     H12R     HAL2     0.900000E-01   1.00800           0
     30722 MEMB     247      PMPE     H12S     HAL2     0.900000E-01   1.00800           0
     30723 MEMB     247      PMPE     C213     CTL2    -0.180000       12.0110           0
     30724 MEMB     247      PMPE     H13R     HAL2     0.900000E-01   1.00800           0
     30725 MEMB     247      PMPE     H13S     HAL2     0.900000E-01   1.00800           0
     30726 MEMB     247      PMPE     C214     CTL2    -0.180000       12.0110           0
     30727 MEMB     247      PMPE     H14R     HAL2     0.900000E-01   1.00800           0
     30728 MEMB     247      PMPE     H14S     HAL2     0.900000E-01   1.00800           0
     30729 MEMB     247      PMPE     C215     CTL2    -0.180000       12.0110           0
     30730 MEMB     247      PMPE     H15R     HAL2     0.900000E-01   1.00800           0
     30731 MEMB     247      PMPE     H15S     HAL2     0.900000E-01   1.00800           0
     30732 MEMB     247      PMPE     C216     CTL3    -0.270000       12.0110           0
     30733 MEMB     247      PMPE     H16R     HAL3     0.900000E-01   1.00800           0
     30734 MEMB     247      PMPE     H16S     HAL3     0.900000E-01   1.00800           0
     30735 MEMB     247      PMPE     H16T     HAL3     0.900000E-01   1.00800           0
     30736 MEMB     247      PMPE     C33      CTL2    -0.180000       12.0110           0
     30737 MEMB     247      PMPE     H3X      HAL2     0.900000E-01   1.00800           0
     30738 MEMB     247      PMPE     H3Y      HAL2     0.900000E-01   1.00800           0
     30739 MEMB     247      PMPE     C34      CTL2    -0.180000       12.0110           0
     30740 MEMB     247      PMPE     H4X      HAL2     0.900000E-01   1.00800           0
     30741 MEMB     247      PMPE     H4Y      HAL2     0.900000E-01   1.00800           0
     30742 MEMB     247      PMPE     C35      CTL2    -0.180000       12.0110           0
     30743 MEMB     247      PMPE     H5X      HAL2     0.900000E-01   1.00800           0
     30744 MEMB     247      PMPE     H5Y      HAL2     0.900000E-01   1.00800           0
     30745 MEMB     247      PMPE     C36      CTL2    -0.180000       12.0110           0
     30746 MEMB     247      PMPE     H6X      HAL2     0.900000E-01   1.00800           0
     30747 MEMB     247      PMPE     H6Y      HAL2     0.900000E-01   1.00800           0
     30748 MEMB     247      PMPE     C37      CTL2    -0.180000       12.0110           0
     30749 MEMB     247      PMPE     H7X      HAL2     0.900000E-01   1.00800           0
     30750 MEMB     247      PMPE     H7Y      HAL2     0.900000E-01   1.00800           0
     30751 MEMB     247      PMPE     C38      CTL2    -0.180000       12.0110           0
     30752 MEMB     247      PMPE     H8X      HAL2     0.900000E-01   1.00800           0
     30753 MEMB     247      PMPE     H8Y      HAL2     0.900000E-01   1.00800           0
     30754 MEMB     247      PMPE     C39      CTL2    -0.180000       12.0110           0
     30755 MEMB     247      PMPE     H9X      HAL2     0.900000E-01   1.00800           0
     30756 MEMB     247      PMPE     H9Y      HAL2     0.900000E-01   1.00800           0
     30757 MEMB     247      PMPE     C310     CTL2    -0.180000       12.0110           0
     30758 MEMB     247      PMPE     H10X     HAL2     0.900000E-01   1.00800           0
     30759 MEMB     247      PMPE     H10Y     HAL2     0.900000E-01   1.00800           0
     30760 MEMB     247      PMPE     C311     CTL2    -0.180000       12.0110           0
     30761 MEMB     247      PMPE     H11X     HAL2     0.900000E-01   1.00800           0
     30762 MEMB     247      PMPE     H11Y     HAL2     0.900000E-01   1.00800           0
     30763 MEMB     247      PMPE     C312     CTL2    -0.180000       12.0110           0
     30764 MEMB     247      PMPE     H12X     HAL2     0.900000E-01   1.00800           0
     30765 MEMB     247      PMPE     H12Y     HAL2     0.900000E-01   1.00800           0
     30766 MEMB     247      PMPE     C313     CTL2    -0.180000       12.0110           0
     30767 MEMB     247      PMPE     H13X     HAL2     0.900000E-01   1.00800           0
     30768 MEMB     247      PMPE     H13Y     HAL2     0.900000E-01   1.00800           0
     30769 MEMB     247      PMPE     C314     CTL2    -0.180000       12.0110           0
     30770 MEMB     247      PMPE     H14X     HAL2     0.900000E-01   1.00800           0
     30771 MEMB     247      PMPE     H14Y     HAL2     0.900000E-01   1.00800           0
     30772 MEMB     247      PMPE     C315     CTL2    -0.180000       12.0110           0
     30773 MEMB     247      PMPE     H15X     HAL2     0.900000E-01   1.00800           0
     30774 MEMB     247      PMPE     H15Y     HAL2     0.900000E-01   1.00800           0
     30775 MEMB     247      PMPE     C316     CTL3    -0.270000       12.0110           0
     30776 MEMB     247      PMPE     H16X     HAL3     0.900000E-01   1.00800           0
     30777 MEMB     247      PMPE     H16Y     HAL3     0.900000E-01   1.00800           0
     30778 MEMB     247      PMPE     H16Z     HAL3     0.900000E-01   1.00800           0
     30779 MEMB     248      PMPE     N        NH3L    -0.300000       14.0070           0
     30780 MEMB     248      PMPE     HN1      HCL      0.330000       1.00800           0
     30781 MEMB     248      PMPE     HN2      HCL      0.330000       1.00800           0
     30782 MEMB     248      PMPE     HN3      HCL      0.330000       1.00800           0
     30783 MEMB     248      PMPE     C12      CTL2     0.130000       12.0110           0
     30784 MEMB     248      PMPE     H12A     HAL2     0.900000E-01   1.00800           0
     30785 MEMB     248      PMPE     H12B     HAL2     0.900000E-01   1.00800           0
     30786 MEMB     248      PMPE     C11      CTL2    -0.800000E-01   12.0110           0
     30787 MEMB     248      PMPE     H11A     HAL2     0.900000E-01   1.00800           0
     30788 MEMB     248      PMPE     H11B     HAL2     0.900000E-01   1.00800           0
     30789 MEMB     248      PMPE     P        PL        1.50000       30.9740           0
     30790 MEMB     248      PMPE     O13      O2L     -0.780000       15.9994           0
     30791 MEMB     248      PMPE     O14      O2L     -0.780000       15.9994           0
     30792 MEMB     248      PMPE     O11      OSLP    -0.570000       15.9994           0
     30793 MEMB     248      PMPE     O12      OSLP    -0.570000       15.9994           0
     30794 MEMB     248      PMPE     C1       CTL2    -0.800000E-01   12.0110           0
     30795 MEMB     248      PMPE     HA       HAL2     0.900000E-01   1.00800           0
     30796 MEMB     248      PMPE     HB       HAL2     0.900000E-01   1.00800           0
     30797 MEMB     248      PMPE     C2       CTL1     0.170000       12.0110           0
     30798 MEMB     248      PMPE     HS       HAL1     0.900000E-01   1.00800           0
     30799 MEMB     248      PMPE     O21      OSL     -0.490000       15.9994           0
     30800 MEMB     248      PMPE     C21      CL       0.900000       12.0110           0
     30801 MEMB     248      PMPE     O22      OBL     -0.630000       15.9994           0
     30802 MEMB     248      PMPE     C22      CTL2    -0.220000       12.0110           0
     30803 MEMB     248      PMPE     H2R      HAL2     0.900000E-01   1.00800           0
     30804 MEMB     248      PMPE     H2S      HAL2     0.900000E-01   1.00800           0
     30805 MEMB     248      PMPE     C3       CTL2     0.800000E-01   12.0110           0
     30806 MEMB     248      PMPE     HX       HAL2     0.900000E-01   1.00800           0
     30807 MEMB     248      PMPE     HY       HAL2     0.900000E-01   1.00800           0
     30808 MEMB     248      PMPE     O31      OSL     -0.490000       15.9994           0
     30809 MEMB     248      PMPE     C31      CL       0.900000       12.0110           0
     30810 MEMB     248      PMPE     O32      OBL     -0.630000       15.9994           0
     30811 MEMB     248      PMPE     C32      CTL2    -0.220000       12.0110           0
     30812 MEMB     248      PMPE     H2X      HAL2     0.900000E-01   1.00800           0
     30813 MEMB     248      PMPE     H2Y      HAL2     0.900000E-01   1.00800           0
     30814 MEMB     248      PMPE     C23      CTL2    -0.180000       12.0110           0
     30815 MEMB     248      PMPE     H3R      HAL2     0.900000E-01   1.00800           0
     30816 MEMB     248      PMPE     H3S      HAL2     0.900000E-01   1.00800           0
     30817 MEMB     248      PMPE     C24      CTL2    -0.180000       12.0110           0
     30818 MEMB     248      PMPE     H4R      HAL2     0.900000E-01   1.00800           0
     30819 MEMB     248      PMPE     H4S      HAL2     0.900000E-01   1.00800           0
     30820 MEMB     248      PMPE     C25      CTL2    -0.180000       12.0110           0
     30821 MEMB     248      PMPE     H5R      HAL2     0.900000E-01   1.00800           0
     30822 MEMB     248      PMPE     H5S      HAL2     0.900000E-01   1.00800           0
     30823 MEMB     248      PMPE     C26      CTL2    -0.180000       12.0110           0
     30824 MEMB     248      PMPE     H6R      HAL2     0.900000E-01   1.00800           0
     30825 MEMB     248      PMPE     H6S      HAL2     0.900000E-01   1.00800           0
     30826 MEMB     248      PMPE     C27      CTL2    -0.180000       12.0110           0
     30827 MEMB     248      PMPE     H7R      HAL2     0.900000E-01   1.00800           0
     30828 MEMB     248      PMPE     H7S      HAL2     0.900000E-01   1.00800           0
     30829 MEMB     248      PMPE     C28      CTL2    -0.180000       12.0110           0
     30830 MEMB     248      PMPE     H8R      HAL2     0.900000E-01   1.00800           0
     30831 MEMB     248      PMPE     H8S      HAL2     0.900000E-01   1.00800           0
     30832 MEMB     248      PMPE     C29      CG3RC1  -0.900000E-01   12.0110           0
     30833 MEMB     248      PMPE     H9R      HGA1     0.900000E-01   1.00800           0
     30834 MEMB     248      PMPE     C217     CG3C31  -0.180000       12.0110           0
     30835 MEMB     248      PMPE     H17R     HGA2     0.900000E-01   1.00800           0
     30836 MEMB     248      PMPE     H17S     HGA2     0.900000E-01   1.00800           0
     30837 MEMB     248      PMPE     C210     CG3RC1  -0.900000E-01   12.0110           0
     30838 MEMB     248      PMPE     H10R     HGA1     0.900000E-01   1.00800           0
     30839 MEMB     248      PMPE     C211     CTL2    -0.180000       12.0110           0
     30840 MEMB     248      PMPE     H11R     HAL2     0.900000E-01   1.00800           0
     30841 MEMB     248      PMPE     H11S     HAL2     0.900000E-01   1.00800           0
     30842 MEMB     248      PMPE     C212     CTL2    -0.180000       12.0110           0
     30843 MEMB     248      PMPE     H12R     HAL2     0.900000E-01   1.00800           0
     30844 MEMB     248      PMPE     H12S     HAL2     0.900000E-01   1.00800           0
     30845 MEMB     248      PMPE     C213     CTL2    -0.180000       12.0110           0
     30846 MEMB     248      PMPE     H13R     HAL2     0.900000E-01   1.00800           0
     30847 MEMB     248      PMPE     H13S     HAL2     0.900000E-01   1.00800           0
     30848 MEMB     248      PMPE     C214     CTL2    -0.180000       12.0110           0
     30849 MEMB     248      PMPE     H14R     HAL2     0.900000E-01   1.00800           0
     30850 MEMB     248      PMPE     H14S     HAL2     0.900000E-01   1.00800           0
     30851 MEMB     248      PMPE     C215     CTL2    -0.180000       12.0110           0
     30852 MEMB     248      PMPE     H15R     HAL2     0.900000E-01   1.00800           0
     30853 MEMB     248      PMPE     H15S     HAL2     0.900000E-01   1.00800           0
     30854 MEMB     248      PMPE     C216     CTL3    -0.270000       12.0110           0
     30855 MEMB     248      PMPE     H16R     HAL3     0.900000E-01   1.00800           0
     30856 MEMB     248      PMPE     H16S     HAL3     0.900000E-01   1.00800           0
     30857 MEMB     248      PMPE     H16T     HAL3     0.900000E-01   1.00800           0
     30858 MEMB     248      PMPE     C33      CTL2    -0.180000       12.0110           0
     30859 MEMB     248      PMPE     H3X      HAL2     0.900000E-01   1.00800           0
     30860 MEMB     248      PMPE     H3Y      HAL2     0.900000E-01   1.00800           0
     30861 MEMB     248      PMPE     C34      CTL2    -0.180000       12.0110           0
     30862 MEMB     248      PMPE     H4X      HAL2     0.900000E-01   1.00800           0
     30863 MEMB     248      PMPE     H4Y      HAL2     0.900000E-01   1.00800           0
     30864 MEMB     248      PMPE     C35      CTL2    -0.180000       12.0110           0
     30865 MEMB     248      PMPE     H5X      HAL2     0.900000E-01   1.00800           0
     30866 MEMB     248      PMPE     H5Y      HAL2     0.900000E-01   1.00800           0
     30867 MEMB     248      PMPE     C36      CTL2    -0.180000       12.0110           0
     30868 MEMB     248      PMPE     H6X      HAL2     0.900000E-01   1.00800           0
     30869 MEMB     248      PMPE     H6Y      HAL2     0.900000E-01   1.00800           0
     30870 MEMB     248      PMPE     C37      CTL2    -0.180000       12.0110           0
     30871 MEMB     248      PMPE     H7X      HAL2     0.900000E-01   1.00800           0
     30872 MEMB     248      PMPE     H7Y      HAL2     0.900000E-01   1.00800           0
     30873 MEMB     248      PMPE     C38      CTL2    -0.180000       12.0110           0
     30874 MEMB     248      PMPE     H8X      HAL2     0.900000E-01   1.00800           0
     30875 MEMB     248      PMPE     H8Y      HAL2     0.900000E-01   1.00800           0
     30876 MEMB     248      PMPE     C39      CTL2    -0.180000       12.0110           0
     30877 MEMB     248      PMPE     H9X      HAL2     0.900000E-01   1.00800           0
     30878 MEMB     248      PMPE     H9Y      HAL2     0.900000E-01   1.00800           0
     30879 MEMB     248      PMPE     C310     CTL2    -0.180000       12.0110           0
     30880 MEMB     248      PMPE     H10X     HAL2     0.900000E-01   1.00800           0
     30881 MEMB     248      PMPE     H10Y     HAL2     0.900000E-01   1.00800           0
     30882 MEMB     248      PMPE     C311     CTL2    -0.180000       12.0110           0
     30883 MEMB     248      PMPE     H11X     HAL2     0.900000E-01   1.00800           0
     30884 MEMB     248      PMPE     H11Y     HAL2     0.900000E-01   1.00800           0
     30885 MEMB     248      PMPE     C312     CTL2    -0.180000       12.0110           0
     30886 MEMB     248      PMPE     H12X     HAL2     0.900000E-01   1.00800           0
     30887 MEMB     248      PMPE     H12Y     HAL2     0.900000E-01   1.00800           0
     30888 MEMB     248      PMPE     C313     CTL2    -0.180000       12.0110           0
     30889 MEMB     248      PMPE     H13X     HAL2     0.900000E-01   1.00800           0
     30890 MEMB     248      PMPE     H13Y     HAL2     0.900000E-01   1.00800           0
     30891 MEMB     248      PMPE     C314     CTL2    -0.180000       12.0110           0
     30892 MEMB     248      PMPE     H14X     HAL2     0.900000E-01   1.00800           0
     30893 MEMB     248      PMPE     H14Y     HAL2     0.900000E-01   1.00800           0
     30894 MEMB     248      PMPE     C315     CTL2    -0.180000       12.0110           0
     30895 MEMB     248      PMPE     H15X     HAL2     0.900000E-01   1.00800           0
     30896 MEMB     248      PMPE     H15Y     HAL2     0.900000E-01   1.00800           0
     30897 MEMB     248      PMPE     C316     CTL3    -0.270000       12.0110           0
     30898 MEMB     248      PMPE     H16X     HAL3     0.900000E-01   1.00800           0
     30899 MEMB     248      PMPE     H16Y     HAL3     0.900000E-01   1.00800           0
     30900 MEMB     248      PMPE     H16Z     HAL3     0.900000E-01   1.00800           0
     30901 MEMB     249      PMPE     N        NH3L    -0.300000       14.0070           0
     30902 MEMB     249      PMPE     HN1      HCL      0.330000       1.00800           0
     30903 MEMB     249      PMPE     HN2      HCL      0.330000       1.00800           0
     30904 MEMB     249      PMPE     HN3      HCL      0.330000       1.00800           0
     30905 MEMB     249      PMPE     C12      CTL2     0.130000       12.0110           0
     30906 MEMB     249      PMPE     H12A     HAL2     0.900000E-01   1.00800           0
     30907 MEMB     249      PMPE     H12B     HAL2     0.900000E-01   1.00800           0
     30908 MEMB     249      PMPE     C11      CTL2    -0.800000E-01   12.0110           0
     30909 MEMB     249      PMPE     H11A     HAL2     0.900000E-01   1.00800           0
     30910 MEMB     249      PMPE     H11B     HAL2     0.900000E-01   1.00800           0
     30911 MEMB     249      PMPE     P        PL        1.50000       30.9740           0
     30912 MEMB     249      PMPE     O13      O2L     -0.780000       15.9994           0
     30913 MEMB     249      PMPE     O14      O2L     -0.780000       15.9994           0
     30914 MEMB     249      PMPE     O11      OSLP    -0.570000       15.9994           0
     30915 MEMB     249      PMPE     O12      OSLP    -0.570000       15.9994           0
     30916 MEMB     249      PMPE     C1       CTL2    -0.800000E-01   12.0110           0
     30917 MEMB     249      PMPE     HA       HAL2     0.900000E-01   1.00800           0
     30918 MEMB     249      PMPE     HB       HAL2     0.900000E-01   1.00800           0
     30919 MEMB     249      PMPE     C2       CTL1     0.170000       12.0110           0
     30920 MEMB     249      PMPE     HS       HAL1     0.900000E-01   1.00800           0
     30921 MEMB     249      PMPE     O21      OSL     -0.490000       15.9994           0
     30922 MEMB     249      PMPE     C21      CL       0.900000       12.0110           0
     30923 MEMB     249      PMPE     O22      OBL     -0.630000       15.9994           0
     30924 MEMB     249      PMPE     C22      CTL2    -0.220000       12.0110           0
     30925 MEMB     249      PMPE     H2R      HAL2     0.900000E-01   1.00800           0
     30926 MEMB     249      PMPE     H2S      HAL2     0.900000E-01   1.00800           0
     30927 MEMB     249      PMPE     C3       CTL2     0.800000E-01   12.0110           0
     30928 MEMB     249      PMPE     HX       HAL2     0.900000E-01   1.00800           0
     30929 MEMB     249      PMPE     HY       HAL2     0.900000E-01   1.00800           0
     30930 MEMB     249      PMPE     O31      OSL     -0.490000       15.9994           0
     30931 MEMB     249      PMPE     C31      CL       0.900000       12.0110           0
     30932 MEMB     249      PMPE     O32      OBL     -0.630000       15.9994           0
     30933 MEMB     249      PMPE     C32      CTL2    -0.220000       12.0110           0
     30934 MEMB     249      PMPE     H2X      HAL2     0.900000E-01   1.00800           0
     30935 MEMB     249      PMPE     H2Y      HAL2     0.900000E-01   1.00800           0
     30936 MEMB     249      PMPE     C23      CTL2    -0.180000       12.0110           0
     30937 MEMB     249      PMPE     H3R      HAL2     0.900000E-01   1.00800           0
     30938 MEMB     249      PMPE     H3S      HAL2     0.900000E-01   1.00800           0
     30939 MEMB     249      PMPE     C24      CTL2    -0.180000       12.0110           0
     30940 MEMB     249      PMPE     H4R      HAL2     0.900000E-01   1.00800           0
     30941 MEMB     249      PMPE     H4S      HAL2     0.900000E-01   1.00800           0
     30942 MEMB     249      PMPE     C25      CTL2    -0.180000       12.0110           0
     30943 MEMB     249      PMPE     H5R      HAL2     0.900000E-01   1.00800           0
     30944 MEMB     249      PMPE     H5S      HAL2     0.900000E-01   1.00800           0
     30945 MEMB     249      PMPE     C26      CTL2    -0.180000       12.0110           0
     30946 MEMB     249      PMPE     H6R      HAL2     0.900000E-01   1.00800           0
     30947 MEMB     249      PMPE     H6S      HAL2     0.900000E-01   1.00800           0
     30948 MEMB     249      PMPE     C27      CTL2    -0.180000       12.0110           0
     30949 MEMB     249      PMPE     H7R      HAL2     0.900000E-01   1.00800           0
     30950 MEMB     249      PMPE     H7S      HAL2     0.900000E-01   1.00800           0
     30951 MEMB     249      PMPE     C28      CTL2    -0.180000       12.0110           0
     30952 MEMB     249      PMPE     H8R      HAL2     0.900000E-01   1.00800           0
     30953 MEMB     249      PMPE     H8S      HAL2     0.900000E-01   1.00800           0
     30954 MEMB     249      PMPE     C29      CG3RC1  -0.900000E-01   12.0110           0
     30955 MEMB     249      PMPE     H9R      HGA1     0.900000E-01   1.00800           0
     30956 MEMB     249      PMPE     C217     CG3C31  -0.180000       12.0110           0
     30957 MEMB     249      PMPE     H17R     HGA2     0.900000E-01   1.00800           0
     30958 MEMB     249      PMPE     H17S     HGA2     0.900000E-01   1.00800           0
     30959 MEMB     249      PMPE     C210     CG3RC1  -0.900000E-01   12.0110           0
     30960 MEMB     249      PMPE     H10R     HGA1     0.900000E-01   1.00800           0
     30961 MEMB     249      PMPE     C211     CTL2    -0.180000       12.0110           0
     30962 MEMB     249      PMPE     H11R     HAL2     0.900000E-01   1.00800           0
     30963 MEMB     249      PMPE     H11S     HAL2     0.900000E-01   1.00800           0
     30964 MEMB     249      PMPE     C212     CTL2    -0.180000       12.0110           0
     30965 MEMB     249      PMPE     H12R     HAL2     0.900000E-01   1.00800           0
     30966 MEMB     249      PMPE     H12S     HAL2     0.900000E-01   1.00800           0
     30967 MEMB     249      PMPE     C213     CTL2    -0.180000       12.0110           0
     30968 MEMB     249      PMPE     H13R     HAL2     0.900000E-01   1.00800           0
     30969 MEMB     249      PMPE     H13S     HAL2     0.900000E-01   1.00800           0
     30970 MEMB     249      PMPE     C214     CTL2    -0.180000       12.0110           0
     30971 MEMB     249      PMPE     H14R     HAL2     0.900000E-01   1.00800           0
     30972 MEMB     249      PMPE     H14S     HAL2     0.900000E-01   1.00800           0
     30973 MEMB     249      PMPE     C215     CTL2    -0.180000       12.0110           0
     30974 MEMB     249      PMPE     H15R     HAL2     0.900000E-01   1.00800           0
     30975 MEMB     249      PMPE     H15S     HAL2     0.900000E-01   1.00800           0
     30976 MEMB     249      PMPE     C216     CTL3    -0.270000       12.0110           0
     30977 MEMB     249      PMPE     H16R     HAL3     0.900000E-01   1.00800           0
     30978 MEMB     249      PMPE     H16S     HAL3     0.900000E-01   1.00800           0
     30979 MEMB     249      PMPE     H16T     HAL3     0.900000E-01   1.00800           0
     30980 MEMB     249      PMPE     C33      CTL2    -0.180000       12.0110           0
     30981 MEMB     249      PMPE     H3X      HAL2     0.900000E-01   1.00800           0
     30982 MEMB     249      PMPE     H3Y      HAL2     0.900000E-01   1.00800           0
     30983 MEMB     249      PMPE     C34      CTL2    -0.180000       12.0110           0
     30984 MEMB     249      PMPE     H4X      HAL2     0.900000E-01   1.00800           0
     30985 MEMB     249      PMPE     H4Y      HAL2     0.900000E-01   1.00800           0
     30986 MEMB     249      PMPE     C35      CTL2    -0.180000       12.0110           0
     30987 MEMB     249      PMPE     H5X      HAL2     0.900000E-01   1.00800           0
     30988 MEMB     249      PMPE     H5Y      HAL2     0.900000E-01   1.00800           0
     30989 MEMB     249      PMPE     C36      CTL2    -0.180000       12.0110           0
     30990 MEMB     249      PMPE     H6X      HAL2     0.900000E-01   1.00800           0
     30991 MEMB     249      PMPE     H6Y      HAL2     0.900000E-01   1.00800           0
     30992 MEMB     249      PMPE     C37      CTL2    -0.180000       12.0110           0
     30993 MEMB     249      PMPE     H7X      HAL2     0.900000E-01   1.00800           0
     30994 MEMB     249      PMPE     H7Y      HAL2     0.900000E-01   1.00800           0
     30995 MEMB     249      PMPE     C38      CTL2    -0.180000       12.0110           0
     30996 MEMB     249      PMPE     H8X      HAL2     0.900000E-01   1.00800           0
     30997 MEMB     249      PMPE     H8Y      HAL2     0.900000E-01   1.00800           0
     30998 MEMB     249      PMPE     C39      CTL2    -0.180000       12.0110           0
     30999 MEMB     249      PMPE     H9X      HAL2     0.900000E-01   1.00800           0
     31000 MEMB     249      PMPE     H9Y      HAL2     0.900000E-01   1.00800           0
     31001 MEMB     249      PMPE     C310     CTL2    -0.180000       12.0110           0
     31002 MEMB     249      PMPE     H10X     HAL2     0.900000E-01   1.00800           0
     31003 MEMB     249      PMPE     H10Y     HAL2     0.900000E-01   1.00800           0
     31004 MEMB     249      PMPE     C311     CTL2    -0.180000       12.0110           0
     31005 MEMB     249      PMPE     H11X     HAL2     0.900000E-01   1.00800           0
     31006 MEMB     249      PMPE     H11Y     HAL2     0.900000E-01   1.00800           0
     31007 MEMB     249      PMPE     C312     CTL2    -0.180000       12.0110           0
     31008 MEMB     249      PMPE     H12X     HAL2     0.900000E-01   1.00800           0
     31009 MEMB     249      PMPE     H12Y     HAL2     0.900000E-01   1.00800           0
     31010 MEMB     249      PMPE     C313     CTL2    -0.180000       12.0110           0
     31011 MEMB     249      PMPE     H13X     HAL2     0.900000E-01   1.00800           0
     31012 MEMB     249      PMPE     H13Y     HAL2     0.900000E-01   1.00800           0
     31013 MEMB     249      PMPE     C314     CTL2    -0.180000       12.0110           0
     31014 MEMB     249      PMPE     H14X     HAL2     0.900000E-01   1.00800           0
     31015 MEMB     249      PMPE     H14Y     HAL2     0.900000E-01   1.00800           0
     31016 MEMB     249      PMPE     C315     CTL2    -0.180000       12.0110           0
     31017 MEMB     249      PMPE     H15X     HAL2     0.900000E-01   1.00800           0
     31018 MEMB     249      PMPE     H15Y     HAL2     0.900000E-01   1.00800           0
     31019 MEMB     249      PMPE     C316     CTL3    -0.270000       12.0110           0
     31020 MEMB     249      PMPE     H16X     HAL3     0.900000E-01   1.00800           0
     31021 MEMB     249      PMPE     H16Y     HAL3     0.900000E-01   1.00800           0
     31022 MEMB     249      PMPE     H16Z     HAL3     0.900000E-01   1.00800           0
     31023 MEMB     250      POPE     N        NH3L    -0.300000       14.0070           0
     31024 MEMB     250      POPE     HN1      HCL      0.330000       1.00800           0
     31025 MEMB     250      POPE     HN2      HCL      0.330000       1.00800           0
     31026 MEMB     250      POPE     HN3      HCL      0.330000       1.00800           0
     31027 MEMB     250      POPE     C12      CTL2     0.130000       12.0110           0
     31028 MEMB     250      POPE     H12A     HAL2     0.900000E-01   1.00800           0
     31029 MEMB     250      POPE     H12B     HAL2     0.900000E-01   1.00800           0
     31030 MEMB     250      POPE     C11      CTL2    -0.800000E-01   12.0110           0
     31031 MEMB     250      POPE     H11A     HAL2     0.900000E-01   1.00800           0
     31032 MEMB     250      POPE     H11B     HAL2     0.900000E-01   1.00800           0
     31033 MEMB     250      POPE     P        PL        1.50000       30.9740           0
     31034 MEMB     250      POPE     O13      O2L     -0.780000       15.9994           0
     31035 MEMB     250      POPE     O14      O2L     -0.780000       15.9994           0
     31036 MEMB     250      POPE     O11      OSLP    -0.570000       15.9994           0
     31037 MEMB     250      POPE     O12      OSLP    -0.570000       15.9994           0
     31038 MEMB     250      POPE     C1       CTL2    -0.800000E-01   12.0110           0
     31039 MEMB     250      POPE     HA       HAL2     0.900000E-01   1.00800           0
     31040 MEMB     250      POPE     HB       HAL2     0.900000E-01   1.00800           0
     31041 MEMB     250      POPE     C2       CTL1     0.170000       12.0110           0
     31042 MEMB     250      POPE     HS       HAL1     0.900000E-01   1.00800           0
     31043 MEMB     250      POPE     O21      OSL     -0.490000       15.9994           0
     31044 MEMB     250      POPE     C21      CL       0.900000       12.0110           0
     31045 MEMB     250      POPE     O22      OBL     -0.630000       15.9994           0
     31046 MEMB     250      POPE     C22      CTL2    -0.220000       12.0110           0
     31047 MEMB     250      POPE     H2R      HAL2     0.900000E-01   1.00800           0
     31048 MEMB     250      POPE     H2S      HAL2     0.900000E-01   1.00800           0
     31049 MEMB     250      POPE     C3       CTL2     0.800000E-01   12.0110           0
     31050 MEMB     250      POPE     HX       HAL2     0.900000E-01   1.00800           0
     31051 MEMB     250      POPE     HY       HAL2     0.900000E-01   1.00800           0
     31052 MEMB     250      POPE     O31      OSL     -0.490000       15.9994           0
     31053 MEMB     250      POPE     C31      CL       0.900000       12.0110           0
     31054 MEMB     250      POPE     O32      OBL     -0.630000       15.9994           0
     31055 MEMB     250      POPE     C32      CTL2    -0.220000       12.0110           0
     31056 MEMB     250      POPE     H2X      HAL2     0.900000E-01   1.00800           0
     31057 MEMB     250      POPE     H2Y      HAL2     0.900000E-01   1.00800           0
     31058 MEMB     250      POPE     C23      CTL2    -0.180000       12.0110           0
     31059 MEMB     250      POPE     H3R      HAL2     0.900000E-01   1.00800           0
     31060 MEMB     250      POPE     H3S      HAL2     0.900000E-01   1.00800           0
     31061 MEMB     250      POPE     C24      CTL2    -0.180000       12.0110           0
     31062 MEMB     250      POPE     H4R      HAL2     0.900000E-01   1.00800           0
     31063 MEMB     250      POPE     H4S      HAL2     0.900000E-01   1.00800           0
     31064 MEMB     250      POPE     C25      CTL2    -0.180000       12.0110           0
     31065 MEMB     250      POPE     H5R      HAL2     0.900000E-01   1.00800           0
     31066 MEMB     250      POPE     H5S      HAL2     0.900000E-01   1.00800           0
     31067 MEMB     250      POPE     C26      CTL2    -0.180000       12.0110           0
     31068 MEMB     250      POPE     H6R      HAL2     0.900000E-01   1.00800           0
     31069 MEMB     250      POPE     H6S      HAL2     0.900000E-01   1.00800           0
     31070 MEMB     250      POPE     C27      CTL2    -0.180000       12.0110           0
     31071 MEMB     250      POPE     H7R      HAL2     0.900000E-01   1.00800           0
     31072 MEMB     250      POPE     H7S      HAL2     0.900000E-01   1.00800           0
     31073 MEMB     250      POPE     C28      CTL2    -0.180000       12.0110           0
     31074 MEMB     250      POPE     H8R      HAL2     0.900000E-01   1.00800           0
     31075 MEMB     250      POPE     H8S      HAL2     0.900000E-01   1.00800           0
     31076 MEMB     250      POPE     C29      CEL1    -0.150000       12.0110           0
     31077 MEMB     250      POPE     H91      HEL1     0.150000       1.00800           0
     31078 MEMB     250      POPE     C210     CEL1    -0.150000       12.0110           0
     31079 MEMB     250      POPE     H101     HEL1     0.150000       1.00800           0
     31080 MEMB     250      POPE     C211     CTL2    -0.180000       12.0110           0
     31081 MEMB     250      POPE     H11R     HAL2     0.900000E-01   1.00800           0
     31082 MEMB     250      POPE     H11S     HAL2     0.900000E-01   1.00800           0
     31083 MEMB     250      POPE     C212     CTL2    -0.180000       12.0110           0
     31084 MEMB     250      POPE     H12R     HAL2     0.900000E-01   1.00800           0
     31085 MEMB     250      POPE     H12S     HAL2     0.900000E-01   1.00800           0
     31086 MEMB     250      POPE     C213     CTL2    -0.180000       12.0110           0
     31087 MEMB     250      POPE     H13R     HAL2     0.900000E-01   1.00800           0
     31088 MEMB     250      POPE     H13S     HAL2     0.900000E-01   1.00800           0
     31089 MEMB     250      POPE     C214     CTL2    -0.180000       12.0110           0
     31090 MEMB     250      POPE     H14R     HAL2     0.900000E-01   1.00800           0
     31091 MEMB     250      POPE     H14S     HAL2     0.900000E-01   1.00800           0
     31092 MEMB     250      POPE     C215     CTL2    -0.180000       12.0110           0
     31093 MEMB     250      POPE     H15R     HAL2     0.900000E-01   1.00800           0
     31094 MEMB     250      POPE     H15S     HAL2     0.900000E-01   1.00800           0
     31095 MEMB     250      POPE     C216     CTL2    -0.180000       12.0110           0
     31096 MEMB     250      POPE     H16R     HAL2     0.900000E-01   1.00800           0
     31097 MEMB     250      POPE     H16S     HAL2     0.900000E-01   1.00800           0
     31098 MEMB     250      POPE     C217     CTL2    -0.180000       12.0110           0
     31099 MEMB     250      POPE     H17R     HAL2     0.900000E-01   1.00800           0
     31100 MEMB     250      POPE     H17S     HAL2     0.900000E-01   1.00800           0
     31101 MEMB     250      POPE     C218     CTL3    -0.270000       12.0110           0
     31102 MEMB     250      POPE     H18R     HAL3     0.900000E-01   1.00800           0
     31103 MEMB     250      POPE     H18S     HAL3     0.900000E-01   1.00800           0
     31104 MEMB     250      POPE     H18T     HAL3     0.900000E-01   1.00800           0
     31105 MEMB     250      POPE     C33      CTL2    -0.180000       12.0110           0
     31106 MEMB     250      POPE     H3X      HAL2     0.900000E-01   1.00800           0
     31107 MEMB     250      POPE     H3Y      HAL2     0.900000E-01   1.00800           0
     31108 MEMB     250      POPE     C34      CTL2    -0.180000       12.0110           0
     31109 MEMB     250      POPE     H4X      HAL2     0.900000E-01   1.00800           0
     31110 MEMB     250      POPE     H4Y      HAL2     0.900000E-01   1.00800           0
     31111 MEMB     250      POPE     C35      CTL2    -0.180000       12.0110           0
     31112 MEMB     250      POPE     H5X      HAL2     0.900000E-01   1.00800           0
     31113 MEMB     250      POPE     H5Y      HAL2     0.900000E-01   1.00800           0
     31114 MEMB     250      POPE     C36      CTL2    -0.180000       12.0110           0
     31115 MEMB     250      POPE     H6X      HAL2     0.900000E-01   1.00800           0
     31116 MEMB     250      POPE     H6Y      HAL2     0.900000E-01   1.00800           0
     31117 MEMB     250      POPE     C37      CTL2    -0.180000       12.0110           0
     31118 MEMB     250      POPE     H7X      HAL2     0.900000E-01   1.00800           0
     31119 MEMB     250      POPE     H7Y      HAL2     0.900000E-01   1.00800           0
     31120 MEMB     250      POPE     C38      CTL2    -0.180000       12.0110           0
     31121 MEMB     250      POPE     H8X      HAL2     0.900000E-01   1.00800           0
     31122 MEMB     250      POPE     H8Y      HAL2     0.900000E-01   1.00800           0
     31123 MEMB     250      POPE     C39      CTL2    -0.180000       12.0110           0
     31124 MEMB     250      POPE     H9X      HAL2     0.900000E-01   1.00800           0
     31125 MEMB     250      POPE     H9Y      HAL2     0.900000E-01   1.00800           0
     31126 MEMB     250      POPE     C310     CTL2    -0.180000       12.0110           0
     31127 MEMB     250      POPE     H10X     HAL2     0.900000E-01   1.00800           0
     31128 MEMB     250      POPE     H10Y     HAL2     0.900000E-01   1.00800           0
     31129 MEMB     250      POPE     C311     CTL2    -0.180000       12.0110           0
     31130 MEMB     250      POPE     H11X     HAL2     0.900000E-01   1.00800           0
     31131 MEMB     250      POPE     H11Y     HAL2     0.900000E-01   1.00800           0
     31132 MEMB     250      POPE     C312     CTL2    -0.180000       12.0110           0
     31133 MEMB     250      POPE     H12X     HAL2     0.900000E-01   1.00800           0
     31134 MEMB     250      POPE     H12Y     HAL2     0.900000E-01   1.00800           0
     31135 MEMB     250      POPE     C313     CTL2    -0.180000       12.0110           0
     31136 MEMB     250      POPE     H13X     HAL2     0.900000E-01   1.00800           0
     31137 MEMB     250      POPE     H13Y     HAL2     0.900000E-01   1.00800           0
     31138 MEMB     250      POPE     C314     CTL2    -0.180000       12.0110           0
     31139 MEMB     250      POPE     H14X     HAL2     0.900000E-01   1.00800           0
     31140 MEMB     250      POPE     H14Y     HAL2     0.900000E-01   1.00800           0
     31141 MEMB     250      POPE     C315     CTL2    -0.180000       12.0110           0
     31142 MEMB     250      POPE     H15X     HAL2     0.900000E-01   1.00800           0
     31143 MEMB     250      POPE     H15Y     HAL2     0.900000E-01   1.00800           0
     31144 MEMB     250      POPE     C316     CTL3    -0.270000       12.0110           0
     31145 MEMB     250      POPE     H16X     HAL3     0.900000E-01   1.00800           0
     31146 MEMB     250      POPE     H16Y     HAL3     0.900000E-01   1.00800           0
     31147 MEMB     250      POPE     H16Z     HAL3     0.900000E-01   1.00800           0
     31148 MEMB     251      PMPG     C13      CTL2     0.500000E-01   12.0110           0
     31149 MEMB     251      PMPG     H13A     HAL2     0.900000E-01   1.00800           0
     31150 MEMB     251      PMPG     H13B     HAL2     0.900000E-01   1.00800           0
     31151 MEMB     251      PMPG     OC3      OHL     -0.660000       15.9994           0
     31152 MEMB     251      PMPG     HO3      HOL      0.430000       1.00800           0
     31153 MEMB     251      PMPG     C12      CTL1     0.140000       12.0110           0
     31154 MEMB     251      PMPG     H12A     HAL1     0.900000E-01   1.00800           0
     31155 MEMB     251      PMPG     OC2      OHL     -0.660000       15.9994           0
     31156 MEMB     251      PMPG     HO2      HOL      0.430000       1.00800           0
     31157 MEMB     251      PMPG     C11      CTL2    -0.800000E-01   12.0110           0
     31158 MEMB     251      PMPG     H11A     HAL2     0.900000E-01   1.00800           0
     31159 MEMB     251      PMPG     H11B     HAL2     0.900000E-01   1.00800           0
     31160 MEMB     251      PMPG     P        PL        1.50000       30.9740           0
     31161 MEMB     251      PMPG     O13      O2L     -0.780000       15.9994           0
     31162 MEMB     251      PMPG     O14      O2L     -0.780000       15.9994           0
     31163 MEMB     251      PMPG     O11      OSLP    -0.570000       15.9994           0
     31164 MEMB     251      PMPG     O12      OSLP    -0.570000       15.9994           0
     31165 MEMB     251      PMPG     C1       CTL2    -0.800000E-01   12.0110           0
     31166 MEMB     251      PMPG     HA       HAL2     0.900000E-01   1.00800           0
     31167 MEMB     251      PMPG     HB       HAL2     0.900000E-01   1.00800           0
     31168 MEMB     251      PMPG     C2       CTL1     0.170000       12.0110           0
     31169 MEMB     251      PMPG     HS       HAL1     0.900000E-01   1.00800           0
     31170 MEMB     251      PMPG     O21      OSL     -0.490000       15.9994           0
     31171 MEMB     251      PMPG     C21      CL       0.900000       12.0110           0
     31172 MEMB     251      PMPG     O22      OBL     -0.630000       15.9994           0
     31173 MEMB     251      PMPG     C22      CTL2    -0.220000       12.0110           0
     31174 MEMB     251      PMPG     H2R      HAL2     0.900000E-01   1.00800           0
     31175 MEMB     251      PMPG     H2S      HAL2     0.900000E-01   1.00800           0
     31176 MEMB     251      PMPG     C3       CTL2     0.800000E-01   12.0110           0
     31177 MEMB     251      PMPG     HX       HAL2     0.900000E-01   1.00800           0
     31178 MEMB     251      PMPG     HY       HAL2     0.900000E-01   1.00800           0
     31179 MEMB     251      PMPG     O31      OSL     -0.490000       15.9994           0
     31180 MEMB     251      PMPG     C31      CL       0.900000       12.0110           0
     31181 MEMB     251      PMPG     O32      OBL     -0.630000       15.9994           0
     31182 MEMB     251      PMPG     C32      CTL2    -0.220000       12.0110           0
     31183 MEMB     251      PMPG     H2X      HAL2     0.900000E-01   1.00800           0
     31184 MEMB     251      PMPG     H2Y      HAL2     0.900000E-01   1.00800           0
     31185 MEMB     251      PMPG     C23      CTL2    -0.180000       12.0110           0
     31186 MEMB     251      PMPG     H3R      HAL2     0.900000E-01   1.00800           0
     31187 MEMB     251      PMPG     H3S      HAL2     0.900000E-01   1.00800           0
     31188 MEMB     251      PMPG     C24      CTL2    -0.180000       12.0110           0
     31189 MEMB     251      PMPG     H4R      HAL2     0.900000E-01   1.00800           0
     31190 MEMB     251      PMPG     H4S      HAL2     0.900000E-01   1.00800           0
     31191 MEMB     251      PMPG     C25      CTL2    -0.180000       12.0110           0
     31192 MEMB     251      PMPG     H5R      HAL2     0.900000E-01   1.00800           0
     31193 MEMB     251      PMPG     H5S      HAL2     0.900000E-01   1.00800           0
     31194 MEMB     251      PMPG     C26      CTL2    -0.180000       12.0110           0
     31195 MEMB     251      PMPG     H6R      HAL2     0.900000E-01   1.00800           0
     31196 MEMB     251      PMPG     H6S      HAL2     0.900000E-01   1.00800           0
     31197 MEMB     251      PMPG     C27      CTL2    -0.180000       12.0110           0
     31198 MEMB     251      PMPG     H7R      HAL2     0.900000E-01   1.00800           0
     31199 MEMB     251      PMPG     H7S      HAL2     0.900000E-01   1.00800           0
     31200 MEMB     251      PMPG     C28      CTL2    -0.180000       12.0110           0
     31201 MEMB     251      PMPG     H8R      HAL2     0.900000E-01   1.00800           0
     31202 MEMB     251      PMPG     H8S      HAL2     0.900000E-01   1.00800           0
     31203 MEMB     251      PMPG     C29      CG3RC1  -0.900000E-01   12.0110           0
     31204 MEMB     251      PMPG     H9R      HGA1     0.900000E-01   1.00800           0
     31205 MEMB     251      PMPG     C217     CG3C31  -0.180000       12.0110           0
     31206 MEMB     251      PMPG     H17R     HGA2     0.900000E-01   1.00800           0
     31207 MEMB     251      PMPG     H17S     HGA2     0.900000E-01   1.00800           0
     31208 MEMB     251      PMPG     C210     CG3RC1  -0.900000E-01   12.0110           0
     31209 MEMB     251      PMPG     H10R     HGA1     0.900000E-01   1.00800           0
     31210 MEMB     251      PMPG     C211     CTL2    -0.180000       12.0110           0
     31211 MEMB     251      PMPG     H11R     HAL2     0.900000E-01   1.00800           0
     31212 MEMB     251      PMPG     H11S     HAL2     0.900000E-01   1.00800           0
     31213 MEMB     251      PMPG     C212     CTL2    -0.180000       12.0110           0
     31214 MEMB     251      PMPG     H12R     HAL2     0.900000E-01   1.00800           0
     31215 MEMB     251      PMPG     H12S     HAL2     0.900000E-01   1.00800           0
     31216 MEMB     251      PMPG     C213     CTL2    -0.180000       12.0110           0
     31217 MEMB     251      PMPG     H13R     HAL2     0.900000E-01   1.00800           0
     31218 MEMB     251      PMPG     H13S     HAL2     0.900000E-01   1.00800           0
     31219 MEMB     251      PMPG     C214     CTL2    -0.180000       12.0110           0
     31220 MEMB     251      PMPG     H14R     HAL2     0.900000E-01   1.00800           0
     31221 MEMB     251      PMPG     H14S     HAL2     0.900000E-01   1.00800           0
     31222 MEMB     251      PMPG     C215     CTL2    -0.180000       12.0110           0
     31223 MEMB     251      PMPG     H15R     HAL2     0.900000E-01   1.00800           0
     31224 MEMB     251      PMPG     H15S     HAL2     0.900000E-01   1.00800           0
     31225 MEMB     251      PMPG     C216     CTL3    -0.270000       12.0110           0
     31226 MEMB     251      PMPG     H16R     HAL3     0.900000E-01   1.00800           0
     31227 MEMB     251      PMPG     H16S     HAL3     0.900000E-01   1.00800           0
     31228 MEMB     251      PMPG     H16T     HAL3     0.900000E-01   1.00800           0
     31229 MEMB     251      PMPG     C33      CTL2    -0.180000       12.0110           0
     31230 MEMB     251      PMPG     H3X      HAL2     0.900000E-01   1.00800           0
     31231 MEMB     251      PMPG     H3Y      HAL2     0.900000E-01   1.00800           0
     31232 MEMB     251      PMPG     C34      CTL2    -0.180000       12.0110           0
     31233 MEMB     251      PMPG     H4X      HAL2     0.900000E-01   1.00800           0
     31234 MEMB     251      PMPG     H4Y      HAL2     0.900000E-01   1.00800           0
     31235 MEMB     251      PMPG     C35      CTL2    -0.180000       12.0110           0
     31236 MEMB     251      PMPG     H5X      HAL2     0.900000E-01   1.00800           0
     31237 MEMB     251      PMPG     H5Y      HAL2     0.900000E-01   1.00800           0
     31238 MEMB     251      PMPG     C36      CTL2    -0.180000       12.0110           0
     31239 MEMB     251      PMPG     H6X      HAL2     0.900000E-01   1.00800           0
     31240 MEMB     251      PMPG     H6Y      HAL2     0.900000E-01   1.00800           0
     31241 MEMB     251      PMPG     C37      CTL2    -0.180000       12.0110           0
     31242 MEMB     251      PMPG     H7X      HAL2     0.900000E-01   1.00800           0
     31243 MEMB     251      PMPG     H7Y      HAL2     0.900000E-01   1.00800           0
     31244 MEMB     251      PMPG     C38      CTL2    -0.180000       12.0110           0
     31245 MEMB     251      PMPG     H8X      HAL2     0.900000E-01   1.00800           0
     31246 MEMB     251      PMPG     H8Y      HAL2     0.900000E-01   1.00800           0
     31247 MEMB     251      PMPG     C39      CTL2    -0.180000       12.0110           0
     31248 MEMB     251      PMPG     H9X      HAL2     0.900000E-01   1.00800           0
     31249 MEMB     251      PMPG     H9Y      HAL2     0.900000E-01   1.00800           0
     31250 MEMB     251      PMPG     C310     CTL2    -0.180000       12.0110           0
     31251 MEMB     251      PMPG     H10X     HAL2     0.900000E-01   1.00800           0
     31252 MEMB     251      PMPG     H10Y     HAL2     0.900000E-01   1.00800           0
     31253 MEMB     251      PMPG     C311     CTL2    -0.180000       12.0110           0
     31254 MEMB     251      PMPG     H11X     HAL2     0.900000E-01   1.00800           0
     31255 MEMB     251      PMPG     H11Y     HAL2     0.900000E-01   1.00800           0
     31256 MEMB     251      PMPG     C312     CTL2    -0.180000       12.0110           0
     31257 MEMB     251      PMPG     H12X     HAL2     0.900000E-01   1.00800           0
     31258 MEMB     251      PMPG     H12Y     HAL2     0.900000E-01   1.00800           0
     31259 MEMB     251      PMPG     C313     CTL2    -0.180000       12.0110           0
     31260 MEMB     251      PMPG     H13X     HAL2     0.900000E-01   1.00800           0
     31261 MEMB     251      PMPG     H13Y     HAL2     0.900000E-01   1.00800           0
     31262 MEMB     251      PMPG     C314     CTL2    -0.180000       12.0110           0
     31263 MEMB     251      PMPG     H14X     HAL2     0.900000E-01   1.00800           0
     31264 MEMB     251      PMPG     H14Y     HAL2     0.900000E-01   1.00800           0
     31265 MEMB     251      PMPG     C315     CTL2    -0.180000       12.0110           0
     31266 MEMB     251      PMPG     H15X     HAL2     0.900000E-01   1.00800           0
     31267 MEMB     251      PMPG     H15Y     HAL2     0.900000E-01   1.00800           0
     31268 MEMB     251      PMPG     C316     CTL3    -0.270000       12.0110           0
     31269 MEMB     251      PMPG     H16X     HAL3     0.900000E-01   1.00800           0
     31270 MEMB     251      PMPG     H16Y     HAL3     0.900000E-01   1.00800           0
     31271 MEMB     251      PMPG     H16Z     HAL3     0.900000E-01   1.00800           0
     31272 MEMB     252      POPE     N        NH3L    -0.300000       14.0070           0
     31273 MEMB     252      POPE     HN1      HCL      0.330000       1.00800           0
     31274 MEMB     252      POPE     HN2      HCL      0.330000       1.00800           0
     31275 MEMB     252      POPE     HN3      HCL      0.330000       1.00800           0
     31276 MEMB     252      POPE     C12      CTL2     0.130000       12.0110           0
     31277 MEMB     252      POPE     H12A     HAL2     0.900000E-01   1.00800           0
     31278 MEMB     252      POPE     H12B     HAL2     0.900000E-01   1.00800           0
     31279 MEMB     252      POPE     C11      CTL2    -0.800000E-01   12.0110           0
     31280 MEMB     252      POPE     H11A     HAL2     0.900000E-01   1.00800           0
     31281 MEMB     252      POPE     H11B     HAL2     0.900000E-01   1.00800           0
     31282 MEMB     252      POPE     P        PL        1.50000       30.9740           0
     31283 MEMB     252      POPE     O13      O2L     -0.780000       15.9994           0
     31284 MEMB     252      POPE     O14      O2L     -0.780000       15.9994           0
     31285 MEMB     252      POPE     O11      OSLP    -0.570000       15.9994           0
     31286 MEMB     252      POPE     O12      OSLP    -0.570000       15.9994           0
     31287 MEMB     252      POPE     C1       CTL2    -0.800000E-01   12.0110           0
     31288 MEMB     252      POPE     HA       HAL2     0.900000E-01   1.00800           0
     31289 MEMB     252      POPE     HB       HAL2     0.900000E-01   1.00800           0
     31290 MEMB     252      POPE     C2       CTL1     0.170000       12.0110           0
     31291 MEMB     252      POPE     HS       HAL1     0.900000E-01   1.00800           0
     31292 MEMB     252      POPE     O21      OSL     -0.490000       15.9994           0
     31293 MEMB     252      POPE     C21      CL       0.900000       12.0110           0
     31294 MEMB     252      POPE     O22      OBL     -0.630000       15.9994           0
     31295 MEMB     252      POPE     C22      CTL2    -0.220000       12.0110           0
     31296 MEMB     252      POPE     H2R      HAL2     0.900000E-01   1.00800           0
     31297 MEMB     252      POPE     H2S      HAL2     0.900000E-01   1.00800           0
     31298 MEMB     252      POPE     C3       CTL2     0.800000E-01   12.0110           0
     31299 MEMB     252      POPE     HX       HAL2     0.900000E-01   1.00800           0
     31300 MEMB     252      POPE     HY       HAL2     0.900000E-01   1.00800           0
     31301 MEMB     252      POPE     O31      OSL     -0.490000       15.9994           0
     31302 MEMB     252      POPE     C31      CL       0.900000       12.0110           0
     31303 MEMB     252      POPE     O32      OBL     -0.630000       15.9994           0
     31304 MEMB     252      POPE     C32      CTL2    -0.220000       12.0110           0
     31305 MEMB     252      POPE     H2X      HAL2     0.900000E-01   1.00800           0
     31306 MEMB     252      POPE     H2Y      HAL2     0.900000E-01   1.00800           0
     31307 MEMB     252      POPE     C23      CTL2    -0.180000       12.0110           0
     31308 MEMB     252      POPE     H3R      HAL2     0.900000E-01   1.00800           0
     31309 MEMB     252      POPE     H3S      HAL2     0.900000E-01   1.00800           0
     31310 MEMB     252      POPE     C24      CTL2    -0.180000       12.0110           0
     31311 MEMB     252      POPE     H4R      HAL2     0.900000E-01   1.00800           0
     31312 MEMB     252      POPE     H4S      HAL2     0.900000E-01   1.00800           0
     31313 MEMB     252      POPE     C25      CTL2    -0.180000       12.0110           0
     31314 MEMB     252      POPE     H5R      HAL2     0.900000E-01   1.00800           0
     31315 MEMB     252      POPE     H5S      HAL2     0.900000E-01   1.00800           0
     31316 MEMB     252      POPE     C26      CTL2    -0.180000       12.0110           0
     31317 MEMB     252      POPE     H6R      HAL2     0.900000E-01   1.00800           0
     31318 MEMB     252      POPE     H6S      HAL2     0.900000E-01   1.00800           0
     31319 MEMB     252      POPE     C27      CTL2    -0.180000       12.0110           0
     31320 MEMB     252      POPE     H7R      HAL2     0.900000E-01   1.00800           0
     31321 MEMB     252      POPE     H7S      HAL2     0.900000E-01   1.00800           0
     31322 MEMB     252      POPE     C28      CTL2    -0.180000       12.0110           0
     31323 MEMB     252      POPE     H8R      HAL2     0.900000E-01   1.00800           0
     31324 MEMB     252      POPE     H8S      HAL2     0.900000E-01   1.00800           0
     31325 MEMB     252      POPE     C29      CEL1    -0.150000       12.0110           0
     31326 MEMB     252      POPE     H91      HEL1     0.150000       1.00800           0
     31327 MEMB     252      POPE     C210     CEL1    -0.150000       12.0110           0
     31328 MEMB     252      POPE     H101     HEL1     0.150000       1.00800           0
     31329 MEMB     252      POPE     C211     CTL2    -0.180000       12.0110           0
     31330 MEMB     252      POPE     H11R     HAL2     0.900000E-01   1.00800           0
     31331 MEMB     252      POPE     H11S     HAL2     0.900000E-01   1.00800           0
     31332 MEMB     252      POPE     C212     CTL2    -0.180000       12.0110           0
     31333 MEMB     252      POPE     H12R     HAL2     0.900000E-01   1.00800           0
     31334 MEMB     252      POPE     H12S     HAL2     0.900000E-01   1.00800           0
     31335 MEMB     252      POPE     C213     CTL2    -0.180000       12.0110           0
     31336 MEMB     252      POPE     H13R     HAL2     0.900000E-01   1.00800           0
     31337 MEMB     252      POPE     H13S     HAL2     0.900000E-01   1.00800           0
     31338 MEMB     252      POPE     C214     CTL2    -0.180000       12.0110           0
     31339 MEMB     252      POPE     H14R     HAL2     0.900000E-01   1.00800           0
     31340 MEMB     252      POPE     H14S     HAL2     0.900000E-01   1.00800           0
     31341 MEMB     252      POPE     C215     CTL2    -0.180000       12.0110           0
     31342 MEMB     252      POPE     H15R     HAL2     0.900000E-01   1.00800           0
     31343 MEMB     252      POPE     H15S     HAL2     0.900000E-01   1.00800           0
     31344 MEMB     252      POPE     C216     CTL2    -0.180000       12.0110           0
     31345 MEMB     252      POPE     H16R     HAL2     0.900000E-01   1.00800           0
     31346 MEMB     252      POPE     H16S     HAL2     0.900000E-01   1.00800           0
     31347 MEMB     252      POPE     C217     CTL2    -0.180000       12.0110           0
     31348 MEMB     252      POPE     H17R     HAL2     0.900000E-01   1.00800           0
     31349 MEMB     252      POPE     H17S     HAL2     0.900000E-01   1.00800           0
     31350 MEMB     252      POPE     C218     CTL3    -0.270000       12.0110           0
     31351 MEMB     252      POPE     H18R     HAL3     0.900000E-01   1.00800           0
     31352 MEMB     252      POPE     H18S     HAL3     0.900000E-01   1.00800           0
     31353 MEMB     252      POPE     H18T     HAL3     0.900000E-01   1.00800           0
     31354 MEMB     252      POPE     C33      CTL2    -0.180000       12.0110           0
     31355 MEMB     252      POPE     H3X      HAL2     0.900000E-01   1.00800           0
     31356 MEMB     252      POPE     H3Y      HAL2     0.900000E-01   1.00800           0
     31357 MEMB     252      POPE     C34      CTL2    -0.180000       12.0110           0
     31358 MEMB     252      POPE     H4X      HAL2     0.900000E-01   1.00800           0
     31359 MEMB     252      POPE     H4Y      HAL2     0.900000E-01   1.00800           0
     31360 MEMB     252      POPE     C35      CTL2    -0.180000       12.0110           0
     31361 MEMB     252      POPE     H5X      HAL2     0.900000E-01   1.00800           0
     31362 MEMB     252      POPE     H5Y      HAL2     0.900000E-01   1.00800           0
     31363 MEMB     252      POPE     C36      CTL2    -0.180000       12.0110           0
     31364 MEMB     252      POPE     H6X      HAL2     0.900000E-01   1.00800           0
     31365 MEMB     252      POPE     H6Y      HAL2     0.900000E-01   1.00800           0
     31366 MEMB     252      POPE     C37      CTL2    -0.180000       12.0110           0
     31367 MEMB     252      POPE     H7X      HAL2     0.900000E-01   1.00800           0
     31368 MEMB     252      POPE     H7Y      HAL2     0.900000E-01   1.00800           0
     31369 MEMB     252      POPE     C38      CTL2    -0.180000       12.0110           0
     31370 MEMB     252      POPE     H8X      HAL2     0.900000E-01   1.00800           0
     31371 MEMB     252      POPE     H8Y      HAL2     0.900000E-01   1.00800           0
     31372 MEMB     252      POPE     C39      CTL2    -0.180000       12.0110           0
     31373 MEMB     252      POPE     H9X      HAL2     0.900000E-01   1.00800           0
     31374 MEMB     252      POPE     H9Y      HAL2     0.900000E-01   1.00800           0
     31375 MEMB     252      POPE     C310     CTL2    -0.180000       12.0110           0
     31376 MEMB     252      POPE     H10X     HAL2     0.900000E-01   1.00800           0
     31377 MEMB     252      POPE     H10Y     HAL2     0.900000E-01   1.00800           0
     31378 MEMB     252      POPE     C311     CTL2    -0.180000       12.0110           0
     31379 MEMB     252      POPE     H11X     HAL2     0.900000E-01   1.00800           0
     31380 MEMB     252      POPE     H11Y     HAL2     0.900000E-01   1.00800           0
     31381 MEMB     252      POPE     C312     CTL2    -0.180000       12.0110           0
     31382 MEMB     252      POPE     H12X     HAL2     0.900000E-01   1.00800           0
     31383 MEMB     252      POPE     H12Y     HAL2     0.900000E-01   1.00800           0
     31384 MEMB     252      POPE     C313     CTL2    -0.180000       12.0110           0
     31385 MEMB     252      POPE     H13X     HAL2     0.900000E-01   1.00800           0
     31386 MEMB     252      POPE     H13Y     HAL2     0.900000E-01   1.00800           0
     31387 MEMB     252      POPE     C314     CTL2    -0.180000       12.0110           0
     31388 MEMB     252      POPE     H14X     HAL2     0.900000E-01   1.00800           0
     31389 MEMB     252      POPE     H14Y     HAL2     0.900000E-01   1.00800           0
     31390 MEMB     252      POPE     C315     CTL2    -0.180000       12.0110           0
     31391 MEMB     252      POPE     H15X     HAL2     0.900000E-01   1.00800           0
     31392 MEMB     252      POPE     H15Y     HAL2     0.900000E-01   1.00800           0
     31393 MEMB     252      POPE     C316     CTL3    -0.270000       12.0110           0
     31394 MEMB     252      POPE     H16X     HAL3     0.900000E-01   1.00800           0
     31395 MEMB     252      POPE     H16Y     HAL3     0.900000E-01   1.00800           0
     31396 MEMB     252      POPE     H16Z     HAL3     0.900000E-01   1.00800           0
     31397 MEMB     253      PMPE     N        NH3L    -0.300000       14.0070           0
     31398 MEMB     253      PMPE     HN1      HCL      0.330000       1.00800           0
     31399 MEMB     253      PMPE     HN2      HCL      0.330000       1.00800           0
     31400 MEMB     253      PMPE     HN3      HCL      0.330000       1.00800           0
     31401 MEMB     253      PMPE     C12      CTL2     0.130000       12.0110           0
     31402 MEMB     253      PMPE     H12A     HAL2     0.900000E-01   1.00800           0
     31403 MEMB     253      PMPE     H12B     HAL2     0.900000E-01   1.00800           0
     31404 MEMB     253      PMPE     C11      CTL2    -0.800000E-01   12.0110           0
     31405 MEMB     253      PMPE     H11A     HAL2     0.900000E-01   1.00800           0
     31406 MEMB     253      PMPE     H11B     HAL2     0.900000E-01   1.00800           0
     31407 MEMB     253      PMPE     P        PL        1.50000       30.9740           0
     31408 MEMB     253      PMPE     O13      O2L     -0.780000       15.9994           0
     31409 MEMB     253      PMPE     O14      O2L     -0.780000       15.9994           0
     31410 MEMB     253      PMPE     O11      OSLP    -0.570000       15.9994           0
     31411 MEMB     253      PMPE     O12      OSLP    -0.570000       15.9994           0
     31412 MEMB     253      PMPE     C1       CTL2    -0.800000E-01   12.0110           0
     31413 MEMB     253      PMPE     HA       HAL2     0.900000E-01   1.00800           0
     31414 MEMB     253      PMPE     HB       HAL2     0.900000E-01   1.00800           0
     31415 MEMB     253      PMPE     C2       CTL1     0.170000       12.0110           0
     31416 MEMB     253      PMPE     HS       HAL1     0.900000E-01   1.00800           0
     31417 MEMB     253      PMPE     O21      OSL     -0.490000       15.9994           0
     31418 MEMB     253      PMPE     C21      CL       0.900000       12.0110           0
     31419 MEMB     253      PMPE     O22      OBL     -0.630000       15.9994           0
     31420 MEMB     253      PMPE     C22      CTL2    -0.220000       12.0110           0
     31421 MEMB     253      PMPE     H2R      HAL2     0.900000E-01   1.00800           0
     31422 MEMB     253      PMPE     H2S      HAL2     0.900000E-01   1.00800           0
     31423 MEMB     253      PMPE     C3       CTL2     0.800000E-01   12.0110           0
     31424 MEMB     253      PMPE     HX       HAL2     0.900000E-01   1.00800           0
     31425 MEMB     253      PMPE     HY       HAL2     0.900000E-01   1.00800           0
     31426 MEMB     253      PMPE     O31      OSL     -0.490000       15.9994           0
     31427 MEMB     253      PMPE     C31      CL       0.900000       12.0110           0
     31428 MEMB     253      PMPE     O32      OBL     -0.630000       15.9994           0
     31429 MEMB     253      PMPE     C32      CTL2    -0.220000       12.0110           0
     31430 MEMB     253      PMPE     H2X      HAL2     0.900000E-01   1.00800           0
     31431 MEMB     253      PMPE     H2Y      HAL2     0.900000E-01   1.00800           0
     31432 MEMB     253      PMPE     C23      CTL2    -0.180000       12.0110           0
     31433 MEMB     253      PMPE     H3R      HAL2     0.900000E-01   1.00800           0
     31434 MEMB     253      PMPE     H3S      HAL2     0.900000E-01   1.00800           0
     31435 MEMB     253      PMPE     C24      CTL2    -0.180000       12.0110           0
     31436 MEMB     253      PMPE     H4R      HAL2     0.900000E-01   1.00800           0
     31437 MEMB     253      PMPE     H4S      HAL2     0.900000E-01   1.00800           0
     31438 MEMB     253      PMPE     C25      CTL2    -0.180000       12.0110           0
     31439 MEMB     253      PMPE     H5R      HAL2     0.900000E-01   1.00800           0
     31440 MEMB     253      PMPE     H5S      HAL2     0.900000E-01   1.00800           0
     31441 MEMB     253      PMPE     C26      CTL2    -0.180000       12.0110           0
     31442 MEMB     253      PMPE     H6R      HAL2     0.900000E-01   1.00800           0
     31443 MEMB     253      PMPE     H6S      HAL2     0.900000E-01   1.00800           0
     31444 MEMB     253      PMPE     C27      CTL2    -0.180000       12.0110           0
     31445 MEMB     253      PMPE     H7R      HAL2     0.900000E-01   1.00800           0
     31446 MEMB     253      PMPE     H7S      HAL2     0.900000E-01   1.00800           0
     31447 MEMB     253      PMPE     C28      CTL2    -0.180000       12.0110           0
     31448 MEMB     253      PMPE     H8R      HAL2     0.900000E-01   1.00800           0
     31449 MEMB     253      PMPE     H8S      HAL2     0.900000E-01   1.00800           0
     31450 MEMB     253      PMPE     C29      CG3RC1  -0.900000E-01   12.0110           0
     31451 MEMB     253      PMPE     H9R      HGA1     0.900000E-01   1.00800           0
     31452 MEMB     253      PMPE     C217     CG3C31  -0.180000       12.0110           0
     31453 MEMB     253      PMPE     H17R     HGA2     0.900000E-01   1.00800           0
     31454 MEMB     253      PMPE     H17S     HGA2     0.900000E-01   1.00800           0
     31455 MEMB     253      PMPE     C210     CG3RC1  -0.900000E-01   12.0110           0
     31456 MEMB     253      PMPE     H10R     HGA1     0.900000E-01   1.00800           0
     31457 MEMB     253      PMPE     C211     CTL2    -0.180000       12.0110           0
     31458 MEMB     253      PMPE     H11R     HAL2     0.900000E-01   1.00800           0
     31459 MEMB     253      PMPE     H11S     HAL2     0.900000E-01   1.00800           0
     31460 MEMB     253      PMPE     C212     CTL2    -0.180000       12.0110           0
     31461 MEMB     253      PMPE     H12R     HAL2     0.900000E-01   1.00800           0
     31462 MEMB     253      PMPE     H12S     HAL2     0.900000E-01   1.00800           0
     31463 MEMB     253      PMPE     C213     CTL2    -0.180000       12.0110           0
     31464 MEMB     253      PMPE     H13R     HAL2     0.900000E-01   1.00800           0
     31465 MEMB     253      PMPE     H13S     HAL2     0.900000E-01   1.00800           0
     31466 MEMB     253      PMPE     C214     CTL2    -0.180000       12.0110           0
     31467 MEMB     253      PMPE     H14R     HAL2     0.900000E-01   1.00800           0
     31468 MEMB     253      PMPE     H14S     HAL2     0.900000E-01   1.00800           0
     31469 MEMB     253      PMPE     C215     CTL2    -0.180000       12.0110           0
     31470 MEMB     253      PMPE     H15R     HAL2     0.900000E-01   1.00800           0
     31471 MEMB     253      PMPE     H15S     HAL2     0.900000E-01   1.00800           0
     31472 MEMB     253      PMPE     C216     CTL3    -0.270000       12.0110           0
     31473 MEMB     253      PMPE     H16R     HAL3     0.900000E-01   1.00800           0
     31474 MEMB     253      PMPE     H16S     HAL3     0.900000E-01   1.00800           0
     31475 MEMB     253      PMPE     H16T     HAL3     0.900000E-01   1.00800           0
     31476 MEMB     253      PMPE     C33      CTL2    -0.180000       12.0110           0
     31477 MEMB     253      PMPE     H3X      HAL2     0.900000E-01   1.00800           0
     31478 MEMB     253      PMPE     H3Y      HAL2     0.900000E-01   1.00800           0
     31479 MEMB     253      PMPE     C34      CTL2    -0.180000       12.0110           0
     31480 MEMB     253      PMPE     H4X      HAL2     0.900000E-01   1.00800           0
     31481 MEMB     253      PMPE     H4Y      HAL2     0.900000E-01   1.00800           0
     31482 MEMB     253      PMPE     C35      CTL2    -0.180000       12.0110           0
     31483 MEMB     253      PMPE     H5X      HAL2     0.900000E-01   1.00800           0
     31484 MEMB     253      PMPE     H5Y      HAL2     0.900000E-01   1.00800           0
     31485 MEMB     253      PMPE     C36      CTL2    -0.180000       12.0110           0
     31486 MEMB     253      PMPE     H6X      HAL2     0.900000E-01   1.00800           0
     31487 MEMB     253      PMPE     H6Y      HAL2     0.900000E-01   1.00800           0
     31488 MEMB     253      PMPE     C37      CTL2    -0.180000       12.0110           0
     31489 MEMB     253      PMPE     H7X      HAL2     0.900000E-01   1.00800           0
     31490 MEMB     253      PMPE     H7Y      HAL2     0.900000E-01   1.00800           0
     31491 MEMB     253      PMPE     C38      CTL2    -0.180000       12.0110           0
     31492 MEMB     253      PMPE     H8X      HAL2     0.900000E-01   1.00800           0
     31493 MEMB     253      PMPE     H8Y      HAL2     0.900000E-01   1.00800           0
     31494 MEMB     253      PMPE     C39      CTL2    -0.180000       12.0110           0
     31495 MEMB     253      PMPE     H9X      HAL2     0.900000E-01   1.00800           0
     31496 MEMB     253      PMPE     H9Y      HAL2     0.900000E-01   1.00800           0
     31497 MEMB     253      PMPE     C310     CTL2    -0.180000       12.0110           0
     31498 MEMB     253      PMPE     H10X     HAL2     0.900000E-01   1.00800           0
     31499 MEMB     253      PMPE     H10Y     HAL2     0.900000E-01   1.00800           0
     31500 MEMB     253      PMPE     C311     CTL2    -0.180000       12.0110           0
     31501 MEMB     253      PMPE     H11X     HAL2     0.900000E-01   1.00800           0
     31502 MEMB     253      PMPE     H11Y     HAL2     0.900000E-01   1.00800           0
     31503 MEMB     253      PMPE     C312     CTL2    -0.180000       12.0110           0
     31504 MEMB     253      PMPE     H12X     HAL2     0.900000E-01   1.00800           0
     31505 MEMB     253      PMPE     H12Y     HAL2     0.900000E-01   1.00800           0
     31506 MEMB     253      PMPE     C313     CTL2    -0.180000       12.0110           0
     31507 MEMB     253      PMPE     H13X     HAL2     0.900000E-01   1.00800           0
     31508 MEMB     253      PMPE     H13Y     HAL2     0.900000E-01   1.00800           0
     31509 MEMB     253      PMPE     C314     CTL2    -0.180000       12.0110           0
     31510 MEMB     253      PMPE     H14X     HAL2     0.900000E-01   1.00800           0
     31511 MEMB     253      PMPE     H14Y     HAL2     0.900000E-01   1.00800           0
     31512 MEMB     253      PMPE     C315     CTL2    -0.180000       12.0110           0
     31513 MEMB     253      PMPE     H15X     HAL2     0.900000E-01   1.00800           0
     31514 MEMB     253      PMPE     H15Y     HAL2     0.900000E-01   1.00800           0
     31515 MEMB     253      PMPE     C316     CTL3    -0.270000       12.0110           0
     31516 MEMB     253      PMPE     H16X     HAL3     0.900000E-01   1.00800           0
     31517 MEMB     253      PMPE     H16Y     HAL3     0.900000E-01   1.00800           0
     31518 MEMB     253      PMPE     H16Z     HAL3     0.900000E-01   1.00800           0
     31519 MEMB     254      POPE     N        NH3L    -0.300000       14.0070           0
     31520 MEMB     254      POPE     HN1      HCL      0.330000       1.00800           0
     31521 MEMB     254      POPE     HN2      HCL      0.330000       1.00800           0
     31522 MEMB     254      POPE     HN3      HCL      0.330000       1.00800           0
     31523 MEMB     254      POPE     C12      CTL2     0.130000       12.0110           0
     31524 MEMB     254      POPE     H12A     HAL2     0.900000E-01   1.00800           0
     31525 MEMB     254      POPE     H12B     HAL2     0.900000E-01   1.00800           0
     31526 MEMB     254      POPE     C11      CTL2    -0.800000E-01   12.0110           0
     31527 MEMB     254      POPE     H11A     HAL2     0.900000E-01   1.00800           0
     31528 MEMB     254      POPE     H11B     HAL2     0.900000E-01   1.00800           0
     31529 MEMB     254      POPE     P        PL        1.50000       30.9740           0
     31530 MEMB     254      POPE     O13      O2L     -0.780000       15.9994           0
     31531 MEMB     254      POPE     O14      O2L     -0.780000       15.9994           0
     31532 MEMB     254      POPE     O11      OSLP    -0.570000       15.9994           0
     31533 MEMB     254      POPE     O12      OSLP    -0.570000       15.9994           0
     31534 MEMB     254      POPE     C1       CTL2    -0.800000E-01   12.0110           0
     31535 MEMB     254      POPE     HA       HAL2     0.900000E-01   1.00800           0
     31536 MEMB     254      POPE     HB       HAL2     0.900000E-01   1.00800           0
     31537 MEMB     254      POPE     C2       CTL1     0.170000       12.0110           0
     31538 MEMB     254      POPE     HS       HAL1     0.900000E-01   1.00800           0
     31539 MEMB     254      POPE     O21      OSL     -0.490000       15.9994           0
     31540 MEMB     254      POPE     C21      CL       0.900000       12.0110           0
     31541 MEMB     254      POPE     O22      OBL     -0.630000       15.9994           0
     31542 MEMB     254      POPE     C22      CTL2    -0.220000       12.0110           0
     31543 MEMB     254      POPE     H2R      HAL2     0.900000E-01   1.00800           0
     31544 MEMB     254      POPE     H2S      HAL2     0.900000E-01   1.00800           0
     31545 MEMB     254      POPE     C3       CTL2     0.800000E-01   12.0110           0
     31546 MEMB     254      POPE     HX       HAL2     0.900000E-01   1.00800           0
     31547 MEMB     254      POPE     HY       HAL2     0.900000E-01   1.00800           0
     31548 MEMB     254      POPE     O31      OSL     -0.490000       15.9994           0
     31549 MEMB     254      POPE     C31      CL       0.900000       12.0110           0
     31550 MEMB     254      POPE     O32      OBL     -0.630000       15.9994           0
     31551 MEMB     254      POPE     C32      CTL2    -0.220000       12.0110           0
     31552 MEMB     254      POPE     H2X      HAL2     0.900000E-01   1.00800           0
     31553 MEMB     254      POPE     H2Y      HAL2     0.900000E-01   1.00800           0
     31554 MEMB     254      POPE     C23      CTL2    -0.180000       12.0110           0
     31555 MEMB     254      POPE     H3R      HAL2     0.900000E-01   1.00800           0
     31556 MEMB     254      POPE     H3S      HAL2     0.900000E-01   1.00800           0
     31557 MEMB     254      POPE     C24      CTL2    -0.180000       12.0110           0
     31558 MEMB     254      POPE     H4R      HAL2     0.900000E-01   1.00800           0
     31559 MEMB     254      POPE     H4S      HAL2     0.900000E-01   1.00800           0
     31560 MEMB     254      POPE     C25      CTL2    -0.180000       12.0110           0
     31561 MEMB     254      POPE     H5R      HAL2     0.900000E-01   1.00800           0
     31562 MEMB     254      POPE     H5S      HAL2     0.900000E-01   1.00800           0
     31563 MEMB     254      POPE     C26      CTL2    -0.180000       12.0110           0
     31564 MEMB     254      POPE     H6R      HAL2     0.900000E-01   1.00800           0
     31565 MEMB     254      POPE     H6S      HAL2     0.900000E-01   1.00800           0
     31566 MEMB     254      POPE     C27      CTL2    -0.180000       12.0110           0
     31567 MEMB     254      POPE     H7R      HAL2     0.900000E-01   1.00800           0
     31568 MEMB     254      POPE     H7S      HAL2     0.900000E-01   1.00800           0
     31569 MEMB     254      POPE     C28      CTL2    -0.180000       12.0110           0
     31570 MEMB     254      POPE     H8R      HAL2     0.900000E-01   1.00800           0
     31571 MEMB     254      POPE     H8S      HAL2     0.900000E-01   1.00800           0
     31572 MEMB     254      POPE     C29      CEL1    -0.150000       12.0110           0
     31573 MEMB     254      POPE     H91      HEL1     0.150000       1.00800           0
     31574 MEMB     254      POPE     C210     CEL1    -0.150000       12.0110           0
     31575 MEMB     254      POPE     H101     HEL1     0.150000       1.00800           0
     31576 MEMB     254      POPE     C211     CTL2    -0.180000       12.0110           0
     31577 MEMB     254      POPE     H11R     HAL2     0.900000E-01   1.00800           0
     31578 MEMB     254      POPE     H11S     HAL2     0.900000E-01   1.00800           0
     31579 MEMB     254      POPE     C212     CTL2    -0.180000       12.0110           0
     31580 MEMB     254      POPE     H12R     HAL2     0.900000E-01   1.00800           0
     31581 MEMB     254      POPE     H12S     HAL2     0.900000E-01   1.00800           0
     31582 MEMB     254      POPE     C213     CTL2    -0.180000       12.0110           0
     31583 MEMB     254      POPE     H13R     HAL2     0.900000E-01   1.00800           0
     31584 MEMB     254      POPE     H13S     HAL2     0.900000E-01   1.00800           0
     31585 MEMB     254      POPE     C214     CTL2    -0.180000       12.0110           0
     31586 MEMB     254      POPE     H14R     HAL2     0.900000E-01   1.00800           0
     31587 MEMB     254      POPE     H14S     HAL2     0.900000E-01   1.00800           0
     31588 MEMB     254      POPE     C215     CTL2    -0.180000       12.0110           0
     31589 MEMB     254      POPE     H15R     HAL2     0.900000E-01   1.00800           0
     31590 MEMB     254      POPE     H15S     HAL2     0.900000E-01   1.00800           0
     31591 MEMB     254      POPE     C216     CTL2    -0.180000       12.0110           0
     31592 MEMB     254      POPE     H16R     HAL2     0.900000E-01   1.00800           0
     31593 MEMB     254      POPE     H16S     HAL2     0.900000E-01   1.00800           0
     31594 MEMB     254      POPE     C217     CTL2    -0.180000       12.0110           0
     31595 MEMB     254      POPE     H17R     HAL2     0.900000E-01   1.00800           0
     31596 MEMB     254      POPE     H17S     HAL2     0.900000E-01   1.00800           0
     31597 MEMB     254      POPE     C218     CTL3    -0.270000       12.0110           0
     31598 MEMB     254      POPE     H18R     HAL3     0.900000E-01   1.00800           0
     31599 MEMB     254      POPE     H18S     HAL3     0.900000E-01   1.00800           0
     31600 MEMB     254      POPE     H18T     HAL3     0.900000E-01   1.00800           0
     31601 MEMB     254      POPE     C33      CTL2    -0.180000       12.0110           0
     31602 MEMB     254      POPE     H3X      HAL2     0.900000E-01   1.00800           0
     31603 MEMB     254      POPE     H3Y      HAL2     0.900000E-01   1.00800           0
     31604 MEMB     254      POPE     C34      CTL2    -0.180000       12.0110           0
     31605 MEMB     254      POPE     H4X      HAL2     0.900000E-01   1.00800           0
     31606 MEMB     254      POPE     H4Y      HAL2     0.900000E-01   1.00800           0
     31607 MEMB     254      POPE     C35      CTL2    -0.180000       12.0110           0
     31608 MEMB     254      POPE     H5X      HAL2     0.900000E-01   1.00800           0
     31609 MEMB     254      POPE     H5Y      HAL2     0.900000E-01   1.00800           0
     31610 MEMB     254      POPE     C36      CTL2    -0.180000       12.0110           0
     31611 MEMB     254      POPE     H6X      HAL2     0.900000E-01   1.00800           0
     31612 MEMB     254      POPE     H6Y      HAL2     0.900000E-01   1.00800           0
     31613 MEMB     254      POPE     C37      CTL2    -0.180000       12.0110           0
     31614 MEMB     254      POPE     H7X      HAL2     0.900000E-01   1.00800           0
     31615 MEMB     254      POPE     H7Y      HAL2     0.900000E-01   1.00800           0
     31616 MEMB     254      POPE     C38      CTL2    -0.180000       12.0110           0
     31617 MEMB     254      POPE     H8X      HAL2     0.900000E-01   1.00800           0
     31618 MEMB     254      POPE     H8Y      HAL2     0.900000E-01   1.00800           0
     31619 MEMB     254      POPE     C39      CTL2    -0.180000       12.0110           0
     31620 MEMB     254      POPE     H9X      HAL2     0.900000E-01   1.00800           0
     31621 MEMB     254      POPE     H9Y      HAL2     0.900000E-01   1.00800           0
     31622 MEMB     254      POPE     C310     CTL2    -0.180000       12.0110           0
     31623 MEMB     254      POPE     H10X     HAL2     0.900000E-01   1.00800           0
     31624 MEMB     254      POPE     H10Y     HAL2     0.900000E-01   1.00800           0
     31625 MEMB     254      POPE     C311     CTL2    -0.180000       12.0110           0
     31626 MEMB     254      POPE     H11X     HAL2     0.900000E-01   1.00800           0
     31627 MEMB     254      POPE     H11Y     HAL2     0.900000E-01   1.00800           0
     31628 MEMB     254      POPE     C312     CTL2    -0.180000       12.0110           0
     31629 MEMB     254      POPE     H12X     HAL2     0.900000E-01   1.00800           0
     31630 MEMB     254      POPE     H12Y     HAL2     0.900000E-01   1.00800           0
     31631 MEMB     254      POPE     C313     CTL2    -0.180000       12.0110           0
     31632 MEMB     254      POPE     H13X     HAL2     0.900000E-01   1.00800           0
     31633 MEMB     254      POPE     H13Y     HAL2     0.900000E-01   1.00800           0
     31634 MEMB     254      POPE     C314     CTL2    -0.180000       12.0110           0
     31635 MEMB     254      POPE     H14X     HAL2     0.900000E-01   1.00800           0
     31636 MEMB     254      POPE     H14Y     HAL2     0.900000E-01   1.00800           0
     31637 MEMB     254      POPE     C315     CTL2    -0.180000       12.0110           0
     31638 MEMB     254      POPE     H15X     HAL2     0.900000E-01   1.00800           0
     31639 MEMB     254      POPE     H15Y     HAL2     0.900000E-01   1.00800           0
     31640 MEMB     254      POPE     C316     CTL3    -0.270000       12.0110           0
     31641 MEMB     254      POPE     H16X     HAL3     0.900000E-01   1.00800           0
     31642 MEMB     254      POPE     H16Y     HAL3     0.900000E-01   1.00800           0
     31643 MEMB     254      POPE     H16Z     HAL3     0.900000E-01   1.00800           0
     31644 MEMB     255      PMPE     N        NH3L    -0.300000       14.0070           0
     31645 MEMB     255      PMPE     HN1      HCL      0.330000       1.00800           0
     31646 MEMB     255      PMPE     HN2      HCL      0.330000       1.00800           0
     31647 MEMB     255      PMPE     HN3      HCL      0.330000       1.00800           0
     31648 MEMB     255      PMPE     C12      CTL2     0.130000       12.0110           0
     31649 MEMB     255      PMPE     H12A     HAL2     0.900000E-01   1.00800           0
     31650 MEMB     255      PMPE     H12B     HAL2     0.900000E-01   1.00800           0
     31651 MEMB     255      PMPE     C11      CTL2    -0.800000E-01   12.0110           0
     31652 MEMB     255      PMPE     H11A     HAL2     0.900000E-01   1.00800           0
     31653 MEMB     255      PMPE     H11B     HAL2     0.900000E-01   1.00800           0
     31654 MEMB     255      PMPE     P        PL        1.50000       30.9740           0
     31655 MEMB     255      PMPE     O13      O2L     -0.780000       15.9994           0
     31656 MEMB     255      PMPE     O14      O2L     -0.780000       15.9994           0
     31657 MEMB     255      PMPE     O11      OSLP    -0.570000       15.9994           0
     31658 MEMB     255      PMPE     O12      OSLP    -0.570000       15.9994           0
     31659 MEMB     255      PMPE     C1       CTL2    -0.800000E-01   12.0110           0
     31660 MEMB     255      PMPE     HA       HAL2     0.900000E-01   1.00800           0
     31661 MEMB     255      PMPE     HB       HAL2     0.900000E-01   1.00800           0
     31662 MEMB     255      PMPE     C2       CTL1     0.170000       12.0110           0
     31663 MEMB     255      PMPE     HS       HAL1     0.900000E-01   1.00800           0
     31664 MEMB     255      PMPE     O21      OSL     -0.490000       15.9994           0
     31665 MEMB     255      PMPE     C21      CL       0.900000       12.0110           0
     31666 MEMB     255      PMPE     O22      OBL     -0.630000       15.9994           0
     31667 MEMB     255      PMPE     C22      CTL2    -0.220000       12.0110           0
     31668 MEMB     255      PMPE     H2R      HAL2     0.900000E-01   1.00800           0
     31669 MEMB     255      PMPE     H2S      HAL2     0.900000E-01   1.00800           0
     31670 MEMB     255      PMPE     C3       CTL2     0.800000E-01   12.0110           0
     31671 MEMB     255      PMPE     HX       HAL2     0.900000E-01   1.00800           0
     31672 MEMB     255      PMPE     HY       HAL2     0.900000E-01   1.00800           0
     31673 MEMB     255      PMPE     O31      OSL     -0.490000       15.9994           0
     31674 MEMB     255      PMPE     C31      CL       0.900000       12.0110           0
     31675 MEMB     255      PMPE     O32      OBL     -0.630000       15.9994           0
     31676 MEMB     255      PMPE     C32      CTL2    -0.220000       12.0110           0
     31677 MEMB     255      PMPE     H2X      HAL2     0.900000E-01   1.00800           0
     31678 MEMB     255      PMPE     H2Y      HAL2     0.900000E-01   1.00800           0
     31679 MEMB     255      PMPE     C23      CTL2    -0.180000       12.0110           0
     31680 MEMB     255      PMPE     H3R      HAL2     0.900000E-01   1.00800           0
     31681 MEMB     255      PMPE     H3S      HAL2     0.900000E-01   1.00800           0
     31682 MEMB     255      PMPE     C24      CTL2    -0.180000       12.0110           0
     31683 MEMB     255      PMPE     H4R      HAL2     0.900000E-01   1.00800           0
     31684 MEMB     255      PMPE     H4S      HAL2     0.900000E-01   1.00800           0
     31685 MEMB     255      PMPE     C25      CTL2    -0.180000       12.0110           0
     31686 MEMB     255      PMPE     H5R      HAL2     0.900000E-01   1.00800           0
     31687 MEMB     255      PMPE     H5S      HAL2     0.900000E-01   1.00800           0
     31688 MEMB     255      PMPE     C26      CTL2    -0.180000       12.0110           0
     31689 MEMB     255      PMPE     H6R      HAL2     0.900000E-01   1.00800           0
     31690 MEMB     255      PMPE     H6S      HAL2     0.900000E-01   1.00800           0
     31691 MEMB     255      PMPE     C27      CTL2    -0.180000       12.0110           0
     31692 MEMB     255      PMPE     H7R      HAL2     0.900000E-01   1.00800           0
     31693 MEMB     255      PMPE     H7S      HAL2     0.900000E-01   1.00800           0
     31694 MEMB     255      PMPE     C28      CTL2    -0.180000       12.0110           0
     31695 MEMB     255      PMPE     H8R      HAL2     0.900000E-01   1.00800           0
     31696 MEMB     255      PMPE     H8S      HAL2     0.900000E-01   1.00800           0
     31697 MEMB     255      PMPE     C29      CG3RC1  -0.900000E-01   12.0110           0
     31698 MEMB     255      PMPE     H9R      HGA1     0.900000E-01   1.00800           0
     31699 MEMB     255      PMPE     C217     CG3C31  -0.180000       12.0110           0
     31700 MEMB     255      PMPE     H17R     HGA2     0.900000E-01   1.00800           0
     31701 MEMB     255      PMPE     H17S     HGA2     0.900000E-01   1.00800           0
     31702 MEMB     255      PMPE     C210     CG3RC1  -0.900000E-01   12.0110           0
     31703 MEMB     255      PMPE     H10R     HGA1     0.900000E-01   1.00800           0
     31704 MEMB     255      PMPE     C211     CTL2    -0.180000       12.0110           0
     31705 MEMB     255      PMPE     H11R     HAL2     0.900000E-01   1.00800           0
     31706 MEMB     255      PMPE     H11S     HAL2     0.900000E-01   1.00800           0
     31707 MEMB     255      PMPE     C212     CTL2    -0.180000       12.0110           0
     31708 MEMB     255      PMPE     H12R     HAL2     0.900000E-01   1.00800           0
     31709 MEMB     255      PMPE     H12S     HAL2     0.900000E-01   1.00800           0
     31710 MEMB     255      PMPE     C213     CTL2    -0.180000       12.0110           0
     31711 MEMB     255      PMPE     H13R     HAL2     0.900000E-01   1.00800           0
     31712 MEMB     255      PMPE     H13S     HAL2     0.900000E-01   1.00800           0
     31713 MEMB     255      PMPE     C214     CTL2    -0.180000       12.0110           0
     31714 MEMB     255      PMPE     H14R     HAL2     0.900000E-01   1.00800           0
     31715 MEMB     255      PMPE     H14S     HAL2     0.900000E-01   1.00800           0
     31716 MEMB     255      PMPE     C215     CTL2    -0.180000       12.0110           0
     31717 MEMB     255      PMPE     H15R     HAL2     0.900000E-01   1.00800           0
     31718 MEMB     255      PMPE     H15S     HAL2     0.900000E-01   1.00800           0
     31719 MEMB     255      PMPE     C216     CTL3    -0.270000       12.0110           0
     31720 MEMB     255      PMPE     H16R     HAL3     0.900000E-01   1.00800           0
     31721 MEMB     255      PMPE     H16S     HAL3     0.900000E-01   1.00800           0
     31722 MEMB     255      PMPE     H16T     HAL3     0.900000E-01   1.00800           0
     31723 MEMB     255      PMPE     C33      CTL2    -0.180000       12.0110           0
     31724 MEMB     255      PMPE     H3X      HAL2     0.900000E-01   1.00800           0
     31725 MEMB     255      PMPE     H3Y      HAL2     0.900000E-01   1.00800           0
     31726 MEMB     255      PMPE     C34      CTL2    -0.180000       12.0110           0
     31727 MEMB     255      PMPE     H4X      HAL2     0.900000E-01   1.00800           0
     31728 MEMB     255      PMPE     H4Y      HAL2     0.900000E-01   1.00800           0
     31729 MEMB     255      PMPE     C35      CTL2    -0.180000       12.0110           0
     31730 MEMB     255      PMPE     H5X      HAL2     0.900000E-01   1.00800           0
     31731 MEMB     255      PMPE     H5Y      HAL2     0.900000E-01   1.00800           0
     31732 MEMB     255      PMPE     C36      CTL2    -0.180000       12.0110           0
     31733 MEMB     255      PMPE     H6X      HAL2     0.900000E-01   1.00800           0
     31734 MEMB     255      PMPE     H6Y      HAL2     0.900000E-01   1.00800           0
     31735 MEMB     255      PMPE     C37      CTL2    -0.180000       12.0110           0
     31736 MEMB     255      PMPE     H7X      HAL2     0.900000E-01   1.00800           0
     31737 MEMB     255      PMPE     H7Y      HAL2     0.900000E-01   1.00800           0
     31738 MEMB     255      PMPE     C38      CTL2    -0.180000       12.0110           0
     31739 MEMB     255      PMPE     H8X      HAL2     0.900000E-01   1.00800           0
     31740 MEMB     255      PMPE     H8Y      HAL2     0.900000E-01   1.00800           0
     31741 MEMB     255      PMPE     C39      CTL2    -0.180000       12.0110           0
     31742 MEMB     255      PMPE     H9X      HAL2     0.900000E-01   1.00800           0
     31743 MEMB     255      PMPE     H9Y      HAL2     0.900000E-01   1.00800           0
     31744 MEMB     255      PMPE     C310     CTL2    -0.180000       12.0110           0
     31745 MEMB     255      PMPE     H10X     HAL2     0.900000E-01   1.00800           0
     31746 MEMB     255      PMPE     H10Y     HAL2     0.900000E-01   1.00800           0
     31747 MEMB     255      PMPE     C311     CTL2    -0.180000       12.0110           0
     31748 MEMB     255      PMPE     H11X     HAL2     0.900000E-01   1.00800           0
     31749 MEMB     255      PMPE     H11Y     HAL2     0.900000E-01   1.00800           0
     31750 MEMB     255      PMPE     C312     CTL2    -0.180000       12.0110           0
     31751 MEMB     255      PMPE     H12X     HAL2     0.900000E-01   1.00800           0
     31752 MEMB     255      PMPE     H12Y     HAL2     0.900000E-01   1.00800           0
     31753 MEMB     255      PMPE     C313     CTL2    -0.180000       12.0110           0
     31754 MEMB     255      PMPE     H13X     HAL2     0.900000E-01   1.00800           0
     31755 MEMB     255      PMPE     H13Y     HAL2     0.900000E-01   1.00800           0
     31756 MEMB     255      PMPE     C314     CTL2    -0.180000       12.0110           0
     31757 MEMB     255      PMPE     H14X     HAL2     0.900000E-01   1.00800           0
     31758 MEMB     255      PMPE     H14Y     HAL2     0.900000E-01   1.00800           0
     31759 MEMB     255      PMPE     C315     CTL2    -0.180000       12.0110           0
     31760 MEMB     255      PMPE     H15X     HAL2     0.900000E-01   1.00800           0
     31761 MEMB     255      PMPE     H15Y     HAL2     0.900000E-01   1.00800           0
     31762 MEMB     255      PMPE     C316     CTL3    -0.270000       12.0110           0
     31763 MEMB     255      PMPE     H16X     HAL3     0.900000E-01   1.00800           0
     31764 MEMB     255      PMPE     H16Y     HAL3     0.900000E-01   1.00800           0
     31765 MEMB     255      PMPE     H16Z     HAL3     0.900000E-01   1.00800           0
     31766 MEMB     256      PMPE     N        NH3L    -0.300000       14.0070           0
     31767 MEMB     256      PMPE     HN1      HCL      0.330000       1.00800           0
     31768 MEMB     256      PMPE     HN2      HCL      0.330000       1.00800           0
     31769 MEMB     256      PMPE     HN3      HCL      0.330000       1.00800           0
     31770 MEMB     256      PMPE     C12      CTL2     0.130000       12.0110           0
     31771 MEMB     256      PMPE     H12A     HAL2     0.900000E-01   1.00800           0
     31772 MEMB     256      PMPE     H12B     HAL2     0.900000E-01   1.00800           0
     31773 MEMB     256      PMPE     C11      CTL2    -0.800000E-01   12.0110           0
     31774 MEMB     256      PMPE     H11A     HAL2     0.900000E-01   1.00800           0
     31775 MEMB     256      PMPE     H11B     HAL2     0.900000E-01   1.00800           0
     31776 MEMB     256      PMPE     P        PL        1.50000       30.9740           0
     31777 MEMB     256      PMPE     O13      O2L     -0.780000       15.9994           0
     31778 MEMB     256      PMPE     O14      O2L     -0.780000       15.9994           0
     31779 MEMB     256      PMPE     O11      OSLP    -0.570000       15.9994           0
     31780 MEMB     256      PMPE     O12      OSLP    -0.570000       15.9994           0
     31781 MEMB     256      PMPE     C1       CTL2    -0.800000E-01   12.0110           0
     31782 MEMB     256      PMPE     HA       HAL2     0.900000E-01   1.00800           0
     31783 MEMB     256      PMPE     HB       HAL2     0.900000E-01   1.00800           0
     31784 MEMB     256      PMPE     C2       CTL1     0.170000       12.0110           0
     31785 MEMB     256      PMPE     HS       HAL1     0.900000E-01   1.00800           0
     31786 MEMB     256      PMPE     O21      OSL     -0.490000       15.9994           0
     31787 MEMB     256      PMPE     C21      CL       0.900000       12.0110           0
     31788 MEMB     256      PMPE     O22      OBL     -0.630000       15.9994           0
     31789 MEMB     256      PMPE     C22      CTL2    -0.220000       12.0110           0
     31790 MEMB     256      PMPE     H2R      HAL2     0.900000E-01   1.00800           0
     31791 MEMB     256      PMPE     H2S      HAL2     0.900000E-01   1.00800           0
     31792 MEMB     256      PMPE     C3       CTL2     0.800000E-01   12.0110           0
     31793 MEMB     256      PMPE     HX       HAL2     0.900000E-01   1.00800           0
     31794 MEMB     256      PMPE     HY       HAL2     0.900000E-01   1.00800           0
     31795 MEMB     256      PMPE     O31      OSL     -0.490000       15.9994           0
     31796 MEMB     256      PMPE     C31      CL       0.900000       12.0110           0
     31797 MEMB     256      PMPE     O32      OBL     -0.630000       15.9994           0
     31798 MEMB     256      PMPE     C32      CTL2    -0.220000       12.0110           0
     31799 MEMB     256      PMPE     H2X      HAL2     0.900000E-01   1.00800           0
     31800 MEMB     256      PMPE     H2Y      HAL2     0.900000E-01   1.00800           0
     31801 MEMB     256      PMPE     C23      CTL2    -0.180000       12.0110           0
     31802 MEMB     256      PMPE     H3R      HAL2     0.900000E-01   1.00800           0
     31803 MEMB     256      PMPE     H3S      HAL2     0.900000E-01   1.00800           0
     31804 MEMB     256      PMPE     C24      CTL2    -0.180000       12.0110           0
     31805 MEMB     256      PMPE     H4R      HAL2     0.900000E-01   1.00800           0
     31806 MEMB     256      PMPE     H4S      HAL2     0.900000E-01   1.00800           0
     31807 MEMB     256      PMPE     C25      CTL2    -0.180000       12.0110           0
     31808 MEMB     256      PMPE     H5R      HAL2     0.900000E-01   1.00800           0
     31809 MEMB     256      PMPE     H5S      HAL2     0.900000E-01   1.00800           0
     31810 MEMB     256      PMPE     C26      CTL2    -0.180000       12.0110           0
     31811 MEMB     256      PMPE     H6R      HAL2     0.900000E-01   1.00800           0
     31812 MEMB     256      PMPE     H6S      HAL2     0.900000E-01   1.00800           0
     31813 MEMB     256      PMPE     C27      CTL2    -0.180000       12.0110           0
     31814 MEMB     256      PMPE     H7R      HAL2     0.900000E-01   1.00800           0
     31815 MEMB     256      PMPE     H7S      HAL2     0.900000E-01   1.00800           0
     31816 MEMB     256      PMPE     C28      CTL2    -0.180000       12.0110           0
     31817 MEMB     256      PMPE     H8R      HAL2     0.900000E-01   1.00800           0
     31818 MEMB     256      PMPE     H8S      HAL2     0.900000E-01   1.00800           0
     31819 MEMB     256      PMPE     C29      CG3RC1  -0.900000E-01   12.0110           0
     31820 MEMB     256      PMPE     H9R      HGA1     0.900000E-01   1.00800           0
     31821 MEMB     256      PMPE     C217     CG3C31  -0.180000       12.0110           0
     31822 MEMB     256      PMPE     H17R     HGA2     0.900000E-01   1.00800           0
     31823 MEMB     256      PMPE     H17S     HGA2     0.900000E-01   1.00800           0
     31824 MEMB     256      PMPE     C210     CG3RC1  -0.900000E-01   12.0110           0
     31825 MEMB     256      PMPE     H10R     HGA1     0.900000E-01   1.00800           0
     31826 MEMB     256      PMPE     C211     CTL2    -0.180000       12.0110           0
     31827 MEMB     256      PMPE     H11R     HAL2     0.900000E-01   1.00800           0
     31828 MEMB     256      PMPE     H11S     HAL2     0.900000E-01   1.00800           0
     31829 MEMB     256      PMPE     C212     CTL2    -0.180000       12.0110           0
     31830 MEMB     256      PMPE     H12R     HAL2     0.900000E-01   1.00800           0
     31831 MEMB     256      PMPE     H12S     HAL2     0.900000E-01   1.00800           0
     31832 MEMB     256      PMPE     C213     CTL2    -0.180000       12.0110           0
     31833 MEMB     256      PMPE     H13R     HAL2     0.900000E-01   1.00800           0
     31834 MEMB     256      PMPE     H13S     HAL2     0.900000E-01   1.00800           0
     31835 MEMB     256      PMPE     C214     CTL2    -0.180000       12.0110           0
     31836 MEMB     256      PMPE     H14R     HAL2     0.900000E-01   1.00800           0
     31837 MEMB     256      PMPE     H14S     HAL2     0.900000E-01   1.00800           0
     31838 MEMB     256      PMPE     C215     CTL2    -0.180000       12.0110           0
     31839 MEMB     256      PMPE     H15R     HAL2     0.900000E-01   1.00800           0
     31840 MEMB     256      PMPE     H15S     HAL2     0.900000E-01   1.00800           0
     31841 MEMB     256      PMPE     C216     CTL3    -0.270000       12.0110           0
     31842 MEMB     256      PMPE     H16R     HAL3     0.900000E-01   1.00800           0
     31843 MEMB     256      PMPE     H16S     HAL3     0.900000E-01   1.00800           0
     31844 MEMB     256      PMPE     H16T     HAL3     0.900000E-01   1.00800           0
     31845 MEMB     256      PMPE     C33      CTL2    -0.180000       12.0110           0
     31846 MEMB     256      PMPE     H3X      HAL2     0.900000E-01   1.00800           0
     31847 MEMB     256      PMPE     H3Y      HAL2     0.900000E-01   1.00800           0
     31848 MEMB     256      PMPE     C34      CTL2    -0.180000       12.0110           0
     31849 MEMB     256      PMPE     H4X      HAL2     0.900000E-01   1.00800           0
     31850 MEMB     256      PMPE     H4Y      HAL2     0.900000E-01   1.00800           0
     31851 MEMB     256      PMPE     C35      CTL2    -0.180000       12.0110           0
     31852 MEMB     256      PMPE     H5X      HAL2     0.900000E-01   1.00800           0
     31853 MEMB     256      PMPE     H5Y      HAL2     0.900000E-01   1.00800           0
     31854 MEMB     256      PMPE     C36      CTL2    -0.180000       12.0110           0
     31855 MEMB     256      PMPE     H6X      HAL2     0.900000E-01   1.00800           0
     31856 MEMB     256      PMPE     H6Y      HAL2     0.900000E-01   1.00800           0
     31857 MEMB     256      PMPE     C37      CTL2    -0.180000       12.0110           0
     31858 MEMB     256      PMPE     H7X      HAL2     0.900000E-01   1.00800           0
     31859 MEMB     256      PMPE     H7Y      HAL2     0.900000E-01   1.00800           0
     31860 MEMB     256      PMPE     C38      CTL2    -0.180000       12.0110           0
     31861 MEMB     256      PMPE     H8X      HAL2     0.900000E-01   1.00800           0
     31862 MEMB     256      PMPE     H8Y      HAL2     0.900000E-01   1.00800           0
     31863 MEMB     256      PMPE     C39      CTL2    -0.180000       12.0110           0
     31864 MEMB     256      PMPE     H9X      HAL2     0.900000E-01   1.00800           0
     31865 MEMB     256      PMPE     H9Y      HAL2     0.900000E-01   1.00800           0
     31866 MEMB     256      PMPE     C310     CTL2    -0.180000       12.0110           0
     31867 MEMB     256      PMPE     H10X     HAL2     0.900000E-01   1.00800           0
     31868 MEMB     256      PMPE     H10Y     HAL2     0.900000E-01   1.00800           0
     31869 MEMB     256      PMPE     C311     CTL2    -0.180000       12.0110           0
     31870 MEMB     256      PMPE     H11X     HAL2     0.900000E-01   1.00800           0
     31871 MEMB     256      PMPE     H11Y     HAL2     0.900000E-01   1.00800           0
     31872 MEMB     256      PMPE     C312     CTL2    -0.180000       12.0110           0
     31873 MEMB     256      PMPE     H12X     HAL2     0.900000E-01   1.00800           0
     31874 MEMB     256      PMPE     H12Y     HAL2     0.900000E-01   1.00800           0
     31875 MEMB     256      PMPE     C313     CTL2    -0.180000       12.0110           0
     31876 MEMB     256      PMPE     H13X     HAL2     0.900000E-01   1.00800           0
     31877 MEMB     256      PMPE     H13Y     HAL2     0.900000E-01   1.00800           0
     31878 MEMB     256      PMPE     C314     CTL2    -0.180000       12.0110           0
     31879 MEMB     256      PMPE     H14X     HAL2     0.900000E-01   1.00800           0
     31880 MEMB     256      PMPE     H14Y     HAL2     0.900000E-01   1.00800           0
     31881 MEMB     256      PMPE     C315     CTL2    -0.180000       12.0110           0
     31882 MEMB     256      PMPE     H15X     HAL2     0.900000E-01   1.00800           0
     31883 MEMB     256      PMPE     H15Y     HAL2     0.900000E-01   1.00800           0
     31884 MEMB     256      PMPE     C316     CTL3    -0.270000       12.0110           0
     31885 MEMB     256      PMPE     H16X     HAL3     0.900000E-01   1.00800           0
     31886 MEMB     256      PMPE     H16Y     HAL3     0.900000E-01   1.00800           0
     31887 MEMB     256      PMPE     H16Z     HAL3     0.900000E-01   1.00800           0
     31888 MEMB     257      OYPE     N        NH3L    -0.300000       14.0070           0
     31889 MEMB     257      OYPE     HN1      HCL      0.330000       1.00800           0
     31890 MEMB     257      OYPE     HN2      HCL      0.330000       1.00800           0
     31891 MEMB     257      OYPE     HN3      HCL      0.330000       1.00800           0
     31892 MEMB     257      OYPE     C12      CTL2     0.130000       12.0110           0
     31893 MEMB     257      OYPE     H12A     HAL2     0.900000E-01   1.00800           0
     31894 MEMB     257      OYPE     H12B     HAL2     0.900000E-01   1.00800           0
     31895 MEMB     257      OYPE     C11      CTL2    -0.800000E-01   12.0110           0
     31896 MEMB     257      OYPE     H11A     HAL2     0.900000E-01   1.00800           0
     31897 MEMB     257      OYPE     H11B     HAL2     0.900000E-01   1.00800           0
     31898 MEMB     257      OYPE     P        PL        1.50000       30.9740           0
     31899 MEMB     257      OYPE     O13      O2L     -0.780000       15.9994           0
     31900 MEMB     257      OYPE     O14      O2L     -0.780000       15.9994           0
     31901 MEMB     257      OYPE     O11      OSLP    -0.570000       15.9994           0
     31902 MEMB     257      OYPE     O12      OSLP    -0.570000       15.9994           0
     31903 MEMB     257      OYPE     C1       CTL2    -0.800000E-01   12.0110           0
     31904 MEMB     257      OYPE     HA       HAL2     0.900000E-01   1.00800           0
     31905 MEMB     257      OYPE     HB       HAL2     0.900000E-01   1.00800           0
     31906 MEMB     257      OYPE     C2       CTL1     0.170000       12.0110           0
     31907 MEMB     257      OYPE     HS       HAL1     0.900000E-01   1.00800           0
     31908 MEMB     257      OYPE     O21      OSL     -0.490000       15.9994           0
     31909 MEMB     257      OYPE     C21      CL       0.900000       12.0110           0
     31910 MEMB     257      OYPE     O22      OBL     -0.630000       15.9994           0
     31911 MEMB     257      OYPE     C22      CTL2    -0.220000       12.0110           0
     31912 MEMB     257      OYPE     H2R      HAL2     0.900000E-01   1.00800           0
     31913 MEMB     257      OYPE     H2S      HAL2     0.900000E-01   1.00800           0
     31914 MEMB     257      OYPE     C3       CTL2     0.800000E-01   12.0110           0
     31915 MEMB     257      OYPE     HX       HAL2     0.900000E-01   1.00800           0
     31916 MEMB     257      OYPE     HY       HAL2     0.900000E-01   1.00800           0
     31917 MEMB     257      OYPE     O31      OSL     -0.490000       15.9994           0
     31918 MEMB     257      OYPE     C31      CL       0.900000       12.0110           0
     31919 MEMB     257      OYPE     O32      OBL     -0.630000       15.9994           0
     31920 MEMB     257      OYPE     C32      CTL2    -0.220000       12.0110           0
     31921 MEMB     257      OYPE     H2X      HAL2     0.900000E-01   1.00800           0
     31922 MEMB     257      OYPE     H2Y      HAL2     0.900000E-01   1.00800           0
     31923 MEMB     257      OYPE     C23      CTL2    -0.180000       12.0110           0
     31924 MEMB     257      OYPE     H3R      HAL2     0.900000E-01   1.00800           0
     31925 MEMB     257      OYPE     H3S      HAL2     0.900000E-01   1.00800           0
     31926 MEMB     257      OYPE     C24      CTL2    -0.180000       12.0110           0
     31927 MEMB     257      OYPE     H4R      HAL2     0.900000E-01   1.00800           0
     31928 MEMB     257      OYPE     H4S      HAL2     0.900000E-01   1.00800           0
     31929 MEMB     257      OYPE     C25      CTL2    -0.180000       12.0110           0
     31930 MEMB     257      OYPE     H5R      HAL2     0.900000E-01   1.00800           0
     31931 MEMB     257      OYPE     H5S      HAL2     0.900000E-01   1.00800           0
     31932 MEMB     257      OYPE     C26      CTL2    -0.180000       12.0110           0
     31933 MEMB     257      OYPE     H6R      HAL2     0.900000E-01   1.00800           0
     31934 MEMB     257      OYPE     H6S      HAL2     0.900000E-01   1.00800           0
     31935 MEMB     257      OYPE     C27      CTL2    -0.180000       12.0110           0
     31936 MEMB     257      OYPE     H7R      HAL2     0.900000E-01   1.00800           0
     31937 MEMB     257      OYPE     H7S      HAL2     0.900000E-01   1.00800           0
     31938 MEMB     257      OYPE     C28      CTL2    -0.180000       12.0110           0
     31939 MEMB     257      OYPE     H8R      HAL2     0.900000E-01   1.00800           0
     31940 MEMB     257      OYPE     H8S      HAL2     0.900000E-01   1.00800           0
     31941 MEMB     257      OYPE     C29      CEL1    -0.150000       12.0110           0
     31942 MEMB     257      OYPE     H9R      HEL1     0.150000       1.00800           0
     31943 MEMB     257      OYPE     C210     CEL1    -0.150000       12.0110           0
     31944 MEMB     257      OYPE     H10R     HEL1     0.150000       1.00800           0
     31945 MEMB     257      OYPE     C211     CTL2    -0.180000       12.0110           0
     31946 MEMB     257      OYPE     H11R     HAL2     0.900000E-01   1.00800           0
     31947 MEMB     257      OYPE     H11S     HAL2     0.900000E-01   1.00800           0
     31948 MEMB     257      OYPE     C212     CTL2    -0.180000       12.0110           0
     31949 MEMB     257      OYPE     H12R     HAL2     0.900000E-01   1.00800           0
     31950 MEMB     257      OYPE     H12S     HAL2     0.900000E-01   1.00800           0
     31951 MEMB     257      OYPE     C213     CTL2    -0.180000       12.0110           0
     31952 MEMB     257      OYPE     H13R     HAL2     0.900000E-01   1.00800           0
     31953 MEMB     257      OYPE     H13S     HAL2     0.900000E-01   1.00800           0
     31954 MEMB     257      OYPE     C214     CTL2    -0.180000       12.0110           0
     31955 MEMB     257      OYPE     H14R     HAL2     0.900000E-01   1.00800           0
     31956 MEMB     257      OYPE     H14S     HAL2     0.900000E-01   1.00800           0
     31957 MEMB     257      OYPE     C215     CTL2    -0.180000       12.0110           0
     31958 MEMB     257      OYPE     H15R     HAL2     0.900000E-01   1.00800           0
     31959 MEMB     257      OYPE     H15S     HAL2     0.900000E-01   1.00800           0
     31960 MEMB     257      OYPE     C216     CTL3    -0.270000       12.0110           0
     31961 MEMB     257      OYPE     H16R     HAL3     0.900000E-01   1.00800           0
     31962 MEMB     257      OYPE     H16S     HAL3     0.900000E-01   1.00800           0
     31963 MEMB     257      OYPE     H16T     HAL3     0.900000E-01   1.00800           0
     31964 MEMB     257      OYPE     C33      CTL2    -0.180000       12.0110           0
     31965 MEMB     257      OYPE     H3X      HAL2     0.900000E-01   1.00800           0
     31966 MEMB     257      OYPE     H3Y      HAL2     0.900000E-01   1.00800           0
     31967 MEMB     257      OYPE     C34      CTL2    -0.180000       12.0110           0
     31968 MEMB     257      OYPE     H4X      HAL2     0.900000E-01   1.00800           0
     31969 MEMB     257      OYPE     H4Y      HAL2     0.900000E-01   1.00800           0
     31970 MEMB     257      OYPE     C35      CTL2    -0.180000       12.0110           0
     31971 MEMB     257      OYPE     H5X      HAL2     0.900000E-01   1.00800           0
     31972 MEMB     257      OYPE     H5Y      HAL2     0.900000E-01   1.00800           0
     31973 MEMB     257      OYPE     C36      CTL2    -0.180000       12.0110           0
     31974 MEMB     257      OYPE     H6X      HAL2     0.900000E-01   1.00800           0
     31975 MEMB     257      OYPE     H6Y      HAL2     0.900000E-01   1.00800           0
     31976 MEMB     257      OYPE     C37      CTL2    -0.180000       12.0110           0
     31977 MEMB     257      OYPE     H7X      HAL2     0.900000E-01   1.00800           0
     31978 MEMB     257      OYPE     H7Y      HAL2     0.900000E-01   1.00800           0
     31979 MEMB     257      OYPE     C38      CTL2    -0.180000       12.0110           0
     31980 MEMB     257      OYPE     H8X      HAL2     0.900000E-01   1.00800           0
     31981 MEMB     257      OYPE     H8Y      HAL2     0.900000E-01   1.00800           0
     31982 MEMB     257      OYPE     C39      CEL1    -0.150000       12.0110           0
     31983 MEMB     257      OYPE     H9X      HEL1     0.150000       1.00800           0
     31984 MEMB     257      OYPE     C310     CEL1    -0.150000       12.0110           0
     31985 MEMB     257      OYPE     H10X     HEL1     0.150000       1.00800           0
     31986 MEMB     257      OYPE     C311     CTL2    -0.180000       12.0110           0
     31987 MEMB     257      OYPE     H11X     HAL2     0.900000E-01   1.00800           0
     31988 MEMB     257      OYPE     H11Y     HAL2     0.900000E-01   1.00800           0
     31989 MEMB     257      OYPE     C312     CTL2    -0.180000       12.0110           0
     31990 MEMB     257      OYPE     H12X     HAL2     0.900000E-01   1.00800           0
     31991 MEMB     257      OYPE     H12Y     HAL2     0.900000E-01   1.00800           0
     31992 MEMB     257      OYPE     C313     CTL2    -0.180000       12.0110           0
     31993 MEMB     257      OYPE     H13X     HAL2     0.900000E-01   1.00800           0
     31994 MEMB     257      OYPE     H13Y     HAL2     0.900000E-01   1.00800           0
     31995 MEMB     257      OYPE     C314     CTL2    -0.180000       12.0110           0
     31996 MEMB     257      OYPE     H14X     HAL2     0.900000E-01   1.00800           0
     31997 MEMB     257      OYPE     H14Y     HAL2     0.900000E-01   1.00800           0
     31998 MEMB     257      OYPE     C315     CTL2    -0.180000       12.0110           0
     31999 MEMB     257      OYPE     H15X     HAL2     0.900000E-01   1.00800           0
     32000 MEMB     257      OYPE     H15Y     HAL2     0.900000E-01   1.00800           0
     32001 MEMB     257      OYPE     C316     CTL2    -0.180000       12.0110           0
     32002 MEMB     257      OYPE     H16X     HAL2     0.900000E-01   1.00800           0
     32003 MEMB     257      OYPE     H16Y     HAL2     0.900000E-01   1.00800           0
     32004 MEMB     257      OYPE     C317     CTL2    -0.180000       12.0110           0
     32005 MEMB     257      OYPE     H17X     HAL2     0.900000E-01   1.00800           0
     32006 MEMB     257      OYPE     H17Y     HAL2     0.900000E-01   1.00800           0
     32007 MEMB     257      OYPE     C318     CTL3    -0.270000       12.0110           0
     32008 MEMB     257      OYPE     H18X     HAL3     0.900000E-01   1.00800           0
     32009 MEMB     257      OYPE     H18Y     HAL3     0.900000E-01   1.00800           0
     32010 MEMB     257      OYPE     H18Z     HAL3     0.900000E-01   1.00800           0
     32011 MEMB     258      PMPE     N        NH3L    -0.300000       14.0070           0
     32012 MEMB     258      PMPE     HN1      HCL      0.330000       1.00800           0
     32013 MEMB     258      PMPE     HN2      HCL      0.330000       1.00800           0
     32014 MEMB     258      PMPE     HN3      HCL      0.330000       1.00800           0
     32015 MEMB     258      PMPE     C12      CTL2     0.130000       12.0110           0
     32016 MEMB     258      PMPE     H12A     HAL2     0.900000E-01   1.00800           0
     32017 MEMB     258      PMPE     H12B     HAL2     0.900000E-01   1.00800           0
     32018 MEMB     258      PMPE     C11      CTL2    -0.800000E-01   12.0110           0
     32019 MEMB     258      PMPE     H11A     HAL2     0.900000E-01   1.00800           0
     32020 MEMB     258      PMPE     H11B     HAL2     0.900000E-01   1.00800           0
     32021 MEMB     258      PMPE     P        PL        1.50000       30.9740           0
     32022 MEMB     258      PMPE     O13      O2L     -0.780000       15.9994           0
     32023 MEMB     258      PMPE     O14      O2L     -0.780000       15.9994           0
     32024 MEMB     258      PMPE     O11      OSLP    -0.570000       15.9994           0
     32025 MEMB     258      PMPE     O12      OSLP    -0.570000       15.9994           0
     32026 MEMB     258      PMPE     C1       CTL2    -0.800000E-01   12.0110           0
     32027 MEMB     258      PMPE     HA       HAL2     0.900000E-01   1.00800           0
     32028 MEMB     258      PMPE     HB       HAL2     0.900000E-01   1.00800           0
     32029 MEMB     258      PMPE     C2       CTL1     0.170000       12.0110           0
     32030 MEMB     258      PMPE     HS       HAL1     0.900000E-01   1.00800           0
     32031 MEMB     258      PMPE     O21      OSL     -0.490000       15.9994           0
     32032 MEMB     258      PMPE     C21      CL       0.900000       12.0110           0
     32033 MEMB     258      PMPE     O22      OBL     -0.630000       15.9994           0
     32034 MEMB     258      PMPE     C22      CTL2    -0.220000       12.0110           0
     32035 MEMB     258      PMPE     H2R      HAL2     0.900000E-01   1.00800           0
     32036 MEMB     258      PMPE     H2S      HAL2     0.900000E-01   1.00800           0
     32037 MEMB     258      PMPE     C3       CTL2     0.800000E-01   12.0110           0
     32038 MEMB     258      PMPE     HX       HAL2     0.900000E-01   1.00800           0
     32039 MEMB     258      PMPE     HY       HAL2     0.900000E-01   1.00800           0
     32040 MEMB     258      PMPE     O31      OSL     -0.490000       15.9994           0
     32041 MEMB     258      PMPE     C31      CL       0.900000       12.0110           0
     32042 MEMB     258      PMPE     O32      OBL     -0.630000       15.9994           0
     32043 MEMB     258      PMPE     C32      CTL2    -0.220000       12.0110           0
     32044 MEMB     258      PMPE     H2X      HAL2     0.900000E-01   1.00800           0
     32045 MEMB     258      PMPE     H2Y      HAL2     0.900000E-01   1.00800           0
     32046 MEMB     258      PMPE     C23      CTL2    -0.180000       12.0110           0
     32047 MEMB     258      PMPE     H3R      HAL2     0.900000E-01   1.00800           0
     32048 MEMB     258      PMPE     H3S      HAL2     0.900000E-01   1.00800           0
     32049 MEMB     258      PMPE     C24      CTL2    -0.180000       12.0110           0
     32050 MEMB     258      PMPE     H4R      HAL2     0.900000E-01   1.00800           0
     32051 MEMB     258      PMPE     H4S      HAL2     0.900000E-01   1.00800           0
     32052 MEMB     258      PMPE     C25      CTL2    -0.180000       12.0110           0
     32053 MEMB     258      PMPE     H5R      HAL2     0.900000E-01   1.00800           0
     32054 MEMB     258      PMPE     H5S      HAL2     0.900000E-01   1.00800           0
     32055 MEMB     258      PMPE     C26      CTL2    -0.180000       12.0110           0
     32056 MEMB     258      PMPE     H6R      HAL2     0.900000E-01   1.00800           0
     32057 MEMB     258      PMPE     H6S      HAL2     0.900000E-01   1.00800           0
     32058 MEMB     258      PMPE     C27      CTL2    -0.180000       12.0110           0
     32059 MEMB     258      PMPE     H7R      HAL2     0.900000E-01   1.00800           0
     32060 MEMB     258      PMPE     H7S      HAL2     0.900000E-01   1.00800           0
     32061 MEMB     258      PMPE     C28      CTL2    -0.180000       12.0110           0
     32062 MEMB     258      PMPE     H8R      HAL2     0.900000E-01   1.00800           0
     32063 MEMB     258      PMPE     H8S      HAL2     0.900000E-01   1.00800           0
     32064 MEMB     258      PMPE     C29      CG3RC1  -0.900000E-01   12.0110           0
     32065 MEMB     258      PMPE     H9R      HGA1     0.900000E-01   1.00800           0
     32066 MEMB     258      PMPE     C217     CG3C31  -0.180000       12.0110           0
     32067 MEMB     258      PMPE     H17R     HGA2     0.900000E-01   1.00800           0
     32068 MEMB     258      PMPE     H17S     HGA2     0.900000E-01   1.00800           0
     32069 MEMB     258      PMPE     C210     CG3RC1  -0.900000E-01   12.0110           0
     32070 MEMB     258      PMPE     H10R     HGA1     0.900000E-01   1.00800           0
     32071 MEMB     258      PMPE     C211     CTL2    -0.180000       12.0110           0
     32072 MEMB     258      PMPE     H11R     HAL2     0.900000E-01   1.00800           0
     32073 MEMB     258      PMPE     H11S     HAL2     0.900000E-01   1.00800           0
     32074 MEMB     258      PMPE     C212     CTL2    -0.180000       12.0110           0
     32075 MEMB     258      PMPE     H12R     HAL2     0.900000E-01   1.00800           0
     32076 MEMB     258      PMPE     H12S     HAL2     0.900000E-01   1.00800           0
     32077 MEMB     258      PMPE     C213     CTL2    -0.180000       12.0110           0
     32078 MEMB     258      PMPE     H13R     HAL2     0.900000E-01   1.00800           0
     32079 MEMB     258      PMPE     H13S     HAL2     0.900000E-01   1.00800           0
     32080 MEMB     258      PMPE     C214     CTL2    -0.180000       12.0110           0
     32081 MEMB     258      PMPE     H14R     HAL2     0.900000E-01   1.00800           0
     32082 MEMB     258      PMPE     H14S     HAL2     0.900000E-01   1.00800           0
     32083 MEMB     258      PMPE     C215     CTL2    -0.180000       12.0110           0
     32084 MEMB     258      PMPE     H15R     HAL2     0.900000E-01   1.00800           0
     32085 MEMB     258      PMPE     H15S     HAL2     0.900000E-01   1.00800           0
     32086 MEMB     258      PMPE     C216     CTL3    -0.270000       12.0110           0
     32087 MEMB     258      PMPE     H16R     HAL3     0.900000E-01   1.00800           0
     32088 MEMB     258      PMPE     H16S     HAL3     0.900000E-01   1.00800           0
     32089 MEMB     258      PMPE     H16T     HAL3     0.900000E-01   1.00800           0
     32090 MEMB     258      PMPE     C33      CTL2    -0.180000       12.0110           0
     32091 MEMB     258      PMPE     H3X      HAL2     0.900000E-01   1.00800           0
     32092 MEMB     258      PMPE     H3Y      HAL2     0.900000E-01   1.00800           0
     32093 MEMB     258      PMPE     C34      CTL2    -0.180000       12.0110           0
     32094 MEMB     258      PMPE     H4X      HAL2     0.900000E-01   1.00800           0
     32095 MEMB     258      PMPE     H4Y      HAL2     0.900000E-01   1.00800           0
     32096 MEMB     258      PMPE     C35      CTL2    -0.180000       12.0110           0
     32097 MEMB     258      PMPE     H5X      HAL2     0.900000E-01   1.00800           0
     32098 MEMB     258      PMPE     H5Y      HAL2     0.900000E-01   1.00800           0
     32099 MEMB     258      PMPE     C36      CTL2    -0.180000       12.0110           0
     32100 MEMB     258      PMPE     H6X      HAL2     0.900000E-01   1.00800           0
     32101 MEMB     258      PMPE     H6Y      HAL2     0.900000E-01   1.00800           0
     32102 MEMB     258      PMPE     C37      CTL2    -0.180000       12.0110           0
     32103 MEMB     258      PMPE     H7X      HAL2     0.900000E-01   1.00800           0
     32104 MEMB     258      PMPE     H7Y      HAL2     0.900000E-01   1.00800           0
     32105 MEMB     258      PMPE     C38      CTL2    -0.180000       12.0110           0
     32106 MEMB     258      PMPE     H8X      HAL2     0.900000E-01   1.00800           0
     32107 MEMB     258      PMPE     H8Y      HAL2     0.900000E-01   1.00800           0
     32108 MEMB     258      PMPE     C39      CTL2    -0.180000       12.0110           0
     32109 MEMB     258      PMPE     H9X      HAL2     0.900000E-01   1.00800           0
     32110 MEMB     258      PMPE     H9Y      HAL2     0.900000E-01   1.00800           0
     32111 MEMB     258      PMPE     C310     CTL2    -0.180000       12.0110           0
     32112 MEMB     258      PMPE     H10X     HAL2     0.900000E-01   1.00800           0
     32113 MEMB     258      PMPE     H10Y     HAL2     0.900000E-01   1.00800           0
     32114 MEMB     258      PMPE     C311     CTL2    -0.180000       12.0110           0
     32115 MEMB     258      PMPE     H11X     HAL2     0.900000E-01   1.00800           0
     32116 MEMB     258      PMPE     H11Y     HAL2     0.900000E-01   1.00800           0
     32117 MEMB     258      PMPE     C312     CTL2    -0.180000       12.0110           0
     32118 MEMB     258      PMPE     H12X     HAL2     0.900000E-01   1.00800           0
     32119 MEMB     258      PMPE     H12Y     HAL2     0.900000E-01   1.00800           0
     32120 MEMB     258      PMPE     C313     CTL2    -0.180000       12.0110           0
     32121 MEMB     258      PMPE     H13X     HAL2     0.900000E-01   1.00800           0
     32122 MEMB     258      PMPE     H13Y     HAL2     0.900000E-01   1.00800           0
     32123 MEMB     258      PMPE     C314     CTL2    -0.180000       12.0110           0
     32124 MEMB     258      PMPE     H14X     HAL2     0.900000E-01   1.00800           0
     32125 MEMB     258      PMPE     H14Y     HAL2     0.900000E-01   1.00800           0
     32126 MEMB     258      PMPE     C315     CTL2    -0.180000       12.0110           0
     32127 MEMB     258      PMPE     H15X     HAL2     0.900000E-01   1.00800           0
     32128 MEMB     258      PMPE     H15Y     HAL2     0.900000E-01   1.00800           0
     32129 MEMB     258      PMPE     C316     CTL3    -0.270000       12.0110           0
     32130 MEMB     258      PMPE     H16X     HAL3     0.900000E-01   1.00800           0
     32131 MEMB     258      PMPE     H16Y     HAL3     0.900000E-01   1.00800           0
     32132 MEMB     258      PMPE     H16Z     HAL3     0.900000E-01   1.00800           0
     32133 MEMB     259      PMPE     N        NH3L    -0.300000       14.0070           0
     32134 MEMB     259      PMPE     HN1      HCL      0.330000       1.00800           0
     32135 MEMB     259      PMPE     HN2      HCL      0.330000       1.00800           0
     32136 MEMB     259      PMPE     HN3      HCL      0.330000       1.00800           0
     32137 MEMB     259      PMPE     C12      CTL2     0.130000       12.0110           0
     32138 MEMB     259      PMPE     H12A     HAL2     0.900000E-01   1.00800           0
     32139 MEMB     259      PMPE     H12B     HAL2     0.900000E-01   1.00800           0
     32140 MEMB     259      PMPE     C11      CTL2    -0.800000E-01   12.0110           0
     32141 MEMB     259      PMPE     H11A     HAL2     0.900000E-01   1.00800           0
     32142 MEMB     259      PMPE     H11B     HAL2     0.900000E-01   1.00800           0
     32143 MEMB     259      PMPE     P        PL        1.50000       30.9740           0
     32144 MEMB     259      PMPE     O13      O2L     -0.780000       15.9994           0
     32145 MEMB     259      PMPE     O14      O2L     -0.780000       15.9994           0
     32146 MEMB     259      PMPE     O11      OSLP    -0.570000       15.9994           0
     32147 MEMB     259      PMPE     O12      OSLP    -0.570000       15.9994           0
     32148 MEMB     259      PMPE     C1       CTL2    -0.800000E-01   12.0110           0
     32149 MEMB     259      PMPE     HA       HAL2     0.900000E-01   1.00800           0
     32150 MEMB     259      PMPE     HB       HAL2     0.900000E-01   1.00800           0
     32151 MEMB     259      PMPE     C2       CTL1     0.170000       12.0110           0
     32152 MEMB     259      PMPE     HS       HAL1     0.900000E-01   1.00800           0
     32153 MEMB     259      PMPE     O21      OSL     -0.490000       15.9994           0
     32154 MEMB     259      PMPE     C21      CL       0.900000       12.0110           0
     32155 MEMB     259      PMPE     O22      OBL     -0.630000       15.9994           0
     32156 MEMB     259      PMPE     C22      CTL2    -0.220000       12.0110           0
     32157 MEMB     259      PMPE     H2R      HAL2     0.900000E-01   1.00800           0
     32158 MEMB     259      PMPE     H2S      HAL2     0.900000E-01   1.00800           0
     32159 MEMB     259      PMPE     C3       CTL2     0.800000E-01   12.0110           0
     32160 MEMB     259      PMPE     HX       HAL2     0.900000E-01   1.00800           0
     32161 MEMB     259      PMPE     HY       HAL2     0.900000E-01   1.00800           0
     32162 MEMB     259      PMPE     O31      OSL     -0.490000       15.9994           0
     32163 MEMB     259      PMPE     C31      CL       0.900000       12.0110           0
     32164 MEMB     259      PMPE     O32      OBL     -0.630000       15.9994           0
     32165 MEMB     259      PMPE     C32      CTL2    -0.220000       12.0110           0
     32166 MEMB     259      PMPE     H2X      HAL2     0.900000E-01   1.00800           0
     32167 MEMB     259      PMPE     H2Y      HAL2     0.900000E-01   1.00800           0
     32168 MEMB     259      PMPE     C23      CTL2    -0.180000       12.0110           0
     32169 MEMB     259      PMPE     H3R      HAL2     0.900000E-01   1.00800           0
     32170 MEMB     259      PMPE     H3S      HAL2     0.900000E-01   1.00800           0
     32171 MEMB     259      PMPE     C24      CTL2    -0.180000       12.0110           0
     32172 MEMB     259      PMPE     H4R      HAL2     0.900000E-01   1.00800           0
     32173 MEMB     259      PMPE     H4S      HAL2     0.900000E-01   1.00800           0
     32174 MEMB     259      PMPE     C25      CTL2    -0.180000       12.0110           0
     32175 MEMB     259      PMPE     H5R      HAL2     0.900000E-01   1.00800           0
     32176 MEMB     259      PMPE     H5S      HAL2     0.900000E-01   1.00800           0
     32177 MEMB     259      PMPE     C26      CTL2    -0.180000       12.0110           0
     32178 MEMB     259      PMPE     H6R      HAL2     0.900000E-01   1.00800           0
     32179 MEMB     259      PMPE     H6S      HAL2     0.900000E-01   1.00800           0
     32180 MEMB     259      PMPE     C27      CTL2    -0.180000       12.0110           0
     32181 MEMB     259      PMPE     H7R      HAL2     0.900000E-01   1.00800           0
     32182 MEMB     259      PMPE     H7S      HAL2     0.900000E-01   1.00800           0
     32183 MEMB     259      PMPE     C28      CTL2    -0.180000       12.0110           0
     32184 MEMB     259      PMPE     H8R      HAL2     0.900000E-01   1.00800           0
     32185 MEMB     259      PMPE     H8S      HAL2     0.900000E-01   1.00800           0
     32186 MEMB     259      PMPE     C29      CG3RC1  -0.900000E-01   12.0110           0
     32187 MEMB     259      PMPE     H9R      HGA1     0.900000E-01   1.00800           0
     32188 MEMB     259      PMPE     C217     CG3C31  -0.180000       12.0110           0
     32189 MEMB     259      PMPE     H17R     HGA2     0.900000E-01   1.00800           0
     32190 MEMB     259      PMPE     H17S     HGA2     0.900000E-01   1.00800           0
     32191 MEMB     259      PMPE     C210     CG3RC1  -0.900000E-01   12.0110           0
     32192 MEMB     259      PMPE     H10R     HGA1     0.900000E-01   1.00800           0
     32193 MEMB     259      PMPE     C211     CTL2    -0.180000       12.0110           0
     32194 MEMB     259      PMPE     H11R     HAL2     0.900000E-01   1.00800           0
     32195 MEMB     259      PMPE     H11S     HAL2     0.900000E-01   1.00800           0
     32196 MEMB     259      PMPE     C212     CTL2    -0.180000       12.0110           0
     32197 MEMB     259      PMPE     H12R     HAL2     0.900000E-01   1.00800           0
     32198 MEMB     259      PMPE     H12S     HAL2     0.900000E-01   1.00800           0
     32199 MEMB     259      PMPE     C213     CTL2    -0.180000       12.0110           0
     32200 MEMB     259      PMPE     H13R     HAL2     0.900000E-01   1.00800           0
     32201 MEMB     259      PMPE     H13S     HAL2     0.900000E-01   1.00800           0
     32202 MEMB     259      PMPE     C214     CTL2    -0.180000       12.0110           0
     32203 MEMB     259      PMPE     H14R     HAL2     0.900000E-01   1.00800           0
     32204 MEMB     259      PMPE     H14S     HAL2     0.900000E-01   1.00800           0
     32205 MEMB     259      PMPE     C215     CTL2    -0.180000       12.0110           0
     32206 MEMB     259      PMPE     H15R     HAL2     0.900000E-01   1.00800           0
     32207 MEMB     259      PMPE     H15S     HAL2     0.900000E-01   1.00800           0
     32208 MEMB     259      PMPE     C216     CTL3    -0.270000       12.0110           0
     32209 MEMB     259      PMPE     H16R     HAL3     0.900000E-01   1.00800           0
     32210 MEMB     259      PMPE     H16S     HAL3     0.900000E-01   1.00800           0
     32211 MEMB     259      PMPE     H16T     HAL3     0.900000E-01   1.00800           0
     32212 MEMB     259      PMPE     C33      CTL2    -0.180000       12.0110           0
     32213 MEMB     259      PMPE     H3X      HAL2     0.900000E-01   1.00800           0
     32214 MEMB     259      PMPE     H3Y      HAL2     0.900000E-01   1.00800           0
     32215 MEMB     259      PMPE     C34      CTL2    -0.180000       12.0110           0
     32216 MEMB     259      PMPE     H4X      HAL2     0.900000E-01   1.00800           0
     32217 MEMB     259      PMPE     H4Y      HAL2     0.900000E-01   1.00800           0
     32218 MEMB     259      PMPE     C35      CTL2    -0.180000       12.0110           0
     32219 MEMB     259      PMPE     H5X      HAL2     0.900000E-01   1.00800           0
     32220 MEMB     259      PMPE     H5Y      HAL2     0.900000E-01   1.00800           0
     32221 MEMB     259      PMPE     C36      CTL2    -0.180000       12.0110           0
     32222 MEMB     259      PMPE     H6X      HAL2     0.900000E-01   1.00800           0
     32223 MEMB     259      PMPE     H6Y      HAL2     0.900000E-01   1.00800           0
     32224 MEMB     259      PMPE     C37      CTL2    -0.180000       12.0110           0
     32225 MEMB     259      PMPE     H7X      HAL2     0.900000E-01   1.00800           0
     32226 MEMB     259      PMPE     H7Y      HAL2     0.900000E-01   1.00800           0
     32227 MEMB     259      PMPE     C38      CTL2    -0.180000       12.0110           0
     32228 MEMB     259      PMPE     H8X      HAL2     0.900000E-01   1.00800           0
     32229 MEMB     259      PMPE     H8Y      HAL2     0.900000E-01   1.00800           0
     32230 MEMB     259      PMPE     C39      CTL2    -0.180000       12.0110           0
     32231 MEMB     259      PMPE     H9X      HAL2     0.900000E-01   1.00800           0
     32232 MEMB     259      PMPE     H9Y      HAL2     0.900000E-01   1.00800           0
     32233 MEMB     259      PMPE     C310     CTL2    -0.180000       12.0110           0
     32234 MEMB     259      PMPE     H10X     HAL2     0.900000E-01   1.00800           0
     32235 MEMB     259      PMPE     H10Y     HAL2     0.900000E-01   1.00800           0
     32236 MEMB     259      PMPE     C311     CTL2    -0.180000       12.0110           0
     32237 MEMB     259      PMPE     H11X     HAL2     0.900000E-01   1.00800           0
     32238 MEMB     259      PMPE     H11Y     HAL2     0.900000E-01   1.00800           0
     32239 MEMB     259      PMPE     C312     CTL2    -0.180000       12.0110           0
     32240 MEMB     259      PMPE     H12X     HAL2     0.900000E-01   1.00800           0
     32241 MEMB     259      PMPE     H12Y     HAL2     0.900000E-01   1.00800           0
     32242 MEMB     259      PMPE     C313     CTL2    -0.180000       12.0110           0
     32243 MEMB     259      PMPE     H13X     HAL2     0.900000E-01   1.00800           0
     32244 MEMB     259      PMPE     H13Y     HAL2     0.900000E-01   1.00800           0
     32245 MEMB     259      PMPE     C314     CTL2    -0.180000       12.0110           0
     32246 MEMB     259      PMPE     H14X     HAL2     0.900000E-01   1.00800           0
     32247 MEMB     259      PMPE     H14Y     HAL2     0.900000E-01   1.00800           0
     32248 MEMB     259      PMPE     C315     CTL2    -0.180000       12.0110           0
     32249 MEMB     259      PMPE     H15X     HAL2     0.900000E-01   1.00800           0
     32250 MEMB     259      PMPE     H15Y     HAL2     0.900000E-01   1.00800           0
     32251 MEMB     259      PMPE     C316     CTL3    -0.270000       12.0110           0
     32252 MEMB     259      PMPE     H16X     HAL3     0.900000E-01   1.00800           0
     32253 MEMB     259      PMPE     H16Y     HAL3     0.900000E-01   1.00800           0
     32254 MEMB     259      PMPE     H16Z     HAL3     0.900000E-01   1.00800           0
     32255 MEMB     260      POPE     N        NH3L    -0.300000       14.0070           0
     32256 MEMB     260      POPE     HN1      HCL      0.330000       1.00800           0
     32257 MEMB     260      POPE     HN2      HCL      0.330000       1.00800           0
     32258 MEMB     260      POPE     HN3      HCL      0.330000       1.00800           0
     32259 MEMB     260      POPE     C12      CTL2     0.130000       12.0110           0
     32260 MEMB     260      POPE     H12A     HAL2     0.900000E-01   1.00800           0
     32261 MEMB     260      POPE     H12B     HAL2     0.900000E-01   1.00800           0
     32262 MEMB     260      POPE     C11      CTL2    -0.800000E-01   12.0110           0
     32263 MEMB     260      POPE     H11A     HAL2     0.900000E-01   1.00800           0
     32264 MEMB     260      POPE     H11B     HAL2     0.900000E-01   1.00800           0
     32265 MEMB     260      POPE     P        PL        1.50000       30.9740           0
     32266 MEMB     260      POPE     O13      O2L     -0.780000       15.9994           0
     32267 MEMB     260      POPE     O14      O2L     -0.780000       15.9994           0
     32268 MEMB     260      POPE     O11      OSLP    -0.570000       15.9994           0
     32269 MEMB     260      POPE     O12      OSLP    -0.570000       15.9994           0
     32270 MEMB     260      POPE     C1       CTL2    -0.800000E-01   12.0110           0
     32271 MEMB     260      POPE     HA       HAL2     0.900000E-01   1.00800           0
     32272 MEMB     260      POPE     HB       HAL2     0.900000E-01   1.00800           0
     32273 MEMB     260      POPE     C2       CTL1     0.170000       12.0110           0
     32274 MEMB     260      POPE     HS       HAL1     0.900000E-01   1.00800           0
     32275 MEMB     260      POPE     O21      OSL     -0.490000       15.9994           0
     32276 MEMB     260      POPE     C21      CL       0.900000       12.0110           0
     32277 MEMB     260      POPE     O22      OBL     -0.630000       15.9994           0
     32278 MEMB     260      POPE     C22      CTL2    -0.220000       12.0110           0
     32279 MEMB     260      POPE     H2R      HAL2     0.900000E-01   1.00800           0
     32280 MEMB     260      POPE     H2S      HAL2     0.900000E-01   1.00800           0
     32281 MEMB     260      POPE     C3       CTL2     0.800000E-01   12.0110           0
     32282 MEMB     260      POPE     HX       HAL2     0.900000E-01   1.00800           0
     32283 MEMB     260      POPE     HY       HAL2     0.900000E-01   1.00800           0
     32284 MEMB     260      POPE     O31      OSL     -0.490000       15.9994           0
     32285 MEMB     260      POPE     C31      CL       0.900000       12.0110           0
     32286 MEMB     260      POPE     O32      OBL     -0.630000       15.9994           0
     32287 MEMB     260      POPE     C32      CTL2    -0.220000       12.0110           0
     32288 MEMB     260      POPE     H2X      HAL2     0.900000E-01   1.00800           0
     32289 MEMB     260      POPE     H2Y      HAL2     0.900000E-01   1.00800           0
     32290 MEMB     260      POPE     C23      CTL2    -0.180000       12.0110           0
     32291 MEMB     260      POPE     H3R      HAL2     0.900000E-01   1.00800           0
     32292 MEMB     260      POPE     H3S      HAL2     0.900000E-01   1.00800           0
     32293 MEMB     260      POPE     C24      CTL2    -0.180000       12.0110           0
     32294 MEMB     260      POPE     H4R      HAL2     0.900000E-01   1.00800           0
     32295 MEMB     260      POPE     H4S      HAL2     0.900000E-01   1.00800           0
     32296 MEMB     260      POPE     C25      CTL2    -0.180000       12.0110           0
     32297 MEMB     260      POPE     H5R      HAL2     0.900000E-01   1.00800           0
     32298 MEMB     260      POPE     H5S      HAL2     0.900000E-01   1.00800           0
     32299 MEMB     260      POPE     C26      CTL2    -0.180000       12.0110           0
     32300 MEMB     260      POPE     H6R      HAL2     0.900000E-01   1.00800           0
     32301 MEMB     260      POPE     H6S      HAL2     0.900000E-01   1.00800           0
     32302 MEMB     260      POPE     C27      CTL2    -0.180000       12.0110           0
     32303 MEMB     260      POPE     H7R      HAL2     0.900000E-01   1.00800           0
     32304 MEMB     260      POPE     H7S      HAL2     0.900000E-01   1.00800           0
     32305 MEMB     260      POPE     C28      CTL2    -0.180000       12.0110           0
     32306 MEMB     260      POPE     H8R      HAL2     0.900000E-01   1.00800           0
     32307 MEMB     260      POPE     H8S      HAL2     0.900000E-01   1.00800           0
     32308 MEMB     260      POPE     C29      CEL1    -0.150000       12.0110           0
     32309 MEMB     260      POPE     H91      HEL1     0.150000       1.00800           0
     32310 MEMB     260      POPE     C210     CEL1    -0.150000       12.0110           0
     32311 MEMB     260      POPE     H101     HEL1     0.150000       1.00800           0
     32312 MEMB     260      POPE     C211     CTL2    -0.180000       12.0110           0
     32313 MEMB     260      POPE     H11R     HAL2     0.900000E-01   1.00800           0
     32314 MEMB     260      POPE     H11S     HAL2     0.900000E-01   1.00800           0
     32315 MEMB     260      POPE     C212     CTL2    -0.180000       12.0110           0
     32316 MEMB     260      POPE     H12R     HAL2     0.900000E-01   1.00800           0
     32317 MEMB     260      POPE     H12S     HAL2     0.900000E-01   1.00800           0
     32318 MEMB     260      POPE     C213     CTL2    -0.180000       12.0110           0
     32319 MEMB     260      POPE     H13R     HAL2     0.900000E-01   1.00800           0
     32320 MEMB     260      POPE     H13S     HAL2     0.900000E-01   1.00800           0
     32321 MEMB     260      POPE     C214     CTL2    -0.180000       12.0110           0
     32322 MEMB     260      POPE     H14R     HAL2     0.900000E-01   1.00800           0
     32323 MEMB     260      POPE     H14S     HAL2     0.900000E-01   1.00800           0
     32324 MEMB     260      POPE     C215     CTL2    -0.180000       12.0110           0
     32325 MEMB     260      POPE     H15R     HAL2     0.900000E-01   1.00800           0
     32326 MEMB     260      POPE     H15S     HAL2     0.900000E-01   1.00800           0
     32327 MEMB     260      POPE     C216     CTL2    -0.180000       12.0110           0
     32328 MEMB     260      POPE     H16R     HAL2     0.900000E-01   1.00800           0
     32329 MEMB     260      POPE     H16S     HAL2     0.900000E-01   1.00800           0
     32330 MEMB     260      POPE     C217     CTL2    -0.180000       12.0110           0
     32331 MEMB     260      POPE     H17R     HAL2     0.900000E-01   1.00800           0
     32332 MEMB     260      POPE     H17S     HAL2     0.900000E-01   1.00800           0
     32333 MEMB     260      POPE     C218     CTL3    -0.270000       12.0110           0
     32334 MEMB     260      POPE     H18R     HAL3     0.900000E-01   1.00800           0
     32335 MEMB     260      POPE     H18S     HAL3     0.900000E-01   1.00800           0
     32336 MEMB     260      POPE     H18T     HAL3     0.900000E-01   1.00800           0
     32337 MEMB     260      POPE     C33      CTL2    -0.180000       12.0110           0
     32338 MEMB     260      POPE     H3X      HAL2     0.900000E-01   1.00800           0
     32339 MEMB     260      POPE     H3Y      HAL2     0.900000E-01   1.00800           0
     32340 MEMB     260      POPE     C34      CTL2    -0.180000       12.0110           0
     32341 MEMB     260      POPE     H4X      HAL2     0.900000E-01   1.00800           0
     32342 MEMB     260      POPE     H4Y      HAL2     0.900000E-01   1.00800           0
     32343 MEMB     260      POPE     C35      CTL2    -0.180000       12.0110           0
     32344 MEMB     260      POPE     H5X      HAL2     0.900000E-01   1.00800           0
     32345 MEMB     260      POPE     H5Y      HAL2     0.900000E-01   1.00800           0
     32346 MEMB     260      POPE     C36      CTL2    -0.180000       12.0110           0
     32347 MEMB     260      POPE     H6X      HAL2     0.900000E-01   1.00800           0
     32348 MEMB     260      POPE     H6Y      HAL2     0.900000E-01   1.00800           0
     32349 MEMB     260      POPE     C37      CTL2    -0.180000       12.0110           0
     32350 MEMB     260      POPE     H7X      HAL2     0.900000E-01   1.00800           0
     32351 MEMB     260      POPE     H7Y      HAL2     0.900000E-01   1.00800           0
     32352 MEMB     260      POPE     C38      CTL2    -0.180000       12.0110           0
     32353 MEMB     260      POPE     H8X      HAL2     0.900000E-01   1.00800           0
     32354 MEMB     260      POPE     H8Y      HAL2     0.900000E-01   1.00800           0
     32355 MEMB     260      POPE     C39      CTL2    -0.180000       12.0110           0
     32356 MEMB     260      POPE     H9X      HAL2     0.900000E-01   1.00800           0
     32357 MEMB     260      POPE     H9Y      HAL2     0.900000E-01   1.00800           0
     32358 MEMB     260      POPE     C310     CTL2    -0.180000       12.0110           0
     32359 MEMB     260      POPE     H10X     HAL2     0.900000E-01   1.00800           0
     32360 MEMB     260      POPE     H10Y     HAL2     0.900000E-01   1.00800           0
     32361 MEMB     260      POPE     C311     CTL2    -0.180000       12.0110           0
     32362 MEMB     260      POPE     H11X     HAL2     0.900000E-01   1.00800           0
     32363 MEMB     260      POPE     H11Y     HAL2     0.900000E-01   1.00800           0
     32364 MEMB     260      POPE     C312     CTL2    -0.180000       12.0110           0
     32365 MEMB     260      POPE     H12X     HAL2     0.900000E-01   1.00800           0
     32366 MEMB     260      POPE     H12Y     HAL2     0.900000E-01   1.00800           0
     32367 MEMB     260      POPE     C313     CTL2    -0.180000       12.0110           0
     32368 MEMB     260      POPE     H13X     HAL2     0.900000E-01   1.00800           0
     32369 MEMB     260      POPE     H13Y     HAL2     0.900000E-01   1.00800           0
     32370 MEMB     260      POPE     C314     CTL2    -0.180000       12.0110           0
     32371 MEMB     260      POPE     H14X     HAL2     0.900000E-01   1.00800           0
     32372 MEMB     260      POPE     H14Y     HAL2     0.900000E-01   1.00800           0
     32373 MEMB     260      POPE     C315     CTL2    -0.180000       12.0110           0
     32374 MEMB     260      POPE     H15X     HAL2     0.900000E-01   1.00800           0
     32375 MEMB     260      POPE     H15Y     HAL2     0.900000E-01   1.00800           0
     32376 MEMB     260      POPE     C316     CTL3    -0.270000       12.0110           0
     32377 MEMB     260      POPE     H16X     HAL3     0.900000E-01   1.00800           0
     32378 MEMB     260      POPE     H16Y     HAL3     0.900000E-01   1.00800           0
     32379 MEMB     260      POPE     H16Z     HAL3     0.900000E-01   1.00800           0
     32380 MEMB     261      PYPG     C13      CTL2     0.500000E-01   12.0110           0
     32381 MEMB     261      PYPG     H13A     HAL2     0.900000E-01   1.00800           0
     32382 MEMB     261      PYPG     H13B     HAL2     0.900000E-01   1.00800           0
     32383 MEMB     261      PYPG     OC3      OHL     -0.660000       15.9994           0
     32384 MEMB     261      PYPG     HO3      HOL      0.430000       1.00800           0
     32385 MEMB     261      PYPG     C12      CTL1     0.140000       12.0110           0
     32386 MEMB     261      PYPG     H12A     HAL1     0.900000E-01   1.00800           0
     32387 MEMB     261      PYPG     OC2      OHL     -0.660000       15.9994           0
     32388 MEMB     261      PYPG     HO2      HOL      0.430000       1.00800           0
     32389 MEMB     261      PYPG     C11      CTL2    -0.800000E-01   12.0110           0
     32390 MEMB     261      PYPG     H11A     HAL2     0.900000E-01   1.00800           0
     32391 MEMB     261      PYPG     H11B     HAL2     0.900000E-01   1.00800           0
     32392 MEMB     261      PYPG     P        PL        1.50000       30.9740           0
     32393 MEMB     261      PYPG     O13      O2L     -0.780000       15.9994           0
     32394 MEMB     261      PYPG     O14      O2L     -0.780000       15.9994           0
     32395 MEMB     261      PYPG     O11      OSLP    -0.570000       15.9994           0
     32396 MEMB     261      PYPG     O12      OSLP    -0.570000       15.9994           0
     32397 MEMB     261      PYPG     C1       CTL2    -0.800000E-01   12.0110           0
     32398 MEMB     261      PYPG     HA       HAL2     0.900000E-01   1.00800           0
     32399 MEMB     261      PYPG     HB       HAL2     0.900000E-01   1.00800           0
     32400 MEMB     261      PYPG     C2       CTL1     0.170000       12.0110           0
     32401 MEMB     261      PYPG     HS       HAL1     0.900000E-01   1.00800           0
     32402 MEMB     261      PYPG     O21      OSL     -0.490000       15.9994           0
     32403 MEMB     261      PYPG     C21      CL       0.900000       12.0110           0
     32404 MEMB     261      PYPG     O22      OBL     -0.630000       15.9994           0
     32405 MEMB     261      PYPG     C22      CTL2    -0.220000       12.0110           0
     32406 MEMB     261      PYPG     H2R      HAL2     0.900000E-01   1.00800           0
     32407 MEMB     261      PYPG     H2S      HAL2     0.900000E-01   1.00800           0
     32408 MEMB     261      PYPG     C3       CTL2     0.800000E-01   12.0110           0
     32409 MEMB     261      PYPG     HX       HAL2     0.900000E-01   1.00800           0
     32410 MEMB     261      PYPG     HY       HAL2     0.900000E-01   1.00800           0
     32411 MEMB     261      PYPG     O31      OSL     -0.490000       15.9994           0
     32412 MEMB     261      PYPG     C31      CL       0.900000       12.0110           0
     32413 MEMB     261      PYPG     O32      OBL     -0.630000       15.9994           0
     32414 MEMB     261      PYPG     C32      CTL2    -0.220000       12.0110           0
     32415 MEMB     261      PYPG     H2X      HAL2     0.900000E-01   1.00800           0
     32416 MEMB     261      PYPG     H2Y      HAL2     0.900000E-01   1.00800           0
     32417 MEMB     261      PYPG     C23      CTL2    -0.180000       12.0110           0
     32418 MEMB     261      PYPG     H3R      HAL2     0.900000E-01   1.00800           0
     32419 MEMB     261      PYPG     H3S      HAL2     0.900000E-01   1.00800           0
     32420 MEMB     261      PYPG     C24      CTL2    -0.180000       12.0110           0
     32421 MEMB     261      PYPG     H4R      HAL2     0.900000E-01   1.00800           0
     32422 MEMB     261      PYPG     H4S      HAL2     0.900000E-01   1.00800           0
     32423 MEMB     261      PYPG     C25      CTL2    -0.180000       12.0110           0
     32424 MEMB     261      PYPG     H5R      HAL2     0.900000E-01   1.00800           0
     32425 MEMB     261      PYPG     H5S      HAL2     0.900000E-01   1.00800           0
     32426 MEMB     261      PYPG     C26      CTL2    -0.180000       12.0110           0
     32427 MEMB     261      PYPG     H6R      HAL2     0.900000E-01   1.00800           0
     32428 MEMB     261      PYPG     H6S      HAL2     0.900000E-01   1.00800           0
     32429 MEMB     261      PYPG     C27      CTL2    -0.180000       12.0110           0
     32430 MEMB     261      PYPG     H7R      HAL2     0.900000E-01   1.00800           0
     32431 MEMB     261      PYPG     H7S      HAL2     0.900000E-01   1.00800           0
     32432 MEMB     261      PYPG     C28      CTL2    -0.180000       12.0110           0
     32433 MEMB     261      PYPG     H8R      HAL2     0.900000E-01   1.00800           0
     32434 MEMB     261      PYPG     H8S      HAL2     0.900000E-01   1.00800           0
     32435 MEMB     261      PYPG     C29      CEL1    -0.150000       12.0110           0
     32436 MEMB     261      PYPG     H9R      HEL1     0.150000       1.00800           0
     32437 MEMB     261      PYPG     C210     CEL1    -0.150000       12.0110           0
     32438 MEMB     261      PYPG     H10R     HEL1     0.150000       1.00800           0
     32439 MEMB     261      PYPG     C211     CTL2    -0.180000       12.0110           0
     32440 MEMB     261      PYPG     H11R     HAL2     0.900000E-01   1.00800           0
     32441 MEMB     261      PYPG     H11S     HAL2     0.900000E-01   1.00800           0
     32442 MEMB     261      PYPG     C212     CTL2    -0.180000       12.0110           0
     32443 MEMB     261      PYPG     H12R     HAL2     0.900000E-01   1.00800           0
     32444 MEMB     261      PYPG     H12S     HAL2     0.900000E-01   1.00800           0
     32445 MEMB     261      PYPG     C213     CTL2    -0.180000       12.0110           0
     32446 MEMB     261      PYPG     H13R     HAL2     0.900000E-01   1.00800           0
     32447 MEMB     261      PYPG     H13S     HAL2     0.900000E-01   1.00800           0
     32448 MEMB     261      PYPG     C214     CTL2    -0.180000       12.0110           0
     32449 MEMB     261      PYPG     H14R     HAL2     0.900000E-01   1.00800           0
     32450 MEMB     261      PYPG     H14S     HAL2     0.900000E-01   1.00800           0
     32451 MEMB     261      PYPG     C215     CTL2    -0.180000       12.0110           0
     32452 MEMB     261      PYPG     H15R     HAL2     0.900000E-01   1.00800           0
     32453 MEMB     261      PYPG     H15S     HAL2     0.900000E-01   1.00800           0
     32454 MEMB     261      PYPG     C216     CTL3    -0.270000       12.0110           0
     32455 MEMB     261      PYPG     H16R     HAL3     0.900000E-01   1.00800           0
     32456 MEMB     261      PYPG     H16S     HAL3     0.900000E-01   1.00800           0
     32457 MEMB     261      PYPG     H16T     HAL3     0.900000E-01   1.00800           0
     32458 MEMB     261      PYPG     C33      CTL2    -0.180000       12.0110           0
     32459 MEMB     261      PYPG     H3X      HAL2     0.900000E-01   1.00800           0
     32460 MEMB     261      PYPG     H3Y      HAL2     0.900000E-01   1.00800           0
     32461 MEMB     261      PYPG     C34      CTL2    -0.180000       12.0110           0
     32462 MEMB     261      PYPG     H4X      HAL2     0.900000E-01   1.00800           0
     32463 MEMB     261      PYPG     H4Y      HAL2     0.900000E-01   1.00800           0
     32464 MEMB     261      PYPG     C35      CTL2    -0.180000       12.0110           0
     32465 MEMB     261      PYPG     H5X      HAL2     0.900000E-01   1.00800           0
     32466 MEMB     261      PYPG     H5Y      HAL2     0.900000E-01   1.00800           0
     32467 MEMB     261      PYPG     C36      CTL2    -0.180000       12.0110           0
     32468 MEMB     261      PYPG     H6X      HAL2     0.900000E-01   1.00800           0
     32469 MEMB     261      PYPG     H6Y      HAL2     0.900000E-01   1.00800           0
     32470 MEMB     261      PYPG     C37      CTL2    -0.180000       12.0110           0
     32471 MEMB     261      PYPG     H7X      HAL2     0.900000E-01   1.00800           0
     32472 MEMB     261      PYPG     H7Y      HAL2     0.900000E-01   1.00800           0
     32473 MEMB     261      PYPG     C38      CTL2    -0.180000       12.0110           0
     32474 MEMB     261      PYPG     H8X      HAL2     0.900000E-01   1.00800           0
     32475 MEMB     261      PYPG     H8Y      HAL2     0.900000E-01   1.00800           0
     32476 MEMB     261      PYPG     C39      CTL2    -0.180000       12.0110           0
     32477 MEMB     261      PYPG     H9X      HAL2     0.900000E-01   1.00800           0
     32478 MEMB     261      PYPG     H9Y      HAL2     0.900000E-01   1.00800           0
     32479 MEMB     261      PYPG     C310     CTL2    -0.180000       12.0110           0
     32480 MEMB     261      PYPG     H10X     HAL2     0.900000E-01   1.00800           0
     32481 MEMB     261      PYPG     H10Y     HAL2     0.900000E-01   1.00800           0
     32482 MEMB     261      PYPG     C311     CTL2    -0.180000       12.0110           0
     32483 MEMB     261      PYPG     H11X     HAL2     0.900000E-01   1.00800           0
     32484 MEMB     261      PYPG     H11Y     HAL2     0.900000E-01   1.00800           0
     32485 MEMB     261      PYPG     C312     CTL2    -0.180000       12.0110           0
     32486 MEMB     261      PYPG     H12X     HAL2     0.900000E-01   1.00800           0
     32487 MEMB     261      PYPG     H12Y     HAL2     0.900000E-01   1.00800           0
     32488 MEMB     261      PYPG     C313     CTL2    -0.180000       12.0110           0
     32489 MEMB     261      PYPG     H13X     HAL2     0.900000E-01   1.00800           0
     32490 MEMB     261      PYPG     H13Y     HAL2     0.900000E-01   1.00800           0
     32491 MEMB     261      PYPG     C314     CTL2    -0.180000       12.0110           0
     32492 MEMB     261      PYPG     H14X     HAL2     0.900000E-01   1.00800           0
     32493 MEMB     261      PYPG     H14Y     HAL2     0.900000E-01   1.00800           0
     32494 MEMB     261      PYPG     C315     CTL2    -0.180000       12.0110           0
     32495 MEMB     261      PYPG     H15X     HAL2     0.900000E-01   1.00800           0
     32496 MEMB     261      PYPG     H15Y     HAL2     0.900000E-01   1.00800           0
     32497 MEMB     261      PYPG     C316     CTL3    -0.270000       12.0110           0
     32498 MEMB     261      PYPG     H16X     HAL3     0.900000E-01   1.00800           0
     32499 MEMB     261      PYPG     H16Y     HAL3     0.900000E-01   1.00800           0
     32500 MEMB     261      PYPG     H16Z     HAL3     0.900000E-01   1.00800           0
     32501 MEMB     262      OYPE     N        NH3L    -0.300000       14.0070           0
     32502 MEMB     262      OYPE     HN1      HCL      0.330000       1.00800           0
     32503 MEMB     262      OYPE     HN2      HCL      0.330000       1.00800           0
     32504 MEMB     262      OYPE     HN3      HCL      0.330000       1.00800           0
     32505 MEMB     262      OYPE     C12      CTL2     0.130000       12.0110           0
     32506 MEMB     262      OYPE     H12A     HAL2     0.900000E-01   1.00800           0
     32507 MEMB     262      OYPE     H12B     HAL2     0.900000E-01   1.00800           0
     32508 MEMB     262      OYPE     C11      CTL2    -0.800000E-01   12.0110           0
     32509 MEMB     262      OYPE     H11A     HAL2     0.900000E-01   1.00800           0
     32510 MEMB     262      OYPE     H11B     HAL2     0.900000E-01   1.00800           0
     32511 MEMB     262      OYPE     P        PL        1.50000       30.9740           0
     32512 MEMB     262      OYPE     O13      O2L     -0.780000       15.9994           0
     32513 MEMB     262      OYPE     O14      O2L     -0.780000       15.9994           0
     32514 MEMB     262      OYPE     O11      OSLP    -0.570000       15.9994           0
     32515 MEMB     262      OYPE     O12      OSLP    -0.570000       15.9994           0
     32516 MEMB     262      OYPE     C1       CTL2    -0.800000E-01   12.0110           0
     32517 MEMB     262      OYPE     HA       HAL2     0.900000E-01   1.00800           0
     32518 MEMB     262      OYPE     HB       HAL2     0.900000E-01   1.00800           0
     32519 MEMB     262      OYPE     C2       CTL1     0.170000       12.0110           0
     32520 MEMB     262      OYPE     HS       HAL1     0.900000E-01   1.00800           0
     32521 MEMB     262      OYPE     O21      OSL     -0.490000       15.9994           0
     32522 MEMB     262      OYPE     C21      CL       0.900000       12.0110           0
     32523 MEMB     262      OYPE     O22      OBL     -0.630000       15.9994           0
     32524 MEMB     262      OYPE     C22      CTL2    -0.220000       12.0110           0
     32525 MEMB     262      OYPE     H2R      HAL2     0.900000E-01   1.00800           0
     32526 MEMB     262      OYPE     H2S      HAL2     0.900000E-01   1.00800           0
     32527 MEMB     262      OYPE     C3       CTL2     0.800000E-01   12.0110           0
     32528 MEMB     262      OYPE     HX       HAL2     0.900000E-01   1.00800           0
     32529 MEMB     262      OYPE     HY       HAL2     0.900000E-01   1.00800           0
     32530 MEMB     262      OYPE     O31      OSL     -0.490000       15.9994           0
     32531 MEMB     262      OYPE     C31      CL       0.900000       12.0110           0
     32532 MEMB     262      OYPE     O32      OBL     -0.630000       15.9994           0
     32533 MEMB     262      OYPE     C32      CTL2    -0.220000       12.0110           0
     32534 MEMB     262      OYPE     H2X      HAL2     0.900000E-01   1.00800           0
     32535 MEMB     262      OYPE     H2Y      HAL2     0.900000E-01   1.00800           0
     32536 MEMB     262      OYPE     C23      CTL2    -0.180000       12.0110           0
     32537 MEMB     262      OYPE     H3R      HAL2     0.900000E-01   1.00800           0
     32538 MEMB     262      OYPE     H3S      HAL2     0.900000E-01   1.00800           0
     32539 MEMB     262      OYPE     C24      CTL2    -0.180000       12.0110           0
     32540 MEMB     262      OYPE     H4R      HAL2     0.900000E-01   1.00800           0
     32541 MEMB     262      OYPE     H4S      HAL2     0.900000E-01   1.00800           0
     32542 MEMB     262      OYPE     C25      CTL2    -0.180000       12.0110           0
     32543 MEMB     262      OYPE     H5R      HAL2     0.900000E-01   1.00800           0
     32544 MEMB     262      OYPE     H5S      HAL2     0.900000E-01   1.00800           0
     32545 MEMB     262      OYPE     C26      CTL2    -0.180000       12.0110           0
     32546 MEMB     262      OYPE     H6R      HAL2     0.900000E-01   1.00800           0
     32547 MEMB     262      OYPE     H6S      HAL2     0.900000E-01   1.00800           0
     32548 MEMB     262      OYPE     C27      CTL2    -0.180000       12.0110           0
     32549 MEMB     262      OYPE     H7R      HAL2     0.900000E-01   1.00800           0
     32550 MEMB     262      OYPE     H7S      HAL2     0.900000E-01   1.00800           0
     32551 MEMB     262      OYPE     C28      CTL2    -0.180000       12.0110           0
     32552 MEMB     262      OYPE     H8R      HAL2     0.900000E-01   1.00800           0
     32553 MEMB     262      OYPE     H8S      HAL2     0.900000E-01   1.00800           0
     32554 MEMB     262      OYPE     C29      CEL1    -0.150000       12.0110           0
     32555 MEMB     262      OYPE     H9R      HEL1     0.150000       1.00800           0
     32556 MEMB     262      OYPE     C210     CEL1    -0.150000       12.0110           0
     32557 MEMB     262      OYPE     H10R     HEL1     0.150000       1.00800           0
     32558 MEMB     262      OYPE     C211     CTL2    -0.180000       12.0110           0
     32559 MEMB     262      OYPE     H11R     HAL2     0.900000E-01   1.00800           0
     32560 MEMB     262      OYPE     H11S     HAL2     0.900000E-01   1.00800           0
     32561 MEMB     262      OYPE     C212     CTL2    -0.180000       12.0110           0
     32562 MEMB     262      OYPE     H12R     HAL2     0.900000E-01   1.00800           0
     32563 MEMB     262      OYPE     H12S     HAL2     0.900000E-01   1.00800           0
     32564 MEMB     262      OYPE     C213     CTL2    -0.180000       12.0110           0
     32565 MEMB     262      OYPE     H13R     HAL2     0.900000E-01   1.00800           0
     32566 MEMB     262      OYPE     H13S     HAL2     0.900000E-01   1.00800           0
     32567 MEMB     262      OYPE     C214     CTL2    -0.180000       12.0110           0
     32568 MEMB     262      OYPE     H14R     HAL2     0.900000E-01   1.00800           0
     32569 MEMB     262      OYPE     H14S     HAL2     0.900000E-01   1.00800           0
     32570 MEMB     262      OYPE     C215     CTL2    -0.180000       12.0110           0
     32571 MEMB     262      OYPE     H15R     HAL2     0.900000E-01   1.00800           0
     32572 MEMB     262      OYPE     H15S     HAL2     0.900000E-01   1.00800           0
     32573 MEMB     262      OYPE     C216     CTL3    -0.270000       12.0110           0
     32574 MEMB     262      OYPE     H16R     HAL3     0.900000E-01   1.00800           0
     32575 MEMB     262      OYPE     H16S     HAL3     0.900000E-01   1.00800           0
     32576 MEMB     262      OYPE     H16T     HAL3     0.900000E-01   1.00800           0
     32577 MEMB     262      OYPE     C33      CTL2    -0.180000       12.0110           0
     32578 MEMB     262      OYPE     H3X      HAL2     0.900000E-01   1.00800           0
     32579 MEMB     262      OYPE     H3Y      HAL2     0.900000E-01   1.00800           0
     32580 MEMB     262      OYPE     C34      CTL2    -0.180000       12.0110           0
     32581 MEMB     262      OYPE     H4X      HAL2     0.900000E-01   1.00800           0
     32582 MEMB     262      OYPE     H4Y      HAL2     0.900000E-01   1.00800           0
     32583 MEMB     262      OYPE     C35      CTL2    -0.180000       12.0110           0
     32584 MEMB     262      OYPE     H5X      HAL2     0.900000E-01   1.00800           0
     32585 MEMB     262      OYPE     H5Y      HAL2     0.900000E-01   1.00800           0
     32586 MEMB     262      OYPE     C36      CTL2    -0.180000       12.0110           0
     32587 MEMB     262      OYPE     H6X      HAL2     0.900000E-01   1.00800           0
     32588 MEMB     262      OYPE     H6Y      HAL2     0.900000E-01   1.00800           0
     32589 MEMB     262      OYPE     C37      CTL2    -0.180000       12.0110           0
     32590 MEMB     262      OYPE     H7X      HAL2     0.900000E-01   1.00800           0
     32591 MEMB     262      OYPE     H7Y      HAL2     0.900000E-01   1.00800           0
     32592 MEMB     262      OYPE     C38      CTL2    -0.180000       12.0110           0
     32593 MEMB     262      OYPE     H8X      HAL2     0.900000E-01   1.00800           0
     32594 MEMB     262      OYPE     H8Y      HAL2     0.900000E-01   1.00800           0
     32595 MEMB     262      OYPE     C39      CEL1    -0.150000       12.0110           0
     32596 MEMB     262      OYPE     H9X      HEL1     0.150000       1.00800           0
     32597 MEMB     262      OYPE     C310     CEL1    -0.150000       12.0110           0
     32598 MEMB     262      OYPE     H10X     HEL1     0.150000       1.00800           0
     32599 MEMB     262      OYPE     C311     CTL2    -0.180000       12.0110           0
     32600 MEMB     262      OYPE     H11X     HAL2     0.900000E-01   1.00800           0
     32601 MEMB     262      OYPE     H11Y     HAL2     0.900000E-01   1.00800           0
     32602 MEMB     262      OYPE     C312     CTL2    -0.180000       12.0110           0
     32603 MEMB     262      OYPE     H12X     HAL2     0.900000E-01   1.00800           0
     32604 MEMB     262      OYPE     H12Y     HAL2     0.900000E-01   1.00800           0
     32605 MEMB     262      OYPE     C313     CTL2    -0.180000       12.0110           0
     32606 MEMB     262      OYPE     H13X     HAL2     0.900000E-01   1.00800           0
     32607 MEMB     262      OYPE     H13Y     HAL2     0.900000E-01   1.00800           0
     32608 MEMB     262      OYPE     C314     CTL2    -0.180000       12.0110           0
     32609 MEMB     262      OYPE     H14X     HAL2     0.900000E-01   1.00800           0
     32610 MEMB     262      OYPE     H14Y     HAL2     0.900000E-01   1.00800           0
     32611 MEMB     262      OYPE     C315     CTL2    -0.180000       12.0110           0
     32612 MEMB     262      OYPE     H15X     HAL2     0.900000E-01   1.00800           0
     32613 MEMB     262      OYPE     H15Y     HAL2     0.900000E-01   1.00800           0
     32614 MEMB     262      OYPE     C316     CTL2    -0.180000       12.0110           0
     32615 MEMB     262      OYPE     H16X     HAL2     0.900000E-01   1.00800           0
     32616 MEMB     262      OYPE     H16Y     HAL2     0.900000E-01   1.00800           0
     32617 MEMB     262      OYPE     C317     CTL2    -0.180000       12.0110           0
     32618 MEMB     262      OYPE     H17X     HAL2     0.900000E-01   1.00800           0
     32619 MEMB     262      OYPE     H17Y     HAL2     0.900000E-01   1.00800           0
     32620 MEMB     262      OYPE     C318     CTL3    -0.270000       12.0110           0
     32621 MEMB     262      OYPE     H18X     HAL3     0.900000E-01   1.00800           0
     32622 MEMB     262      OYPE     H18Y     HAL3     0.900000E-01   1.00800           0
     32623 MEMB     262      OYPE     H18Z     HAL3     0.900000E-01   1.00800           0
     32624 MEMB     263      QMPE     N        NH3L    -0.300000       14.0070           0
     32625 MEMB     263      QMPE     HN1      HCL      0.330000       1.00800           0
     32626 MEMB     263      QMPE     HN2      HCL      0.330000       1.00800           0
     32627 MEMB     263      QMPE     HN3      HCL      0.330000       1.00800           0
     32628 MEMB     263      QMPE     C12      CTL2     0.130000       12.0110           0
     32629 MEMB     263      QMPE     H12A     HAL2     0.900000E-01   1.00800           0
     32630 MEMB     263      QMPE     H12B     HAL2     0.900000E-01   1.00800           0
     32631 MEMB     263      QMPE     C11      CTL2    -0.800000E-01   12.0110           0
     32632 MEMB     263      QMPE     H11A     HAL2     0.900000E-01   1.00800           0
     32633 MEMB     263      QMPE     H11B     HAL2     0.900000E-01   1.00800           0
     32634 MEMB     263      QMPE     P        PL        1.50000       30.9740           0
     32635 MEMB     263      QMPE     O13      O2L     -0.780000       15.9994           0
     32636 MEMB     263      QMPE     O14      O2L     -0.780000       15.9994           0
     32637 MEMB     263      QMPE     O11      OSLP    -0.570000       15.9994           0
     32638 MEMB     263      QMPE     O12      OSLP    -0.570000       15.9994           0
     32639 MEMB     263      QMPE     C1       CTL2    -0.800000E-01   12.0110           0
     32640 MEMB     263      QMPE     HA       HAL2     0.900000E-01   1.00800           0
     32641 MEMB     263      QMPE     HB       HAL2     0.900000E-01   1.00800           0
     32642 MEMB     263      QMPE     C2       CTL1     0.170000       12.0110           0
     32643 MEMB     263      QMPE     HS       HAL1     0.900000E-01   1.00800           0
     32644 MEMB     263      QMPE     O21      OSL     -0.490000       15.9994           0
     32645 MEMB     263      QMPE     C21      CL       0.900000       12.0110           0
     32646 MEMB     263      QMPE     O22      OBL     -0.630000       15.9994           0
     32647 MEMB     263      QMPE     C22      CTL2    -0.220000       12.0110           0
     32648 MEMB     263      QMPE     H2R      HAL2     0.900000E-01   1.00800           0
     32649 MEMB     263      QMPE     H2S      HAL2     0.900000E-01   1.00800           0
     32650 MEMB     263      QMPE     C3       CTL2     0.800000E-01   12.0110           0
     32651 MEMB     263      QMPE     HX       HAL2     0.900000E-01   1.00800           0
     32652 MEMB     263      QMPE     HY       HAL2     0.900000E-01   1.00800           0
     32653 MEMB     263      QMPE     O31      OSL     -0.490000       15.9994           0
     32654 MEMB     263      QMPE     C31      CL       0.900000       12.0110           0
     32655 MEMB     263      QMPE     O32      OBL     -0.630000       15.9994           0
     32656 MEMB     263      QMPE     C32      CTL2    -0.220000       12.0110           0
     32657 MEMB     263      QMPE     H2X      HAL2     0.900000E-01   1.00800           0
     32658 MEMB     263      QMPE     H2Y      HAL2     0.900000E-01   1.00800           0
     32659 MEMB     263      QMPE     C23      CTL2    -0.180000       12.0110           0
     32660 MEMB     263      QMPE     H3R      HAL2     0.900000E-01   1.00800           0
     32661 MEMB     263      QMPE     H3S      HAL2     0.900000E-01   1.00800           0
     32662 MEMB     263      QMPE     C24      CTL2    -0.180000       12.0110           0
     32663 MEMB     263      QMPE     H4R      HAL2     0.900000E-01   1.00800           0
     32664 MEMB     263      QMPE     H4S      HAL2     0.900000E-01   1.00800           0
     32665 MEMB     263      QMPE     C25      CTL2    -0.180000       12.0110           0
     32666 MEMB     263      QMPE     H5R      HAL2     0.900000E-01   1.00800           0
     32667 MEMB     263      QMPE     H5S      HAL2     0.900000E-01   1.00800           0
     32668 MEMB     263      QMPE     C26      CTL2    -0.180000       12.0110           0
     32669 MEMB     263      QMPE     H6R      HAL2     0.900000E-01   1.00800           0
     32670 MEMB     263      QMPE     H6S      HAL2     0.900000E-01   1.00800           0
     32671 MEMB     263      QMPE     C27      CTL2    -0.180000       12.0110           0
     32672 MEMB     263      QMPE     H7R      HAL2     0.900000E-01   1.00800           0
     32673 MEMB     263      QMPE     H7S      HAL2     0.900000E-01   1.00800           0
     32674 MEMB     263      QMPE     C28      CTL2    -0.180000       12.0110           0
     32675 MEMB     263      QMPE     H8R      HAL2     0.900000E-01   1.00800           0
     32676 MEMB     263      QMPE     H8S      HAL2     0.900000E-01   1.00800           0
     32677 MEMB     263      QMPE     C29      CG3RC1  -0.900000E-01   12.0110           0
     32678 MEMB     263      QMPE     H9R      HGA1     0.900000E-01   1.00800           0
     32679 MEMB     263      QMPE     C217     CG3C31  -0.180000       12.0110           0
     32680 MEMB     263      QMPE     H17R     HGA2     0.900000E-01   1.00800           0
     32681 MEMB     263      QMPE     H17S     HGA2     0.900000E-01   1.00800           0
     32682 MEMB     263      QMPE     C210     CG3RC1  -0.900000E-01   12.0110           0
     32683 MEMB     263      QMPE     H10R     HGA1     0.900000E-01   1.00800           0
     32684 MEMB     263      QMPE     C211     CTL2    -0.180000       12.0110           0
     32685 MEMB     263      QMPE     H11R     HAL2     0.900000E-01   1.00800           0
     32686 MEMB     263      QMPE     H11S     HAL2     0.900000E-01   1.00800           0
     32687 MEMB     263      QMPE     C212     CTL2    -0.180000       12.0110           0
     32688 MEMB     263      QMPE     H12R     HAL2     0.900000E-01   1.00800           0
     32689 MEMB     263      QMPE     H12S     HAL2     0.900000E-01   1.00800           0
     32690 MEMB     263      QMPE     C213     CTL2    -0.180000       12.0110           0
     32691 MEMB     263      QMPE     H13R     HAL2     0.900000E-01   1.00800           0
     32692 MEMB     263      QMPE     H13S     HAL2     0.900000E-01   1.00800           0
     32693 MEMB     263      QMPE     C214     CTL2    -0.180000       12.0110           0
     32694 MEMB     263      QMPE     H14R     HAL2     0.900000E-01   1.00800           0
     32695 MEMB     263      QMPE     H14S     HAL2     0.900000E-01   1.00800           0
     32696 MEMB     263      QMPE     C215     CTL2    -0.180000       12.0110           0
     32697 MEMB     263      QMPE     H15R     HAL2     0.900000E-01   1.00800           0
     32698 MEMB     263      QMPE     H15S     HAL2     0.900000E-01   1.00800           0
     32699 MEMB     263      QMPE     C216     CTL3    -0.270000       12.0110           0
     32700 MEMB     263      QMPE     H16R     HAL3     0.900000E-01   1.00800           0
     32701 MEMB     263      QMPE     H16S     HAL3     0.900000E-01   1.00800           0
     32702 MEMB     263      QMPE     H16T     HAL3     0.900000E-01   1.00800           0
     32703 MEMB     263      QMPE     C33      CTL2    -0.180000       12.0110           0
     32704 MEMB     263      QMPE     H3X      HAL2     0.900000E-01   1.00800           0
     32705 MEMB     263      QMPE     H3Y      HAL2     0.900000E-01   1.00800           0
     32706 MEMB     263      QMPE     C34      CTL2    -0.180000       12.0110           0
     32707 MEMB     263      QMPE     H4X      HAL2     0.900000E-01   1.00800           0
     32708 MEMB     263      QMPE     H4Y      HAL2     0.900000E-01   1.00800           0
     32709 MEMB     263      QMPE     C35      CTL2    -0.180000       12.0110           0
     32710 MEMB     263      QMPE     H5X      HAL2     0.900000E-01   1.00800           0
     32711 MEMB     263      QMPE     H5Y      HAL2     0.900000E-01   1.00800           0
     32712 MEMB     263      QMPE     C36      CTL2    -0.180000       12.0110           0
     32713 MEMB     263      QMPE     H6X      HAL2     0.900000E-01   1.00800           0
     32714 MEMB     263      QMPE     H6Y      HAL2     0.900000E-01   1.00800           0
     32715 MEMB     263      QMPE     C37      CTL2    -0.180000       12.0110           0
     32716 MEMB     263      QMPE     H7X      HAL2     0.900000E-01   1.00800           0
     32717 MEMB     263      QMPE     H7Y      HAL2     0.900000E-01   1.00800           0
     32718 MEMB     263      QMPE     C38      CTL2    -0.180000       12.0110           0
     32719 MEMB     263      QMPE     H8X      HAL2     0.900000E-01   1.00800           0
     32720 MEMB     263      QMPE     H8Y      HAL2     0.900000E-01   1.00800           0
     32721 MEMB     263      QMPE     C39      CTL2    -0.180000       12.0110           0
     32722 MEMB     263      QMPE     H9X      HAL2     0.900000E-01   1.00800           0
     32723 MEMB     263      QMPE     H9Y      HAL2     0.900000E-01   1.00800           0
     32724 MEMB     263      QMPE     C310     CTL2    -0.180000       12.0110           0
     32725 MEMB     263      QMPE     H10X     HAL2     0.900000E-01   1.00800           0
     32726 MEMB     263      QMPE     H10Y     HAL2     0.900000E-01   1.00800           0
     32727 MEMB     263      QMPE     C311     CTL2    -0.180000       12.0110           0
     32728 MEMB     263      QMPE     H11X     HAL2     0.900000E-01   1.00800           0
     32729 MEMB     263      QMPE     H11Y     HAL2     0.900000E-01   1.00800           0
     32730 MEMB     263      QMPE     C312     CTL2    -0.180000       12.0110           0
     32731 MEMB     263      QMPE     H12X     HAL2     0.900000E-01   1.00800           0
     32732 MEMB     263      QMPE     H12Y     HAL2     0.900000E-01   1.00800           0
     32733 MEMB     263      QMPE     C313     CTL2    -0.180000       12.0110           0
     32734 MEMB     263      QMPE     H13X     HAL2     0.900000E-01   1.00800           0
     32735 MEMB     263      QMPE     H13Y     HAL2     0.900000E-01   1.00800           0
     32736 MEMB     263      QMPE     C314     CTL2    -0.180000       12.0110           0
     32737 MEMB     263      QMPE     H14X     HAL2     0.900000E-01   1.00800           0
     32738 MEMB     263      QMPE     H14Y     HAL2     0.900000E-01   1.00800           0
     32739 MEMB     263      QMPE     C315     CTL3    -0.270000       12.0110           0
     32740 MEMB     263      QMPE     H15X     HAL3     0.900000E-01   1.00800           0
     32741 MEMB     263      QMPE     H15Y     HAL3     0.900000E-01   1.00800           0
     32742 MEMB     263      QMPE     H15Z     HAL3     0.900000E-01   1.00800           0
     32743 MEMB     264      PYPG     C13      CTL2     0.500000E-01   12.0110           0
     32744 MEMB     264      PYPG     H13A     HAL2     0.900000E-01   1.00800           0
     32745 MEMB     264      PYPG     H13B     HAL2     0.900000E-01   1.00800           0
     32746 MEMB     264      PYPG     OC3      OHL     -0.660000       15.9994           0
     32747 MEMB     264      PYPG     HO3      HOL      0.430000       1.00800           0
     32748 MEMB     264      PYPG     C12      CTL1     0.140000       12.0110           0
     32749 MEMB     264      PYPG     H12A     HAL1     0.900000E-01   1.00800           0
     32750 MEMB     264      PYPG     OC2      OHL     -0.660000       15.9994           0
     32751 MEMB     264      PYPG     HO2      HOL      0.430000       1.00800           0
     32752 MEMB     264      PYPG     C11      CTL2    -0.800000E-01   12.0110           0
     32753 MEMB     264      PYPG     H11A     HAL2     0.900000E-01   1.00800           0
     32754 MEMB     264      PYPG     H11B     HAL2     0.900000E-01   1.00800           0
     32755 MEMB     264      PYPG     P        PL        1.50000       30.9740           0
     32756 MEMB     264      PYPG     O13      O2L     -0.780000       15.9994           0
     32757 MEMB     264      PYPG     O14      O2L     -0.780000       15.9994           0
     32758 MEMB     264      PYPG     O11      OSLP    -0.570000       15.9994           0
     32759 MEMB     264      PYPG     O12      OSLP    -0.570000       15.9994           0
     32760 MEMB     264      PYPG     C1       CTL2    -0.800000E-01   12.0110           0
     32761 MEMB     264      PYPG     HA       HAL2     0.900000E-01   1.00800           0
     32762 MEMB     264      PYPG     HB       HAL2     0.900000E-01   1.00800           0
     32763 MEMB     264      PYPG     C2       CTL1     0.170000       12.0110           0
     32764 MEMB     264      PYPG     HS       HAL1     0.900000E-01   1.00800           0
     32765 MEMB     264      PYPG     O21      OSL     -0.490000       15.9994           0
     32766 MEMB     264      PYPG     C21      CL       0.900000       12.0110           0
     32767 MEMB     264      PYPG     O22      OBL     -0.630000       15.9994           0
     32768 MEMB     264      PYPG     C22      CTL2    -0.220000       12.0110           0
     32769 MEMB     264      PYPG     H2R      HAL2     0.900000E-01   1.00800           0
     32770 MEMB     264      PYPG     H2S      HAL2     0.900000E-01   1.00800           0
     32771 MEMB     264      PYPG     C3       CTL2     0.800000E-01   12.0110           0
     32772 MEMB     264      PYPG     HX       HAL2     0.900000E-01   1.00800           0
     32773 MEMB     264      PYPG     HY       HAL2     0.900000E-01   1.00800           0
     32774 MEMB     264      PYPG     O31      OSL     -0.490000       15.9994           0
     32775 MEMB     264      PYPG     C31      CL       0.900000       12.0110           0
     32776 MEMB     264      PYPG     O32      OBL     -0.630000       15.9994           0
     32777 MEMB     264      PYPG     C32      CTL2    -0.220000       12.0110           0
     32778 MEMB     264      PYPG     H2X      HAL2     0.900000E-01   1.00800           0
     32779 MEMB     264      PYPG     H2Y      HAL2     0.900000E-01   1.00800           0
     32780 MEMB     264      PYPG     C23      CTL2    -0.180000       12.0110           0
     32781 MEMB     264      PYPG     H3R      HAL2     0.900000E-01   1.00800           0
     32782 MEMB     264      PYPG     H3S      HAL2     0.900000E-01   1.00800           0
     32783 MEMB     264      PYPG     C24      CTL2    -0.180000       12.0110           0
     32784 MEMB     264      PYPG     H4R      HAL2     0.900000E-01   1.00800           0
     32785 MEMB     264      PYPG     H4S      HAL2     0.900000E-01   1.00800           0
     32786 MEMB     264      PYPG     C25      CTL2    -0.180000       12.0110           0
     32787 MEMB     264      PYPG     H5R      HAL2     0.900000E-01   1.00800           0
     32788 MEMB     264      PYPG     H5S      HAL2     0.900000E-01   1.00800           0
     32789 MEMB     264      PYPG     C26      CTL2    -0.180000       12.0110           0
     32790 MEMB     264      PYPG     H6R      HAL2     0.900000E-01   1.00800           0
     32791 MEMB     264      PYPG     H6S      HAL2     0.900000E-01   1.00800           0
     32792 MEMB     264      PYPG     C27      CTL2    -0.180000       12.0110           0
     32793 MEMB     264      PYPG     H7R      HAL2     0.900000E-01   1.00800           0
     32794 MEMB     264      PYPG     H7S      HAL2     0.900000E-01   1.00800           0
     32795 MEMB     264      PYPG     C28      CTL2    -0.180000       12.0110           0
     32796 MEMB     264      PYPG     H8R      HAL2     0.900000E-01   1.00800           0
     32797 MEMB     264      PYPG     H8S      HAL2     0.900000E-01   1.00800           0
     32798 MEMB     264      PYPG     C29      CEL1    -0.150000       12.0110           0
     32799 MEMB     264      PYPG     H9R      HEL1     0.150000       1.00800           0
     32800 MEMB     264      PYPG     C210     CEL1    -0.150000       12.0110           0
     32801 MEMB     264      PYPG     H10R     HEL1     0.150000       1.00800           0
     32802 MEMB     264      PYPG     C211     CTL2    -0.180000       12.0110           0
     32803 MEMB     264      PYPG     H11R     HAL2     0.900000E-01   1.00800           0
     32804 MEMB     264      PYPG     H11S     HAL2     0.900000E-01   1.00800           0
     32805 MEMB     264      PYPG     C212     CTL2    -0.180000       12.0110           0
     32806 MEMB     264      PYPG     H12R     HAL2     0.900000E-01   1.00800           0
     32807 MEMB     264      PYPG     H12S     HAL2     0.900000E-01   1.00800           0
     32808 MEMB     264      PYPG     C213     CTL2    -0.180000       12.0110           0
     32809 MEMB     264      PYPG     H13R     HAL2     0.900000E-01   1.00800           0
     32810 MEMB     264      PYPG     H13S     HAL2     0.900000E-01   1.00800           0
     32811 MEMB     264      PYPG     C214     CTL2    -0.180000       12.0110           0
     32812 MEMB     264      PYPG     H14R     HAL2     0.900000E-01   1.00800           0
     32813 MEMB     264      PYPG     H14S     HAL2     0.900000E-01   1.00800           0
     32814 MEMB     264      PYPG     C215     CTL2    -0.180000       12.0110           0
     32815 MEMB     264      PYPG     H15R     HAL2     0.900000E-01   1.00800           0
     32816 MEMB     264      PYPG     H15S     HAL2     0.900000E-01   1.00800           0
     32817 MEMB     264      PYPG     C216     CTL3    -0.270000       12.0110           0
     32818 MEMB     264      PYPG     H16R     HAL3     0.900000E-01   1.00800           0
     32819 MEMB     264      PYPG     H16S     HAL3     0.900000E-01   1.00800           0
     32820 MEMB     264      PYPG     H16T     HAL3     0.900000E-01   1.00800           0
     32821 MEMB     264      PYPG     C33      CTL2    -0.180000       12.0110           0
     32822 MEMB     264      PYPG     H3X      HAL2     0.900000E-01   1.00800           0
     32823 MEMB     264      PYPG     H3Y      HAL2     0.900000E-01   1.00800           0
     32824 MEMB     264      PYPG     C34      CTL2    -0.180000       12.0110           0
     32825 MEMB     264      PYPG     H4X      HAL2     0.900000E-01   1.00800           0
     32826 MEMB     264      PYPG     H4Y      HAL2     0.900000E-01   1.00800           0
     32827 MEMB     264      PYPG     C35      CTL2    -0.180000       12.0110           0
     32828 MEMB     264      PYPG     H5X      HAL2     0.900000E-01   1.00800           0
     32829 MEMB     264      PYPG     H5Y      HAL2     0.900000E-01   1.00800           0
     32830 MEMB     264      PYPG     C36      CTL2    -0.180000       12.0110           0
     32831 MEMB     264      PYPG     H6X      HAL2     0.900000E-01   1.00800           0
     32832 MEMB     264      PYPG     H6Y      HAL2     0.900000E-01   1.00800           0
     32833 MEMB     264      PYPG     C37      CTL2    -0.180000       12.0110           0
     32834 MEMB     264      PYPG     H7X      HAL2     0.900000E-01   1.00800           0
     32835 MEMB     264      PYPG     H7Y      HAL2     0.900000E-01   1.00800           0
     32836 MEMB     264      PYPG     C38      CTL2    -0.180000       12.0110           0
     32837 MEMB     264      PYPG     H8X      HAL2     0.900000E-01   1.00800           0
     32838 MEMB     264      PYPG     H8Y      HAL2     0.900000E-01   1.00800           0
     32839 MEMB     264      PYPG     C39      CTL2    -0.180000       12.0110           0
     32840 MEMB     264      PYPG     H9X      HAL2     0.900000E-01   1.00800           0
     32841 MEMB     264      PYPG     H9Y      HAL2     0.900000E-01   1.00800           0
     32842 MEMB     264      PYPG     C310     CTL2    -0.180000       12.0110           0
     32843 MEMB     264      PYPG     H10X     HAL2     0.900000E-01   1.00800           0
     32844 MEMB     264      PYPG     H10Y     HAL2     0.900000E-01   1.00800           0
     32845 MEMB     264      PYPG     C311     CTL2    -0.180000       12.0110           0
     32846 MEMB     264      PYPG     H11X     HAL2     0.900000E-01   1.00800           0
     32847 MEMB     264      PYPG     H11Y     HAL2     0.900000E-01   1.00800           0
     32848 MEMB     264      PYPG     C312     CTL2    -0.180000       12.0110           0
     32849 MEMB     264      PYPG     H12X     HAL2     0.900000E-01   1.00800           0
     32850 MEMB     264      PYPG     H12Y     HAL2     0.900000E-01   1.00800           0
     32851 MEMB     264      PYPG     C313     CTL2    -0.180000       12.0110           0
     32852 MEMB     264      PYPG     H13X     HAL2     0.900000E-01   1.00800           0
     32853 MEMB     264      PYPG     H13Y     HAL2     0.900000E-01   1.00800           0
     32854 MEMB     264      PYPG     C314     CTL2    -0.180000       12.0110           0
     32855 MEMB     264      PYPG     H14X     HAL2     0.900000E-01   1.00800           0
     32856 MEMB     264      PYPG     H14Y     HAL2     0.900000E-01   1.00800           0
     32857 MEMB     264      PYPG     C315     CTL2    -0.180000       12.0110           0
     32858 MEMB     264      PYPG     H15X     HAL2     0.900000E-01   1.00800           0
     32859 MEMB     264      PYPG     H15Y     HAL2     0.900000E-01   1.00800           0
     32860 MEMB     264      PYPG     C316     CTL3    -0.270000       12.0110           0
     32861 MEMB     264      PYPG     H16X     HAL3     0.900000E-01   1.00800           0
     32862 MEMB     264      PYPG     H16Y     HAL3     0.900000E-01   1.00800           0
     32863 MEMB     264      PYPG     H16Z     HAL3     0.900000E-01   1.00800           0
     32864 MEMB     265      QMPE     N        NH3L    -0.300000       14.0070           0
     32865 MEMB     265      QMPE     HN1      HCL      0.330000       1.00800           0
     32866 MEMB     265      QMPE     HN2      HCL      0.330000       1.00800           0
     32867 MEMB     265      QMPE     HN3      HCL      0.330000       1.00800           0
     32868 MEMB     265      QMPE     C12      CTL2     0.130000       12.0110           0
     32869 MEMB     265      QMPE     H12A     HAL2     0.900000E-01   1.00800           0
     32870 MEMB     265      QMPE     H12B     HAL2     0.900000E-01   1.00800           0
     32871 MEMB     265      QMPE     C11      CTL2    -0.800000E-01   12.0110           0
     32872 MEMB     265      QMPE     H11A     HAL2     0.900000E-01   1.00800           0
     32873 MEMB     265      QMPE     H11B     HAL2     0.900000E-01   1.00800           0
     32874 MEMB     265      QMPE     P        PL        1.50000       30.9740           0
     32875 MEMB     265      QMPE     O13      O2L     -0.780000       15.9994           0
     32876 MEMB     265      QMPE     O14      O2L     -0.780000       15.9994           0
     32877 MEMB     265      QMPE     O11      OSLP    -0.570000       15.9994           0
     32878 MEMB     265      QMPE     O12      OSLP    -0.570000       15.9994           0
     32879 MEMB     265      QMPE     C1       CTL2    -0.800000E-01   12.0110           0
     32880 MEMB     265      QMPE     HA       HAL2     0.900000E-01   1.00800           0
     32881 MEMB     265      QMPE     HB       HAL2     0.900000E-01   1.00800           0
     32882 MEMB     265      QMPE     C2       CTL1     0.170000       12.0110           0
     32883 MEMB     265      QMPE     HS       HAL1     0.900000E-01   1.00800           0
     32884 MEMB     265      QMPE     O21      OSL     -0.490000       15.9994           0
     32885 MEMB     265      QMPE     C21      CL       0.900000       12.0110           0
     32886 MEMB     265      QMPE     O22      OBL     -0.630000       15.9994           0
     32887 MEMB     265      QMPE     C22      CTL2    -0.220000       12.0110           0
     32888 MEMB     265      QMPE     H2R      HAL2     0.900000E-01   1.00800           0
     32889 MEMB     265      QMPE     H2S      HAL2     0.900000E-01   1.00800           0
     32890 MEMB     265      QMPE     C3       CTL2     0.800000E-01   12.0110           0
     32891 MEMB     265      QMPE     HX       HAL2     0.900000E-01   1.00800           0
     32892 MEMB     265      QMPE     HY       HAL2     0.900000E-01   1.00800           0
     32893 MEMB     265      QMPE     O31      OSL     -0.490000       15.9994           0
     32894 MEMB     265      QMPE     C31      CL       0.900000       12.0110           0
     32895 MEMB     265      QMPE     O32      OBL     -0.630000       15.9994           0
     32896 MEMB     265      QMPE     C32      CTL2    -0.220000       12.0110           0
     32897 MEMB     265      QMPE     H2X      HAL2     0.900000E-01   1.00800           0
     32898 MEMB     265      QMPE     H2Y      HAL2     0.900000E-01   1.00800           0
     32899 MEMB     265      QMPE     C23      CTL2    -0.180000       12.0110           0
     32900 MEMB     265      QMPE     H3R      HAL2     0.900000E-01   1.00800           0
     32901 MEMB     265      QMPE     H3S      HAL2     0.900000E-01   1.00800           0
     32902 MEMB     265      QMPE     C24      CTL2    -0.180000       12.0110           0
     32903 MEMB     265      QMPE     H4R      HAL2     0.900000E-01   1.00800           0
     32904 MEMB     265      QMPE     H4S      HAL2     0.900000E-01   1.00800           0
     32905 MEMB     265      QMPE     C25      CTL2    -0.180000       12.0110           0
     32906 MEMB     265      QMPE     H5R      HAL2     0.900000E-01   1.00800           0
     32907 MEMB     265      QMPE     H5S      HAL2     0.900000E-01   1.00800           0
     32908 MEMB     265      QMPE     C26      CTL2    -0.180000       12.0110           0
     32909 MEMB     265      QMPE     H6R      HAL2     0.900000E-01   1.00800           0
     32910 MEMB     265      QMPE     H6S      HAL2     0.900000E-01   1.00800           0
     32911 MEMB     265      QMPE     C27      CTL2    -0.180000       12.0110           0
     32912 MEMB     265      QMPE     H7R      HAL2     0.900000E-01   1.00800           0
     32913 MEMB     265      QMPE     H7S      HAL2     0.900000E-01   1.00800           0
     32914 MEMB     265      QMPE     C28      CTL2    -0.180000       12.0110           0
     32915 MEMB     265      QMPE     H8R      HAL2     0.900000E-01   1.00800           0
     32916 MEMB     265      QMPE     H8S      HAL2     0.900000E-01   1.00800           0
     32917 MEMB     265      QMPE     C29      CG3RC1  -0.900000E-01   12.0110           0
     32918 MEMB     265      QMPE     H9R      HGA1     0.900000E-01   1.00800           0
     32919 MEMB     265      QMPE     C217     CG3C31  -0.180000       12.0110           0
     32920 MEMB     265      QMPE     H17R     HGA2     0.900000E-01   1.00800           0
     32921 MEMB     265      QMPE     H17S     HGA2     0.900000E-01   1.00800           0
     32922 MEMB     265      QMPE     C210     CG3RC1  -0.900000E-01   12.0110           0
     32923 MEMB     265      QMPE     H10R     HGA1     0.900000E-01   1.00800           0
     32924 MEMB     265      QMPE     C211     CTL2    -0.180000       12.0110           0
     32925 MEMB     265      QMPE     H11R     HAL2     0.900000E-01   1.00800           0
     32926 MEMB     265      QMPE     H11S     HAL2     0.900000E-01   1.00800           0
     32927 MEMB     265      QMPE     C212     CTL2    -0.180000       12.0110           0
     32928 MEMB     265      QMPE     H12R     HAL2     0.900000E-01   1.00800           0
     32929 MEMB     265      QMPE     H12S     HAL2     0.900000E-01   1.00800           0
     32930 MEMB     265      QMPE     C213     CTL2    -0.180000       12.0110           0
     32931 MEMB     265      QMPE     H13R     HAL2     0.900000E-01   1.00800           0
     32932 MEMB     265      QMPE     H13S     HAL2     0.900000E-01   1.00800           0
     32933 MEMB     265      QMPE     C214     CTL2    -0.180000       12.0110           0
     32934 MEMB     265      QMPE     H14R     HAL2     0.900000E-01   1.00800           0
     32935 MEMB     265      QMPE     H14S     HAL2     0.900000E-01   1.00800           0
     32936 MEMB     265      QMPE     C215     CTL2    -0.180000       12.0110           0
     32937 MEMB     265      QMPE     H15R     HAL2     0.900000E-01   1.00800           0
     32938 MEMB     265      QMPE     H15S     HAL2     0.900000E-01   1.00800           0
     32939 MEMB     265      QMPE     C216     CTL3    -0.270000       12.0110           0
     32940 MEMB     265      QMPE     H16R     HAL3     0.900000E-01   1.00800           0
     32941 MEMB     265      QMPE     H16S     HAL3     0.900000E-01   1.00800           0
     32942 MEMB     265      QMPE     H16T     HAL3     0.900000E-01   1.00800           0
     32943 MEMB     265      QMPE     C33      CTL2    -0.180000       12.0110           0
     32944 MEMB     265      QMPE     H3X      HAL2     0.900000E-01   1.00800           0
     32945 MEMB     265      QMPE     H3Y      HAL2     0.900000E-01   1.00800           0
     32946 MEMB     265      QMPE     C34      CTL2    -0.180000       12.0110           0
     32947 MEMB     265      QMPE     H4X      HAL2     0.900000E-01   1.00800           0
     32948 MEMB     265      QMPE     H4Y      HAL2     0.900000E-01   1.00800           0
     32949 MEMB     265      QMPE     C35      CTL2    -0.180000       12.0110           0
     32950 MEMB     265      QMPE     H5X      HAL2     0.900000E-01   1.00800           0
     32951 MEMB     265      QMPE     H5Y      HAL2     0.900000E-01   1.00800           0
     32952 MEMB     265      QMPE     C36      CTL2    -0.180000       12.0110           0
     32953 MEMB     265      QMPE     H6X      HAL2     0.900000E-01   1.00800           0
     32954 MEMB     265      QMPE     H6Y      HAL2     0.900000E-01   1.00800           0
     32955 MEMB     265      QMPE     C37      CTL2    -0.180000       12.0110           0
     32956 MEMB     265      QMPE     H7X      HAL2     0.900000E-01   1.00800           0
     32957 MEMB     265      QMPE     H7Y      HAL2     0.900000E-01   1.00800           0
     32958 MEMB     265      QMPE     C38      CTL2    -0.180000       12.0110           0
     32959 MEMB     265      QMPE     H8X      HAL2     0.900000E-01   1.00800           0
     32960 MEMB     265      QMPE     H8Y      HAL2     0.900000E-01   1.00800           0
     32961 MEMB     265      QMPE     C39      CTL2    -0.180000       12.0110           0
     32962 MEMB     265      QMPE     H9X      HAL2     0.900000E-01   1.00800           0
     32963 MEMB     265      QMPE     H9Y      HAL2     0.900000E-01   1.00800           0
     32964 MEMB     265      QMPE     C310     CTL2    -0.180000       12.0110           0
     32965 MEMB     265      QMPE     H10X     HAL2     0.900000E-01   1.00800           0
     32966 MEMB     265      QMPE     H10Y     HAL2     0.900000E-01   1.00800           0
     32967 MEMB     265      QMPE     C311     CTL2    -0.180000       12.0110           0
     32968 MEMB     265      QMPE     H11X     HAL2     0.900000E-01   1.00800           0
     32969 MEMB     265      QMPE     H11Y     HAL2     0.900000E-01   1.00800           0
     32970 MEMB     265      QMPE     C312     CTL2    -0.180000       12.0110           0
     32971 MEMB     265      QMPE     H12X     HAL2     0.900000E-01   1.00800           0
     32972 MEMB     265      QMPE     H12Y     HAL2     0.900000E-01   1.00800           0
     32973 MEMB     265      QMPE     C313     CTL2    -0.180000       12.0110           0
     32974 MEMB     265      QMPE     H13X     HAL2     0.900000E-01   1.00800           0
     32975 MEMB     265      QMPE     H13Y     HAL2     0.900000E-01   1.00800           0
     32976 MEMB     265      QMPE     C314     CTL2    -0.180000       12.0110           0
     32977 MEMB     265      QMPE     H14X     HAL2     0.900000E-01   1.00800           0
     32978 MEMB     265      QMPE     H14Y     HAL2     0.900000E-01   1.00800           0
     32979 MEMB     265      QMPE     C315     CTL3    -0.270000       12.0110           0
     32980 MEMB     265      QMPE     H15X     HAL3     0.900000E-01   1.00800           0
     32981 MEMB     265      QMPE     H15Y     HAL3     0.900000E-01   1.00800           0
     32982 MEMB     265      QMPE     H15Z     HAL3     0.900000E-01   1.00800           0
     32983 MEMB     266      POPE     N        NH3L    -0.300000       14.0070           0
     32984 MEMB     266      POPE     HN1      HCL      0.330000       1.00800           0
     32985 MEMB     266      POPE     HN2      HCL      0.330000       1.00800           0
     32986 MEMB     266      POPE     HN3      HCL      0.330000       1.00800           0
     32987 MEMB     266      POPE     C12      CTL2     0.130000       12.0110           0
     32988 MEMB     266      POPE     H12A     HAL2     0.900000E-01   1.00800           0
     32989 MEMB     266      POPE     H12B     HAL2     0.900000E-01   1.00800           0
     32990 MEMB     266      POPE     C11      CTL2    -0.800000E-01   12.0110           0
     32991 MEMB     266      POPE     H11A     HAL2     0.900000E-01   1.00800           0
     32992 MEMB     266      POPE     H11B     HAL2     0.900000E-01   1.00800           0
     32993 MEMB     266      POPE     P        PL        1.50000       30.9740           0
     32994 MEMB     266      POPE     O13      O2L     -0.780000       15.9994           0
     32995 MEMB     266      POPE     O14      O2L     -0.780000       15.9994           0
     32996 MEMB     266      POPE     O11      OSLP    -0.570000       15.9994           0
     32997 MEMB     266      POPE     O12      OSLP    -0.570000       15.9994           0
     32998 MEMB     266      POPE     C1       CTL2    -0.800000E-01   12.0110           0
     32999 MEMB     266      POPE     HA       HAL2     0.900000E-01   1.00800           0
     33000 MEMB     266      POPE     HB       HAL2     0.900000E-01   1.00800           0
     33001 MEMB     266      POPE     C2       CTL1     0.170000       12.0110           0
     33002 MEMB     266      POPE     HS       HAL1     0.900000E-01   1.00800           0
     33003 MEMB     266      POPE     O21      OSL     -0.490000       15.9994           0
     33004 MEMB     266      POPE     C21      CL       0.900000       12.0110           0
     33005 MEMB     266      POPE     O22      OBL     -0.630000       15.9994           0
     33006 MEMB     266      POPE     C22      CTL2    -0.220000       12.0110           0
     33007 MEMB     266      POPE     H2R      HAL2     0.900000E-01   1.00800           0
     33008 MEMB     266      POPE     H2S      HAL2     0.900000E-01   1.00800           0
     33009 MEMB     266      POPE     C3       CTL2     0.800000E-01   12.0110           0
     33010 MEMB     266      POPE     HX       HAL2     0.900000E-01   1.00800           0
     33011 MEMB     266      POPE     HY       HAL2     0.900000E-01   1.00800           0
     33012 MEMB     266      POPE     O31      OSL     -0.490000       15.9994           0
     33013 MEMB     266      POPE     C31      CL       0.900000       12.0110           0
     33014 MEMB     266      POPE     O32      OBL     -0.630000       15.9994           0
     33015 MEMB     266      POPE     C32      CTL2    -0.220000       12.0110           0
     33016 MEMB     266      POPE     H2X      HAL2     0.900000E-01   1.00800           0
     33017 MEMB     266      POPE     H2Y      HAL2     0.900000E-01   1.00800           0
     33018 MEMB     266      POPE     C23      CTL2    -0.180000       12.0110           0
     33019 MEMB     266      POPE     H3R      HAL2     0.900000E-01   1.00800           0
     33020 MEMB     266      POPE     H3S      HAL2     0.900000E-01   1.00800           0
     33021 MEMB     266      POPE     C24      CTL2    -0.180000       12.0110           0
     33022 MEMB     266      POPE     H4R      HAL2     0.900000E-01   1.00800           0
     33023 MEMB     266      POPE     H4S      HAL2     0.900000E-01   1.00800           0
     33024 MEMB     266      POPE     C25      CTL2    -0.180000       12.0110           0
     33025 MEMB     266      POPE     H5R      HAL2     0.900000E-01   1.00800           0
     33026 MEMB     266      POPE     H5S      HAL2     0.900000E-01   1.00800           0
     33027 MEMB     266      POPE     C26      CTL2    -0.180000       12.0110           0
     33028 MEMB     266      POPE     H6R      HAL2     0.900000E-01   1.00800           0
     33029 MEMB     266      POPE     H6S      HAL2     0.900000E-01   1.00800           0
     33030 MEMB     266      POPE     C27      CTL2    -0.180000       12.0110           0
     33031 MEMB     266      POPE     H7R      HAL2     0.900000E-01   1.00800           0
     33032 MEMB     266      POPE     H7S      HAL2     0.900000E-01   1.00800           0
     33033 MEMB     266      POPE     C28      CTL2    -0.180000       12.0110           0
     33034 MEMB     266      POPE     H8R      HAL2     0.900000E-01   1.00800           0
     33035 MEMB     266      POPE     H8S      HAL2     0.900000E-01   1.00800           0
     33036 MEMB     266      POPE     C29      CEL1    -0.150000       12.0110           0
     33037 MEMB     266      POPE     H91      HEL1     0.150000       1.00800           0
     33038 MEMB     266      POPE     C210     CEL1    -0.150000       12.0110           0
     33039 MEMB     266      POPE     H101     HEL1     0.150000       1.00800           0
     33040 MEMB     266      POPE     C211     CTL2    -0.180000       12.0110           0
     33041 MEMB     266      POPE     H11R     HAL2     0.900000E-01   1.00800           0
     33042 MEMB     266      POPE     H11S     HAL2     0.900000E-01   1.00800           0
     33043 MEMB     266      POPE     C212     CTL2    -0.180000       12.0110           0
     33044 MEMB     266      POPE     H12R     HAL2     0.900000E-01   1.00800           0
     33045 MEMB     266      POPE     H12S     HAL2     0.900000E-01   1.00800           0
     33046 MEMB     266      POPE     C213     CTL2    -0.180000       12.0110           0
     33047 MEMB     266      POPE     H13R     HAL2     0.900000E-01   1.00800           0
     33048 MEMB     266      POPE     H13S     HAL2     0.900000E-01   1.00800           0
     33049 MEMB     266      POPE     C214     CTL2    -0.180000       12.0110           0
     33050 MEMB     266      POPE     H14R     HAL2     0.900000E-01   1.00800           0
     33051 MEMB     266      POPE     H14S     HAL2     0.900000E-01   1.00800           0
     33052 MEMB     266      POPE     C215     CTL2    -0.180000       12.0110           0
     33053 MEMB     266      POPE     H15R     HAL2     0.900000E-01   1.00800           0
     33054 MEMB     266      POPE     H15S     HAL2     0.900000E-01   1.00800           0
     33055 MEMB     266      POPE     C216     CTL2    -0.180000       12.0110           0
     33056 MEMB     266      POPE     H16R     HAL2     0.900000E-01   1.00800           0
     33057 MEMB     266      POPE     H16S     HAL2     0.900000E-01   1.00800           0
     33058 MEMB     266      POPE     C217     CTL2    -0.180000       12.0110           0
     33059 MEMB     266      POPE     H17R     HAL2     0.900000E-01   1.00800           0
     33060 MEMB     266      POPE     H17S     HAL2     0.900000E-01   1.00800           0
     33061 MEMB     266      POPE     C218     CTL3    -0.270000       12.0110           0
     33062 MEMB     266      POPE     H18R     HAL3     0.900000E-01   1.00800           0
     33063 MEMB     266      POPE     H18S     HAL3     0.900000E-01   1.00800           0
     33064 MEMB     266      POPE     H18T     HAL3     0.900000E-01   1.00800           0
     33065 MEMB     266      POPE     C33      CTL2    -0.180000       12.0110           0
     33066 MEMB     266      POPE     H3X      HAL2     0.900000E-01   1.00800           0
     33067 MEMB     266      POPE     H3Y      HAL2     0.900000E-01   1.00800           0
     33068 MEMB     266      POPE     C34      CTL2    -0.180000       12.0110           0
     33069 MEMB     266      POPE     H4X      HAL2     0.900000E-01   1.00800           0
     33070 MEMB     266      POPE     H4Y      HAL2     0.900000E-01   1.00800           0
     33071 MEMB     266      POPE     C35      CTL2    -0.180000       12.0110           0
     33072 MEMB     266      POPE     H5X      HAL2     0.900000E-01   1.00800           0
     33073 MEMB     266      POPE     H5Y      HAL2     0.900000E-01   1.00800           0
     33074 MEMB     266      POPE     C36      CTL2    -0.180000       12.0110           0
     33075 MEMB     266      POPE     H6X      HAL2     0.900000E-01   1.00800           0
     33076 MEMB     266      POPE     H6Y      HAL2     0.900000E-01   1.00800           0
     33077 MEMB     266      POPE     C37      CTL2    -0.180000       12.0110           0
     33078 MEMB     266      POPE     H7X      HAL2     0.900000E-01   1.00800           0
     33079 MEMB     266      POPE     H7Y      HAL2     0.900000E-01   1.00800           0
     33080 MEMB     266      POPE     C38      CTL2    -0.180000       12.0110           0
     33081 MEMB     266      POPE     H8X      HAL2     0.900000E-01   1.00800           0
     33082 MEMB     266      POPE     H8Y      HAL2     0.900000E-01   1.00800           0
     33083 MEMB     266      POPE     C39      CTL2    -0.180000       12.0110           0
     33084 MEMB     266      POPE     H9X      HAL2     0.900000E-01   1.00800           0
     33085 MEMB     266      POPE     H9Y      HAL2     0.900000E-01   1.00800           0
     33086 MEMB     266      POPE     C310     CTL2    -0.180000       12.0110           0
     33087 MEMB     266      POPE     H10X     HAL2     0.900000E-01   1.00800           0
     33088 MEMB     266      POPE     H10Y     HAL2     0.900000E-01   1.00800           0
     33089 MEMB     266      POPE     C311     CTL2    -0.180000       12.0110           0
     33090 MEMB     266      POPE     H11X     HAL2     0.900000E-01   1.00800           0
     33091 MEMB     266      POPE     H11Y     HAL2     0.900000E-01   1.00800           0
     33092 MEMB     266      POPE     C312     CTL2    -0.180000       12.0110           0
     33093 MEMB     266      POPE     H12X     HAL2     0.900000E-01   1.00800           0
     33094 MEMB     266      POPE     H12Y     HAL2     0.900000E-01   1.00800           0
     33095 MEMB     266      POPE     C313     CTL2    -0.180000       12.0110           0
     33096 MEMB     266      POPE     H13X     HAL2     0.900000E-01   1.00800           0
     33097 MEMB     266      POPE     H13Y     HAL2     0.900000E-01   1.00800           0
     33098 MEMB     266      POPE     C314     CTL2    -0.180000       12.0110           0
     33099 MEMB     266      POPE     H14X     HAL2     0.900000E-01   1.00800           0
     33100 MEMB     266      POPE     H14Y     HAL2     0.900000E-01   1.00800           0
     33101 MEMB     266      POPE     C315     CTL2    -0.180000       12.0110           0
     33102 MEMB     266      POPE     H15X     HAL2     0.900000E-01   1.00800           0
     33103 MEMB     266      POPE     H15Y     HAL2     0.900000E-01   1.00800           0
     33104 MEMB     266      POPE     C316     CTL3    -0.270000       12.0110           0
     33105 MEMB     266      POPE     H16X     HAL3     0.900000E-01   1.00800           0
     33106 MEMB     266      POPE     H16Y     HAL3     0.900000E-01   1.00800           0
     33107 MEMB     266      POPE     H16Z     HAL3     0.900000E-01   1.00800           0
     33108 MEMB     267      PMPE     N        NH3L    -0.300000       14.0070           0
     33109 MEMB     267      PMPE     HN1      HCL      0.330000       1.00800           0
     33110 MEMB     267      PMPE     HN2      HCL      0.330000       1.00800           0
     33111 MEMB     267      PMPE     HN3      HCL      0.330000       1.00800           0
     33112 MEMB     267      PMPE     C12      CTL2     0.130000       12.0110           0
     33113 MEMB     267      PMPE     H12A     HAL2     0.900000E-01   1.00800           0
     33114 MEMB     267      PMPE     H12B     HAL2     0.900000E-01   1.00800           0
     33115 MEMB     267      PMPE     C11      CTL2    -0.800000E-01   12.0110           0
     33116 MEMB     267      PMPE     H11A     HAL2     0.900000E-01   1.00800           0
     33117 MEMB     267      PMPE     H11B     HAL2     0.900000E-01   1.00800           0
     33118 MEMB     267      PMPE     P        PL        1.50000       30.9740           0
     33119 MEMB     267      PMPE     O13      O2L     -0.780000       15.9994           0
     33120 MEMB     267      PMPE     O14      O2L     -0.780000       15.9994           0
     33121 MEMB     267      PMPE     O11      OSLP    -0.570000       15.9994           0
     33122 MEMB     267      PMPE     O12      OSLP    -0.570000       15.9994           0
     33123 MEMB     267      PMPE     C1       CTL2    -0.800000E-01   12.0110           0
     33124 MEMB     267      PMPE     HA       HAL2     0.900000E-01   1.00800           0
     33125 MEMB     267      PMPE     HB       HAL2     0.900000E-01   1.00800           0
     33126 MEMB     267      PMPE     C2       CTL1     0.170000       12.0110           0
     33127 MEMB     267      PMPE     HS       HAL1     0.900000E-01   1.00800           0
     33128 MEMB     267      PMPE     O21      OSL     -0.490000       15.9994           0
     33129 MEMB     267      PMPE     C21      CL       0.900000       12.0110           0
     33130 MEMB     267      PMPE     O22      OBL     -0.630000       15.9994           0
     33131 MEMB     267      PMPE     C22      CTL2    -0.220000       12.0110           0
     33132 MEMB     267      PMPE     H2R      HAL2     0.900000E-01   1.00800           0
     33133 MEMB     267      PMPE     H2S      HAL2     0.900000E-01   1.00800           0
     33134 MEMB     267      PMPE     C3       CTL2     0.800000E-01   12.0110           0
     33135 MEMB     267      PMPE     HX       HAL2     0.900000E-01   1.00800           0
     33136 MEMB     267      PMPE     HY       HAL2     0.900000E-01   1.00800           0
     33137 MEMB     267      PMPE     O31      OSL     -0.490000       15.9994           0
     33138 MEMB     267      PMPE     C31      CL       0.900000       12.0110           0
     33139 MEMB     267      PMPE     O32      OBL     -0.630000       15.9994           0
     33140 MEMB     267      PMPE     C32      CTL2    -0.220000       12.0110           0
     33141 MEMB     267      PMPE     H2X      HAL2     0.900000E-01   1.00800           0
     33142 MEMB     267      PMPE     H2Y      HAL2     0.900000E-01   1.00800           0
     33143 MEMB     267      PMPE     C23      CTL2    -0.180000       12.0110           0
     33144 MEMB     267      PMPE     H3R      HAL2     0.900000E-01   1.00800           0
     33145 MEMB     267      PMPE     H3S      HAL2     0.900000E-01   1.00800           0
     33146 MEMB     267      PMPE     C24      CTL2    -0.180000       12.0110           0
     33147 MEMB     267      PMPE     H4R      HAL2     0.900000E-01   1.00800           0
     33148 MEMB     267      PMPE     H4S      HAL2     0.900000E-01   1.00800           0
     33149 MEMB     267      PMPE     C25      CTL2    -0.180000       12.0110           0
     33150 MEMB     267      PMPE     H5R      HAL2     0.900000E-01   1.00800           0
     33151 MEMB     267      PMPE     H5S      HAL2     0.900000E-01   1.00800           0
     33152 MEMB     267      PMPE     C26      CTL2    -0.180000       12.0110           0
     33153 MEMB     267      PMPE     H6R      HAL2     0.900000E-01   1.00800           0
     33154 MEMB     267      PMPE     H6S      HAL2     0.900000E-01   1.00800           0
     33155 MEMB     267      PMPE     C27      CTL2    -0.180000       12.0110           0
     33156 MEMB     267      PMPE     H7R      HAL2     0.900000E-01   1.00800           0
     33157 MEMB     267      PMPE     H7S      HAL2     0.900000E-01   1.00800           0
     33158 MEMB     267      PMPE     C28      CTL2    -0.180000       12.0110           0
     33159 MEMB     267      PMPE     H8R      HAL2     0.900000E-01   1.00800           0
     33160 MEMB     267      PMPE     H8S      HAL2     0.900000E-01   1.00800           0
     33161 MEMB     267      PMPE     C29      CG3RC1  -0.900000E-01   12.0110           0
     33162 MEMB     267      PMPE     H9R      HGA1     0.900000E-01   1.00800           0
     33163 MEMB     267      PMPE     C217     CG3C31  -0.180000       12.0110           0
     33164 MEMB     267      PMPE     H17R     HGA2     0.900000E-01   1.00800           0
     33165 MEMB     267      PMPE     H17S     HGA2     0.900000E-01   1.00800           0
     33166 MEMB     267      PMPE     C210     CG3RC1  -0.900000E-01   12.0110           0
     33167 MEMB     267      PMPE     H10R     HGA1     0.900000E-01   1.00800           0
     33168 MEMB     267      PMPE     C211     CTL2    -0.180000       12.0110           0
     33169 MEMB     267      PMPE     H11R     HAL2     0.900000E-01   1.00800           0
     33170 MEMB     267      PMPE     H11S     HAL2     0.900000E-01   1.00800           0
     33171 MEMB     267      PMPE     C212     CTL2    -0.180000       12.0110           0
     33172 MEMB     267      PMPE     H12R     HAL2     0.900000E-01   1.00800           0
     33173 MEMB     267      PMPE     H12S     HAL2     0.900000E-01   1.00800           0
     33174 MEMB     267      PMPE     C213     CTL2    -0.180000       12.0110           0
     33175 MEMB     267      PMPE     H13R     HAL2     0.900000E-01   1.00800           0
     33176 MEMB     267      PMPE     H13S     HAL2     0.900000E-01   1.00800           0
     33177 MEMB     267      PMPE     C214     CTL2    -0.180000       12.0110           0
     33178 MEMB     267      PMPE     H14R     HAL2     0.900000E-01   1.00800           0
     33179 MEMB     267      PMPE     H14S     HAL2     0.900000E-01   1.00800           0
     33180 MEMB     267      PMPE     C215     CTL2    -0.180000       12.0110           0
     33181 MEMB     267      PMPE     H15R     HAL2     0.900000E-01   1.00800           0
     33182 MEMB     267      PMPE     H15S     HAL2     0.900000E-01   1.00800           0
     33183 MEMB     267      PMPE     C216     CTL3    -0.270000       12.0110           0
     33184 MEMB     267      PMPE     H16R     HAL3     0.900000E-01   1.00800           0
     33185 MEMB     267      PMPE     H16S     HAL3     0.900000E-01   1.00800           0
     33186 MEMB     267      PMPE     H16T     HAL3     0.900000E-01   1.00800           0
     33187 MEMB     267      PMPE     C33      CTL2    -0.180000       12.0110           0
     33188 MEMB     267      PMPE     H3X      HAL2     0.900000E-01   1.00800           0
     33189 MEMB     267      PMPE     H3Y      HAL2     0.900000E-01   1.00800           0
     33190 MEMB     267      PMPE     C34      CTL2    -0.180000       12.0110           0
     33191 MEMB     267      PMPE     H4X      HAL2     0.900000E-01   1.00800           0
     33192 MEMB     267      PMPE     H4Y      HAL2     0.900000E-01   1.00800           0
     33193 MEMB     267      PMPE     C35      CTL2    -0.180000       12.0110           0
     33194 MEMB     267      PMPE     H5X      HAL2     0.900000E-01   1.00800           0
     33195 MEMB     267      PMPE     H5Y      HAL2     0.900000E-01   1.00800           0
     33196 MEMB     267      PMPE     C36      CTL2    -0.180000       12.0110           0
     33197 MEMB     267      PMPE     H6X      HAL2     0.900000E-01   1.00800           0
     33198 MEMB     267      PMPE     H6Y      HAL2     0.900000E-01   1.00800           0
     33199 MEMB     267      PMPE     C37      CTL2    -0.180000       12.0110           0
     33200 MEMB     267      PMPE     H7X      HAL2     0.900000E-01   1.00800           0
     33201 MEMB     267      PMPE     H7Y      HAL2     0.900000E-01   1.00800           0
     33202 MEMB     267      PMPE     C38      CTL2    -0.180000       12.0110           0
     33203 MEMB     267      PMPE     H8X      HAL2     0.900000E-01   1.00800           0
     33204 MEMB     267      PMPE     H8Y      HAL2     0.900000E-01   1.00800           0
     33205 MEMB     267      PMPE     C39      CTL2    -0.180000       12.0110           0
     33206 MEMB     267      PMPE     H9X      HAL2     0.900000E-01   1.00800           0
     33207 MEMB     267      PMPE     H9Y      HAL2     0.900000E-01   1.00800           0
     33208 MEMB     267      PMPE     C310     CTL2    -0.180000       12.0110           0
     33209 MEMB     267      PMPE     H10X     HAL2     0.900000E-01   1.00800           0
     33210 MEMB     267      PMPE     H10Y     HAL2     0.900000E-01   1.00800           0
     33211 MEMB     267      PMPE     C311     CTL2    -0.180000       12.0110           0
     33212 MEMB     267      PMPE     H11X     HAL2     0.900000E-01   1.00800           0
     33213 MEMB     267      PMPE     H11Y     HAL2     0.900000E-01   1.00800           0
     33214 MEMB     267      PMPE     C312     CTL2    -0.180000       12.0110           0
     33215 MEMB     267      PMPE     H12X     HAL2     0.900000E-01   1.00800           0
     33216 MEMB     267      PMPE     H12Y     HAL2     0.900000E-01   1.00800           0
     33217 MEMB     267      PMPE     C313     CTL2    -0.180000       12.0110           0
     33218 MEMB     267      PMPE     H13X     HAL2     0.900000E-01   1.00800           0
     33219 MEMB     267      PMPE     H13Y     HAL2     0.900000E-01   1.00800           0
     33220 MEMB     267      PMPE     C314     CTL2    -0.180000       12.0110           0
     33221 MEMB     267      PMPE     H14X     HAL2     0.900000E-01   1.00800           0
     33222 MEMB     267      PMPE     H14Y     HAL2     0.900000E-01   1.00800           0
     33223 MEMB     267      PMPE     C315     CTL2    -0.180000       12.0110           0
     33224 MEMB     267      PMPE     H15X     HAL2     0.900000E-01   1.00800           0
     33225 MEMB     267      PMPE     H15Y     HAL2     0.900000E-01   1.00800           0
     33226 MEMB     267      PMPE     C316     CTL3    -0.270000       12.0110           0
     33227 MEMB     267      PMPE     H16X     HAL3     0.900000E-01   1.00800           0
     33228 MEMB     267      PMPE     H16Y     HAL3     0.900000E-01   1.00800           0
     33229 MEMB     267      PMPE     H16Z     HAL3     0.900000E-01   1.00800           0
     33230 MEMB     268      PMPE     N        NH3L    -0.300000       14.0070           0
     33231 MEMB     268      PMPE     HN1      HCL      0.330000       1.00800           0
     33232 MEMB     268      PMPE     HN2      HCL      0.330000       1.00800           0
     33233 MEMB     268      PMPE     HN3      HCL      0.330000       1.00800           0
     33234 MEMB     268      PMPE     C12      CTL2     0.130000       12.0110           0
     33235 MEMB     268      PMPE     H12A     HAL2     0.900000E-01   1.00800           0
     33236 MEMB     268      PMPE     H12B     HAL2     0.900000E-01   1.00800           0
     33237 MEMB     268      PMPE     C11      CTL2    -0.800000E-01   12.0110           0
     33238 MEMB     268      PMPE     H11A     HAL2     0.900000E-01   1.00800           0
     33239 MEMB     268      PMPE     H11B     HAL2     0.900000E-01   1.00800           0
     33240 MEMB     268      PMPE     P        PL        1.50000       30.9740           0
     33241 MEMB     268      PMPE     O13      O2L     -0.780000       15.9994           0
     33242 MEMB     268      PMPE     O14      O2L     -0.780000       15.9994           0
     33243 MEMB     268      PMPE     O11      OSLP    -0.570000       15.9994           0
     33244 MEMB     268      PMPE     O12      OSLP    -0.570000       15.9994           0
     33245 MEMB     268      PMPE     C1       CTL2    -0.800000E-01   12.0110           0
     33246 MEMB     268      PMPE     HA       HAL2     0.900000E-01   1.00800           0
     33247 MEMB     268      PMPE     HB       HAL2     0.900000E-01   1.00800           0
     33248 MEMB     268      PMPE     C2       CTL1     0.170000       12.0110           0
     33249 MEMB     268      PMPE     HS       HAL1     0.900000E-01   1.00800           0
     33250 MEMB     268      PMPE     O21      OSL     -0.490000       15.9994           0
     33251 MEMB     268      PMPE     C21      CL       0.900000       12.0110           0
     33252 MEMB     268      PMPE     O22      OBL     -0.630000       15.9994           0
     33253 MEMB     268      PMPE     C22      CTL2    -0.220000       12.0110           0
     33254 MEMB     268      PMPE     H2R      HAL2     0.900000E-01   1.00800           0
     33255 MEMB     268      PMPE     H2S      HAL2     0.900000E-01   1.00800           0
     33256 MEMB     268      PMPE     C3       CTL2     0.800000E-01   12.0110           0
     33257 MEMB     268      PMPE     HX       HAL2     0.900000E-01   1.00800           0
     33258 MEMB     268      PMPE     HY       HAL2     0.900000E-01   1.00800           0
     33259 MEMB     268      PMPE     O31      OSL     -0.490000       15.9994           0
     33260 MEMB     268      PMPE     C31      CL       0.900000       12.0110           0
     33261 MEMB     268      PMPE     O32      OBL     -0.630000       15.9994           0
     33262 MEMB     268      PMPE     C32      CTL2    -0.220000       12.0110           0
     33263 MEMB     268      PMPE     H2X      HAL2     0.900000E-01   1.00800           0
     33264 MEMB     268      PMPE     H2Y      HAL2     0.900000E-01   1.00800           0
     33265 MEMB     268      PMPE     C23      CTL2    -0.180000       12.0110           0
     33266 MEMB     268      PMPE     H3R      HAL2     0.900000E-01   1.00800           0
     33267 MEMB     268      PMPE     H3S      HAL2     0.900000E-01   1.00800           0
     33268 MEMB     268      PMPE     C24      CTL2    -0.180000       12.0110           0
     33269 MEMB     268      PMPE     H4R      HAL2     0.900000E-01   1.00800           0
     33270 MEMB     268      PMPE     H4S      HAL2     0.900000E-01   1.00800           0
     33271 MEMB     268      PMPE     C25      CTL2    -0.180000       12.0110           0
     33272 MEMB     268      PMPE     H5R      HAL2     0.900000E-01   1.00800           0
     33273 MEMB     268      PMPE     H5S      HAL2     0.900000E-01   1.00800           0
     33274 MEMB     268      PMPE     C26      CTL2    -0.180000       12.0110           0
     33275 MEMB     268      PMPE     H6R      HAL2     0.900000E-01   1.00800           0
     33276 MEMB     268      PMPE     H6S      HAL2     0.900000E-01   1.00800           0
     33277 MEMB     268      PMPE     C27      CTL2    -0.180000       12.0110           0
     33278 MEMB     268      PMPE     H7R      HAL2     0.900000E-01   1.00800           0
     33279 MEMB     268      PMPE     H7S      HAL2     0.900000E-01   1.00800           0
     33280 MEMB     268      PMPE     C28      CTL2    -0.180000       12.0110           0
     33281 MEMB     268      PMPE     H8R      HAL2     0.900000E-01   1.00800           0
     33282 MEMB     268      PMPE     H8S      HAL2     0.900000E-01   1.00800           0
     33283 MEMB     268      PMPE     C29      CG3RC1  -0.900000E-01   12.0110           0
     33284 MEMB     268      PMPE     H9R      HGA1     0.900000E-01   1.00800           0
     33285 MEMB     268      PMPE     C217     CG3C31  -0.180000       12.0110           0
     33286 MEMB     268      PMPE     H17R     HGA2     0.900000E-01   1.00800           0
     33287 MEMB     268      PMPE     H17S     HGA2     0.900000E-01   1.00800           0
     33288 MEMB     268      PMPE     C210     CG3RC1  -0.900000E-01   12.0110           0
     33289 MEMB     268      PMPE     H10R     HGA1     0.900000E-01   1.00800           0
     33290 MEMB     268      PMPE     C211     CTL2    -0.180000       12.0110           0
     33291 MEMB     268      PMPE     H11R     HAL2     0.900000E-01   1.00800           0
     33292 MEMB     268      PMPE     H11S     HAL2     0.900000E-01   1.00800           0
     33293 MEMB     268      PMPE     C212     CTL2    -0.180000       12.0110           0
     33294 MEMB     268      PMPE     H12R     HAL2     0.900000E-01   1.00800           0
     33295 MEMB     268      PMPE     H12S     HAL2     0.900000E-01   1.00800           0
     33296 MEMB     268      PMPE     C213     CTL2    -0.180000       12.0110           0
     33297 MEMB     268      PMPE     H13R     HAL2     0.900000E-01   1.00800           0
     33298 MEMB     268      PMPE     H13S     HAL2     0.900000E-01   1.00800           0
     33299 MEMB     268      PMPE     C214     CTL2    -0.180000       12.0110           0
     33300 MEMB     268      PMPE     H14R     HAL2     0.900000E-01   1.00800           0
     33301 MEMB     268      PMPE     H14S     HAL2     0.900000E-01   1.00800           0
     33302 MEMB     268      PMPE     C215     CTL2    -0.180000       12.0110           0
     33303 MEMB     268      PMPE     H15R     HAL2     0.900000E-01   1.00800           0
     33304 MEMB     268      PMPE     H15S     HAL2     0.900000E-01   1.00800           0
     33305 MEMB     268      PMPE     C216     CTL3    -0.270000       12.0110           0
     33306 MEMB     268      PMPE     H16R     HAL3     0.900000E-01   1.00800           0
     33307 MEMB     268      PMPE     H16S     HAL3     0.900000E-01   1.00800           0
     33308 MEMB     268      PMPE     H16T     HAL3     0.900000E-01   1.00800           0
     33309 MEMB     268      PMPE     C33      CTL2    -0.180000       12.0110           0
     33310 MEMB     268      PMPE     H3X      HAL2     0.900000E-01   1.00800           0
     33311 MEMB     268      PMPE     H3Y      HAL2     0.900000E-01   1.00800           0
     33312 MEMB     268      PMPE     C34      CTL2    -0.180000       12.0110           0
     33313 MEMB     268      PMPE     H4X      HAL2     0.900000E-01   1.00800           0
     33314 MEMB     268      PMPE     H4Y      HAL2     0.900000E-01   1.00800           0
     33315 MEMB     268      PMPE     C35      CTL2    -0.180000       12.0110           0
     33316 MEMB     268      PMPE     H5X      HAL2     0.900000E-01   1.00800           0
     33317 MEMB     268      PMPE     H5Y      HAL2     0.900000E-01   1.00800           0
     33318 MEMB     268      PMPE     C36      CTL2    -0.180000       12.0110           0
     33319 MEMB     268      PMPE     H6X      HAL2     0.900000E-01   1.00800           0
     33320 MEMB     268      PMPE     H6Y      HAL2     0.900000E-01   1.00800           0
     33321 MEMB     268      PMPE     C37      CTL2    -0.180000       12.0110           0
     33322 MEMB     268      PMPE     H7X      HAL2     0.900000E-01   1.00800           0
     33323 MEMB     268      PMPE     H7Y      HAL2     0.900000E-01   1.00800           0
     33324 MEMB     268      PMPE     C38      CTL2    -0.180000       12.0110           0
     33325 MEMB     268      PMPE     H8X      HAL2     0.900000E-01   1.00800           0
     33326 MEMB     268      PMPE     H8Y      HAL2     0.900000E-01   1.00800           0
     33327 MEMB     268      PMPE     C39      CTL2    -0.180000       12.0110           0
     33328 MEMB     268      PMPE     H9X      HAL2     0.900000E-01   1.00800           0
     33329 MEMB     268      PMPE     H9Y      HAL2     0.900000E-01   1.00800           0
     33330 MEMB     268      PMPE     C310     CTL2    -0.180000       12.0110           0
     33331 MEMB     268      PMPE     H10X     HAL2     0.900000E-01   1.00800           0
     33332 MEMB     268      PMPE     H10Y     HAL2     0.900000E-01   1.00800           0
     33333 MEMB     268      PMPE     C311     CTL2    -0.180000       12.0110           0
     33334 MEMB     268      PMPE     H11X     HAL2     0.900000E-01   1.00800           0
     33335 MEMB     268      PMPE     H11Y     HAL2     0.900000E-01   1.00800           0
     33336 MEMB     268      PMPE     C312     CTL2    -0.180000       12.0110           0
     33337 MEMB     268      PMPE     H12X     HAL2     0.900000E-01   1.00800           0
     33338 MEMB     268      PMPE     H12Y     HAL2     0.900000E-01   1.00800           0
     33339 MEMB     268      PMPE     C313     CTL2    -0.180000       12.0110           0
     33340 MEMB     268      PMPE     H13X     HAL2     0.900000E-01   1.00800           0
     33341 MEMB     268      PMPE     H13Y     HAL2     0.900000E-01   1.00800           0
     33342 MEMB     268      PMPE     C314     CTL2    -0.180000       12.0110           0
     33343 MEMB     268      PMPE     H14X     HAL2     0.900000E-01   1.00800           0
     33344 MEMB     268      PMPE     H14Y     HAL2     0.900000E-01   1.00800           0
     33345 MEMB     268      PMPE     C315     CTL2    -0.180000       12.0110           0
     33346 MEMB     268      PMPE     H15X     HAL2     0.900000E-01   1.00800           0
     33347 MEMB     268      PMPE     H15Y     HAL2     0.900000E-01   1.00800           0
     33348 MEMB     268      PMPE     C316     CTL3    -0.270000       12.0110           0
     33349 MEMB     268      PMPE     H16X     HAL3     0.900000E-01   1.00800           0
     33350 MEMB     268      PMPE     H16Y     HAL3     0.900000E-01   1.00800           0
     33351 MEMB     268      PMPE     H16Z     HAL3     0.900000E-01   1.00800           0
     33352 MEMB     269      OYPE     N        NH3L    -0.300000       14.0070           0
     33353 MEMB     269      OYPE     HN1      HCL      0.330000       1.00800           0
     33354 MEMB     269      OYPE     HN2      HCL      0.330000       1.00800           0
     33355 MEMB     269      OYPE     HN3      HCL      0.330000       1.00800           0
     33356 MEMB     269      OYPE     C12      CTL2     0.130000       12.0110           0
     33357 MEMB     269      OYPE     H12A     HAL2     0.900000E-01   1.00800           0
     33358 MEMB     269      OYPE     H12B     HAL2     0.900000E-01   1.00800           0
     33359 MEMB     269      OYPE     C11      CTL2    -0.800000E-01   12.0110           0
     33360 MEMB     269      OYPE     H11A     HAL2     0.900000E-01   1.00800           0
     33361 MEMB     269      OYPE     H11B     HAL2     0.900000E-01   1.00800           0
     33362 MEMB     269      OYPE     P        PL        1.50000       30.9740           0
     33363 MEMB     269      OYPE     O13      O2L     -0.780000       15.9994           0
     33364 MEMB     269      OYPE     O14      O2L     -0.780000       15.9994           0
     33365 MEMB     269      OYPE     O11      OSLP    -0.570000       15.9994           0
     33366 MEMB     269      OYPE     O12      OSLP    -0.570000       15.9994           0
     33367 MEMB     269      OYPE     C1       CTL2    -0.800000E-01   12.0110           0
     33368 MEMB     269      OYPE     HA       HAL2     0.900000E-01   1.00800           0
     33369 MEMB     269      OYPE     HB       HAL2     0.900000E-01   1.00800           0
     33370 MEMB     269      OYPE     C2       CTL1     0.170000       12.0110           0
     33371 MEMB     269      OYPE     HS       HAL1     0.900000E-01   1.00800           0
     33372 MEMB     269      OYPE     O21      OSL     -0.490000       15.9994           0
     33373 MEMB     269      OYPE     C21      CL       0.900000       12.0110           0
     33374 MEMB     269      OYPE     O22      OBL     -0.630000       15.9994           0
     33375 MEMB     269      OYPE     C22      CTL2    -0.220000       12.0110           0
     33376 MEMB     269      OYPE     H2R      HAL2     0.900000E-01   1.00800           0
     33377 MEMB     269      OYPE     H2S      HAL2     0.900000E-01   1.00800           0
     33378 MEMB     269      OYPE     C3       CTL2     0.800000E-01   12.0110           0
     33379 MEMB     269      OYPE     HX       HAL2     0.900000E-01   1.00800           0
     33380 MEMB     269      OYPE     HY       HAL2     0.900000E-01   1.00800           0
     33381 MEMB     269      OYPE     O31      OSL     -0.490000       15.9994           0
     33382 MEMB     269      OYPE     C31      CL       0.900000       12.0110           0
     33383 MEMB     269      OYPE     O32      OBL     -0.630000       15.9994           0
     33384 MEMB     269      OYPE     C32      CTL2    -0.220000       12.0110           0
     33385 MEMB     269      OYPE     H2X      HAL2     0.900000E-01   1.00800           0
     33386 MEMB     269      OYPE     H2Y      HAL2     0.900000E-01   1.00800           0
     33387 MEMB     269      OYPE     C23      CTL2    -0.180000       12.0110           0
     33388 MEMB     269      OYPE     H3R      HAL2     0.900000E-01   1.00800           0
     33389 MEMB     269      OYPE     H3S      HAL2     0.900000E-01   1.00800           0
     33390 MEMB     269      OYPE     C24      CTL2    -0.180000       12.0110           0
     33391 MEMB     269      OYPE     H4R      HAL2     0.900000E-01   1.00800           0
     33392 MEMB     269      OYPE     H4S      HAL2     0.900000E-01   1.00800           0
     33393 MEMB     269      OYPE     C25      CTL2    -0.180000       12.0110           0
     33394 MEMB     269      OYPE     H5R      HAL2     0.900000E-01   1.00800           0
     33395 MEMB     269      OYPE     H5S      HAL2     0.900000E-01   1.00800           0
     33396 MEMB     269      OYPE     C26      CTL2    -0.180000       12.0110           0
     33397 MEMB     269      OYPE     H6R      HAL2     0.900000E-01   1.00800           0
     33398 MEMB     269      OYPE     H6S      HAL2     0.900000E-01   1.00800           0
     33399 MEMB     269      OYPE     C27      CTL2    -0.180000       12.0110           0
     33400 MEMB     269      OYPE     H7R      HAL2     0.900000E-01   1.00800           0
     33401 MEMB     269      OYPE     H7S      HAL2     0.900000E-01   1.00800           0
     33402 MEMB     269      OYPE     C28      CTL2    -0.180000       12.0110           0
     33403 MEMB     269      OYPE     H8R      HAL2     0.900000E-01   1.00800           0
     33404 MEMB     269      OYPE     H8S      HAL2     0.900000E-01   1.00800           0
     33405 MEMB     269      OYPE     C29      CEL1    -0.150000       12.0110           0
     33406 MEMB     269      OYPE     H9R      HEL1     0.150000       1.00800           0
     33407 MEMB     269      OYPE     C210     CEL1    -0.150000       12.0110           0
     33408 MEMB     269      OYPE     H10R     HEL1     0.150000       1.00800           0
     33409 MEMB     269      OYPE     C211     CTL2    -0.180000       12.0110           0
     33410 MEMB     269      OYPE     H11R     HAL2     0.900000E-01   1.00800           0
     33411 MEMB     269      OYPE     H11S     HAL2     0.900000E-01   1.00800           0
     33412 MEMB     269      OYPE     C212     CTL2    -0.180000       12.0110           0
     33413 MEMB     269      OYPE     H12R     HAL2     0.900000E-01   1.00800           0
     33414 MEMB     269      OYPE     H12S     HAL2     0.900000E-01   1.00800           0
     33415 MEMB     269      OYPE     C213     CTL2    -0.180000       12.0110           0
     33416 MEMB     269      OYPE     H13R     HAL2     0.900000E-01   1.00800           0
     33417 MEMB     269      OYPE     H13S     HAL2     0.900000E-01   1.00800           0
     33418 MEMB     269      OYPE     C214     CTL2    -0.180000       12.0110           0
     33419 MEMB     269      OYPE     H14R     HAL2     0.900000E-01   1.00800           0
     33420 MEMB     269      OYPE     H14S     HAL2     0.900000E-01   1.00800           0
     33421 MEMB     269      OYPE     C215     CTL2    -0.180000       12.0110           0
     33422 MEMB     269      OYPE     H15R     HAL2     0.900000E-01   1.00800           0
     33423 MEMB     269      OYPE     H15S     HAL2     0.900000E-01   1.00800           0
     33424 MEMB     269      OYPE     C216     CTL3    -0.270000       12.0110           0
     33425 MEMB     269      OYPE     H16R     HAL3     0.900000E-01   1.00800           0
     33426 MEMB     269      OYPE     H16S     HAL3     0.900000E-01   1.00800           0
     33427 MEMB     269      OYPE     H16T     HAL3     0.900000E-01   1.00800           0
     33428 MEMB     269      OYPE     C33      CTL2    -0.180000       12.0110           0
     33429 MEMB     269      OYPE     H3X      HAL2     0.900000E-01   1.00800           0
     33430 MEMB     269      OYPE     H3Y      HAL2     0.900000E-01   1.00800           0
     33431 MEMB     269      OYPE     C34      CTL2    -0.180000       12.0110           0
     33432 MEMB     269      OYPE     H4X      HAL2     0.900000E-01   1.00800           0
     33433 MEMB     269      OYPE     H4Y      HAL2     0.900000E-01   1.00800           0
     33434 MEMB     269      OYPE     C35      CTL2    -0.180000       12.0110           0
     33435 MEMB     269      OYPE     H5X      HAL2     0.900000E-01   1.00800           0
     33436 MEMB     269      OYPE     H5Y      HAL2     0.900000E-01   1.00800           0
     33437 MEMB     269      OYPE     C36      CTL2    -0.180000       12.0110           0
     33438 MEMB     269      OYPE     H6X      HAL2     0.900000E-01   1.00800           0
     33439 MEMB     269      OYPE     H6Y      HAL2     0.900000E-01   1.00800           0
     33440 MEMB     269      OYPE     C37      CTL2    -0.180000       12.0110           0
     33441 MEMB     269      OYPE     H7X      HAL2     0.900000E-01   1.00800           0
     33442 MEMB     269      OYPE     H7Y      HAL2     0.900000E-01   1.00800           0
     33443 MEMB     269      OYPE     C38      CTL2    -0.180000       12.0110           0
     33444 MEMB     269      OYPE     H8X      HAL2     0.900000E-01   1.00800           0
     33445 MEMB     269      OYPE     H8Y      HAL2     0.900000E-01   1.00800           0
     33446 MEMB     269      OYPE     C39      CEL1    -0.150000       12.0110           0
     33447 MEMB     269      OYPE     H9X      HEL1     0.150000       1.00800           0
     33448 MEMB     269      OYPE     C310     CEL1    -0.150000       12.0110           0
     33449 MEMB     269      OYPE     H10X     HEL1     0.150000       1.00800           0
     33450 MEMB     269      OYPE     C311     CTL2    -0.180000       12.0110           0
     33451 MEMB     269      OYPE     H11X     HAL2     0.900000E-01   1.00800           0
     33452 MEMB     269      OYPE     H11Y     HAL2     0.900000E-01   1.00800           0
     33453 MEMB     269      OYPE     C312     CTL2    -0.180000       12.0110           0
     33454 MEMB     269      OYPE     H12X     HAL2     0.900000E-01   1.00800           0
     33455 MEMB     269      OYPE     H12Y     HAL2     0.900000E-01   1.00800           0
     33456 MEMB     269      OYPE     C313     CTL2    -0.180000       12.0110           0
     33457 MEMB     269      OYPE     H13X     HAL2     0.900000E-01   1.00800           0
     33458 MEMB     269      OYPE     H13Y     HAL2     0.900000E-01   1.00800           0
     33459 MEMB     269      OYPE     C314     CTL2    -0.180000       12.0110           0
     33460 MEMB     269      OYPE     H14X     HAL2     0.900000E-01   1.00800           0
     33461 MEMB     269      OYPE     H14Y     HAL2     0.900000E-01   1.00800           0
     33462 MEMB     269      OYPE     C315     CTL2    -0.180000       12.0110           0
     33463 MEMB     269      OYPE     H15X     HAL2     0.900000E-01   1.00800           0
     33464 MEMB     269      OYPE     H15Y     HAL2     0.900000E-01   1.00800           0
     33465 MEMB     269      OYPE     C316     CTL2    -0.180000       12.0110           0
     33466 MEMB     269      OYPE     H16X     HAL2     0.900000E-01   1.00800           0
     33467 MEMB     269      OYPE     H16Y     HAL2     0.900000E-01   1.00800           0
     33468 MEMB     269      OYPE     C317     CTL2    -0.180000       12.0110           0
     33469 MEMB     269      OYPE     H17X     HAL2     0.900000E-01   1.00800           0
     33470 MEMB     269      OYPE     H17Y     HAL2     0.900000E-01   1.00800           0
     33471 MEMB     269      OYPE     C318     CTL3    -0.270000       12.0110           0
     33472 MEMB     269      OYPE     H18X     HAL3     0.900000E-01   1.00800           0
     33473 MEMB     269      OYPE     H18Y     HAL3     0.900000E-01   1.00800           0
     33474 MEMB     269      OYPE     H18Z     HAL3     0.900000E-01   1.00800           0
     33475 MEMB     270      PYPG     C13      CTL2     0.500000E-01   12.0110           0
     33476 MEMB     270      PYPG     H13A     HAL2     0.900000E-01   1.00800           0
     33477 MEMB     270      PYPG     H13B     HAL2     0.900000E-01   1.00800           0
     33478 MEMB     270      PYPG     OC3      OHL     -0.660000       15.9994           0
     33479 MEMB     270      PYPG     HO3      HOL      0.430000       1.00800           0
     33480 MEMB     270      PYPG     C12      CTL1     0.140000       12.0110           0
     33481 MEMB     270      PYPG     H12A     HAL1     0.900000E-01   1.00800           0
     33482 MEMB     270      PYPG     OC2      OHL     -0.660000       15.9994           0
     33483 MEMB     270      PYPG     HO2      HOL      0.430000       1.00800           0
     33484 MEMB     270      PYPG     C11      CTL2    -0.800000E-01   12.0110           0
     33485 MEMB     270      PYPG     H11A     HAL2     0.900000E-01   1.00800           0
     33486 MEMB     270      PYPG     H11B     HAL2     0.900000E-01   1.00800           0
     33487 MEMB     270      PYPG     P        PL        1.50000       30.9740           0
     33488 MEMB     270      PYPG     O13      O2L     -0.780000       15.9994           0
     33489 MEMB     270      PYPG     O14      O2L     -0.780000       15.9994           0
     33490 MEMB     270      PYPG     O11      OSLP    -0.570000       15.9994           0
     33491 MEMB     270      PYPG     O12      OSLP    -0.570000       15.9994           0
     33492 MEMB     270      PYPG     C1       CTL2    -0.800000E-01   12.0110           0
     33493 MEMB     270      PYPG     HA       HAL2     0.900000E-01   1.00800           0
     33494 MEMB     270      PYPG     HB       HAL2     0.900000E-01   1.00800           0
     33495 MEMB     270      PYPG     C2       CTL1     0.170000       12.0110           0
     33496 MEMB     270      PYPG     HS       HAL1     0.900000E-01   1.00800           0
     33497 MEMB     270      PYPG     O21      OSL     -0.490000       15.9994           0
     33498 MEMB     270      PYPG     C21      CL       0.900000       12.0110           0
     33499 MEMB     270      PYPG     O22      OBL     -0.630000       15.9994           0
     33500 MEMB     270      PYPG     C22      CTL2    -0.220000       12.0110           0
     33501 MEMB     270      PYPG     H2R      HAL2     0.900000E-01   1.00800           0
     33502 MEMB     270      PYPG     H2S      HAL2     0.900000E-01   1.00800           0
     33503 MEMB     270      PYPG     C3       CTL2     0.800000E-01   12.0110           0
     33504 MEMB     270      PYPG     HX       HAL2     0.900000E-01   1.00800           0
     33505 MEMB     270      PYPG     HY       HAL2     0.900000E-01   1.00800           0
     33506 MEMB     270      PYPG     O31      OSL     -0.490000       15.9994           0
     33507 MEMB     270      PYPG     C31      CL       0.900000       12.0110           0
     33508 MEMB     270      PYPG     O32      OBL     -0.630000       15.9994           0
     33509 MEMB     270      PYPG     C32      CTL2    -0.220000       12.0110           0
     33510 MEMB     270      PYPG     H2X      HAL2     0.900000E-01   1.00800           0
     33511 MEMB     270      PYPG     H2Y      HAL2     0.900000E-01   1.00800           0
     33512 MEMB     270      PYPG     C23      CTL2    -0.180000       12.0110           0
     33513 MEMB     270      PYPG     H3R      HAL2     0.900000E-01   1.00800           0
     33514 MEMB     270      PYPG     H3S      HAL2     0.900000E-01   1.00800           0
     33515 MEMB     270      PYPG     C24      CTL2    -0.180000       12.0110           0
     33516 MEMB     270      PYPG     H4R      HAL2     0.900000E-01   1.00800           0
     33517 MEMB     270      PYPG     H4S      HAL2     0.900000E-01   1.00800           0
     33518 MEMB     270      PYPG     C25      CTL2    -0.180000       12.0110           0
     33519 MEMB     270      PYPG     H5R      HAL2     0.900000E-01   1.00800           0
     33520 MEMB     270      PYPG     H5S      HAL2     0.900000E-01   1.00800           0
     33521 MEMB     270      PYPG     C26      CTL2    -0.180000       12.0110           0
     33522 MEMB     270      PYPG     H6R      HAL2     0.900000E-01   1.00800           0
     33523 MEMB     270      PYPG     H6S      HAL2     0.900000E-01   1.00800           0
     33524 MEMB     270      PYPG     C27      CTL2    -0.180000       12.0110           0
     33525 MEMB     270      PYPG     H7R      HAL2     0.900000E-01   1.00800           0
     33526 MEMB     270      PYPG     H7S      HAL2     0.900000E-01   1.00800           0
     33527 MEMB     270      PYPG     C28      CTL2    -0.180000       12.0110           0
     33528 MEMB     270      PYPG     H8R      HAL2     0.900000E-01   1.00800           0
     33529 MEMB     270      PYPG     H8S      HAL2     0.900000E-01   1.00800           0
     33530 MEMB     270      PYPG     C29      CEL1    -0.150000       12.0110           0
     33531 MEMB     270      PYPG     H9R      HEL1     0.150000       1.00800           0
     33532 MEMB     270      PYPG     C210     CEL1    -0.150000       12.0110           0
     33533 MEMB     270      PYPG     H10R     HEL1     0.150000       1.00800           0
     33534 MEMB     270      PYPG     C211     CTL2    -0.180000       12.0110           0
     33535 MEMB     270      PYPG     H11R     HAL2     0.900000E-01   1.00800           0
     33536 MEMB     270      PYPG     H11S     HAL2     0.900000E-01   1.00800           0
     33537 MEMB     270      PYPG     C212     CTL2    -0.180000       12.0110           0
     33538 MEMB     270      PYPG     H12R     HAL2     0.900000E-01   1.00800           0
     33539 MEMB     270      PYPG     H12S     HAL2     0.900000E-01   1.00800           0
     33540 MEMB     270      PYPG     C213     CTL2    -0.180000       12.0110           0
     33541 MEMB     270      PYPG     H13R     HAL2     0.900000E-01   1.00800           0
     33542 MEMB     270      PYPG     H13S     HAL2     0.900000E-01   1.00800           0
     33543 MEMB     270      PYPG     C214     CTL2    -0.180000       12.0110           0
     33544 MEMB     270      PYPG     H14R     HAL2     0.900000E-01   1.00800           0
     33545 MEMB     270      PYPG     H14S     HAL2     0.900000E-01   1.00800           0
     33546 MEMB     270      PYPG     C215     CTL2    -0.180000       12.0110           0
     33547 MEMB     270      PYPG     H15R     HAL2     0.900000E-01   1.00800           0
     33548 MEMB     270      PYPG     H15S     HAL2     0.900000E-01   1.00800           0
     33549 MEMB     270      PYPG     C216     CTL3    -0.270000       12.0110           0
     33550 MEMB     270      PYPG     H16R     HAL3     0.900000E-01   1.00800           0
     33551 MEMB     270      PYPG     H16S     HAL3     0.900000E-01   1.00800           0
     33552 MEMB     270      PYPG     H16T     HAL3     0.900000E-01   1.00800           0
     33553 MEMB     270      PYPG     C33      CTL2    -0.180000       12.0110           0
     33554 MEMB     270      PYPG     H3X      HAL2     0.900000E-01   1.00800           0
     33555 MEMB     270      PYPG     H3Y      HAL2     0.900000E-01   1.00800           0
     33556 MEMB     270      PYPG     C34      CTL2    -0.180000       12.0110           0
     33557 MEMB     270      PYPG     H4X      HAL2     0.900000E-01   1.00800           0
     33558 MEMB     270      PYPG     H4Y      HAL2     0.900000E-01   1.00800           0
     33559 MEMB     270      PYPG     C35      CTL2    -0.180000       12.0110           0
     33560 MEMB     270      PYPG     H5X      HAL2     0.900000E-01   1.00800           0
     33561 MEMB     270      PYPG     H5Y      HAL2     0.900000E-01   1.00800           0
     33562 MEMB     270      PYPG     C36      CTL2    -0.180000       12.0110           0
     33563 MEMB     270      PYPG     H6X      HAL2     0.900000E-01   1.00800           0
     33564 MEMB     270      PYPG     H6Y      HAL2     0.900000E-01   1.00800           0
     33565 MEMB     270      PYPG     C37      CTL2    -0.180000       12.0110           0
     33566 MEMB     270      PYPG     H7X      HAL2     0.900000E-01   1.00800           0
     33567 MEMB     270      PYPG     H7Y      HAL2     0.900000E-01   1.00800           0
     33568 MEMB     270      PYPG     C38      CTL2    -0.180000       12.0110           0
     33569 MEMB     270      PYPG     H8X      HAL2     0.900000E-01   1.00800           0
     33570 MEMB     270      PYPG     H8Y      HAL2     0.900000E-01   1.00800           0
     33571 MEMB     270      PYPG     C39      CTL2    -0.180000       12.0110           0
     33572 MEMB     270      PYPG     H9X      HAL2     0.900000E-01   1.00800           0
     33573 MEMB     270      PYPG     H9Y      HAL2     0.900000E-01   1.00800           0
     33574 MEMB     270      PYPG     C310     CTL2    -0.180000       12.0110           0
     33575 MEMB     270      PYPG     H10X     HAL2     0.900000E-01   1.00800           0
     33576 MEMB     270      PYPG     H10Y     HAL2     0.900000E-01   1.00800           0
     33577 MEMB     270      PYPG     C311     CTL2    -0.180000       12.0110           0
     33578 MEMB     270      PYPG     H11X     HAL2     0.900000E-01   1.00800           0
     33579 MEMB     270      PYPG     H11Y     HAL2     0.900000E-01   1.00800           0
     33580 MEMB     270      PYPG     C312     CTL2    -0.180000       12.0110           0
     33581 MEMB     270      PYPG     H12X     HAL2     0.900000E-01   1.00800           0
     33582 MEMB     270      PYPG     H12Y     HAL2     0.900000E-01   1.00800           0
     33583 MEMB     270      PYPG     C313     CTL2    -0.180000       12.0110           0
     33584 MEMB     270      PYPG     H13X     HAL2     0.900000E-01   1.00800           0
     33585 MEMB     270      PYPG     H13Y     HAL2     0.900000E-01   1.00800           0
     33586 MEMB     270      PYPG     C314     CTL2    -0.180000       12.0110           0
     33587 MEMB     270      PYPG     H14X     HAL2     0.900000E-01   1.00800           0
     33588 MEMB     270      PYPG     H14Y     HAL2     0.900000E-01   1.00800           0
     33589 MEMB     270      PYPG     C315     CTL2    -0.180000       12.0110           0
     33590 MEMB     270      PYPG     H15X     HAL2     0.900000E-01   1.00800           0
     33591 MEMB     270      PYPG     H15Y     HAL2     0.900000E-01   1.00800           0
     33592 MEMB     270      PYPG     C316     CTL3    -0.270000       12.0110           0
     33593 MEMB     270      PYPG     H16X     HAL3     0.900000E-01   1.00800           0
     33594 MEMB     270      PYPG     H16Y     HAL3     0.900000E-01   1.00800           0
     33595 MEMB     270      PYPG     H16Z     HAL3     0.900000E-01   1.00800           0
     33596 MEMB     271      PMPE     N        NH3L    -0.300000       14.0070           0
     33597 MEMB     271      PMPE     HN1      HCL      0.330000       1.00800           0
     33598 MEMB     271      PMPE     HN2      HCL      0.330000       1.00800           0
     33599 MEMB     271      PMPE     HN3      HCL      0.330000       1.00800           0
     33600 MEMB     271      PMPE     C12      CTL2     0.130000       12.0110           0
     33601 MEMB     271      PMPE     H12A     HAL2     0.900000E-01   1.00800           0
     33602 MEMB     271      PMPE     H12B     HAL2     0.900000E-01   1.00800           0
     33603 MEMB     271      PMPE     C11      CTL2    -0.800000E-01   12.0110           0
     33604 MEMB     271      PMPE     H11A     HAL2     0.900000E-01   1.00800           0
     33605 MEMB     271      PMPE     H11B     HAL2     0.900000E-01   1.00800           0
     33606 MEMB     271      PMPE     P        PL        1.50000       30.9740           0
     33607 MEMB     271      PMPE     O13      O2L     -0.780000       15.9994           0
     33608 MEMB     271      PMPE     O14      O2L     -0.780000       15.9994           0
     33609 MEMB     271      PMPE     O11      OSLP    -0.570000       15.9994           0
     33610 MEMB     271      PMPE     O12      OSLP    -0.570000       15.9994           0
     33611 MEMB     271      PMPE     C1       CTL2    -0.800000E-01   12.0110           0
     33612 MEMB     271      PMPE     HA       HAL2     0.900000E-01   1.00800           0
     33613 MEMB     271      PMPE     HB       HAL2     0.900000E-01   1.00800           0
     33614 MEMB     271      PMPE     C2       CTL1     0.170000       12.0110           0
     33615 MEMB     271      PMPE     HS       HAL1     0.900000E-01   1.00800           0
     33616 MEMB     271      PMPE     O21      OSL     -0.490000       15.9994           0
     33617 MEMB     271      PMPE     C21      CL       0.900000       12.0110           0
     33618 MEMB     271      PMPE     O22      OBL     -0.630000       15.9994           0
     33619 MEMB     271      PMPE     C22      CTL2    -0.220000       12.0110           0
     33620 MEMB     271      PMPE     H2R      HAL2     0.900000E-01   1.00800           0
     33621 MEMB     271      PMPE     H2S      HAL2     0.900000E-01   1.00800           0
     33622 MEMB     271      PMPE     C3       CTL2     0.800000E-01   12.0110           0
     33623 MEMB     271      PMPE     HX       HAL2     0.900000E-01   1.00800           0
     33624 MEMB     271      PMPE     HY       HAL2     0.900000E-01   1.00800           0
     33625 MEMB     271      PMPE     O31      OSL     -0.490000       15.9994           0
     33626 MEMB     271      PMPE     C31      CL       0.900000       12.0110           0
     33627 MEMB     271      PMPE     O32      OBL     -0.630000       15.9994           0
     33628 MEMB     271      PMPE     C32      CTL2    -0.220000       12.0110           0
     33629 MEMB     271      PMPE     H2X      HAL2     0.900000E-01   1.00800           0
     33630 MEMB     271      PMPE     H2Y      HAL2     0.900000E-01   1.00800           0
     33631 MEMB     271      PMPE     C23      CTL2    -0.180000       12.0110           0
     33632 MEMB     271      PMPE     H3R      HAL2     0.900000E-01   1.00800           0
     33633 MEMB     271      PMPE     H3S      HAL2     0.900000E-01   1.00800           0
     33634 MEMB     271      PMPE     C24      CTL2    -0.180000       12.0110           0
     33635 MEMB     271      PMPE     H4R      HAL2     0.900000E-01   1.00800           0
     33636 MEMB     271      PMPE     H4S      HAL2     0.900000E-01   1.00800           0
     33637 MEMB     271      PMPE     C25      CTL2    -0.180000       12.0110           0
     33638 MEMB     271      PMPE     H5R      HAL2     0.900000E-01   1.00800           0
     33639 MEMB     271      PMPE     H5S      HAL2     0.900000E-01   1.00800           0
     33640 MEMB     271      PMPE     C26      CTL2    -0.180000       12.0110           0
     33641 MEMB     271      PMPE     H6R      HAL2     0.900000E-01   1.00800           0
     33642 MEMB     271      PMPE     H6S      HAL2     0.900000E-01   1.00800           0
     33643 MEMB     271      PMPE     C27      CTL2    -0.180000       12.0110           0
     33644 MEMB     271      PMPE     H7R      HAL2     0.900000E-01   1.00800           0
     33645 MEMB     271      PMPE     H7S      HAL2     0.900000E-01   1.00800           0
     33646 MEMB     271      PMPE     C28      CTL2    -0.180000       12.0110           0
     33647 MEMB     271      PMPE     H8R      HAL2     0.900000E-01   1.00800           0
     33648 MEMB     271      PMPE     H8S      HAL2     0.900000E-01   1.00800           0
     33649 MEMB     271      PMPE     C29      CG3RC1  -0.900000E-01   12.0110           0
     33650 MEMB     271      PMPE     H9R      HGA1     0.900000E-01   1.00800           0
     33651 MEMB     271      PMPE     C217     CG3C31  -0.180000       12.0110           0
     33652 MEMB     271      PMPE     H17R     HGA2     0.900000E-01   1.00800           0
     33653 MEMB     271      PMPE     H17S     HGA2     0.900000E-01   1.00800           0
     33654 MEMB     271      PMPE     C210     CG3RC1  -0.900000E-01   12.0110           0
     33655 MEMB     271      PMPE     H10R     HGA1     0.900000E-01   1.00800           0
     33656 MEMB     271      PMPE     C211     CTL2    -0.180000       12.0110           0
     33657 MEMB     271      PMPE     H11R     HAL2     0.900000E-01   1.00800           0
     33658 MEMB     271      PMPE     H11S     HAL2     0.900000E-01   1.00800           0
     33659 MEMB     271      PMPE     C212     CTL2    -0.180000       12.0110           0
     33660 MEMB     271      PMPE     H12R     HAL2     0.900000E-01   1.00800           0
     33661 MEMB     271      PMPE     H12S     HAL2     0.900000E-01   1.00800           0
     33662 MEMB     271      PMPE     C213     CTL2    -0.180000       12.0110           0
     33663 MEMB     271      PMPE     H13R     HAL2     0.900000E-01   1.00800           0
     33664 MEMB     271      PMPE     H13S     HAL2     0.900000E-01   1.00800           0
     33665 MEMB     271      PMPE     C214     CTL2    -0.180000       12.0110           0
     33666 MEMB     271      PMPE     H14R     HAL2     0.900000E-01   1.00800           0
     33667 MEMB     271      PMPE     H14S     HAL2     0.900000E-01   1.00800           0
     33668 MEMB     271      PMPE     C215     CTL2    -0.180000       12.0110           0
     33669 MEMB     271      PMPE     H15R     HAL2     0.900000E-01   1.00800           0
     33670 MEMB     271      PMPE     H15S     HAL2     0.900000E-01   1.00800           0
     33671 MEMB     271      PMPE     C216     CTL3    -0.270000       12.0110           0
     33672 MEMB     271      PMPE     H16R     HAL3     0.900000E-01   1.00800           0
     33673 MEMB     271      PMPE     H16S     HAL3     0.900000E-01   1.00800           0
     33674 MEMB     271      PMPE     H16T     HAL3     0.900000E-01   1.00800           0
     33675 MEMB     271      PMPE     C33      CTL2    -0.180000       12.0110           0
     33676 MEMB     271      PMPE     H3X      HAL2     0.900000E-01   1.00800           0
     33677 MEMB     271      PMPE     H3Y      HAL2     0.900000E-01   1.00800           0
     33678 MEMB     271      PMPE     C34      CTL2    -0.180000       12.0110           0
     33679 MEMB     271      PMPE     H4X      HAL2     0.900000E-01   1.00800           0
     33680 MEMB     271      PMPE     H4Y      HAL2     0.900000E-01   1.00800           0
     33681 MEMB     271      PMPE     C35      CTL2    -0.180000       12.0110           0
     33682 MEMB     271      PMPE     H5X      HAL2     0.900000E-01   1.00800           0
     33683 MEMB     271      PMPE     H5Y      HAL2     0.900000E-01   1.00800           0
     33684 MEMB     271      PMPE     C36      CTL2    -0.180000       12.0110           0
     33685 MEMB     271      PMPE     H6X      HAL2     0.900000E-01   1.00800           0
     33686 MEMB     271      PMPE     H6Y      HAL2     0.900000E-01   1.00800           0
     33687 MEMB     271      PMPE     C37      CTL2    -0.180000       12.0110           0
     33688 MEMB     271      PMPE     H7X      HAL2     0.900000E-01   1.00800           0
     33689 MEMB     271      PMPE     H7Y      HAL2     0.900000E-01   1.00800           0
     33690 MEMB     271      PMPE     C38      CTL2    -0.180000       12.0110           0
     33691 MEMB     271      PMPE     H8X      HAL2     0.900000E-01   1.00800           0
     33692 MEMB     271      PMPE     H8Y      HAL2     0.900000E-01   1.00800           0
     33693 MEMB     271      PMPE     C39      CTL2    -0.180000       12.0110           0
     33694 MEMB     271      PMPE     H9X      HAL2     0.900000E-01   1.00800           0
     33695 MEMB     271      PMPE     H9Y      HAL2     0.900000E-01   1.00800           0
     33696 MEMB     271      PMPE     C310     CTL2    -0.180000       12.0110           0
     33697 MEMB     271      PMPE     H10X     HAL2     0.900000E-01   1.00800           0
     33698 MEMB     271      PMPE     H10Y     HAL2     0.900000E-01   1.00800           0
     33699 MEMB     271      PMPE     C311     CTL2    -0.180000       12.0110           0
     33700 MEMB     271      PMPE     H11X     HAL2     0.900000E-01   1.00800           0
     33701 MEMB     271      PMPE     H11Y     HAL2     0.900000E-01   1.00800           0
     33702 MEMB     271      PMPE     C312     CTL2    -0.180000       12.0110           0
     33703 MEMB     271      PMPE     H12X     HAL2     0.900000E-01   1.00800           0
     33704 MEMB     271      PMPE     H12Y     HAL2     0.900000E-01   1.00800           0
     33705 MEMB     271      PMPE     C313     CTL2    -0.180000       12.0110           0
     33706 MEMB     271      PMPE     H13X     HAL2     0.900000E-01   1.00800           0
     33707 MEMB     271      PMPE     H13Y     HAL2     0.900000E-01   1.00800           0
     33708 MEMB     271      PMPE     C314     CTL2    -0.180000       12.0110           0
     33709 MEMB     271      PMPE     H14X     HAL2     0.900000E-01   1.00800           0
     33710 MEMB     271      PMPE     H14Y     HAL2     0.900000E-01   1.00800           0
     33711 MEMB     271      PMPE     C315     CTL2    -0.180000       12.0110           0
     33712 MEMB     271      PMPE     H15X     HAL2     0.900000E-01   1.00800           0
     33713 MEMB     271      PMPE     H15Y     HAL2     0.900000E-01   1.00800           0
     33714 MEMB     271      PMPE     C316     CTL3    -0.270000       12.0110           0
     33715 MEMB     271      PMPE     H16X     HAL3     0.900000E-01   1.00800           0
     33716 MEMB     271      PMPE     H16Y     HAL3     0.900000E-01   1.00800           0
     33717 MEMB     271      PMPE     H16Z     HAL3     0.900000E-01   1.00800           0
     33718 MEMB     272      PMPE     N        NH3L    -0.300000       14.0070           0
     33719 MEMB     272      PMPE     HN1      HCL      0.330000       1.00800           0
     33720 MEMB     272      PMPE     HN2      HCL      0.330000       1.00800           0
     33721 MEMB     272      PMPE     HN3      HCL      0.330000       1.00800           0
     33722 MEMB     272      PMPE     C12      CTL2     0.130000       12.0110           0
     33723 MEMB     272      PMPE     H12A     HAL2     0.900000E-01   1.00800           0
     33724 MEMB     272      PMPE     H12B     HAL2     0.900000E-01   1.00800           0
     33725 MEMB     272      PMPE     C11      CTL2    -0.800000E-01   12.0110           0
     33726 MEMB     272      PMPE     H11A     HAL2     0.900000E-01   1.00800           0
     33727 MEMB     272      PMPE     H11B     HAL2     0.900000E-01   1.00800           0
     33728 MEMB     272      PMPE     P        PL        1.50000       30.9740           0
     33729 MEMB     272      PMPE     O13      O2L     -0.780000       15.9994           0
     33730 MEMB     272      PMPE     O14      O2L     -0.780000       15.9994           0
     33731 MEMB     272      PMPE     O11      OSLP    -0.570000       15.9994           0
     33732 MEMB     272      PMPE     O12      OSLP    -0.570000       15.9994           0
     33733 MEMB     272      PMPE     C1       CTL2    -0.800000E-01   12.0110           0
     33734 MEMB     272      PMPE     HA       HAL2     0.900000E-01   1.00800           0
     33735 MEMB     272      PMPE     HB       HAL2     0.900000E-01   1.00800           0
     33736 MEMB     272      PMPE     C2       CTL1     0.170000       12.0110           0
     33737 MEMB     272      PMPE     HS       HAL1     0.900000E-01   1.00800           0
     33738 MEMB     272      PMPE     O21      OSL     -0.490000       15.9994           0
     33739 MEMB     272      PMPE     C21      CL       0.900000       12.0110           0
     33740 MEMB     272      PMPE     O22      OBL     -0.630000       15.9994           0
     33741 MEMB     272      PMPE     C22      CTL2    -0.220000       12.0110           0
     33742 MEMB     272      PMPE     H2R      HAL2     0.900000E-01   1.00800           0
     33743 MEMB     272      PMPE     H2S      HAL2     0.900000E-01   1.00800           0
     33744 MEMB     272      PMPE     C3       CTL2     0.800000E-01   12.0110           0
     33745 MEMB     272      PMPE     HX       HAL2     0.900000E-01   1.00800           0
     33746 MEMB     272      PMPE     HY       HAL2     0.900000E-01   1.00800           0
     33747 MEMB     272      PMPE     O31      OSL     -0.490000       15.9994           0
     33748 MEMB     272      PMPE     C31      CL       0.900000       12.0110           0
     33749 MEMB     272      PMPE     O32      OBL     -0.630000       15.9994           0
     33750 MEMB     272      PMPE     C32      CTL2    -0.220000       12.0110           0
     33751 MEMB     272      PMPE     H2X      HAL2     0.900000E-01   1.00800           0
     33752 MEMB     272      PMPE     H2Y      HAL2     0.900000E-01   1.00800           0
     33753 MEMB     272      PMPE     C23      CTL2    -0.180000       12.0110           0
     33754 MEMB     272      PMPE     H3R      HAL2     0.900000E-01   1.00800           0
     33755 MEMB     272      PMPE     H3S      HAL2     0.900000E-01   1.00800           0
     33756 MEMB     272      PMPE     C24      CTL2    -0.180000       12.0110           0
     33757 MEMB     272      PMPE     H4R      HAL2     0.900000E-01   1.00800           0
     33758 MEMB     272      PMPE     H4S      HAL2     0.900000E-01   1.00800           0
     33759 MEMB     272      PMPE     C25      CTL2    -0.180000       12.0110           0
     33760 MEMB     272      PMPE     H5R      HAL2     0.900000E-01   1.00800           0
     33761 MEMB     272      PMPE     H5S      HAL2     0.900000E-01   1.00800           0
     33762 MEMB     272      PMPE     C26      CTL2    -0.180000       12.0110           0
     33763 MEMB     272      PMPE     H6R      HAL2     0.900000E-01   1.00800           0
     33764 MEMB     272      PMPE     H6S      HAL2     0.900000E-01   1.00800           0
     33765 MEMB     272      PMPE     C27      CTL2    -0.180000       12.0110           0
     33766 MEMB     272      PMPE     H7R      HAL2     0.900000E-01   1.00800           0
     33767 MEMB     272      PMPE     H7S      HAL2     0.900000E-01   1.00800           0
     33768 MEMB     272      PMPE     C28      CTL2    -0.180000       12.0110           0
     33769 MEMB     272      PMPE     H8R      HAL2     0.900000E-01   1.00800           0
     33770 MEMB     272      PMPE     H8S      HAL2     0.900000E-01   1.00800           0
     33771 MEMB     272      PMPE     C29      CG3RC1  -0.900000E-01   12.0110           0
     33772 MEMB     272      PMPE     H9R      HGA1     0.900000E-01   1.00800           0
     33773 MEMB     272      PMPE     C217     CG3C31  -0.180000       12.0110           0
     33774 MEMB     272      PMPE     H17R     HGA2     0.900000E-01   1.00800           0
     33775 MEMB     272      PMPE     H17S     HGA2     0.900000E-01   1.00800           0
     33776 MEMB     272      PMPE     C210     CG3RC1  -0.900000E-01   12.0110           0
     33777 MEMB     272      PMPE     H10R     HGA1     0.900000E-01   1.00800           0
     33778 MEMB     272      PMPE     C211     CTL2    -0.180000       12.0110           0
     33779 MEMB     272      PMPE     H11R     HAL2     0.900000E-01   1.00800           0
     33780 MEMB     272      PMPE     H11S     HAL2     0.900000E-01   1.00800           0
     33781 MEMB     272      PMPE     C212     CTL2    -0.180000       12.0110           0
     33782 MEMB     272      PMPE     H12R     HAL2     0.900000E-01   1.00800           0
     33783 MEMB     272      PMPE     H12S     HAL2     0.900000E-01   1.00800           0
     33784 MEMB     272      PMPE     C213     CTL2    -0.180000       12.0110           0
     33785 MEMB     272      PMPE     H13R     HAL2     0.900000E-01   1.00800           0
     33786 MEMB     272      PMPE     H13S     HAL2     0.900000E-01   1.00800           0
     33787 MEMB     272      PMPE     C214     CTL2    -0.180000       12.0110           0
     33788 MEMB     272      PMPE     H14R     HAL2     0.900000E-01   1.00800           0
     33789 MEMB     272      PMPE     H14S     HAL2     0.900000E-01   1.00800           0
     33790 MEMB     272      PMPE     C215     CTL2    -0.180000       12.0110           0
     33791 MEMB     272      PMPE     H15R     HAL2     0.900000E-01   1.00800           0
     33792 MEMB     272      PMPE     H15S     HAL2     0.900000E-01   1.00800           0
     33793 MEMB     272      PMPE     C216     CTL3    -0.270000       12.0110           0
     33794 MEMB     272      PMPE     H16R     HAL3     0.900000E-01   1.00800           0
     33795 MEMB     272      PMPE     H16S     HAL3     0.900000E-01   1.00800           0
     33796 MEMB     272      PMPE     H16T     HAL3     0.900000E-01   1.00800           0
     33797 MEMB     272      PMPE     C33      CTL2    -0.180000       12.0110           0
     33798 MEMB     272      PMPE     H3X      HAL2     0.900000E-01   1.00800           0
     33799 MEMB     272      PMPE     H3Y      HAL2     0.900000E-01   1.00800           0
     33800 MEMB     272      PMPE     C34      CTL2    -0.180000       12.0110           0
     33801 MEMB     272      PMPE     H4X      HAL2     0.900000E-01   1.00800           0
     33802 MEMB     272      PMPE     H4Y      HAL2     0.900000E-01   1.00800           0
     33803 MEMB     272      PMPE     C35      CTL2    -0.180000       12.0110           0
     33804 MEMB     272      PMPE     H5X      HAL2     0.900000E-01   1.00800           0
     33805 MEMB     272      PMPE     H5Y      HAL2     0.900000E-01   1.00800           0
     33806 MEMB     272      PMPE     C36      CTL2    -0.180000       12.0110           0
     33807 MEMB     272      PMPE     H6X      HAL2     0.900000E-01   1.00800           0
     33808 MEMB     272      PMPE     H6Y      HAL2     0.900000E-01   1.00800           0
     33809 MEMB     272      PMPE     C37      CTL2    -0.180000       12.0110           0
     33810 MEMB     272      PMPE     H7X      HAL2     0.900000E-01   1.00800           0
     33811 MEMB     272      PMPE     H7Y      HAL2     0.900000E-01   1.00800           0
     33812 MEMB     272      PMPE     C38      CTL2    -0.180000       12.0110           0
     33813 MEMB     272      PMPE     H8X      HAL2     0.900000E-01   1.00800           0
     33814 MEMB     272      PMPE     H8Y      HAL2     0.900000E-01   1.00800           0
     33815 MEMB     272      PMPE     C39      CTL2    -0.180000       12.0110           0
     33816 MEMB     272      PMPE     H9X      HAL2     0.900000E-01   1.00800           0
     33817 MEMB     272      PMPE     H9Y      HAL2     0.900000E-01   1.00800           0
     33818 MEMB     272      PMPE     C310     CTL2    -0.180000       12.0110           0
     33819 MEMB     272      PMPE     H10X     HAL2     0.900000E-01   1.00800           0
     33820 MEMB     272      PMPE     H10Y     HAL2     0.900000E-01   1.00800           0
     33821 MEMB     272      PMPE     C311     CTL2    -0.180000       12.0110           0
     33822 MEMB     272      PMPE     H11X     HAL2     0.900000E-01   1.00800           0
     33823 MEMB     272      PMPE     H11Y     HAL2     0.900000E-01   1.00800           0
     33824 MEMB     272      PMPE     C312     CTL2    -0.180000       12.0110           0
     33825 MEMB     272      PMPE     H12X     HAL2     0.900000E-01   1.00800           0
     33826 MEMB     272      PMPE     H12Y     HAL2     0.900000E-01   1.00800           0
     33827 MEMB     272      PMPE     C313     CTL2    -0.180000       12.0110           0
     33828 MEMB     272      PMPE     H13X     HAL2     0.900000E-01   1.00800           0
     33829 MEMB     272      PMPE     H13Y     HAL2     0.900000E-01   1.00800           0
     33830 MEMB     272      PMPE     C314     CTL2    -0.180000       12.0110           0
     33831 MEMB     272      PMPE     H14X     HAL2     0.900000E-01   1.00800           0
     33832 MEMB     272      PMPE     H14Y     HAL2     0.900000E-01   1.00800           0
     33833 MEMB     272      PMPE     C315     CTL2    -0.180000       12.0110           0
     33834 MEMB     272      PMPE     H15X     HAL2     0.900000E-01   1.00800           0
     33835 MEMB     272      PMPE     H15Y     HAL2     0.900000E-01   1.00800           0
     33836 MEMB     272      PMPE     C316     CTL3    -0.270000       12.0110           0
     33837 MEMB     272      PMPE     H16X     HAL3     0.900000E-01   1.00800           0
     33838 MEMB     272      PMPE     H16Y     HAL3     0.900000E-01   1.00800           0
     33839 MEMB     272      PMPE     H16Z     HAL3     0.900000E-01   1.00800           0
     33840 MEMB     273      PMPE     N        NH3L    -0.300000       14.0070           0
     33841 MEMB     273      PMPE     HN1      HCL      0.330000       1.00800           0
     33842 MEMB     273      PMPE     HN2      HCL      0.330000       1.00800           0
     33843 MEMB     273      PMPE     HN3      HCL      0.330000       1.00800           0
     33844 MEMB     273      PMPE     C12      CTL2     0.130000       12.0110           0
     33845 MEMB     273      PMPE     H12A     HAL2     0.900000E-01   1.00800           0
     33846 MEMB     273      PMPE     H12B     HAL2     0.900000E-01   1.00800           0
     33847 MEMB     273      PMPE     C11      CTL2    -0.800000E-01   12.0110           0
     33848 MEMB     273      PMPE     H11A     HAL2     0.900000E-01   1.00800           0
     33849 MEMB     273      PMPE     H11B     HAL2     0.900000E-01   1.00800           0
     33850 MEMB     273      PMPE     P        PL        1.50000       30.9740           0
     33851 MEMB     273      PMPE     O13      O2L     -0.780000       15.9994           0
     33852 MEMB     273      PMPE     O14      O2L     -0.780000       15.9994           0
     33853 MEMB     273      PMPE     O11      OSLP    -0.570000       15.9994           0
     33854 MEMB     273      PMPE     O12      OSLP    -0.570000       15.9994           0
     33855 MEMB     273      PMPE     C1       CTL2    -0.800000E-01   12.0110           0
     33856 MEMB     273      PMPE     HA       HAL2     0.900000E-01   1.00800           0
     33857 MEMB     273      PMPE     HB       HAL2     0.900000E-01   1.00800           0
     33858 MEMB     273      PMPE     C2       CTL1     0.170000       12.0110           0
     33859 MEMB     273      PMPE     HS       HAL1     0.900000E-01   1.00800           0
     33860 MEMB     273      PMPE     O21      OSL     -0.490000       15.9994           0
     33861 MEMB     273      PMPE     C21      CL       0.900000       12.0110           0
     33862 MEMB     273      PMPE     O22      OBL     -0.630000       15.9994           0
     33863 MEMB     273      PMPE     C22      CTL2    -0.220000       12.0110           0
     33864 MEMB     273      PMPE     H2R      HAL2     0.900000E-01   1.00800           0
     33865 MEMB     273      PMPE     H2S      HAL2     0.900000E-01   1.00800           0
     33866 MEMB     273      PMPE     C3       CTL2     0.800000E-01   12.0110           0
     33867 MEMB     273      PMPE     HX       HAL2     0.900000E-01   1.00800           0
     33868 MEMB     273      PMPE     HY       HAL2     0.900000E-01   1.00800           0
     33869 MEMB     273      PMPE     O31      OSL     -0.490000       15.9994           0
     33870 MEMB     273      PMPE     C31      CL       0.900000       12.0110           0
     33871 MEMB     273      PMPE     O32      OBL     -0.630000       15.9994           0
     33872 MEMB     273      PMPE     C32      CTL2    -0.220000       12.0110           0
     33873 MEMB     273      PMPE     H2X      HAL2     0.900000E-01   1.00800           0
     33874 MEMB     273      PMPE     H2Y      HAL2     0.900000E-01   1.00800           0
     33875 MEMB     273      PMPE     C23      CTL2    -0.180000       12.0110           0
     33876 MEMB     273      PMPE     H3R      HAL2     0.900000E-01   1.00800           0
     33877 MEMB     273      PMPE     H3S      HAL2     0.900000E-01   1.00800           0
     33878 MEMB     273      PMPE     C24      CTL2    -0.180000       12.0110           0
     33879 MEMB     273      PMPE     H4R      HAL2     0.900000E-01   1.00800           0
     33880 MEMB     273      PMPE     H4S      HAL2     0.900000E-01   1.00800           0
     33881 MEMB     273      PMPE     C25      CTL2    -0.180000       12.0110           0
     33882 MEMB     273      PMPE     H5R      HAL2     0.900000E-01   1.00800           0
     33883 MEMB     273      PMPE     H5S      HAL2     0.900000E-01   1.00800           0
     33884 MEMB     273      PMPE     C26      CTL2    -0.180000       12.0110           0
     33885 MEMB     273      PMPE     H6R      HAL2     0.900000E-01   1.00800           0
     33886 MEMB     273      PMPE     H6S      HAL2     0.900000E-01   1.00800           0
     33887 MEMB     273      PMPE     C27      CTL2    -0.180000       12.0110           0
     33888 MEMB     273      PMPE     H7R      HAL2     0.900000E-01   1.00800           0
     33889 MEMB     273      PMPE     H7S      HAL2     0.900000E-01   1.00800           0
     33890 MEMB     273      PMPE     C28      CTL2    -0.180000       12.0110           0
     33891 MEMB     273      PMPE     H8R      HAL2     0.900000E-01   1.00800           0
     33892 MEMB     273      PMPE     H8S      HAL2     0.900000E-01   1.00800           0
     33893 MEMB     273      PMPE     C29      CG3RC1  -0.900000E-01   12.0110           0
     33894 MEMB     273      PMPE     H9R      HGA1     0.900000E-01   1.00800           0
     33895 MEMB     273      PMPE     C217     CG3C31  -0.180000       12.0110           0
     33896 MEMB     273      PMPE     H17R     HGA2     0.900000E-01   1.00800           0
     33897 MEMB     273      PMPE     H17S     HGA2     0.900000E-01   1.00800           0
     33898 MEMB     273      PMPE     C210     CG3RC1  -0.900000E-01   12.0110           0
     33899 MEMB     273      PMPE     H10R     HGA1     0.900000E-01   1.00800           0
     33900 MEMB     273      PMPE     C211     CTL2    -0.180000       12.0110           0
     33901 MEMB     273      PMPE     H11R     HAL2     0.900000E-01   1.00800           0
     33902 MEMB     273      PMPE     H11S     HAL2     0.900000E-01   1.00800           0
     33903 MEMB     273      PMPE     C212     CTL2    -0.180000       12.0110           0
     33904 MEMB     273      PMPE     H12R     HAL2     0.900000E-01   1.00800           0
     33905 MEMB     273      PMPE     H12S     HAL2     0.900000E-01   1.00800           0
     33906 MEMB     273      PMPE     C213     CTL2    -0.180000       12.0110           0
     33907 MEMB     273      PMPE     H13R     HAL2     0.900000E-01   1.00800           0
     33908 MEMB     273      PMPE     H13S     HAL2     0.900000E-01   1.00800           0
     33909 MEMB     273      PMPE     C214     CTL2    -0.180000       12.0110           0
     33910 MEMB     273      PMPE     H14R     HAL2     0.900000E-01   1.00800           0
     33911 MEMB     273      PMPE     H14S     HAL2     0.900000E-01   1.00800           0
     33912 MEMB     273      PMPE     C215     CTL2    -0.180000       12.0110           0
     33913 MEMB     273      PMPE     H15R     HAL2     0.900000E-01   1.00800           0
     33914 MEMB     273      PMPE     H15S     HAL2     0.900000E-01   1.00800           0
     33915 MEMB     273      PMPE     C216     CTL3    -0.270000       12.0110           0
     33916 MEMB     273      PMPE     H16R     HAL3     0.900000E-01   1.00800           0
     33917 MEMB     273      PMPE     H16S     HAL3     0.900000E-01   1.00800           0
     33918 MEMB     273      PMPE     H16T     HAL3     0.900000E-01   1.00800           0
     33919 MEMB     273      PMPE     C33      CTL2    -0.180000       12.0110           0
     33920 MEMB     273      PMPE     H3X      HAL2     0.900000E-01   1.00800           0
     33921 MEMB     273      PMPE     H3Y      HAL2     0.900000E-01   1.00800           0
     33922 MEMB     273      PMPE     C34      CTL2    -0.180000       12.0110           0
     33923 MEMB     273      PMPE     H4X      HAL2     0.900000E-01   1.00800           0
     33924 MEMB     273      PMPE     H4Y      HAL2     0.900000E-01   1.00800           0
     33925 MEMB     273      PMPE     C35      CTL2    -0.180000       12.0110           0
     33926 MEMB     273      PMPE     H5X      HAL2     0.900000E-01   1.00800           0
     33927 MEMB     273      PMPE     H5Y      HAL2     0.900000E-01   1.00800           0
     33928 MEMB     273      PMPE     C36      CTL2    -0.180000       12.0110           0
     33929 MEMB     273      PMPE     H6X      HAL2     0.900000E-01   1.00800           0
     33930 MEMB     273      PMPE     H6Y      HAL2     0.900000E-01   1.00800           0
     33931 MEMB     273      PMPE     C37      CTL2    -0.180000       12.0110           0
     33932 MEMB     273      PMPE     H7X      HAL2     0.900000E-01   1.00800           0
     33933 MEMB     273      PMPE     H7Y      HAL2     0.900000E-01   1.00800           0
     33934 MEMB     273      PMPE     C38      CTL2    -0.180000       12.0110           0
     33935 MEMB     273      PMPE     H8X      HAL2     0.900000E-01   1.00800           0
     33936 MEMB     273      PMPE     H8Y      HAL2     0.900000E-01   1.00800           0
     33937 MEMB     273      PMPE     C39      CTL2    -0.180000       12.0110           0
     33938 MEMB     273      PMPE     H9X      HAL2     0.900000E-01   1.00800           0
     33939 MEMB     273      PMPE     H9Y      HAL2     0.900000E-01   1.00800           0
     33940 MEMB     273      PMPE     C310     CTL2    -0.180000       12.0110           0
     33941 MEMB     273      PMPE     H10X     HAL2     0.900000E-01   1.00800           0
     33942 MEMB     273      PMPE     H10Y     HAL2     0.900000E-01   1.00800           0
     33943 MEMB     273      PMPE     C311     CTL2    -0.180000       12.0110           0
     33944 MEMB     273      PMPE     H11X     HAL2     0.900000E-01   1.00800           0
     33945 MEMB     273      PMPE     H11Y     HAL2     0.900000E-01   1.00800           0
     33946 MEMB     273      PMPE     C312     CTL2    -0.180000       12.0110           0
     33947 MEMB     273      PMPE     H12X     HAL2     0.900000E-01   1.00800           0
     33948 MEMB     273      PMPE     H12Y     HAL2     0.900000E-01   1.00800           0
     33949 MEMB     273      PMPE     C313     CTL2    -0.180000       12.0110           0
     33950 MEMB     273      PMPE     H13X     HAL2     0.900000E-01   1.00800           0
     33951 MEMB     273      PMPE     H13Y     HAL2     0.900000E-01   1.00800           0
     33952 MEMB     273      PMPE     C314     CTL2    -0.180000       12.0110           0
     33953 MEMB     273      PMPE     H14X     HAL2     0.900000E-01   1.00800           0
     33954 MEMB     273      PMPE     H14Y     HAL2     0.900000E-01   1.00800           0
     33955 MEMB     273      PMPE     C315     CTL2    -0.180000       12.0110           0
     33956 MEMB     273      PMPE     H15X     HAL2     0.900000E-01   1.00800           0
     33957 MEMB     273      PMPE     H15Y     HAL2     0.900000E-01   1.00800           0
     33958 MEMB     273      PMPE     C316     CTL3    -0.270000       12.0110           0
     33959 MEMB     273      PMPE     H16X     HAL3     0.900000E-01   1.00800           0
     33960 MEMB     273      PMPE     H16Y     HAL3     0.900000E-01   1.00800           0
     33961 MEMB     273      PMPE     H16Z     HAL3     0.900000E-01   1.00800           0
     33962 MEMB     274      PMPE     N        NH3L    -0.300000       14.0070           0
     33963 MEMB     274      PMPE     HN1      HCL      0.330000       1.00800           0
     33964 MEMB     274      PMPE     HN2      HCL      0.330000       1.00800           0
     33965 MEMB     274      PMPE     HN3      HCL      0.330000       1.00800           0
     33966 MEMB     274      PMPE     C12      CTL2     0.130000       12.0110           0
     33967 MEMB     274      PMPE     H12A     HAL2     0.900000E-01   1.00800           0
     33968 MEMB     274      PMPE     H12B     HAL2     0.900000E-01   1.00800           0
     33969 MEMB     274      PMPE     C11      CTL2    -0.800000E-01   12.0110           0
     33970 MEMB     274      PMPE     H11A     HAL2     0.900000E-01   1.00800           0
     33971 MEMB     274      PMPE     H11B     HAL2     0.900000E-01   1.00800           0
     33972 MEMB     274      PMPE     P        PL        1.50000       30.9740           0
     33973 MEMB     274      PMPE     O13      O2L     -0.780000       15.9994           0
     33974 MEMB     274      PMPE     O14      O2L     -0.780000       15.9994           0
     33975 MEMB     274      PMPE     O11      OSLP    -0.570000       15.9994           0
     33976 MEMB     274      PMPE     O12      OSLP    -0.570000       15.9994           0
     33977 MEMB     274      PMPE     C1       CTL2    -0.800000E-01   12.0110           0
     33978 MEMB     274      PMPE     HA       HAL2     0.900000E-01   1.00800           0
     33979 MEMB     274      PMPE     HB       HAL2     0.900000E-01   1.00800           0
     33980 MEMB     274      PMPE     C2       CTL1     0.170000       12.0110           0
     33981 MEMB     274      PMPE     HS       HAL1     0.900000E-01   1.00800           0
     33982 MEMB     274      PMPE     O21      OSL     -0.490000       15.9994           0
     33983 MEMB     274      PMPE     C21      CL       0.900000       12.0110           0
     33984 MEMB     274      PMPE     O22      OBL     -0.630000       15.9994           0
     33985 MEMB     274      PMPE     C22      CTL2    -0.220000       12.0110           0
     33986 MEMB     274      PMPE     H2R      HAL2     0.900000E-01   1.00800           0
     33987 MEMB     274      PMPE     H2S      HAL2     0.900000E-01   1.00800           0
     33988 MEMB     274      PMPE     C3       CTL2     0.800000E-01   12.0110           0
     33989 MEMB     274      PMPE     HX       HAL2     0.900000E-01   1.00800           0
     33990 MEMB     274      PMPE     HY       HAL2     0.900000E-01   1.00800           0
     33991 MEMB     274      PMPE     O31      OSL     -0.490000       15.9994           0
     33992 MEMB     274      PMPE     C31      CL       0.900000       12.0110           0
     33993 MEMB     274      PMPE     O32      OBL     -0.630000       15.9994           0
     33994 MEMB     274      PMPE     C32      CTL2    -0.220000       12.0110           0
     33995 MEMB     274      PMPE     H2X      HAL2     0.900000E-01   1.00800           0
     33996 MEMB     274      PMPE     H2Y      HAL2     0.900000E-01   1.00800           0
     33997 MEMB     274      PMPE     C23      CTL2    -0.180000       12.0110           0
     33998 MEMB     274      PMPE     H3R      HAL2     0.900000E-01   1.00800           0
     33999 MEMB     274      PMPE     H3S      HAL2     0.900000E-01   1.00800           0
     34000 MEMB     274      PMPE     C24      CTL2    -0.180000       12.0110           0
     34001 MEMB     274      PMPE     H4R      HAL2     0.900000E-01   1.00800           0
     34002 MEMB     274      PMPE     H4S      HAL2     0.900000E-01   1.00800           0
     34003 MEMB     274      PMPE     C25      CTL2    -0.180000       12.0110           0
     34004 MEMB     274      PMPE     H5R      HAL2     0.900000E-01   1.00800           0
     34005 MEMB     274      PMPE     H5S      HAL2     0.900000E-01   1.00800           0
     34006 MEMB     274      PMPE     C26      CTL2    -0.180000       12.0110           0
     34007 MEMB     274      PMPE     H6R      HAL2     0.900000E-01   1.00800           0
     34008 MEMB     274      PMPE     H6S      HAL2     0.900000E-01   1.00800           0
     34009 MEMB     274      PMPE     C27      CTL2    -0.180000       12.0110           0
     34010 MEMB     274      PMPE     H7R      HAL2     0.900000E-01   1.00800           0
     34011 MEMB     274      PMPE     H7S      HAL2     0.900000E-01   1.00800           0
     34012 MEMB     274      PMPE     C28      CTL2    -0.180000       12.0110           0
     34013 MEMB     274      PMPE     H8R      HAL2     0.900000E-01   1.00800           0
     34014 MEMB     274      PMPE     H8S      HAL2     0.900000E-01   1.00800           0
     34015 MEMB     274      PMPE     C29      CG3RC1  -0.900000E-01   12.0110           0
     34016 MEMB     274      PMPE     H9R      HGA1     0.900000E-01   1.00800           0
     34017 MEMB     274      PMPE     C217     CG3C31  -0.180000       12.0110           0
     34018 MEMB     274      PMPE     H17R     HGA2     0.900000E-01   1.00800           0
     34019 MEMB     274      PMPE     H17S     HGA2     0.900000E-01   1.00800           0
     34020 MEMB     274      PMPE     C210     CG3RC1  -0.900000E-01   12.0110           0
     34021 MEMB     274      PMPE     H10R     HGA1     0.900000E-01   1.00800           0
     34022 MEMB     274      PMPE     C211     CTL2    -0.180000       12.0110           0
     34023 MEMB     274      PMPE     H11R     HAL2     0.900000E-01   1.00800           0
     34024 MEMB     274      PMPE     H11S     HAL2     0.900000E-01   1.00800           0
     34025 MEMB     274      PMPE     C212     CTL2    -0.180000       12.0110           0
     34026 MEMB     274      PMPE     H12R     HAL2     0.900000E-01   1.00800           0
     34027 MEMB     274      PMPE     H12S     HAL2     0.900000E-01   1.00800           0
     34028 MEMB     274      PMPE     C213     CTL2    -0.180000       12.0110           0
     34029 MEMB     274      PMPE     H13R     HAL2     0.900000E-01   1.00800           0
     34030 MEMB     274      PMPE     H13S     HAL2     0.900000E-01   1.00800           0
     34031 MEMB     274      PMPE     C214     CTL2    -0.180000       12.0110           0
     34032 MEMB     274      PMPE     H14R     HAL2     0.900000E-01   1.00800           0
     34033 MEMB     274      PMPE     H14S     HAL2     0.900000E-01   1.00800           0
     34034 MEMB     274      PMPE     C215     CTL2    -0.180000       12.0110           0
     34035 MEMB     274      PMPE     H15R     HAL2     0.900000E-01   1.00800           0
     34036 MEMB     274      PMPE     H15S     HAL2     0.900000E-01   1.00800           0
     34037 MEMB     274      PMPE     C216     CTL3    -0.270000       12.0110           0
     34038 MEMB     274      PMPE     H16R     HAL3     0.900000E-01   1.00800           0
     34039 MEMB     274      PMPE     H16S     HAL3     0.900000E-01   1.00800           0
     34040 MEMB     274      PMPE     H16T     HAL3     0.900000E-01   1.00800           0
     34041 MEMB     274      PMPE     C33      CTL2    -0.180000       12.0110           0
     34042 MEMB     274      PMPE     H3X      HAL2     0.900000E-01   1.00800           0
     34043 MEMB     274      PMPE     H3Y      HAL2     0.900000E-01   1.00800           0
     34044 MEMB     274      PMPE     C34      CTL2    -0.180000       12.0110           0
     34045 MEMB     274      PMPE     H4X      HAL2     0.900000E-01   1.00800           0
     34046 MEMB     274      PMPE     H4Y      HAL2     0.900000E-01   1.00800           0
     34047 MEMB     274      PMPE     C35      CTL2    -0.180000       12.0110           0
     34048 MEMB     274      PMPE     H5X      HAL2     0.900000E-01   1.00800           0
     34049 MEMB     274      PMPE     H5Y      HAL2     0.900000E-01   1.00800           0
     34050 MEMB     274      PMPE     C36      CTL2    -0.180000       12.0110           0
     34051 MEMB     274      PMPE     H6X      HAL2     0.900000E-01   1.00800           0
     34052 MEMB     274      PMPE     H6Y      HAL2     0.900000E-01   1.00800           0
     34053 MEMB     274      PMPE     C37      CTL2    -0.180000       12.0110           0
     34054 MEMB     274      PMPE     H7X      HAL2     0.900000E-01   1.00800           0
     34055 MEMB     274      PMPE     H7Y      HAL2     0.900000E-01   1.00800           0
     34056 MEMB     274      PMPE     C38      CTL2    -0.180000       12.0110           0
     34057 MEMB     274      PMPE     H8X      HAL2     0.900000E-01   1.00800           0
     34058 MEMB     274      PMPE     H8Y      HAL2     0.900000E-01   1.00800           0
     34059 MEMB     274      PMPE     C39      CTL2    -0.180000       12.0110           0
     34060 MEMB     274      PMPE     H9X      HAL2     0.900000E-01   1.00800           0
     34061 MEMB     274      PMPE     H9Y      HAL2     0.900000E-01   1.00800           0
     34062 MEMB     274      PMPE     C310     CTL2    -0.180000       12.0110           0
     34063 MEMB     274      PMPE     H10X     HAL2     0.900000E-01   1.00800           0
     34064 MEMB     274      PMPE     H10Y     HAL2     0.900000E-01   1.00800           0
     34065 MEMB     274      PMPE     C311     CTL2    -0.180000       12.0110           0
     34066 MEMB     274      PMPE     H11X     HAL2     0.900000E-01   1.00800           0
     34067 MEMB     274      PMPE     H11Y     HAL2     0.900000E-01   1.00800           0
     34068 MEMB     274      PMPE     C312     CTL2    -0.180000       12.0110           0
     34069 MEMB     274      PMPE     H12X     HAL2     0.900000E-01   1.00800           0
     34070 MEMB     274      PMPE     H12Y     HAL2     0.900000E-01   1.00800           0
     34071 MEMB     274      PMPE     C313     CTL2    -0.180000       12.0110           0
     34072 MEMB     274      PMPE     H13X     HAL2     0.900000E-01   1.00800           0
     34073 MEMB     274      PMPE     H13Y     HAL2     0.900000E-01   1.00800           0
     34074 MEMB     274      PMPE     C314     CTL2    -0.180000       12.0110           0
     34075 MEMB     274      PMPE     H14X     HAL2     0.900000E-01   1.00800           0
     34076 MEMB     274      PMPE     H14Y     HAL2     0.900000E-01   1.00800           0
     34077 MEMB     274      PMPE     C315     CTL2    -0.180000       12.0110           0
     34078 MEMB     274      PMPE     H15X     HAL2     0.900000E-01   1.00800           0
     34079 MEMB     274      PMPE     H15Y     HAL2     0.900000E-01   1.00800           0
     34080 MEMB     274      PMPE     C316     CTL3    -0.270000       12.0110           0
     34081 MEMB     274      PMPE     H16X     HAL3     0.900000E-01   1.00800           0
     34082 MEMB     274      PMPE     H16Y     HAL3     0.900000E-01   1.00800           0
     34083 MEMB     274      PMPE     H16Z     HAL3     0.900000E-01   1.00800           0
     34084 MEMB     275      PMPE     N        NH3L    -0.300000       14.0070           0
     34085 MEMB     275      PMPE     HN1      HCL      0.330000       1.00800           0
     34086 MEMB     275      PMPE     HN2      HCL      0.330000       1.00800           0
     34087 MEMB     275      PMPE     HN3      HCL      0.330000       1.00800           0
     34088 MEMB     275      PMPE     C12      CTL2     0.130000       12.0110           0
     34089 MEMB     275      PMPE     H12A     HAL2     0.900000E-01   1.00800           0
     34090 MEMB     275      PMPE     H12B     HAL2     0.900000E-01   1.00800           0
     34091 MEMB     275      PMPE     C11      CTL2    -0.800000E-01   12.0110           0
     34092 MEMB     275      PMPE     H11A     HAL2     0.900000E-01   1.00800           0
     34093 MEMB     275      PMPE     H11B     HAL2     0.900000E-01   1.00800           0
     34094 MEMB     275      PMPE     P        PL        1.50000       30.9740           0
     34095 MEMB     275      PMPE     O13      O2L     -0.780000       15.9994           0
     34096 MEMB     275      PMPE     O14      O2L     -0.780000       15.9994           0
     34097 MEMB     275      PMPE     O11      OSLP    -0.570000       15.9994           0
     34098 MEMB     275      PMPE     O12      OSLP    -0.570000       15.9994           0
     34099 MEMB     275      PMPE     C1       CTL2    -0.800000E-01   12.0110           0
     34100 MEMB     275      PMPE     HA       HAL2     0.900000E-01   1.00800           0
     34101 MEMB     275      PMPE     HB       HAL2     0.900000E-01   1.00800           0
     34102 MEMB     275      PMPE     C2       CTL1     0.170000       12.0110           0
     34103 MEMB     275      PMPE     HS       HAL1     0.900000E-01   1.00800           0
     34104 MEMB     275      PMPE     O21      OSL     -0.490000       15.9994           0
     34105 MEMB     275      PMPE     C21      CL       0.900000       12.0110           0
     34106 MEMB     275      PMPE     O22      OBL     -0.630000       15.9994           0
     34107 MEMB     275      PMPE     C22      CTL2    -0.220000       12.0110           0
     34108 MEMB     275      PMPE     H2R      HAL2     0.900000E-01   1.00800           0
     34109 MEMB     275      PMPE     H2S      HAL2     0.900000E-01   1.00800           0
     34110 MEMB     275      PMPE     C3       CTL2     0.800000E-01   12.0110           0
     34111 MEMB     275      PMPE     HX       HAL2     0.900000E-01   1.00800           0
     34112 MEMB     275      PMPE     HY       HAL2     0.900000E-01   1.00800           0
     34113 MEMB     275      PMPE     O31      OSL     -0.490000       15.9994           0
     34114 MEMB     275      PMPE     C31      CL       0.900000       12.0110           0
     34115 MEMB     275      PMPE     O32      OBL     -0.630000       15.9994           0
     34116 MEMB     275      PMPE     C32      CTL2    -0.220000       12.0110           0
     34117 MEMB     275      PMPE     H2X      HAL2     0.900000E-01   1.00800           0
     34118 MEMB     275      PMPE     H2Y      HAL2     0.900000E-01   1.00800           0
     34119 MEMB     275      PMPE     C23      CTL2    -0.180000       12.0110           0
     34120 MEMB     275      PMPE     H3R      HAL2     0.900000E-01   1.00800           0
     34121 MEMB     275      PMPE     H3S      HAL2     0.900000E-01   1.00800           0
     34122 MEMB     275      PMPE     C24      CTL2    -0.180000       12.0110           0
     34123 MEMB     275      PMPE     H4R      HAL2     0.900000E-01   1.00800           0
     34124 MEMB     275      PMPE     H4S      HAL2     0.900000E-01   1.00800           0
     34125 MEMB     275      PMPE     C25      CTL2    -0.180000       12.0110           0
     34126 MEMB     275      PMPE     H5R      HAL2     0.900000E-01   1.00800           0
     34127 MEMB     275      PMPE     H5S      HAL2     0.900000E-01   1.00800           0
     34128 MEMB     275      PMPE     C26      CTL2    -0.180000       12.0110           0
     34129 MEMB     275      PMPE     H6R      HAL2     0.900000E-01   1.00800           0
     34130 MEMB     275      PMPE     H6S      HAL2     0.900000E-01   1.00800           0
     34131 MEMB     275      PMPE     C27      CTL2    -0.180000       12.0110           0
     34132 MEMB     275      PMPE     H7R      HAL2     0.900000E-01   1.00800           0
     34133 MEMB     275      PMPE     H7S      HAL2     0.900000E-01   1.00800           0
     34134 MEMB     275      PMPE     C28      CTL2    -0.180000       12.0110           0
     34135 MEMB     275      PMPE     H8R      HAL2     0.900000E-01   1.00800           0
     34136 MEMB     275      PMPE     H8S      HAL2     0.900000E-01   1.00800           0
     34137 MEMB     275      PMPE     C29      CG3RC1  -0.900000E-01   12.0110           0
     34138 MEMB     275      PMPE     H9R      HGA1     0.900000E-01   1.00800           0
     34139 MEMB     275      PMPE     C217     CG3C31  -0.180000       12.0110           0
     34140 MEMB     275      PMPE     H17R     HGA2     0.900000E-01   1.00800           0
     34141 MEMB     275      PMPE     H17S     HGA2     0.900000E-01   1.00800           0
     34142 MEMB     275      PMPE     C210     CG3RC1  -0.900000E-01   12.0110           0
     34143 MEMB     275      PMPE     H10R     HGA1     0.900000E-01   1.00800           0
     34144 MEMB     275      PMPE     C211     CTL2    -0.180000       12.0110           0
     34145 MEMB     275      PMPE     H11R     HAL2     0.900000E-01   1.00800           0
     34146 MEMB     275      PMPE     H11S     HAL2     0.900000E-01   1.00800           0
     34147 MEMB     275      PMPE     C212     CTL2    -0.180000       12.0110           0
     34148 MEMB     275      PMPE     H12R     HAL2     0.900000E-01   1.00800           0
     34149 MEMB     275      PMPE     H12S     HAL2     0.900000E-01   1.00800           0
     34150 MEMB     275      PMPE     C213     CTL2    -0.180000       12.0110           0
     34151 MEMB     275      PMPE     H13R     HAL2     0.900000E-01   1.00800           0
     34152 MEMB     275      PMPE     H13S     HAL2     0.900000E-01   1.00800           0
     34153 MEMB     275      PMPE     C214     CTL2    -0.180000       12.0110           0
     34154 MEMB     275      PMPE     H14R     HAL2     0.900000E-01   1.00800           0
     34155 MEMB     275      PMPE     H14S     HAL2     0.900000E-01   1.00800           0
     34156 MEMB     275      PMPE     C215     CTL2    -0.180000       12.0110           0
     34157 MEMB     275      PMPE     H15R     HAL2     0.900000E-01   1.00800           0
     34158 MEMB     275      PMPE     H15S     HAL2     0.900000E-01   1.00800           0
     34159 MEMB     275      PMPE     C216     CTL3    -0.270000       12.0110           0
     34160 MEMB     275      PMPE     H16R     HAL3     0.900000E-01   1.00800           0
     34161 MEMB     275      PMPE     H16S     HAL3     0.900000E-01   1.00800           0
     34162 MEMB     275      PMPE     H16T     HAL3     0.900000E-01   1.00800           0
     34163 MEMB     275      PMPE     C33      CTL2    -0.180000       12.0110           0
     34164 MEMB     275      PMPE     H3X      HAL2     0.900000E-01   1.00800           0
     34165 MEMB     275      PMPE     H3Y      HAL2     0.900000E-01   1.00800           0
     34166 MEMB     275      PMPE     C34      CTL2    -0.180000       12.0110           0
     34167 MEMB     275      PMPE     H4X      HAL2     0.900000E-01   1.00800           0
     34168 MEMB     275      PMPE     H4Y      HAL2     0.900000E-01   1.00800           0
     34169 MEMB     275      PMPE     C35      CTL2    -0.180000       12.0110           0
     34170 MEMB     275      PMPE     H5X      HAL2     0.900000E-01   1.00800           0
     34171 MEMB     275      PMPE     H5Y      HAL2     0.900000E-01   1.00800           0
     34172 MEMB     275      PMPE     C36      CTL2    -0.180000       12.0110           0
     34173 MEMB     275      PMPE     H6X      HAL2     0.900000E-01   1.00800           0
     34174 MEMB     275      PMPE     H6Y      HAL2     0.900000E-01   1.00800           0
     34175 MEMB     275      PMPE     C37      CTL2    -0.180000       12.0110           0
     34176 MEMB     275      PMPE     H7X      HAL2     0.900000E-01   1.00800           0
     34177 MEMB     275      PMPE     H7Y      HAL2     0.900000E-01   1.00800           0
     34178 MEMB     275      PMPE     C38      CTL2    -0.180000       12.0110           0
     34179 MEMB     275      PMPE     H8X      HAL2     0.900000E-01   1.00800           0
     34180 MEMB     275      PMPE     H8Y      HAL2     0.900000E-01   1.00800           0
     34181 MEMB     275      PMPE     C39      CTL2    -0.180000       12.0110           0
     34182 MEMB     275      PMPE     H9X      HAL2     0.900000E-01   1.00800           0
     34183 MEMB     275      PMPE     H9Y      HAL2     0.900000E-01   1.00800           0
     34184 MEMB     275      PMPE     C310     CTL2    -0.180000       12.0110           0
     34185 MEMB     275      PMPE     H10X     HAL2     0.900000E-01   1.00800           0
     34186 MEMB     275      PMPE     H10Y     HAL2     0.900000E-01   1.00800           0
     34187 MEMB     275      PMPE     C311     CTL2    -0.180000       12.0110           0
     34188 MEMB     275      PMPE     H11X     HAL2     0.900000E-01   1.00800           0
     34189 MEMB     275      PMPE     H11Y     HAL2     0.900000E-01   1.00800           0
     34190 MEMB     275      PMPE     C312     CTL2    -0.180000       12.0110           0
     34191 MEMB     275      PMPE     H12X     HAL2     0.900000E-01   1.00800           0
     34192 MEMB     275      PMPE     H12Y     HAL2     0.900000E-01   1.00800           0
     34193 MEMB     275      PMPE     C313     CTL2    -0.180000       12.0110           0
     34194 MEMB     275      PMPE     H13X     HAL2     0.900000E-01   1.00800           0
     34195 MEMB     275      PMPE     H13Y     HAL2     0.900000E-01   1.00800           0
     34196 MEMB     275      PMPE     C314     CTL2    -0.180000       12.0110           0
     34197 MEMB     275      PMPE     H14X     HAL2     0.900000E-01   1.00800           0
     34198 MEMB     275      PMPE     H14Y     HAL2     0.900000E-01   1.00800           0
     34199 MEMB     275      PMPE     C315     CTL2    -0.180000       12.0110           0
     34200 MEMB     275      PMPE     H15X     HAL2     0.900000E-01   1.00800           0
     34201 MEMB     275      PMPE     H15Y     HAL2     0.900000E-01   1.00800           0
     34202 MEMB     275      PMPE     C316     CTL3    -0.270000       12.0110           0
     34203 MEMB     275      PMPE     H16X     HAL3     0.900000E-01   1.00800           0
     34204 MEMB     275      PMPE     H16Y     HAL3     0.900000E-01   1.00800           0
     34205 MEMB     275      PMPE     H16Z     HAL3     0.900000E-01   1.00800           0
     34206 MEMB     276      PMPE     N        NH3L    -0.300000       14.0070           0
     34207 MEMB     276      PMPE     HN1      HCL      0.330000       1.00800           0
     34208 MEMB     276      PMPE     HN2      HCL      0.330000       1.00800           0
     34209 MEMB     276      PMPE     HN3      HCL      0.330000       1.00800           0
     34210 MEMB     276      PMPE     C12      CTL2     0.130000       12.0110           0
     34211 MEMB     276      PMPE     H12A     HAL2     0.900000E-01   1.00800           0
     34212 MEMB     276      PMPE     H12B     HAL2     0.900000E-01   1.00800           0
     34213 MEMB     276      PMPE     C11      CTL2    -0.800000E-01   12.0110           0
     34214 MEMB     276      PMPE     H11A     HAL2     0.900000E-01   1.00800           0
     34215 MEMB     276      PMPE     H11B     HAL2     0.900000E-01   1.00800           0
     34216 MEMB     276      PMPE     P        PL        1.50000       30.9740           0
     34217 MEMB     276      PMPE     O13      O2L     -0.780000       15.9994           0
     34218 MEMB     276      PMPE     O14      O2L     -0.780000       15.9994           0
     34219 MEMB     276      PMPE     O11      OSLP    -0.570000       15.9994           0
     34220 MEMB     276      PMPE     O12      OSLP    -0.570000       15.9994           0
     34221 MEMB     276      PMPE     C1       CTL2    -0.800000E-01   12.0110           0
     34222 MEMB     276      PMPE     HA       HAL2     0.900000E-01   1.00800           0
     34223 MEMB     276      PMPE     HB       HAL2     0.900000E-01   1.00800           0
     34224 MEMB     276      PMPE     C2       CTL1     0.170000       12.0110           0
     34225 MEMB     276      PMPE     HS       HAL1     0.900000E-01   1.00800           0
     34226 MEMB     276      PMPE     O21      OSL     -0.490000       15.9994           0
     34227 MEMB     276      PMPE     C21      CL       0.900000       12.0110           0
     34228 MEMB     276      PMPE     O22      OBL     -0.630000       15.9994           0
     34229 MEMB     276      PMPE     C22      CTL2    -0.220000       12.0110           0
     34230 MEMB     276      PMPE     H2R      HAL2     0.900000E-01   1.00800           0
     34231 MEMB     276      PMPE     H2S      HAL2     0.900000E-01   1.00800           0
     34232 MEMB     276      PMPE     C3       CTL2     0.800000E-01   12.0110           0
     34233 MEMB     276      PMPE     HX       HAL2     0.900000E-01   1.00800           0
     34234 MEMB     276      PMPE     HY       HAL2     0.900000E-01   1.00800           0
     34235 MEMB     276      PMPE     O31      OSL     -0.490000       15.9994           0
     34236 MEMB     276      PMPE     C31      CL       0.900000       12.0110           0
     34237 MEMB     276      PMPE     O32      OBL     -0.630000       15.9994           0
     34238 MEMB     276      PMPE     C32      CTL2    -0.220000       12.0110           0
     34239 MEMB     276      PMPE     H2X      HAL2     0.900000E-01   1.00800           0
     34240 MEMB     276      PMPE     H2Y      HAL2     0.900000E-01   1.00800           0
     34241 MEMB     276      PMPE     C23      CTL2    -0.180000       12.0110           0
     34242 MEMB     276      PMPE     H3R      HAL2     0.900000E-01   1.00800           0
     34243 MEMB     276      PMPE     H3S      HAL2     0.900000E-01   1.00800           0
     34244 MEMB     276      PMPE     C24      CTL2    -0.180000       12.0110           0
     34245 MEMB     276      PMPE     H4R      HAL2     0.900000E-01   1.00800           0
     34246 MEMB     276      PMPE     H4S      HAL2     0.900000E-01   1.00800           0
     34247 MEMB     276      PMPE     C25      CTL2    -0.180000       12.0110           0
     34248 MEMB     276      PMPE     H5R      HAL2     0.900000E-01   1.00800           0
     34249 MEMB     276      PMPE     H5S      HAL2     0.900000E-01   1.00800           0
     34250 MEMB     276      PMPE     C26      CTL2    -0.180000       12.0110           0
     34251 MEMB     276      PMPE     H6R      HAL2     0.900000E-01   1.00800           0
     34252 MEMB     276      PMPE     H6S      HAL2     0.900000E-01   1.00800           0
     34253 MEMB     276      PMPE     C27      CTL2    -0.180000       12.0110           0
     34254 MEMB     276      PMPE     H7R      HAL2     0.900000E-01   1.00800           0
     34255 MEMB     276      PMPE     H7S      HAL2     0.900000E-01   1.00800           0
     34256 MEMB     276      PMPE     C28      CTL2    -0.180000       12.0110           0
     34257 MEMB     276      PMPE     H8R      HAL2     0.900000E-01   1.00800           0
     34258 MEMB     276      PMPE     H8S      HAL2     0.900000E-01   1.00800           0
     34259 MEMB     276      PMPE     C29      CG3RC1  -0.900000E-01   12.0110           0
     34260 MEMB     276      PMPE     H9R      HGA1     0.900000E-01   1.00800           0
     34261 MEMB     276      PMPE     C217     CG3C31  -0.180000       12.0110           0
     34262 MEMB     276      PMPE     H17R     HGA2     0.900000E-01   1.00800           0
     34263 MEMB     276      PMPE     H17S     HGA2     0.900000E-01   1.00800           0
     34264 MEMB     276      PMPE     C210     CG3RC1  -0.900000E-01   12.0110           0
     34265 MEMB     276      PMPE     H10R     HGA1     0.900000E-01   1.00800           0
     34266 MEMB     276      PMPE     C211     CTL2    -0.180000       12.0110           0
     34267 MEMB     276      PMPE     H11R     HAL2     0.900000E-01   1.00800           0
     34268 MEMB     276      PMPE     H11S     HAL2     0.900000E-01   1.00800           0
     34269 MEMB     276      PMPE     C212     CTL2    -0.180000       12.0110           0
     34270 MEMB     276      PMPE     H12R     HAL2     0.900000E-01   1.00800           0
     34271 MEMB     276      PMPE     H12S     HAL2     0.900000E-01   1.00800           0
     34272 MEMB     276      PMPE     C213     CTL2    -0.180000       12.0110           0
     34273 MEMB     276      PMPE     H13R     HAL2     0.900000E-01   1.00800           0
     34274 MEMB     276      PMPE     H13S     HAL2     0.900000E-01   1.00800           0
     34275 MEMB     276      PMPE     C214     CTL2    -0.180000       12.0110           0
     34276 MEMB     276      PMPE     H14R     HAL2     0.900000E-01   1.00800           0
     34277 MEMB     276      PMPE     H14S     HAL2     0.900000E-01   1.00800           0
     34278 MEMB     276      PMPE     C215     CTL2    -0.180000       12.0110           0
     34279 MEMB     276      PMPE     H15R     HAL2     0.900000E-01   1.00800           0
     34280 MEMB     276      PMPE     H15S     HAL2     0.900000E-01   1.00800           0
     34281 MEMB     276      PMPE     C216     CTL3    -0.270000       12.0110           0
     34282 MEMB     276      PMPE     H16R     HAL3     0.900000E-01   1.00800           0
     34283 MEMB     276      PMPE     H16S     HAL3     0.900000E-01   1.00800           0
     34284 MEMB     276      PMPE     H16T     HAL3     0.900000E-01   1.00800           0
     34285 MEMB     276      PMPE     C33      CTL2    -0.180000       12.0110           0
     34286 MEMB     276      PMPE     H3X      HAL2     0.900000E-01   1.00800           0
     34287 MEMB     276      PMPE     H3Y      HAL2     0.900000E-01   1.00800           0
     34288 MEMB     276      PMPE     C34      CTL2    -0.180000       12.0110           0
     34289 MEMB     276      PMPE     H4X      HAL2     0.900000E-01   1.00800           0
     34290 MEMB     276      PMPE     H4Y      HAL2     0.900000E-01   1.00800           0
     34291 MEMB     276      PMPE     C35      CTL2    -0.180000       12.0110           0
     34292 MEMB     276      PMPE     H5X      HAL2     0.900000E-01   1.00800           0
     34293 MEMB     276      PMPE     H5Y      HAL2     0.900000E-01   1.00800           0
     34294 MEMB     276      PMPE     C36      CTL2    -0.180000       12.0110           0
     34295 MEMB     276      PMPE     H6X      HAL2     0.900000E-01   1.00800           0
     34296 MEMB     276      PMPE     H6Y      HAL2     0.900000E-01   1.00800           0
     34297 MEMB     276      PMPE     C37      CTL2    -0.180000       12.0110           0
     34298 MEMB     276      PMPE     H7X      HAL2     0.900000E-01   1.00800           0
     34299 MEMB     276      PMPE     H7Y      HAL2     0.900000E-01   1.00800           0
     34300 MEMB     276      PMPE     C38      CTL2    -0.180000       12.0110           0
     34301 MEMB     276      PMPE     H8X      HAL2     0.900000E-01   1.00800           0
     34302 MEMB     276      PMPE     H8Y      HAL2     0.900000E-01   1.00800           0
     34303 MEMB     276      PMPE     C39      CTL2    -0.180000       12.0110           0
     34304 MEMB     276      PMPE     H9X      HAL2     0.900000E-01   1.00800           0
     34305 MEMB     276      PMPE     H9Y      HAL2     0.900000E-01   1.00800           0
     34306 MEMB     276      PMPE     C310     CTL2    -0.180000       12.0110           0
     34307 MEMB     276      PMPE     H10X     HAL2     0.900000E-01   1.00800           0
     34308 MEMB     276      PMPE     H10Y     HAL2     0.900000E-01   1.00800           0
     34309 MEMB     276      PMPE     C311     CTL2    -0.180000       12.0110           0
     34310 MEMB     276      PMPE     H11X     HAL2     0.900000E-01   1.00800           0
     34311 MEMB     276      PMPE     H11Y     HAL2     0.900000E-01   1.00800           0
     34312 MEMB     276      PMPE     C312     CTL2    -0.180000       12.0110           0
     34313 MEMB     276      PMPE     H12X     HAL2     0.900000E-01   1.00800           0
     34314 MEMB     276      PMPE     H12Y     HAL2     0.900000E-01   1.00800           0
     34315 MEMB     276      PMPE     C313     CTL2    -0.180000       12.0110           0
     34316 MEMB     276      PMPE     H13X     HAL2     0.900000E-01   1.00800           0
     34317 MEMB     276      PMPE     H13Y     HAL2     0.900000E-01   1.00800           0
     34318 MEMB     276      PMPE     C314     CTL2    -0.180000       12.0110           0
     34319 MEMB     276      PMPE     H14X     HAL2     0.900000E-01   1.00800           0
     34320 MEMB     276      PMPE     H14Y     HAL2     0.900000E-01   1.00800           0
     34321 MEMB     276      PMPE     C315     CTL2    -0.180000       12.0110           0
     34322 MEMB     276      PMPE     H15X     HAL2     0.900000E-01   1.00800           0
     34323 MEMB     276      PMPE     H15Y     HAL2     0.900000E-01   1.00800           0
     34324 MEMB     276      PMPE     C316     CTL3    -0.270000       12.0110           0
     34325 MEMB     276      PMPE     H16X     HAL3     0.900000E-01   1.00800           0
     34326 MEMB     276      PMPE     H16Y     HAL3     0.900000E-01   1.00800           0
     34327 MEMB     276      PMPE     H16Z     HAL3     0.900000E-01   1.00800           0
     34328 MEMB     277      PMPE     N        NH3L    -0.300000       14.0070           0
     34329 MEMB     277      PMPE     HN1      HCL      0.330000       1.00800           0
     34330 MEMB     277      PMPE     HN2      HCL      0.330000       1.00800           0
     34331 MEMB     277      PMPE     HN3      HCL      0.330000       1.00800           0
     34332 MEMB     277      PMPE     C12      CTL2     0.130000       12.0110           0
     34333 MEMB     277      PMPE     H12A     HAL2     0.900000E-01   1.00800           0
     34334 MEMB     277      PMPE     H12B     HAL2     0.900000E-01   1.00800           0
     34335 MEMB     277      PMPE     C11      CTL2    -0.800000E-01   12.0110           0
     34336 MEMB     277      PMPE     H11A     HAL2     0.900000E-01   1.00800           0
     34337 MEMB     277      PMPE     H11B     HAL2     0.900000E-01   1.00800           0
     34338 MEMB     277      PMPE     P        PL        1.50000       30.9740           0
     34339 MEMB     277      PMPE     O13      O2L     -0.780000       15.9994           0
     34340 MEMB     277      PMPE     O14      O2L     -0.780000       15.9994           0
     34341 MEMB     277      PMPE     O11      OSLP    -0.570000       15.9994           0
     34342 MEMB     277      PMPE     O12      OSLP    -0.570000       15.9994           0
     34343 MEMB     277      PMPE     C1       CTL2    -0.800000E-01   12.0110           0
     34344 MEMB     277      PMPE     HA       HAL2     0.900000E-01   1.00800           0
     34345 MEMB     277      PMPE     HB       HAL2     0.900000E-01   1.00800           0
     34346 MEMB     277      PMPE     C2       CTL1     0.170000       12.0110           0
     34347 MEMB     277      PMPE     HS       HAL1     0.900000E-01   1.00800           0
     34348 MEMB     277      PMPE     O21      OSL     -0.490000       15.9994           0
     34349 MEMB     277      PMPE     C21      CL       0.900000       12.0110           0
     34350 MEMB     277      PMPE     O22      OBL     -0.630000       15.9994           0
     34351 MEMB     277      PMPE     C22      CTL2    -0.220000       12.0110           0
     34352 MEMB     277      PMPE     H2R      HAL2     0.900000E-01   1.00800           0
     34353 MEMB     277      PMPE     H2S      HAL2     0.900000E-01   1.00800           0
     34354 MEMB     277      PMPE     C3       CTL2     0.800000E-01   12.0110           0
     34355 MEMB     277      PMPE     HX       HAL2     0.900000E-01   1.00800           0
     34356 MEMB     277      PMPE     HY       HAL2     0.900000E-01   1.00800           0
     34357 MEMB     277      PMPE     O31      OSL     -0.490000       15.9994           0
     34358 MEMB     277      PMPE     C31      CL       0.900000       12.0110           0
     34359 MEMB     277      PMPE     O32      OBL     -0.630000       15.9994           0
     34360 MEMB     277      PMPE     C32      CTL2    -0.220000       12.0110           0
     34361 MEMB     277      PMPE     H2X      HAL2     0.900000E-01   1.00800           0
     34362 MEMB     277      PMPE     H2Y      HAL2     0.900000E-01   1.00800           0
     34363 MEMB     277      PMPE     C23      CTL2    -0.180000       12.0110           0
     34364 MEMB     277      PMPE     H3R      HAL2     0.900000E-01   1.00800           0
     34365 MEMB     277      PMPE     H3S      HAL2     0.900000E-01   1.00800           0
     34366 MEMB     277      PMPE     C24      CTL2    -0.180000       12.0110           0
     34367 MEMB     277      PMPE     H4R      HAL2     0.900000E-01   1.00800           0
     34368 MEMB     277      PMPE     H4S      HAL2     0.900000E-01   1.00800           0
     34369 MEMB     277      PMPE     C25      CTL2    -0.180000       12.0110           0
     34370 MEMB     277      PMPE     H5R      HAL2     0.900000E-01   1.00800           0
     34371 MEMB     277      PMPE     H5S      HAL2     0.900000E-01   1.00800           0
     34372 MEMB     277      PMPE     C26      CTL2    -0.180000       12.0110           0
     34373 MEMB     277      PMPE     H6R      HAL2     0.900000E-01   1.00800           0
     34374 MEMB     277      PMPE     H6S      HAL2     0.900000E-01   1.00800           0
     34375 MEMB     277      PMPE     C27      CTL2    -0.180000       12.0110           0
     34376 MEMB     277      PMPE     H7R      HAL2     0.900000E-01   1.00800           0
     34377 MEMB     277      PMPE     H7S      HAL2     0.900000E-01   1.00800           0
     34378 MEMB     277      PMPE     C28      CTL2    -0.180000       12.0110           0
     34379 MEMB     277      PMPE     H8R      HAL2     0.900000E-01   1.00800           0
     34380 MEMB     277      PMPE     H8S      HAL2     0.900000E-01   1.00800           0
     34381 MEMB     277      PMPE     C29      CG3RC1  -0.900000E-01   12.0110           0
     34382 MEMB     277      PMPE     H9R      HGA1     0.900000E-01   1.00800           0
     34383 MEMB     277      PMPE     C217     CG3C31  -0.180000       12.0110           0
     34384 MEMB     277      PMPE     H17R     HGA2     0.900000E-01   1.00800           0
     34385 MEMB     277      PMPE     H17S     HGA2     0.900000E-01   1.00800           0
     34386 MEMB     277      PMPE     C210     CG3RC1  -0.900000E-01   12.0110           0
     34387 MEMB     277      PMPE     H10R     HGA1     0.900000E-01   1.00800           0
     34388 MEMB     277      PMPE     C211     CTL2    -0.180000       12.0110           0
     34389 MEMB     277      PMPE     H11R     HAL2     0.900000E-01   1.00800           0
     34390 MEMB     277      PMPE     H11S     HAL2     0.900000E-01   1.00800           0
     34391 MEMB     277      PMPE     C212     CTL2    -0.180000       12.0110           0
     34392 MEMB     277      PMPE     H12R     HAL2     0.900000E-01   1.00800           0
     34393 MEMB     277      PMPE     H12S     HAL2     0.900000E-01   1.00800           0
     34394 MEMB     277      PMPE     C213     CTL2    -0.180000       12.0110           0
     34395 MEMB     277      PMPE     H13R     HAL2     0.900000E-01   1.00800           0
     34396 MEMB     277      PMPE     H13S     HAL2     0.900000E-01   1.00800           0
     34397 MEMB     277      PMPE     C214     CTL2    -0.180000       12.0110           0
     34398 MEMB     277      PMPE     H14R     HAL2     0.900000E-01   1.00800           0
     34399 MEMB     277      PMPE     H14S     HAL2     0.900000E-01   1.00800           0
     34400 MEMB     277      PMPE     C215     CTL2    -0.180000       12.0110           0
     34401 MEMB     277      PMPE     H15R     HAL2     0.900000E-01   1.00800           0
     34402 MEMB     277      PMPE     H15S     HAL2     0.900000E-01   1.00800           0
     34403 MEMB     277      PMPE     C216     CTL3    -0.270000       12.0110           0
     34404 MEMB     277      PMPE     H16R     HAL3     0.900000E-01   1.00800           0
     34405 MEMB     277      PMPE     H16S     HAL3     0.900000E-01   1.00800           0
     34406 MEMB     277      PMPE     H16T     HAL3     0.900000E-01   1.00800           0
     34407 MEMB     277      PMPE     C33      CTL2    -0.180000       12.0110           0
     34408 MEMB     277      PMPE     H3X      HAL2     0.900000E-01   1.00800           0
     34409 MEMB     277      PMPE     H3Y      HAL2     0.900000E-01   1.00800           0
     34410 MEMB     277      PMPE     C34      CTL2    -0.180000       12.0110           0
     34411 MEMB     277      PMPE     H4X      HAL2     0.900000E-01   1.00800           0
     34412 MEMB     277      PMPE     H4Y      HAL2     0.900000E-01   1.00800           0
     34413 MEMB     277      PMPE     C35      CTL2    -0.180000       12.0110           0
     34414 MEMB     277      PMPE     H5X      HAL2     0.900000E-01   1.00800           0
     34415 MEMB     277      PMPE     H5Y      HAL2     0.900000E-01   1.00800           0
     34416 MEMB     277      PMPE     C36      CTL2    -0.180000       12.0110           0
     34417 MEMB     277      PMPE     H6X      HAL2     0.900000E-01   1.00800           0
     34418 MEMB     277      PMPE     H6Y      HAL2     0.900000E-01   1.00800           0
     34419 MEMB     277      PMPE     C37      CTL2    -0.180000       12.0110           0
     34420 MEMB     277      PMPE     H7X      HAL2     0.900000E-01   1.00800           0
     34421 MEMB     277      PMPE     H7Y      HAL2     0.900000E-01   1.00800           0
     34422 MEMB     277      PMPE     C38      CTL2    -0.180000       12.0110           0
     34423 MEMB     277      PMPE     H8X      HAL2     0.900000E-01   1.00800           0
     34424 MEMB     277      PMPE     H8Y      HAL2     0.900000E-01   1.00800           0
     34425 MEMB     277      PMPE     C39      CTL2    -0.180000       12.0110           0
     34426 MEMB     277      PMPE     H9X      HAL2     0.900000E-01   1.00800           0
     34427 MEMB     277      PMPE     H9Y      HAL2     0.900000E-01   1.00800           0
     34428 MEMB     277      PMPE     C310     CTL2    -0.180000       12.0110           0
     34429 MEMB     277      PMPE     H10X     HAL2     0.900000E-01   1.00800           0
     34430 MEMB     277      PMPE     H10Y     HAL2     0.900000E-01   1.00800           0
     34431 MEMB     277      PMPE     C311     CTL2    -0.180000       12.0110           0
     34432 MEMB     277      PMPE     H11X     HAL2     0.900000E-01   1.00800           0
     34433 MEMB     277      PMPE     H11Y     HAL2     0.900000E-01   1.00800           0
     34434 MEMB     277      PMPE     C312     CTL2    -0.180000       12.0110           0
     34435 MEMB     277      PMPE     H12X     HAL2     0.900000E-01   1.00800           0
     34436 MEMB     277      PMPE     H12Y     HAL2     0.900000E-01   1.00800           0
     34437 MEMB     277      PMPE     C313     CTL2    -0.180000       12.0110           0
     34438 MEMB     277      PMPE     H13X     HAL2     0.900000E-01   1.00800           0
     34439 MEMB     277      PMPE     H13Y     HAL2     0.900000E-01   1.00800           0
     34440 MEMB     277      PMPE     C314     CTL2    -0.180000       12.0110           0
     34441 MEMB     277      PMPE     H14X     HAL2     0.900000E-01   1.00800           0
     34442 MEMB     277      PMPE     H14Y     HAL2     0.900000E-01   1.00800           0
     34443 MEMB     277      PMPE     C315     CTL2    -0.180000       12.0110           0
     34444 MEMB     277      PMPE     H15X     HAL2     0.900000E-01   1.00800           0
     34445 MEMB     277      PMPE     H15Y     HAL2     0.900000E-01   1.00800           0
     34446 MEMB     277      PMPE     C316     CTL3    -0.270000       12.0110           0
     34447 MEMB     277      PMPE     H16X     HAL3     0.900000E-01   1.00800           0
     34448 MEMB     277      PMPE     H16Y     HAL3     0.900000E-01   1.00800           0
     34449 MEMB     277      PMPE     H16Z     HAL3     0.900000E-01   1.00800           0
     34450 MEMB     278      PYPG     C13      CTL2     0.500000E-01   12.0110           0
     34451 MEMB     278      PYPG     H13A     HAL2     0.900000E-01   1.00800           0
     34452 MEMB     278      PYPG     H13B     HAL2     0.900000E-01   1.00800           0
     34453 MEMB     278      PYPG     OC3      OHL     -0.660000       15.9994           0
     34454 MEMB     278      PYPG     HO3      HOL      0.430000       1.00800           0
     34455 MEMB     278      PYPG     C12      CTL1     0.140000       12.0110           0
     34456 MEMB     278      PYPG     H12A     HAL1     0.900000E-01   1.00800           0
     34457 MEMB     278      PYPG     OC2      OHL     -0.660000       15.9994           0
     34458 MEMB     278      PYPG     HO2      HOL      0.430000       1.00800           0
     34459 MEMB     278      PYPG     C11      CTL2    -0.800000E-01   12.0110           0
     34460 MEMB     278      PYPG     H11A     HAL2     0.900000E-01   1.00800           0
     34461 MEMB     278      PYPG     H11B     HAL2     0.900000E-01   1.00800           0
     34462 MEMB     278      PYPG     P        PL        1.50000       30.9740           0
     34463 MEMB     278      PYPG     O13      O2L     -0.780000       15.9994           0
     34464 MEMB     278      PYPG     O14      O2L     -0.780000       15.9994           0
     34465 MEMB     278      PYPG     O11      OSLP    -0.570000       15.9994           0
     34466 MEMB     278      PYPG     O12      OSLP    -0.570000       15.9994           0
     34467 MEMB     278      PYPG     C1       CTL2    -0.800000E-01   12.0110           0
     34468 MEMB     278      PYPG     HA       HAL2     0.900000E-01   1.00800           0
     34469 MEMB     278      PYPG     HB       HAL2     0.900000E-01   1.00800           0
     34470 MEMB     278      PYPG     C2       CTL1     0.170000       12.0110           0
     34471 MEMB     278      PYPG     HS       HAL1     0.900000E-01   1.00800           0
     34472 MEMB     278      PYPG     O21      OSL     -0.490000       15.9994           0
     34473 MEMB     278      PYPG     C21      CL       0.900000       12.0110           0
     34474 MEMB     278      PYPG     O22      OBL     -0.630000       15.9994           0
     34475 MEMB     278      PYPG     C22      CTL2    -0.220000       12.0110           0
     34476 MEMB     278      PYPG     H2R      HAL2     0.900000E-01   1.00800           0
     34477 MEMB     278      PYPG     H2S      HAL2     0.900000E-01   1.00800           0
     34478 MEMB     278      PYPG     C3       CTL2     0.800000E-01   12.0110           0
     34479 MEMB     278      PYPG     HX       HAL2     0.900000E-01   1.00800           0
     34480 MEMB     278      PYPG     HY       HAL2     0.900000E-01   1.00800           0
     34481 MEMB     278      PYPG     O31      OSL     -0.490000       15.9994           0
     34482 MEMB     278      PYPG     C31      CL       0.900000       12.0110           0
     34483 MEMB     278      PYPG     O32      OBL     -0.630000       15.9994           0
     34484 MEMB     278      PYPG     C32      CTL2    -0.220000       12.0110           0
     34485 MEMB     278      PYPG     H2X      HAL2     0.900000E-01   1.00800           0
     34486 MEMB     278      PYPG     H2Y      HAL2     0.900000E-01   1.00800           0
     34487 MEMB     278      PYPG     C23      CTL2    -0.180000       12.0110           0
     34488 MEMB     278      PYPG     H3R      HAL2     0.900000E-01   1.00800           0
     34489 MEMB     278      PYPG     H3S      HAL2     0.900000E-01   1.00800           0
     34490 MEMB     278      PYPG     C24      CTL2    -0.180000       12.0110           0
     34491 MEMB     278      PYPG     H4R      HAL2     0.900000E-01   1.00800           0
     34492 MEMB     278      PYPG     H4S      HAL2     0.900000E-01   1.00800           0
     34493 MEMB     278      PYPG     C25      CTL2    -0.180000       12.0110           0
     34494 MEMB     278      PYPG     H5R      HAL2     0.900000E-01   1.00800           0
     34495 MEMB     278      PYPG     H5S      HAL2     0.900000E-01   1.00800           0
     34496 MEMB     278      PYPG     C26      CTL2    -0.180000       12.0110           0
     34497 MEMB     278      PYPG     H6R      HAL2     0.900000E-01   1.00800           0
     34498 MEMB     278      PYPG     H6S      HAL2     0.900000E-01   1.00800           0
     34499 MEMB     278      PYPG     C27      CTL2    -0.180000       12.0110           0
     34500 MEMB     278      PYPG     H7R      HAL2     0.900000E-01   1.00800           0
     34501 MEMB     278      PYPG     H7S      HAL2     0.900000E-01   1.00800           0
     34502 MEMB     278      PYPG     C28      CTL2    -0.180000       12.0110           0
     34503 MEMB     278      PYPG     H8R      HAL2     0.900000E-01   1.00800           0
     34504 MEMB     278      PYPG     H8S      HAL2     0.900000E-01   1.00800           0
     34505 MEMB     278      PYPG     C29      CEL1    -0.150000       12.0110           0
     34506 MEMB     278      PYPG     H9R      HEL1     0.150000       1.00800           0
     34507 MEMB     278      PYPG     C210     CEL1    -0.150000       12.0110           0
     34508 MEMB     278      PYPG     H10R     HEL1     0.150000       1.00800           0
     34509 MEMB     278      PYPG     C211     CTL2    -0.180000       12.0110           0
     34510 MEMB     278      PYPG     H11R     HAL2     0.900000E-01   1.00800           0
     34511 MEMB     278      PYPG     H11S     HAL2     0.900000E-01   1.00800           0
     34512 MEMB     278      PYPG     C212     CTL2    -0.180000       12.0110           0
     34513 MEMB     278      PYPG     H12R     HAL2     0.900000E-01   1.00800           0
     34514 MEMB     278      PYPG     H12S     HAL2     0.900000E-01   1.00800           0
     34515 MEMB     278      PYPG     C213     CTL2    -0.180000       12.0110           0
     34516 MEMB     278      PYPG     H13R     HAL2     0.900000E-01   1.00800           0
     34517 MEMB     278      PYPG     H13S     HAL2     0.900000E-01   1.00800           0
     34518 MEMB     278      PYPG     C214     CTL2    -0.180000       12.0110           0
     34519 MEMB     278      PYPG     H14R     HAL2     0.900000E-01   1.00800           0
     34520 MEMB     278      PYPG     H14S     HAL2     0.900000E-01   1.00800           0
     34521 MEMB     278      PYPG     C215     CTL2    -0.180000       12.0110           0
     34522 MEMB     278      PYPG     H15R     HAL2     0.900000E-01   1.00800           0
     34523 MEMB     278      PYPG     H15S     HAL2     0.900000E-01   1.00800           0
     34524 MEMB     278      PYPG     C216     CTL3    -0.270000       12.0110           0
     34525 MEMB     278      PYPG     H16R     HAL3     0.900000E-01   1.00800           0
     34526 MEMB     278      PYPG     H16S     HAL3     0.900000E-01   1.00800           0
     34527 MEMB     278      PYPG     H16T     HAL3     0.900000E-01   1.00800           0
     34528 MEMB     278      PYPG     C33      CTL2    -0.180000       12.0110           0
     34529 MEMB     278      PYPG     H3X      HAL2     0.900000E-01   1.00800           0
     34530 MEMB     278      PYPG     H3Y      HAL2     0.900000E-01   1.00800           0
     34531 MEMB     278      PYPG     C34      CTL2    -0.180000       12.0110           0
     34532 MEMB     278      PYPG     H4X      HAL2     0.900000E-01   1.00800           0
     34533 MEMB     278      PYPG     H4Y      HAL2     0.900000E-01   1.00800           0
     34534 MEMB     278      PYPG     C35      CTL2    -0.180000       12.0110           0
     34535 MEMB     278      PYPG     H5X      HAL2     0.900000E-01   1.00800           0
     34536 MEMB     278      PYPG     H5Y      HAL2     0.900000E-01   1.00800           0
     34537 MEMB     278      PYPG     C36      CTL2    -0.180000       12.0110           0
     34538 MEMB     278      PYPG     H6X      HAL2     0.900000E-01   1.00800           0
     34539 MEMB     278      PYPG     H6Y      HAL2     0.900000E-01   1.00800           0
     34540 MEMB     278      PYPG     C37      CTL2    -0.180000       12.0110           0
     34541 MEMB     278      PYPG     H7X      HAL2     0.900000E-01   1.00800           0
     34542 MEMB     278      PYPG     H7Y      HAL2     0.900000E-01   1.00800           0
     34543 MEMB     278      PYPG     C38      CTL2    -0.180000       12.0110           0
     34544 MEMB     278      PYPG     H8X      HAL2     0.900000E-01   1.00800           0
     34545 MEMB     278      PYPG     H8Y      HAL2     0.900000E-01   1.00800           0
     34546 MEMB     278      PYPG     C39      CTL2    -0.180000       12.0110           0
     34547 MEMB     278      PYPG     H9X      HAL2     0.900000E-01   1.00800           0
     34548 MEMB     278      PYPG     H9Y      HAL2     0.900000E-01   1.00800           0
     34549 MEMB     278      PYPG     C310     CTL2    -0.180000       12.0110           0
     34550 MEMB     278      PYPG     H10X     HAL2     0.900000E-01   1.00800           0
     34551 MEMB     278      PYPG     H10Y     HAL2     0.900000E-01   1.00800           0
     34552 MEMB     278      PYPG     C311     CTL2    -0.180000       12.0110           0
     34553 MEMB     278      PYPG     H11X     HAL2     0.900000E-01   1.00800           0
     34554 MEMB     278      PYPG     H11Y     HAL2     0.900000E-01   1.00800           0
     34555 MEMB     278      PYPG     C312     CTL2    -0.180000       12.0110           0
     34556 MEMB     278      PYPG     H12X     HAL2     0.900000E-01   1.00800           0
     34557 MEMB     278      PYPG     H12Y     HAL2     0.900000E-01   1.00800           0
     34558 MEMB     278      PYPG     C313     CTL2    -0.180000       12.0110           0
     34559 MEMB     278      PYPG     H13X     HAL2     0.900000E-01   1.00800           0
     34560 MEMB     278      PYPG     H13Y     HAL2     0.900000E-01   1.00800           0
     34561 MEMB     278      PYPG     C314     CTL2    -0.180000       12.0110           0
     34562 MEMB     278      PYPG     H14X     HAL2     0.900000E-01   1.00800           0
     34563 MEMB     278      PYPG     H14Y     HAL2     0.900000E-01   1.00800           0
     34564 MEMB     278      PYPG     C315     CTL2    -0.180000       12.0110           0
     34565 MEMB     278      PYPG     H15X     HAL2     0.900000E-01   1.00800           0
     34566 MEMB     278      PYPG     H15Y     HAL2     0.900000E-01   1.00800           0
     34567 MEMB     278      PYPG     C316     CTL3    -0.270000       12.0110           0
     34568 MEMB     278      PYPG     H16X     HAL3     0.900000E-01   1.00800           0
     34569 MEMB     278      PYPG     H16Y     HAL3     0.900000E-01   1.00800           0
     34570 MEMB     278      PYPG     H16Z     HAL3     0.900000E-01   1.00800           0
     34571 MEMB     279      OYPE     N        NH3L    -0.300000       14.0070           0
     34572 MEMB     279      OYPE     HN1      HCL      0.330000       1.00800           0
     34573 MEMB     279      OYPE     HN2      HCL      0.330000       1.00800           0
     34574 MEMB     279      OYPE     HN3      HCL      0.330000       1.00800           0
     34575 MEMB     279      OYPE     C12      CTL2     0.130000       12.0110           0
     34576 MEMB     279      OYPE     H12A     HAL2     0.900000E-01   1.00800           0
     34577 MEMB     279      OYPE     H12B     HAL2     0.900000E-01   1.00800           0
     34578 MEMB     279      OYPE     C11      CTL2    -0.800000E-01   12.0110           0
     34579 MEMB     279      OYPE     H11A     HAL2     0.900000E-01   1.00800           0
     34580 MEMB     279      OYPE     H11B     HAL2     0.900000E-01   1.00800           0
     34581 MEMB     279      OYPE     P        PL        1.50000       30.9740           0
     34582 MEMB     279      OYPE     O13      O2L     -0.780000       15.9994           0
     34583 MEMB     279      OYPE     O14      O2L     -0.780000       15.9994           0
     34584 MEMB     279      OYPE     O11      OSLP    -0.570000       15.9994           0
     34585 MEMB     279      OYPE     O12      OSLP    -0.570000       15.9994           0
     34586 MEMB     279      OYPE     C1       CTL2    -0.800000E-01   12.0110           0
     34587 MEMB     279      OYPE     HA       HAL2     0.900000E-01   1.00800           0
     34588 MEMB     279      OYPE     HB       HAL2     0.900000E-01   1.00800           0
     34589 MEMB     279      OYPE     C2       CTL1     0.170000       12.0110           0
     34590 MEMB     279      OYPE     HS       HAL1     0.900000E-01   1.00800           0
     34591 MEMB     279      OYPE     O21      OSL     -0.490000       15.9994           0
     34592 MEMB     279      OYPE     C21      CL       0.900000       12.0110           0
     34593 MEMB     279      OYPE     O22      OBL     -0.630000       15.9994           0
     34594 MEMB     279      OYPE     C22      CTL2    -0.220000       12.0110           0
     34595 MEMB     279      OYPE     H2R      HAL2     0.900000E-01   1.00800           0
     34596 MEMB     279      OYPE     H2S      HAL2     0.900000E-01   1.00800           0
     34597 MEMB     279      OYPE     C3       CTL2     0.800000E-01   12.0110           0
     34598 MEMB     279      OYPE     HX       HAL2     0.900000E-01   1.00800           0
     34599 MEMB     279      OYPE     HY       HAL2     0.900000E-01   1.00800           0
     34600 MEMB     279      OYPE     O31      OSL     -0.490000       15.9994           0
     34601 MEMB     279      OYPE     C31      CL       0.900000       12.0110           0
     34602 MEMB     279      OYPE     O32      OBL     -0.630000       15.9994           0
     34603 MEMB     279      OYPE     C32      CTL2    -0.220000       12.0110           0
     34604 MEMB     279      OYPE     H2X      HAL2     0.900000E-01   1.00800           0
     34605 MEMB     279      OYPE     H2Y      HAL2     0.900000E-01   1.00800           0
     34606 MEMB     279      OYPE     C23      CTL2    -0.180000       12.0110           0
     34607 MEMB     279      OYPE     H3R      HAL2     0.900000E-01   1.00800           0
     34608 MEMB     279      OYPE     H3S      HAL2     0.900000E-01   1.00800           0
     34609 MEMB     279      OYPE     C24      CTL2    -0.180000       12.0110           0
     34610 MEMB     279      OYPE     H4R      HAL2     0.900000E-01   1.00800           0
     34611 MEMB     279      OYPE     H4S      HAL2     0.900000E-01   1.00800           0
     34612 MEMB     279      OYPE     C25      CTL2    -0.180000       12.0110           0
     34613 MEMB     279      OYPE     H5R      HAL2     0.900000E-01   1.00800           0
     34614 MEMB     279      OYPE     H5S      HAL2     0.900000E-01   1.00800           0
     34615 MEMB     279      OYPE     C26      CTL2    -0.180000       12.0110           0
     34616 MEMB     279      OYPE     H6R      HAL2     0.900000E-01   1.00800           0
     34617 MEMB     279      OYPE     H6S      HAL2     0.900000E-01   1.00800           0
     34618 MEMB     279      OYPE     C27      CTL2    -0.180000       12.0110           0
     34619 MEMB     279      OYPE     H7R      HAL2     0.900000E-01   1.00800           0
     34620 MEMB     279      OYPE     H7S      HAL2     0.900000E-01   1.00800           0
     34621 MEMB     279      OYPE     C28      CTL2    -0.180000       12.0110           0
     34622 MEMB     279      OYPE     H8R      HAL2     0.900000E-01   1.00800           0
     34623 MEMB     279      OYPE     H8S      HAL2     0.900000E-01   1.00800           0
     34624 MEMB     279      OYPE     C29      CEL1    -0.150000       12.0110           0
     34625 MEMB     279      OYPE     H9R      HEL1     0.150000       1.00800           0
     34626 MEMB     279      OYPE     C210     CEL1    -0.150000       12.0110           0
     34627 MEMB     279      OYPE     H10R     HEL1     0.150000       1.00800           0
     34628 MEMB     279      OYPE     C211     CTL2    -0.180000       12.0110           0
     34629 MEMB     279      OYPE     H11R     HAL2     0.900000E-01   1.00800           0
     34630 MEMB     279      OYPE     H11S     HAL2     0.900000E-01   1.00800           0
     34631 MEMB     279      OYPE     C212     CTL2    -0.180000       12.0110           0
     34632 MEMB     279      OYPE     H12R     HAL2     0.900000E-01   1.00800           0
     34633 MEMB     279      OYPE     H12S     HAL2     0.900000E-01   1.00800           0
     34634 MEMB     279      OYPE     C213     CTL2    -0.180000       12.0110           0
     34635 MEMB     279      OYPE     H13R     HAL2     0.900000E-01   1.00800           0
     34636 MEMB     279      OYPE     H13S     HAL2     0.900000E-01   1.00800           0
     34637 MEMB     279      OYPE     C214     CTL2    -0.180000       12.0110           0
     34638 MEMB     279      OYPE     H14R     HAL2     0.900000E-01   1.00800           0
     34639 MEMB     279      OYPE     H14S     HAL2     0.900000E-01   1.00800           0
     34640 MEMB     279      OYPE     C215     CTL2    -0.180000       12.0110           0
     34641 MEMB     279      OYPE     H15R     HAL2     0.900000E-01   1.00800           0
     34642 MEMB     279      OYPE     H15S     HAL2     0.900000E-01   1.00800           0
     34643 MEMB     279      OYPE     C216     CTL3    -0.270000       12.0110           0
     34644 MEMB     279      OYPE     H16R     HAL3     0.900000E-01   1.00800           0
     34645 MEMB     279      OYPE     H16S     HAL3     0.900000E-01   1.00800           0
     34646 MEMB     279      OYPE     H16T     HAL3     0.900000E-01   1.00800           0
     34647 MEMB     279      OYPE     C33      CTL2    -0.180000       12.0110           0
     34648 MEMB     279      OYPE     H3X      HAL2     0.900000E-01   1.00800           0
     34649 MEMB     279      OYPE     H3Y      HAL2     0.900000E-01   1.00800           0
     34650 MEMB     279      OYPE     C34      CTL2    -0.180000       12.0110           0
     34651 MEMB     279      OYPE     H4X      HAL2     0.900000E-01   1.00800           0
     34652 MEMB     279      OYPE     H4Y      HAL2     0.900000E-01   1.00800           0
     34653 MEMB     279      OYPE     C35      CTL2    -0.180000       12.0110           0
     34654 MEMB     279      OYPE     H5X      HAL2     0.900000E-01   1.00800           0
     34655 MEMB     279      OYPE     H5Y      HAL2     0.900000E-01   1.00800           0
     34656 MEMB     279      OYPE     C36      CTL2    -0.180000       12.0110           0
     34657 MEMB     279      OYPE     H6X      HAL2     0.900000E-01   1.00800           0
     34658 MEMB     279      OYPE     H6Y      HAL2     0.900000E-01   1.00800           0
     34659 MEMB     279      OYPE     C37      CTL2    -0.180000       12.0110           0
     34660 MEMB     279      OYPE     H7X      HAL2     0.900000E-01   1.00800           0
     34661 MEMB     279      OYPE     H7Y      HAL2     0.900000E-01   1.00800           0
     34662 MEMB     279      OYPE     C38      CTL2    -0.180000       12.0110           0
     34663 MEMB     279      OYPE     H8X      HAL2     0.900000E-01   1.00800           0
     34664 MEMB     279      OYPE     H8Y      HAL2     0.900000E-01   1.00800           0
     34665 MEMB     279      OYPE     C39      CEL1    -0.150000       12.0110           0
     34666 MEMB     279      OYPE     H9X      HEL1     0.150000       1.00800           0
     34667 MEMB     279      OYPE     C310     CEL1    -0.150000       12.0110           0
     34668 MEMB     279      OYPE     H10X     HEL1     0.150000       1.00800           0
     34669 MEMB     279      OYPE     C311     CTL2    -0.180000       12.0110           0
     34670 MEMB     279      OYPE     H11X     HAL2     0.900000E-01   1.00800           0
     34671 MEMB     279      OYPE     H11Y     HAL2     0.900000E-01   1.00800           0
     34672 MEMB     279      OYPE     C312     CTL2    -0.180000       12.0110           0
     34673 MEMB     279      OYPE     H12X     HAL2     0.900000E-01   1.00800           0
     34674 MEMB     279      OYPE     H12Y     HAL2     0.900000E-01   1.00800           0
     34675 MEMB     279      OYPE     C313     CTL2    -0.180000       12.0110           0
     34676 MEMB     279      OYPE     H13X     HAL2     0.900000E-01   1.00800           0
     34677 MEMB     279      OYPE     H13Y     HAL2     0.900000E-01   1.00800           0
     34678 MEMB     279      OYPE     C314     CTL2    -0.180000       12.0110           0
     34679 MEMB     279      OYPE     H14X     HAL2     0.900000E-01   1.00800           0
     34680 MEMB     279      OYPE     H14Y     HAL2     0.900000E-01   1.00800           0
     34681 MEMB     279      OYPE     C315     CTL2    -0.180000       12.0110           0
     34682 MEMB     279      OYPE     H15X     HAL2     0.900000E-01   1.00800           0
     34683 MEMB     279      OYPE     H15Y     HAL2     0.900000E-01   1.00800           0
     34684 MEMB     279      OYPE     C316     CTL2    -0.180000       12.0110           0
     34685 MEMB     279      OYPE     H16X     HAL2     0.900000E-01   1.00800           0
     34686 MEMB     279      OYPE     H16Y     HAL2     0.900000E-01   1.00800           0
     34687 MEMB     279      OYPE     C317     CTL2    -0.180000       12.0110           0
     34688 MEMB     279      OYPE     H17X     HAL2     0.900000E-01   1.00800           0
     34689 MEMB     279      OYPE     H17Y     HAL2     0.900000E-01   1.00800           0
     34690 MEMB     279      OYPE     C318     CTL3    -0.270000       12.0110           0
     34691 MEMB     279      OYPE     H18X     HAL3     0.900000E-01   1.00800           0
     34692 MEMB     279      OYPE     H18Y     HAL3     0.900000E-01   1.00800           0
     34693 MEMB     279      OYPE     H18Z     HAL3     0.900000E-01   1.00800           0
     34694 MEMB     280      PMPE     N        NH3L    -0.300000       14.0070           0
     34695 MEMB     280      PMPE     HN1      HCL      0.330000       1.00800           0
     34696 MEMB     280      PMPE     HN2      HCL      0.330000       1.00800           0
     34697 MEMB     280      PMPE     HN3      HCL      0.330000       1.00800           0
     34698 MEMB     280      PMPE     C12      CTL2     0.130000       12.0110           0
     34699 MEMB     280      PMPE     H12A     HAL2     0.900000E-01   1.00800           0
     34700 MEMB     280      PMPE     H12B     HAL2     0.900000E-01   1.00800           0
     34701 MEMB     280      PMPE     C11      CTL2    -0.800000E-01   12.0110           0
     34702 MEMB     280      PMPE     H11A     HAL2     0.900000E-01   1.00800           0
     34703 MEMB     280      PMPE     H11B     HAL2     0.900000E-01   1.00800           0
     34704 MEMB     280      PMPE     P        PL        1.50000       30.9740           0
     34705 MEMB     280      PMPE     O13      O2L     -0.780000       15.9994           0
     34706 MEMB     280      PMPE     O14      O2L     -0.780000       15.9994           0
     34707 MEMB     280      PMPE     O11      OSLP    -0.570000       15.9994           0
     34708 MEMB     280      PMPE     O12      OSLP    -0.570000       15.9994           0
     34709 MEMB     280      PMPE     C1       CTL2    -0.800000E-01   12.0110           0
     34710 MEMB     280      PMPE     HA       HAL2     0.900000E-01   1.00800           0
     34711 MEMB     280      PMPE     HB       HAL2     0.900000E-01   1.00800           0
     34712 MEMB     280      PMPE     C2       CTL1     0.170000       12.0110           0
     34713 MEMB     280      PMPE     HS       HAL1     0.900000E-01   1.00800           0
     34714 MEMB     280      PMPE     O21      OSL     -0.490000       15.9994           0
     34715 MEMB     280      PMPE     C21      CL       0.900000       12.0110           0
     34716 MEMB     280      PMPE     O22      OBL     -0.630000       15.9994           0
     34717 MEMB     280      PMPE     C22      CTL2    -0.220000       12.0110           0
     34718 MEMB     280      PMPE     H2R      HAL2     0.900000E-01   1.00800           0
     34719 MEMB     280      PMPE     H2S      HAL2     0.900000E-01   1.00800           0
     34720 MEMB     280      PMPE     C3       CTL2     0.800000E-01   12.0110           0
     34721 MEMB     280      PMPE     HX       HAL2     0.900000E-01   1.00800           0
     34722 MEMB     280      PMPE     HY       HAL2     0.900000E-01   1.00800           0
     34723 MEMB     280      PMPE     O31      OSL     -0.490000       15.9994           0
     34724 MEMB     280      PMPE     C31      CL       0.900000       12.0110           0
     34725 MEMB     280      PMPE     O32      OBL     -0.630000       15.9994           0
     34726 MEMB     280      PMPE     C32      CTL2    -0.220000       12.0110           0
     34727 MEMB     280      PMPE     H2X      HAL2     0.900000E-01   1.00800           0
     34728 MEMB     280      PMPE     H2Y      HAL2     0.900000E-01   1.00800           0
     34729 MEMB     280      PMPE     C23      CTL2    -0.180000       12.0110           0
     34730 MEMB     280      PMPE     H3R      HAL2     0.900000E-01   1.00800           0
     34731 MEMB     280      PMPE     H3S      HAL2     0.900000E-01   1.00800           0
     34732 MEMB     280      PMPE     C24      CTL2    -0.180000       12.0110           0
     34733 MEMB     280      PMPE     H4R      HAL2     0.900000E-01   1.00800           0
     34734 MEMB     280      PMPE     H4S      HAL2     0.900000E-01   1.00800           0
     34735 MEMB     280      PMPE     C25      CTL2    -0.180000       12.0110           0
     34736 MEMB     280      PMPE     H5R      HAL2     0.900000E-01   1.00800           0
     34737 MEMB     280      PMPE     H5S      HAL2     0.900000E-01   1.00800           0
     34738 MEMB     280      PMPE     C26      CTL2    -0.180000       12.0110           0
     34739 MEMB     280      PMPE     H6R      HAL2     0.900000E-01   1.00800           0
     34740 MEMB     280      PMPE     H6S      HAL2     0.900000E-01   1.00800           0
     34741 MEMB     280      PMPE     C27      CTL2    -0.180000       12.0110           0
     34742 MEMB     280      PMPE     H7R      HAL2     0.900000E-01   1.00800           0
     34743 MEMB     280      PMPE     H7S      HAL2     0.900000E-01   1.00800           0
     34744 MEMB     280      PMPE     C28      CTL2    -0.180000       12.0110           0
     34745 MEMB     280      PMPE     H8R      HAL2     0.900000E-01   1.00800           0
     34746 MEMB     280      PMPE     H8S      HAL2     0.900000E-01   1.00800           0
     34747 MEMB     280      PMPE     C29      CG3RC1  -0.900000E-01   12.0110           0
     34748 MEMB     280      PMPE     H9R      HGA1     0.900000E-01   1.00800           0
     34749 MEMB     280      PMPE     C217     CG3C31  -0.180000       12.0110           0
     34750 MEMB     280      PMPE     H17R     HGA2     0.900000E-01   1.00800           0
     34751 MEMB     280      PMPE     H17S     HGA2     0.900000E-01   1.00800           0
     34752 MEMB     280      PMPE     C210     CG3RC1  -0.900000E-01   12.0110           0
     34753 MEMB     280      PMPE     H10R     HGA1     0.900000E-01   1.00800           0
     34754 MEMB     280      PMPE     C211     CTL2    -0.180000       12.0110           0
     34755 MEMB     280      PMPE     H11R     HAL2     0.900000E-01   1.00800           0
     34756 MEMB     280      PMPE     H11S     HAL2     0.900000E-01   1.00800           0
     34757 MEMB     280      PMPE     C212     CTL2    -0.180000       12.0110           0
     34758 MEMB     280      PMPE     H12R     HAL2     0.900000E-01   1.00800           0
     34759 MEMB     280      PMPE     H12S     HAL2     0.900000E-01   1.00800           0
     34760 MEMB     280      PMPE     C213     CTL2    -0.180000       12.0110           0
     34761 MEMB     280      PMPE     H13R     HAL2     0.900000E-01   1.00800           0
     34762 MEMB     280      PMPE     H13S     HAL2     0.900000E-01   1.00800           0
     34763 MEMB     280      PMPE     C214     CTL2    -0.180000       12.0110           0
     34764 MEMB     280      PMPE     H14R     HAL2     0.900000E-01   1.00800           0
     34765 MEMB     280      PMPE     H14S     HAL2     0.900000E-01   1.00800           0
     34766 MEMB     280      PMPE     C215     CTL2    -0.180000       12.0110           0
     34767 MEMB     280      PMPE     H15R     HAL2     0.900000E-01   1.00800           0
     34768 MEMB     280      PMPE     H15S     HAL2     0.900000E-01   1.00800           0
     34769 MEMB     280      PMPE     C216     CTL3    -0.270000       12.0110           0
     34770 MEMB     280      PMPE     H16R     HAL3     0.900000E-01   1.00800           0
     34771 MEMB     280      PMPE     H16S     HAL3     0.900000E-01   1.00800           0
     34772 MEMB     280      PMPE     H16T     HAL3     0.900000E-01   1.00800           0
     34773 MEMB     280      PMPE     C33      CTL2    -0.180000       12.0110           0
     34774 MEMB     280      PMPE     H3X      HAL2     0.900000E-01   1.00800           0
     34775 MEMB     280      PMPE     H3Y      HAL2     0.900000E-01   1.00800           0
     34776 MEMB     280      PMPE     C34      CTL2    -0.180000       12.0110           0
     34777 MEMB     280      PMPE     H4X      HAL2     0.900000E-01   1.00800           0
     34778 MEMB     280      PMPE     H4Y      HAL2     0.900000E-01   1.00800           0
     34779 MEMB     280      PMPE     C35      CTL2    -0.180000       12.0110           0
     34780 MEMB     280      PMPE     H5X      HAL2     0.900000E-01   1.00800           0
     34781 MEMB     280      PMPE     H5Y      HAL2     0.900000E-01   1.00800           0
     34782 MEMB     280      PMPE     C36      CTL2    -0.180000       12.0110           0
     34783 MEMB     280      PMPE     H6X      HAL2     0.900000E-01   1.00800           0
     34784 MEMB     280      PMPE     H6Y      HAL2     0.900000E-01   1.00800           0
     34785 MEMB     280      PMPE     C37      CTL2    -0.180000       12.0110           0
     34786 MEMB     280      PMPE     H7X      HAL2     0.900000E-01   1.00800           0
     34787 MEMB     280      PMPE     H7Y      HAL2     0.900000E-01   1.00800           0
     34788 MEMB     280      PMPE     C38      CTL2    -0.180000       12.0110           0
     34789 MEMB     280      PMPE     H8X      HAL2     0.900000E-01   1.00800           0
     34790 MEMB     280      PMPE     H8Y      HAL2     0.900000E-01   1.00800           0
     34791 MEMB     280      PMPE     C39      CTL2    -0.180000       12.0110           0
     34792 MEMB     280      PMPE     H9X      HAL2     0.900000E-01   1.00800           0
     34793 MEMB     280      PMPE     H9Y      HAL2     0.900000E-01   1.00800           0
     34794 MEMB     280      PMPE     C310     CTL2    -0.180000       12.0110           0
     34795 MEMB     280      PMPE     H10X     HAL2     0.900000E-01   1.00800           0
     34796 MEMB     280      PMPE     H10Y     HAL2     0.900000E-01   1.00800           0
     34797 MEMB     280      PMPE     C311     CTL2    -0.180000       12.0110           0
     34798 MEMB     280      PMPE     H11X     HAL2     0.900000E-01   1.00800           0
     34799 MEMB     280      PMPE     H11Y     HAL2     0.900000E-01   1.00800           0
     34800 MEMB     280      PMPE     C312     CTL2    -0.180000       12.0110           0
     34801 MEMB     280      PMPE     H12X     HAL2     0.900000E-01   1.00800           0
     34802 MEMB     280      PMPE     H12Y     HAL2     0.900000E-01   1.00800           0
     34803 MEMB     280      PMPE     C313     CTL2    -0.180000       12.0110           0
     34804 MEMB     280      PMPE     H13X     HAL2     0.900000E-01   1.00800           0
     34805 MEMB     280      PMPE     H13Y     HAL2     0.900000E-01   1.00800           0
     34806 MEMB     280      PMPE     C314     CTL2    -0.180000       12.0110           0
     34807 MEMB     280      PMPE     H14X     HAL2     0.900000E-01   1.00800           0
     34808 MEMB     280      PMPE     H14Y     HAL2     0.900000E-01   1.00800           0
     34809 MEMB     280      PMPE     C315     CTL2    -0.180000       12.0110           0
     34810 MEMB     280      PMPE     H15X     HAL2     0.900000E-01   1.00800           0
     34811 MEMB     280      PMPE     H15Y     HAL2     0.900000E-01   1.00800           0
     34812 MEMB     280      PMPE     C316     CTL3    -0.270000       12.0110           0
     34813 MEMB     280      PMPE     H16X     HAL3     0.900000E-01   1.00800           0
     34814 MEMB     280      PMPE     H16Y     HAL3     0.900000E-01   1.00800           0
     34815 MEMB     280      PMPE     H16Z     HAL3     0.900000E-01   1.00800           0
     34816 MEMB     281      PYPG     C13      CTL2     0.500000E-01   12.0110           0
     34817 MEMB     281      PYPG     H13A     HAL2     0.900000E-01   1.00800           0
     34818 MEMB     281      PYPG     H13B     HAL2     0.900000E-01   1.00800           0
     34819 MEMB     281      PYPG     OC3      OHL     -0.660000       15.9994           0
     34820 MEMB     281      PYPG     HO3      HOL      0.430000       1.00800           0
     34821 MEMB     281      PYPG     C12      CTL1     0.140000       12.0110           0
     34822 MEMB     281      PYPG     H12A     HAL1     0.900000E-01   1.00800           0
     34823 MEMB     281      PYPG     OC2      OHL     -0.660000       15.9994           0
     34824 MEMB     281      PYPG     HO2      HOL      0.430000       1.00800           0
     34825 MEMB     281      PYPG     C11      CTL2    -0.800000E-01   12.0110           0
     34826 MEMB     281      PYPG     H11A     HAL2     0.900000E-01   1.00800           0
     34827 MEMB     281      PYPG     H11B     HAL2     0.900000E-01   1.00800           0
     34828 MEMB     281      PYPG     P        PL        1.50000       30.9740           0
     34829 MEMB     281      PYPG     O13      O2L     -0.780000       15.9994           0
     34830 MEMB     281      PYPG     O14      O2L     -0.780000       15.9994           0
     34831 MEMB     281      PYPG     O11      OSLP    -0.570000       15.9994           0
     34832 MEMB     281      PYPG     O12      OSLP    -0.570000       15.9994           0
     34833 MEMB     281      PYPG     C1       CTL2    -0.800000E-01   12.0110           0
     34834 MEMB     281      PYPG     HA       HAL2     0.900000E-01   1.00800           0
     34835 MEMB     281      PYPG     HB       HAL2     0.900000E-01   1.00800           0
     34836 MEMB     281      PYPG     C2       CTL1     0.170000       12.0110           0
     34837 MEMB     281      PYPG     HS       HAL1     0.900000E-01   1.00800           0
     34838 MEMB     281      PYPG     O21      OSL     -0.490000       15.9994           0
     34839 MEMB     281      PYPG     C21      CL       0.900000       12.0110           0
     34840 MEMB     281      PYPG     O22      OBL     -0.630000       15.9994           0
     34841 MEMB     281      PYPG     C22      CTL2    -0.220000       12.0110           0
     34842 MEMB     281      PYPG     H2R      HAL2     0.900000E-01   1.00800           0
     34843 MEMB     281      PYPG     H2S      HAL2     0.900000E-01   1.00800           0
     34844 MEMB     281      PYPG     C3       CTL2     0.800000E-01   12.0110           0
     34845 MEMB     281      PYPG     HX       HAL2     0.900000E-01   1.00800           0
     34846 MEMB     281      PYPG     HY       HAL2     0.900000E-01   1.00800           0
     34847 MEMB     281      PYPG     O31      OSL     -0.490000       15.9994           0
     34848 MEMB     281      PYPG     C31      CL       0.900000       12.0110           0
     34849 MEMB     281      PYPG     O32      OBL     -0.630000       15.9994           0
     34850 MEMB     281      PYPG     C32      CTL2    -0.220000       12.0110           0
     34851 MEMB     281      PYPG     H2X      HAL2     0.900000E-01   1.00800           0
     34852 MEMB     281      PYPG     H2Y      HAL2     0.900000E-01   1.00800           0
     34853 MEMB     281      PYPG     C23      CTL2    -0.180000       12.0110           0
     34854 MEMB     281      PYPG     H3R      HAL2     0.900000E-01   1.00800           0
     34855 MEMB     281      PYPG     H3S      HAL2     0.900000E-01   1.00800           0
     34856 MEMB     281      PYPG     C24      CTL2    -0.180000       12.0110           0
     34857 MEMB     281      PYPG     H4R      HAL2     0.900000E-01   1.00800           0
     34858 MEMB     281      PYPG     H4S      HAL2     0.900000E-01   1.00800           0
     34859 MEMB     281      PYPG     C25      CTL2    -0.180000       12.0110           0
     34860 MEMB     281      PYPG     H5R      HAL2     0.900000E-01   1.00800           0
     34861 MEMB     281      PYPG     H5S      HAL2     0.900000E-01   1.00800           0
     34862 MEMB     281      PYPG     C26      CTL2    -0.180000       12.0110           0
     34863 MEMB     281      PYPG     H6R      HAL2     0.900000E-01   1.00800           0
     34864 MEMB     281      PYPG     H6S      HAL2     0.900000E-01   1.00800           0
     34865 MEMB     281      PYPG     C27      CTL2    -0.180000       12.0110           0
     34866 MEMB     281      PYPG     H7R      HAL2     0.900000E-01   1.00800           0
     34867 MEMB     281      PYPG     H7S      HAL2     0.900000E-01   1.00800           0
     34868 MEMB     281      PYPG     C28      CTL2    -0.180000       12.0110           0
     34869 MEMB     281      PYPG     H8R      HAL2     0.900000E-01   1.00800           0
     34870 MEMB     281      PYPG     H8S      HAL2     0.900000E-01   1.00800           0
     34871 MEMB     281      PYPG     C29      CEL1    -0.150000       12.0110           0
     34872 MEMB     281      PYPG     H9R      HEL1     0.150000       1.00800           0
     34873 MEMB     281      PYPG     C210     CEL1    -0.150000       12.0110           0
     34874 MEMB     281      PYPG     H10R     HEL1     0.150000       1.00800           0
     34875 MEMB     281      PYPG     C211     CTL2    -0.180000       12.0110           0
     34876 MEMB     281      PYPG     H11R     HAL2     0.900000E-01   1.00800           0
     34877 MEMB     281      PYPG     H11S     HAL2     0.900000E-01   1.00800           0
     34878 MEMB     281      PYPG     C212     CTL2    -0.180000       12.0110           0
     34879 MEMB     281      PYPG     H12R     HAL2     0.900000E-01   1.00800           0
     34880 MEMB     281      PYPG     H12S     HAL2     0.900000E-01   1.00800           0
     34881 MEMB     281      PYPG     C213     CTL2    -0.180000       12.0110           0
     34882 MEMB     281      PYPG     H13R     HAL2     0.900000E-01   1.00800           0
     34883 MEMB     281      PYPG     H13S     HAL2     0.900000E-01   1.00800           0
     34884 MEMB     281      PYPG     C214     CTL2    -0.180000       12.0110           0
     34885 MEMB     281      PYPG     H14R     HAL2     0.900000E-01   1.00800           0
     34886 MEMB     281      PYPG     H14S     HAL2     0.900000E-01   1.00800           0
     34887 MEMB     281      PYPG     C215     CTL2    -0.180000       12.0110           0
     34888 MEMB     281      PYPG     H15R     HAL2     0.900000E-01   1.00800           0
     34889 MEMB     281      PYPG     H15S     HAL2     0.900000E-01   1.00800           0
     34890 MEMB     281      PYPG     C216     CTL3    -0.270000       12.0110           0
     34891 MEMB     281      PYPG     H16R     HAL3     0.900000E-01   1.00800           0
     34892 MEMB     281      PYPG     H16S     HAL3     0.900000E-01   1.00800           0
     34893 MEMB     281      PYPG     H16T     HAL3     0.900000E-01   1.00800           0
     34894 MEMB     281      PYPG     C33      CTL2    -0.180000       12.0110           0
     34895 MEMB     281      PYPG     H3X      HAL2     0.900000E-01   1.00800           0
     34896 MEMB     281      PYPG     H3Y      HAL2     0.900000E-01   1.00800           0
     34897 MEMB     281      PYPG     C34      CTL2    -0.180000       12.0110           0
     34898 MEMB     281      PYPG     H4X      HAL2     0.900000E-01   1.00800           0
     34899 MEMB     281      PYPG     H4Y      HAL2     0.900000E-01   1.00800           0
     34900 MEMB     281      PYPG     C35      CTL2    -0.180000       12.0110           0
     34901 MEMB     281      PYPG     H5X      HAL2     0.900000E-01   1.00800           0
     34902 MEMB     281      PYPG     H5Y      HAL2     0.900000E-01   1.00800           0
     34903 MEMB     281      PYPG     C36      CTL2    -0.180000       12.0110           0
     34904 MEMB     281      PYPG     H6X      HAL2     0.900000E-01   1.00800           0
     34905 MEMB     281      PYPG     H6Y      HAL2     0.900000E-01   1.00800           0
     34906 MEMB     281      PYPG     C37      CTL2    -0.180000       12.0110           0
     34907 MEMB     281      PYPG     H7X      HAL2     0.900000E-01   1.00800           0
     34908 MEMB     281      PYPG     H7Y      HAL2     0.900000E-01   1.00800           0
     34909 MEMB     281      PYPG     C38      CTL2    -0.180000       12.0110           0
     34910 MEMB     281      PYPG     H8X      HAL2     0.900000E-01   1.00800           0
     34911 MEMB     281      PYPG     H8Y      HAL2     0.900000E-01   1.00800           0
     34912 MEMB     281      PYPG     C39      CTL2    -0.180000       12.0110           0
     34913 MEMB     281      PYPG     H9X      HAL2     0.900000E-01   1.00800           0
     34914 MEMB     281      PYPG     H9Y      HAL2     0.900000E-01   1.00800           0
     34915 MEMB     281      PYPG     C310     CTL2    -0.180000       12.0110           0
     34916 MEMB     281      PYPG     H10X     HAL2     0.900000E-01   1.00800           0
     34917 MEMB     281      PYPG     H10Y     HAL2     0.900000E-01   1.00800           0
     34918 MEMB     281      PYPG     C311     CTL2    -0.180000       12.0110           0
     34919 MEMB     281      PYPG     H11X     HAL2     0.900000E-01   1.00800           0
     34920 MEMB     281      PYPG     H11Y     HAL2     0.900000E-01   1.00800           0
     34921 MEMB     281      PYPG     C312     CTL2    -0.180000       12.0110           0
     34922 MEMB     281      PYPG     H12X     HAL2     0.900000E-01   1.00800           0
     34923 MEMB     281      PYPG     H12Y     HAL2     0.900000E-01   1.00800           0
     34924 MEMB     281      PYPG     C313     CTL2    -0.180000       12.0110           0
     34925 MEMB     281      PYPG     H13X     HAL2     0.900000E-01   1.00800           0
     34926 MEMB     281      PYPG     H13Y     HAL2     0.900000E-01   1.00800           0
     34927 MEMB     281      PYPG     C314     CTL2    -0.180000       12.0110           0
     34928 MEMB     281      PYPG     H14X     HAL2     0.900000E-01   1.00800           0
     34929 MEMB     281      PYPG     H14Y     HAL2     0.900000E-01   1.00800           0
     34930 MEMB     281      PYPG     C315     CTL2    -0.180000       12.0110           0
     34931 MEMB     281      PYPG     H15X     HAL2     0.900000E-01   1.00800           0
     34932 MEMB     281      PYPG     H15Y     HAL2     0.900000E-01   1.00800           0
     34933 MEMB     281      PYPG     C316     CTL3    -0.270000       12.0110           0
     34934 MEMB     281      PYPG     H16X     HAL3     0.900000E-01   1.00800           0
     34935 MEMB     281      PYPG     H16Y     HAL3     0.900000E-01   1.00800           0
     34936 MEMB     281      PYPG     H16Z     HAL3     0.900000E-01   1.00800           0
     34937 MEMB     282      PYPG     C13      CTL2     0.500000E-01   12.0110           0
     34938 MEMB     282      PYPG     H13A     HAL2     0.900000E-01   1.00800           0
     34939 MEMB     282      PYPG     H13B     HAL2     0.900000E-01   1.00800           0
     34940 MEMB     282      PYPG     OC3      OHL     -0.660000       15.9994           0
     34941 MEMB     282      PYPG     HO3      HOL      0.430000       1.00800           0
     34942 MEMB     282      PYPG     C12      CTL1     0.140000       12.0110           0
     34943 MEMB     282      PYPG     H12A     HAL1     0.900000E-01   1.00800           0
     34944 MEMB     282      PYPG     OC2      OHL     -0.660000       15.9994           0
     34945 MEMB     282      PYPG     HO2      HOL      0.430000       1.00800           0
     34946 MEMB     282      PYPG     C11      CTL2    -0.800000E-01   12.0110           0
     34947 MEMB     282      PYPG     H11A     HAL2     0.900000E-01   1.00800           0
     34948 MEMB     282      PYPG     H11B     HAL2     0.900000E-01   1.00800           0
     34949 MEMB     282      PYPG     P        PL        1.50000       30.9740           0
     34950 MEMB     282      PYPG     O13      O2L     -0.780000       15.9994           0
     34951 MEMB     282      PYPG     O14      O2L     -0.780000       15.9994           0
     34952 MEMB     282      PYPG     O11      OSLP    -0.570000       15.9994           0
     34953 MEMB     282      PYPG     O12      OSLP    -0.570000       15.9994           0
     34954 MEMB     282      PYPG     C1       CTL2    -0.800000E-01   12.0110           0
     34955 MEMB     282      PYPG     HA       HAL2     0.900000E-01   1.00800           0
     34956 MEMB     282      PYPG     HB       HAL2     0.900000E-01   1.00800           0
     34957 MEMB     282      PYPG     C2       CTL1     0.170000       12.0110           0
     34958 MEMB     282      PYPG     HS       HAL1     0.900000E-01   1.00800           0
     34959 MEMB     282      PYPG     O21      OSL     -0.490000       15.9994           0
     34960 MEMB     282      PYPG     C21      CL       0.900000       12.0110           0
     34961 MEMB     282      PYPG     O22      OBL     -0.630000       15.9994           0
     34962 MEMB     282      PYPG     C22      CTL2    -0.220000       12.0110           0
     34963 MEMB     282      PYPG     H2R      HAL2     0.900000E-01   1.00800           0
     34964 MEMB     282      PYPG     H2S      HAL2     0.900000E-01   1.00800           0
     34965 MEMB     282      PYPG     C3       CTL2     0.800000E-01   12.0110           0
     34966 MEMB     282      PYPG     HX       HAL2     0.900000E-01   1.00800           0
     34967 MEMB     282      PYPG     HY       HAL2     0.900000E-01   1.00800           0
     34968 MEMB     282      PYPG     O31      OSL     -0.490000       15.9994           0
     34969 MEMB     282      PYPG     C31      CL       0.900000       12.0110           0
     34970 MEMB     282      PYPG     O32      OBL     -0.630000       15.9994           0
     34971 MEMB     282      PYPG     C32      CTL2    -0.220000       12.0110           0
     34972 MEMB     282      PYPG     H2X      HAL2     0.900000E-01   1.00800           0
     34973 MEMB     282      PYPG     H2Y      HAL2     0.900000E-01   1.00800           0
     34974 MEMB     282      PYPG     C23      CTL2    -0.180000       12.0110           0
     34975 MEMB     282      PYPG     H3R      HAL2     0.900000E-01   1.00800           0
     34976 MEMB     282      PYPG     H3S      HAL2     0.900000E-01   1.00800           0
     34977 MEMB     282      PYPG     C24      CTL2    -0.180000       12.0110           0
     34978 MEMB     282      PYPG     H4R      HAL2     0.900000E-01   1.00800           0
     34979 MEMB     282      PYPG     H4S      HAL2     0.900000E-01   1.00800           0
     34980 MEMB     282      PYPG     C25      CTL2    -0.180000       12.0110           0
     34981 MEMB     282      PYPG     H5R      HAL2     0.900000E-01   1.00800           0
     34982 MEMB     282      PYPG     H5S      HAL2     0.900000E-01   1.00800           0
     34983 MEMB     282      PYPG     C26      CTL2    -0.180000       12.0110           0
     34984 MEMB     282      PYPG     H6R      HAL2     0.900000E-01   1.00800           0
     34985 MEMB     282      PYPG     H6S      HAL2     0.900000E-01   1.00800           0
     34986 MEMB     282      PYPG     C27      CTL2    -0.180000       12.0110           0
     34987 MEMB     282      PYPG     H7R      HAL2     0.900000E-01   1.00800           0
     34988 MEMB     282      PYPG     H7S      HAL2     0.900000E-01   1.00800           0
     34989 MEMB     282      PYPG     C28      CTL2    -0.180000       12.0110           0
     34990 MEMB     282      PYPG     H8R      HAL2     0.900000E-01   1.00800           0
     34991 MEMB     282      PYPG     H8S      HAL2     0.900000E-01   1.00800           0
     34992 MEMB     282      PYPG     C29      CEL1    -0.150000       12.0110           0
     34993 MEMB     282      PYPG     H9R      HEL1     0.150000       1.00800           0
     34994 MEMB     282      PYPG     C210     CEL1    -0.150000       12.0110           0
     34995 MEMB     282      PYPG     H10R     HEL1     0.150000       1.00800           0
     34996 MEMB     282      PYPG     C211     CTL2    -0.180000       12.0110           0
     34997 MEMB     282      PYPG     H11R     HAL2     0.900000E-01   1.00800           0
     34998 MEMB     282      PYPG     H11S     HAL2     0.900000E-01   1.00800           0
     34999 MEMB     282      PYPG     C212     CTL2    -0.180000       12.0110           0
     35000 MEMB     282      PYPG     H12R     HAL2     0.900000E-01   1.00800           0
     35001 MEMB     282      PYPG     H12S     HAL2     0.900000E-01   1.00800           0
     35002 MEMB     282      PYPG     C213     CTL2    -0.180000       12.0110           0
     35003 MEMB     282      PYPG     H13R     HAL2     0.900000E-01   1.00800           0
     35004 MEMB     282      PYPG     H13S     HAL2     0.900000E-01   1.00800           0
     35005 MEMB     282      PYPG     C214     CTL2    -0.180000       12.0110           0
     35006 MEMB     282      PYPG     H14R     HAL2     0.900000E-01   1.00800           0
     35007 MEMB     282      PYPG     H14S     HAL2     0.900000E-01   1.00800           0
     35008 MEMB     282      PYPG     C215     CTL2    -0.180000       12.0110           0
     35009 MEMB     282      PYPG     H15R     HAL2     0.900000E-01   1.00800           0
     35010 MEMB     282      PYPG     H15S     HAL2     0.900000E-01   1.00800           0
     35011 MEMB     282      PYPG     C216     CTL3    -0.270000       12.0110           0
     35012 MEMB     282      PYPG     H16R     HAL3     0.900000E-01   1.00800           0
     35013 MEMB     282      PYPG     H16S     HAL3     0.900000E-01   1.00800           0
     35014 MEMB     282      PYPG     H16T     HAL3     0.900000E-01   1.00800           0
     35015 MEMB     282      PYPG     C33      CTL2    -0.180000       12.0110           0
     35016 MEMB     282      PYPG     H3X      HAL2     0.900000E-01   1.00800           0
     35017 MEMB     282      PYPG     H3Y      HAL2     0.900000E-01   1.00800           0
     35018 MEMB     282      PYPG     C34      CTL2    -0.180000       12.0110           0
     35019 MEMB     282      PYPG     H4X      HAL2     0.900000E-01   1.00800           0
     35020 MEMB     282      PYPG     H4Y      HAL2     0.900000E-01   1.00800           0
     35021 MEMB     282      PYPG     C35      CTL2    -0.180000       12.0110           0
     35022 MEMB     282      PYPG     H5X      HAL2     0.900000E-01   1.00800           0
     35023 MEMB     282      PYPG     H5Y      HAL2     0.900000E-01   1.00800           0
     35024 MEMB     282      PYPG     C36      CTL2    -0.180000       12.0110           0
     35025 MEMB     282      PYPG     H6X      HAL2     0.900000E-01   1.00800           0
     35026 MEMB     282      PYPG     H6Y      HAL2     0.900000E-01   1.00800           0
     35027 MEMB     282      PYPG     C37      CTL2    -0.180000       12.0110           0
     35028 MEMB     282      PYPG     H7X      HAL2     0.900000E-01   1.00800           0
     35029 MEMB     282      PYPG     H7Y      HAL2     0.900000E-01   1.00800           0
     35030 MEMB     282      PYPG     C38      CTL2    -0.180000       12.0110           0
     35031 MEMB     282      PYPG     H8X      HAL2     0.900000E-01   1.00800           0
     35032 MEMB     282      PYPG     H8Y      HAL2     0.900000E-01   1.00800           0
     35033 MEMB     282      PYPG     C39      CTL2    -0.180000       12.0110           0
     35034 MEMB     282      PYPG     H9X      HAL2     0.900000E-01   1.00800           0
     35035 MEMB     282      PYPG     H9Y      HAL2     0.900000E-01   1.00800           0
     35036 MEMB     282      PYPG     C310     CTL2    -0.180000       12.0110           0
     35037 MEMB     282      PYPG     H10X     HAL2     0.900000E-01   1.00800           0
     35038 MEMB     282      PYPG     H10Y     HAL2     0.900000E-01   1.00800           0
     35039 MEMB     282      PYPG     C311     CTL2    -0.180000       12.0110           0
     35040 MEMB     282      PYPG     H11X     HAL2     0.900000E-01   1.00800           0
     35041 MEMB     282      PYPG     H11Y     HAL2     0.900000E-01   1.00800           0
     35042 MEMB     282      PYPG     C312     CTL2    -0.180000       12.0110           0
     35043 MEMB     282      PYPG     H12X     HAL2     0.900000E-01   1.00800           0
     35044 MEMB     282      PYPG     H12Y     HAL2     0.900000E-01   1.00800           0
     35045 MEMB     282      PYPG     C313     CTL2    -0.180000       12.0110           0
     35046 MEMB     282      PYPG     H13X     HAL2     0.900000E-01   1.00800           0
     35047 MEMB     282      PYPG     H13Y     HAL2     0.900000E-01   1.00800           0
     35048 MEMB     282      PYPG     C314     CTL2    -0.180000       12.0110           0
     35049 MEMB     282      PYPG     H14X     HAL2     0.900000E-01   1.00800           0
     35050 MEMB     282      PYPG     H14Y     HAL2     0.900000E-01   1.00800           0
     35051 MEMB     282      PYPG     C315     CTL2    -0.180000       12.0110           0
     35052 MEMB     282      PYPG     H15X     HAL2     0.900000E-01   1.00800           0
     35053 MEMB     282      PYPG     H15Y     HAL2     0.900000E-01   1.00800           0
     35054 MEMB     282      PYPG     C316     CTL3    -0.270000       12.0110           0
     35055 MEMB     282      PYPG     H16X     HAL3     0.900000E-01   1.00800           0
     35056 MEMB     282      PYPG     H16Y     HAL3     0.900000E-01   1.00800           0
     35057 MEMB     282      PYPG     H16Z     HAL3     0.900000E-01   1.00800           0
     35058 MEMB     283      PMPE     N        NH3L    -0.300000       14.0070           0
     35059 MEMB     283      PMPE     HN1      HCL      0.330000       1.00800           0
     35060 MEMB     283      PMPE     HN2      HCL      0.330000       1.00800           0
     35061 MEMB     283      PMPE     HN3      HCL      0.330000       1.00800           0
     35062 MEMB     283      PMPE     C12      CTL2     0.130000       12.0110           0
     35063 MEMB     283      PMPE     H12A     HAL2     0.900000E-01   1.00800           0
     35064 MEMB     283      PMPE     H12B     HAL2     0.900000E-01   1.00800           0
     35065 MEMB     283      PMPE     C11      CTL2    -0.800000E-01   12.0110           0
     35066 MEMB     283      PMPE     H11A     HAL2     0.900000E-01   1.00800           0
     35067 MEMB     283      PMPE     H11B     HAL2     0.900000E-01   1.00800           0
     35068 MEMB     283      PMPE     P        PL        1.50000       30.9740           0
     35069 MEMB     283      PMPE     O13      O2L     -0.780000       15.9994           0
     35070 MEMB     283      PMPE     O14      O2L     -0.780000       15.9994           0
     35071 MEMB     283      PMPE     O11      OSLP    -0.570000       15.9994           0
     35072 MEMB     283      PMPE     O12      OSLP    -0.570000       15.9994           0
     35073 MEMB     283      PMPE     C1       CTL2    -0.800000E-01   12.0110           0
     35074 MEMB     283      PMPE     HA       HAL2     0.900000E-01   1.00800           0
     35075 MEMB     283      PMPE     HB       HAL2     0.900000E-01   1.00800           0
     35076 MEMB     283      PMPE     C2       CTL1     0.170000       12.0110           0
     35077 MEMB     283      PMPE     HS       HAL1     0.900000E-01   1.00800           0
     35078 MEMB     283      PMPE     O21      OSL     -0.490000       15.9994           0
     35079 MEMB     283      PMPE     C21      CL       0.900000       12.0110           0
     35080 MEMB     283      PMPE     O22      OBL     -0.630000       15.9994           0
     35081 MEMB     283      PMPE     C22      CTL2    -0.220000       12.0110           0
     35082 MEMB     283      PMPE     H2R      HAL2     0.900000E-01   1.00800           0
     35083 MEMB     283      PMPE     H2S      HAL2     0.900000E-01   1.00800           0
     35084 MEMB     283      PMPE     C3       CTL2     0.800000E-01   12.0110           0
     35085 MEMB     283      PMPE     HX       HAL2     0.900000E-01   1.00800           0
     35086 MEMB     283      PMPE     HY       HAL2     0.900000E-01   1.00800           0
     35087 MEMB     283      PMPE     O31      OSL     -0.490000       15.9994           0
     35088 MEMB     283      PMPE     C31      CL       0.900000       12.0110           0
     35089 MEMB     283      PMPE     O32      OBL     -0.630000       15.9994           0
     35090 MEMB     283      PMPE     C32      CTL2    -0.220000       12.0110           0
     35091 MEMB     283      PMPE     H2X      HAL2     0.900000E-01   1.00800           0
     35092 MEMB     283      PMPE     H2Y      HAL2     0.900000E-01   1.00800           0
     35093 MEMB     283      PMPE     C23      CTL2    -0.180000       12.0110           0
     35094 MEMB     283      PMPE     H3R      HAL2     0.900000E-01   1.00800           0
     35095 MEMB     283      PMPE     H3S      HAL2     0.900000E-01   1.00800           0
     35096 MEMB     283      PMPE     C24      CTL2    -0.180000       12.0110           0
     35097 MEMB     283      PMPE     H4R      HAL2     0.900000E-01   1.00800           0
     35098 MEMB     283      PMPE     H4S      HAL2     0.900000E-01   1.00800           0
     35099 MEMB     283      PMPE     C25      CTL2    -0.180000       12.0110           0
     35100 MEMB     283      PMPE     H5R      HAL2     0.900000E-01   1.00800           0
     35101 MEMB     283      PMPE     H5S      HAL2     0.900000E-01   1.00800           0
     35102 MEMB     283      PMPE     C26      CTL2    -0.180000       12.0110           0
     35103 MEMB     283      PMPE     H6R      HAL2     0.900000E-01   1.00800           0
     35104 MEMB     283      PMPE     H6S      HAL2     0.900000E-01   1.00800           0
     35105 MEMB     283      PMPE     C27      CTL2    -0.180000       12.0110           0
     35106 MEMB     283      PMPE     H7R      HAL2     0.900000E-01   1.00800           0
     35107 MEMB     283      PMPE     H7S      HAL2     0.900000E-01   1.00800           0
     35108 MEMB     283      PMPE     C28      CTL2    -0.180000       12.0110           0
     35109 MEMB     283      PMPE     H8R      HAL2     0.900000E-01   1.00800           0
     35110 MEMB     283      PMPE     H8S      HAL2     0.900000E-01   1.00800           0
     35111 MEMB     283      PMPE     C29      CG3RC1  -0.900000E-01   12.0110           0
     35112 MEMB     283      PMPE     H9R      HGA1     0.900000E-01   1.00800           0
     35113 MEMB     283      PMPE     C217     CG3C31  -0.180000       12.0110           0
     35114 MEMB     283      PMPE     H17R     HGA2     0.900000E-01   1.00800           0
     35115 MEMB     283      PMPE     H17S     HGA2     0.900000E-01   1.00800           0
     35116 MEMB     283      PMPE     C210     CG3RC1  -0.900000E-01   12.0110           0
     35117 MEMB     283      PMPE     H10R     HGA1     0.900000E-01   1.00800           0
     35118 MEMB     283      PMPE     C211     CTL2    -0.180000       12.0110           0
     35119 MEMB     283      PMPE     H11R     HAL2     0.900000E-01   1.00800           0
     35120 MEMB     283      PMPE     H11S     HAL2     0.900000E-01   1.00800           0
     35121 MEMB     283      PMPE     C212     CTL2    -0.180000       12.0110           0
     35122 MEMB     283      PMPE     H12R     HAL2     0.900000E-01   1.00800           0
     35123 MEMB     283      PMPE     H12S     HAL2     0.900000E-01   1.00800           0
     35124 MEMB     283      PMPE     C213     CTL2    -0.180000       12.0110           0
     35125 MEMB     283      PMPE     H13R     HAL2     0.900000E-01   1.00800           0
     35126 MEMB     283      PMPE     H13S     HAL2     0.900000E-01   1.00800           0
     35127 MEMB     283      PMPE     C214     CTL2    -0.180000       12.0110           0
     35128 MEMB     283      PMPE     H14R     HAL2     0.900000E-01   1.00800           0
     35129 MEMB     283      PMPE     H14S     HAL2     0.900000E-01   1.00800           0
     35130 MEMB     283      PMPE     C215     CTL2    -0.180000       12.0110           0
     35131 MEMB     283      PMPE     H15R     HAL2     0.900000E-01   1.00800           0
     35132 MEMB     283      PMPE     H15S     HAL2     0.900000E-01   1.00800           0
     35133 MEMB     283      PMPE     C216     CTL3    -0.270000       12.0110           0
     35134 MEMB     283      PMPE     H16R     HAL3     0.900000E-01   1.00800           0
     35135 MEMB     283      PMPE     H16S     HAL3     0.900000E-01   1.00800           0
     35136 MEMB     283      PMPE     H16T     HAL3     0.900000E-01   1.00800           0
     35137 MEMB     283      PMPE     C33      CTL2    -0.180000       12.0110           0
     35138 MEMB     283      PMPE     H3X      HAL2     0.900000E-01   1.00800           0
     35139 MEMB     283      PMPE     H3Y      HAL2     0.900000E-01   1.00800           0
     35140 MEMB     283      PMPE     C34      CTL2    -0.180000       12.0110           0
     35141 MEMB     283      PMPE     H4X      HAL2     0.900000E-01   1.00800           0
     35142 MEMB     283      PMPE     H4Y      HAL2     0.900000E-01   1.00800           0
     35143 MEMB     283      PMPE     C35      CTL2    -0.180000       12.0110           0
     35144 MEMB     283      PMPE     H5X      HAL2     0.900000E-01   1.00800           0
     35145 MEMB     283      PMPE     H5Y      HAL2     0.900000E-01   1.00800           0
     35146 MEMB     283      PMPE     C36      CTL2    -0.180000       12.0110           0
     35147 MEMB     283      PMPE     H6X      HAL2     0.900000E-01   1.00800           0
     35148 MEMB     283      PMPE     H6Y      HAL2     0.900000E-01   1.00800           0
     35149 MEMB     283      PMPE     C37      CTL2    -0.180000       12.0110           0
     35150 MEMB     283      PMPE     H7X      HAL2     0.900000E-01   1.00800           0
     35151 MEMB     283      PMPE     H7Y      HAL2     0.900000E-01   1.00800           0
     35152 MEMB     283      PMPE     C38      CTL2    -0.180000       12.0110           0
     35153 MEMB     283      PMPE     H8X      HAL2     0.900000E-01   1.00800           0
     35154 MEMB     283      PMPE     H8Y      HAL2     0.900000E-01   1.00800           0
     35155 MEMB     283      PMPE     C39      CTL2    -0.180000       12.0110           0
     35156 MEMB     283      PMPE     H9X      HAL2     0.900000E-01   1.00800           0
     35157 MEMB     283      PMPE     H9Y      HAL2     0.900000E-01   1.00800           0
     35158 MEMB     283      PMPE     C310     CTL2    -0.180000       12.0110           0
     35159 MEMB     283      PMPE     H10X     HAL2     0.900000E-01   1.00800           0
     35160 MEMB     283      PMPE     H10Y     HAL2     0.900000E-01   1.00800           0
     35161 MEMB     283      PMPE     C311     CTL2    -0.180000       12.0110           0
     35162 MEMB     283      PMPE     H11X     HAL2     0.900000E-01   1.00800           0
     35163 MEMB     283      PMPE     H11Y     HAL2     0.900000E-01   1.00800           0
     35164 MEMB     283      PMPE     C312     CTL2    -0.180000       12.0110           0
     35165 MEMB     283      PMPE     H12X     HAL2     0.900000E-01   1.00800           0
     35166 MEMB     283      PMPE     H12Y     HAL2     0.900000E-01   1.00800           0
     35167 MEMB     283      PMPE     C313     CTL2    -0.180000       12.0110           0
     35168 MEMB     283      PMPE     H13X     HAL2     0.900000E-01   1.00800           0
     35169 MEMB     283      PMPE     H13Y     HAL2     0.900000E-01   1.00800           0
     35170 MEMB     283      PMPE     C314     CTL2    -0.180000       12.0110           0
     35171 MEMB     283      PMPE     H14X     HAL2     0.900000E-01   1.00800           0
     35172 MEMB     283      PMPE     H14Y     HAL2     0.900000E-01   1.00800           0
     35173 MEMB     283      PMPE     C315     CTL2    -0.180000       12.0110           0
     35174 MEMB     283      PMPE     H15X     HAL2     0.900000E-01   1.00800           0
     35175 MEMB     283      PMPE     H15Y     HAL2     0.900000E-01   1.00800           0
     35176 MEMB     283      PMPE     C316     CTL3    -0.270000       12.0110           0
     35177 MEMB     283      PMPE     H16X     HAL3     0.900000E-01   1.00800           0
     35178 MEMB     283      PMPE     H16Y     HAL3     0.900000E-01   1.00800           0
     35179 MEMB     283      PMPE     H16Z     HAL3     0.900000E-01   1.00800           0
     35180 MEMB     284      PYPG     C13      CTL2     0.500000E-01   12.0110           0
     35181 MEMB     284      PYPG     H13A     HAL2     0.900000E-01   1.00800           0
     35182 MEMB     284      PYPG     H13B     HAL2     0.900000E-01   1.00800           0
     35183 MEMB     284      PYPG     OC3      OHL     -0.660000       15.9994           0
     35184 MEMB     284      PYPG     HO3      HOL      0.430000       1.00800           0
     35185 MEMB     284      PYPG     C12      CTL1     0.140000       12.0110           0
     35186 MEMB     284      PYPG     H12A     HAL1     0.900000E-01   1.00800           0
     35187 MEMB     284      PYPG     OC2      OHL     -0.660000       15.9994           0
     35188 MEMB     284      PYPG     HO2      HOL      0.430000       1.00800           0
     35189 MEMB     284      PYPG     C11      CTL2    -0.800000E-01   12.0110           0
     35190 MEMB     284      PYPG     H11A     HAL2     0.900000E-01   1.00800           0
     35191 MEMB     284      PYPG     H11B     HAL2     0.900000E-01   1.00800           0
     35192 MEMB     284      PYPG     P        PL        1.50000       30.9740           0
     35193 MEMB     284      PYPG     O13      O2L     -0.780000       15.9994           0
     35194 MEMB     284      PYPG     O14      O2L     -0.780000       15.9994           0
     35195 MEMB     284      PYPG     O11      OSLP    -0.570000       15.9994           0
     35196 MEMB     284      PYPG     O12      OSLP    -0.570000       15.9994           0
     35197 MEMB     284      PYPG     C1       CTL2    -0.800000E-01   12.0110           0
     35198 MEMB     284      PYPG     HA       HAL2     0.900000E-01   1.00800           0
     35199 MEMB     284      PYPG     HB       HAL2     0.900000E-01   1.00800           0
     35200 MEMB     284      PYPG     C2       CTL1     0.170000       12.0110           0
     35201 MEMB     284      PYPG     HS       HAL1     0.900000E-01   1.00800           0
     35202 MEMB     284      PYPG     O21      OSL     -0.490000       15.9994           0
     35203 MEMB     284      PYPG     C21      CL       0.900000       12.0110           0
     35204 MEMB     284      PYPG     O22      OBL     -0.630000       15.9994           0
     35205 MEMB     284      PYPG     C22      CTL2    -0.220000       12.0110           0
     35206 MEMB     284      PYPG     H2R      HAL2     0.900000E-01   1.00800           0
     35207 MEMB     284      PYPG     H2S      HAL2     0.900000E-01   1.00800           0
     35208 MEMB     284      PYPG     C3       CTL2     0.800000E-01   12.0110           0
     35209 MEMB     284      PYPG     HX       HAL2     0.900000E-01   1.00800           0
     35210 MEMB     284      PYPG     HY       HAL2     0.900000E-01   1.00800           0
     35211 MEMB     284      PYPG     O31      OSL     -0.490000       15.9994           0
     35212 MEMB     284      PYPG     C31      CL       0.900000       12.0110           0
     35213 MEMB     284      PYPG     O32      OBL     -0.630000       15.9994           0
     35214 MEMB     284      PYPG     C32      CTL2    -0.220000       12.0110           0
     35215 MEMB     284      PYPG     H2X      HAL2     0.900000E-01   1.00800           0
     35216 MEMB     284      PYPG     H2Y      HAL2     0.900000E-01   1.00800           0
     35217 MEMB     284      PYPG     C23      CTL2    -0.180000       12.0110           0
     35218 MEMB     284      PYPG     H3R      HAL2     0.900000E-01   1.00800           0
     35219 MEMB     284      PYPG     H3S      HAL2     0.900000E-01   1.00800           0
     35220 MEMB     284      PYPG     C24      CTL2    -0.180000       12.0110           0
     35221 MEMB     284      PYPG     H4R      HAL2     0.900000E-01   1.00800           0
     35222 MEMB     284      PYPG     H4S      HAL2     0.900000E-01   1.00800           0
     35223 MEMB     284      PYPG     C25      CTL2    -0.180000       12.0110           0
     35224 MEMB     284      PYPG     H5R      HAL2     0.900000E-01   1.00800           0
     35225 MEMB     284      PYPG     H5S      HAL2     0.900000E-01   1.00800           0
     35226 MEMB     284      PYPG     C26      CTL2    -0.180000       12.0110           0
     35227 MEMB     284      PYPG     H6R      HAL2     0.900000E-01   1.00800           0
     35228 MEMB     284      PYPG     H6S      HAL2     0.900000E-01   1.00800           0
     35229 MEMB     284      PYPG     C27      CTL2    -0.180000       12.0110           0
     35230 MEMB     284      PYPG     H7R      HAL2     0.900000E-01   1.00800           0
     35231 MEMB     284      PYPG     H7S      HAL2     0.900000E-01   1.00800           0
     35232 MEMB     284      PYPG     C28      CTL2    -0.180000       12.0110           0
     35233 MEMB     284      PYPG     H8R      HAL2     0.900000E-01   1.00800           0
     35234 MEMB     284      PYPG     H8S      HAL2     0.900000E-01   1.00800           0
     35235 MEMB     284      PYPG     C29      CEL1    -0.150000       12.0110           0
     35236 MEMB     284      PYPG     H9R      HEL1     0.150000       1.00800           0
     35237 MEMB     284      PYPG     C210     CEL1    -0.150000       12.0110           0
     35238 MEMB     284      PYPG     H10R     HEL1     0.150000       1.00800           0
     35239 MEMB     284      PYPG     C211     CTL2    -0.180000       12.0110           0
     35240 MEMB     284      PYPG     H11R     HAL2     0.900000E-01   1.00800           0
     35241 MEMB     284      PYPG     H11S     HAL2     0.900000E-01   1.00800           0
     35242 MEMB     284      PYPG     C212     CTL2    -0.180000       12.0110           0
     35243 MEMB     284      PYPG     H12R     HAL2     0.900000E-01   1.00800           0
     35244 MEMB     284      PYPG     H12S     HAL2     0.900000E-01   1.00800           0
     35245 MEMB     284      PYPG     C213     CTL2    -0.180000       12.0110           0
     35246 MEMB     284      PYPG     H13R     HAL2     0.900000E-01   1.00800           0
     35247 MEMB     284      PYPG     H13S     HAL2     0.900000E-01   1.00800           0
     35248 MEMB     284      PYPG     C214     CTL2    -0.180000       12.0110           0
     35249 MEMB     284      PYPG     H14R     HAL2     0.900000E-01   1.00800           0
     35250 MEMB     284      PYPG     H14S     HAL2     0.900000E-01   1.00800           0
     35251 MEMB     284      PYPG     C215     CTL2    -0.180000       12.0110           0
     35252 MEMB     284      PYPG     H15R     HAL2     0.900000E-01   1.00800           0
     35253 MEMB     284      PYPG     H15S     HAL2     0.900000E-01   1.00800           0
     35254 MEMB     284      PYPG     C216     CTL3    -0.270000       12.0110           0
     35255 MEMB     284      PYPG     H16R     HAL3     0.900000E-01   1.00800           0
     35256 MEMB     284      PYPG     H16S     HAL3     0.900000E-01   1.00800           0
     35257 MEMB     284      PYPG     H16T     HAL3     0.900000E-01   1.00800           0
     35258 MEMB     284      PYPG     C33      CTL2    -0.180000       12.0110           0
     35259 MEMB     284      PYPG     H3X      HAL2     0.900000E-01   1.00800           0
     35260 MEMB     284      PYPG     H3Y      HAL2     0.900000E-01   1.00800           0
     35261 MEMB     284      PYPG     C34      CTL2    -0.180000       12.0110           0
     35262 MEMB     284      PYPG     H4X      HAL2     0.900000E-01   1.00800           0
     35263 MEMB     284      PYPG     H4Y      HAL2     0.900000E-01   1.00800           0
     35264 MEMB     284      PYPG     C35      CTL2    -0.180000       12.0110           0
     35265 MEMB     284      PYPG     H5X      HAL2     0.900000E-01   1.00800           0
     35266 MEMB     284      PYPG     H5Y      HAL2     0.900000E-01   1.00800           0
     35267 MEMB     284      PYPG     C36      CTL2    -0.180000       12.0110           0
     35268 MEMB     284      PYPG     H6X      HAL2     0.900000E-01   1.00800           0
     35269 MEMB     284      PYPG     H6Y      HAL2     0.900000E-01   1.00800           0
     35270 MEMB     284      PYPG     C37      CTL2    -0.180000       12.0110           0
     35271 MEMB     284      PYPG     H7X      HAL2     0.900000E-01   1.00800           0
     35272 MEMB     284      PYPG     H7Y      HAL2     0.900000E-01   1.00800           0
     35273 MEMB     284      PYPG     C38      CTL2    -0.180000       12.0110           0
     35274 MEMB     284      PYPG     H8X      HAL2     0.900000E-01   1.00800           0
     35275 MEMB     284      PYPG     H8Y      HAL2     0.900000E-01   1.00800           0
     35276 MEMB     284      PYPG     C39      CTL2    -0.180000       12.0110           0
     35277 MEMB     284      PYPG     H9X      HAL2     0.900000E-01   1.00800           0
     35278 MEMB     284      PYPG     H9Y      HAL2     0.900000E-01   1.00800           0
     35279 MEMB     284      PYPG     C310     CTL2    -0.180000       12.0110           0
     35280 MEMB     284      PYPG     H10X     HAL2     0.900000E-01   1.00800           0
     35281 MEMB     284      PYPG     H10Y     HAL2     0.900000E-01   1.00800           0
     35282 MEMB     284      PYPG     C311     CTL2    -0.180000       12.0110           0
     35283 MEMB     284      PYPG     H11X     HAL2     0.900000E-01   1.00800           0
     35284 MEMB     284      PYPG     H11Y     HAL2     0.900000E-01   1.00800           0
     35285 MEMB     284      PYPG     C312     CTL2    -0.180000       12.0110           0
     35286 MEMB     284      PYPG     H12X     HAL2     0.900000E-01   1.00800           0
     35287 MEMB     284      PYPG     H12Y     HAL2     0.900000E-01   1.00800           0
     35288 MEMB     284      PYPG     C313     CTL2    -0.180000       12.0110           0
     35289 MEMB     284      PYPG     H13X     HAL2     0.900000E-01   1.00800           0
     35290 MEMB     284      PYPG     H13Y     HAL2     0.900000E-01   1.00800           0
     35291 MEMB     284      PYPG     C314     CTL2    -0.180000       12.0110           0
     35292 MEMB     284      PYPG     H14X     HAL2     0.900000E-01   1.00800           0
     35293 MEMB     284      PYPG     H14Y     HAL2     0.900000E-01   1.00800           0
     35294 MEMB     284      PYPG     C315     CTL2    -0.180000       12.0110           0
     35295 MEMB     284      PYPG     H15X     HAL2     0.900000E-01   1.00800           0
     35296 MEMB     284      PYPG     H15Y     HAL2     0.900000E-01   1.00800           0
     35297 MEMB     284      PYPG     C316     CTL3    -0.270000       12.0110           0
     35298 MEMB     284      PYPG     H16X     HAL3     0.900000E-01   1.00800           0
     35299 MEMB     284      PYPG     H16Y     HAL3     0.900000E-01   1.00800           0
     35300 MEMB     284      PYPG     H16Z     HAL3     0.900000E-01   1.00800           0
     35301 MEMB     285      PVCL2    C3       CTL2    -0.800000E-01   12.0110           0
     35302 MEMB     285      PVCL2    HG31     HAL2     0.900000E-01   1.00800           0
     35303 MEMB     285      PVCL2    HG32     HAL2     0.900000E-01   1.00800           0
     35304 MEMB     285      PVCL2    P3       PL        1.50000       30.9740           0
     35305 MEMB     285      PVCL2    OP33     O2L     -0.780000       15.9994           0
     35306 MEMB     285      PVCL2    OP34     O2L     -0.780000       15.9994           0
     35307 MEMB     285      PVCL2    OP31     OSLP    -0.570000       15.9994           0
     35308 MEMB     285      PVCL2    OP32     OSLP    -0.570000       15.9994           0
     35309 MEMB     285      PVCL2    C31      CTL2    -0.800000E-01   12.0110           0
     35310 MEMB     285      PVCL2    H31J     HAL2     0.900000E-01   1.00800           0
     35311 MEMB     285      PVCL2    H31K     HAL2     0.900000E-01   1.00800           0
     35312 MEMB     285      PVCL2    C2       CTL1     0.140000       12.0110           0
     35313 MEMB     285      PVCL2    HG22     HAL1     0.900000E-01   1.00800           0
     35314 MEMB     285      PVCL2    OG12     OHL     -0.650000       15.9994           0
     35315 MEMB     285      PVCL2    HO12     HOL      0.420000       1.00800           0
     35316 MEMB     285      PVCL2    C1       CTL2    -0.800000E-01   12.0110           0
     35317 MEMB     285      PVCL2    HG11     HAL2     0.900000E-01   1.00800           0
     35318 MEMB     285      PVCL2    HG12     HAL2     0.900000E-01   1.00800           0
     35319 MEMB     285      PVCL2    P1       PL        1.50000       30.9740           0
     35320 MEMB     285      PVCL2    OP13     O2L     -0.780000       15.9994           0
     35321 MEMB     285      PVCL2    OP14     O2L     -0.780000       15.9994           0
     35322 MEMB     285      PVCL2    OP11     OSLP    -0.570000       15.9994           0
     35323 MEMB     285      PVCL2    OP12     OSLP    -0.570000       15.9994           0
     35324 MEMB     285      PVCL2    C11      CTL2    -0.800000E-01   12.0110           0
     35325 MEMB     285      PVCL2    H11J     HAL2     0.900000E-01   1.00800           0
     35326 MEMB     285      PVCL2    H11K     HAL2     0.900000E-01   1.00800           0
     35327 MEMB     285      PVCL2    C12      CTL1     0.170000       12.0110           0
     35328 MEMB     285      PVCL2    H12J     HAL1     0.900000E-01   1.00800           0
     35329 MEMB     285      PVCL2    O12      OSL     -0.490000       15.9994           0
     35330 MEMB     285      PVCL2    CA1      CL       0.900000       12.0110           0
     35331 MEMB     285      PVCL2    OA1      OBL     -0.630000       15.9994           0
     35332 MEMB     285      PVCL2    CA2      CTL2    -0.220000       12.0110           0
     35333 MEMB     285      PVCL2    H2A      HAL2     0.900000E-01   1.00800           0
     35334 MEMB     285      PVCL2    H2B      HAL2     0.900000E-01   1.00800           0
     35335 MEMB     285      PVCL2    C13      CTL2     0.800000E-01   12.0110           0
     35336 MEMB     285      PVCL2    H13J     HAL2     0.900000E-01   1.00800           0
     35337 MEMB     285      PVCL2    H13K     HAL2     0.900000E-01   1.00800           0
     35338 MEMB     285      PVCL2    O13      OSL     -0.490000       15.9994           0
     35339 MEMB     285      PVCL2    CB1      CL       0.900000       12.0110           0
     35340 MEMB     285      PVCL2    OB1      OBL     -0.630000       15.9994           0
     35341 MEMB     285      PVCL2    CB2      CTL2    -0.220000       12.0110           0
     35342 MEMB     285      PVCL2    H2D      HAL2     0.900000E-01   1.00800           0
     35343 MEMB     285      PVCL2    H2E      HAL2     0.900000E-01   1.00800           0
     35344 MEMB     285      PVCL2    C32      CTL1     0.170000       12.0110           0
     35345 MEMB     285      PVCL2    H32J     HAL1     0.900000E-01   1.00800           0
     35346 MEMB     285      PVCL2    O32      OSL     -0.490000       15.9994           0
     35347 MEMB     285      PVCL2    CC1      CL       0.900000       12.0110           0
     35348 MEMB     285      PVCL2    OC1      OBL     -0.630000       15.9994           0
     35349 MEMB     285      PVCL2    CC2      CTL2    -0.220000       12.0110           0
     35350 MEMB     285      PVCL2    H2R      HAL2     0.900000E-01   1.00800           0
     35351 MEMB     285      PVCL2    H2S      HAL2     0.900000E-01   1.00800           0
     35352 MEMB     285      PVCL2    C33      CTL2     0.800000E-01   12.0110           0
     35353 MEMB     285      PVCL2    H33J     HAL2     0.900000E-01   1.00800           0
     35354 MEMB     285      PVCL2    H33K     HAL2     0.900000E-01   1.00800           0
     35355 MEMB     285      PVCL2    O33      OSL     -0.490000       15.9994           0
     35356 MEMB     285      PVCL2    CD1      CL       0.900000       12.0110           0
     35357 MEMB     285      PVCL2    OD1      OBL     -0.630000       15.9994           0
     35358 MEMB     285      PVCL2    CD2      CTL2    -0.220000       12.0110           0
     35359 MEMB     285      PVCL2    H2X      HAL2     0.900000E-01   1.00800           0
     35360 MEMB     285      PVCL2    H2Y      HAL2     0.900000E-01   1.00800           0
     35361 MEMB     285      PVCL2    CA3      CTL2    -0.180000       12.0110           0
     35362 MEMB     285      PVCL2    H3A      HAL2     0.900000E-01   1.00800           0
     35363 MEMB     285      PVCL2    H3B      HAL2     0.900000E-01   1.00800           0
     35364 MEMB     285      PVCL2    CA4      CTL2    -0.180000       12.0110           0
     35365 MEMB     285      PVCL2    H4A      HAL2     0.900000E-01   1.00800           0
     35366 MEMB     285      PVCL2    H4B      HAL2     0.900000E-01   1.00800           0
     35367 MEMB     285      PVCL2    CA5      CTL2    -0.180000       12.0110           0
     35368 MEMB     285      PVCL2    H5A      HAL2     0.900000E-01   1.00800           0
     35369 MEMB     285      PVCL2    H5B      HAL2     0.900000E-01   1.00800           0
     35370 MEMB     285      PVCL2    CA6      CTL2    -0.180000       12.0110           0
     35371 MEMB     285      PVCL2    H6A      HAL2     0.900000E-01   1.00800           0
     35372 MEMB     285      PVCL2    H6B      HAL2     0.900000E-01   1.00800           0
     35373 MEMB     285      PVCL2    CA7      CTL2    -0.180000       12.0110           0
     35374 MEMB     285      PVCL2    H7A      HAL2     0.900000E-01   1.00800           0
     35375 MEMB     285      PVCL2    H7B      HAL2     0.900000E-01   1.00800           0
     35376 MEMB     285      PVCL2    CA8      CTL2    -0.180000       12.0110           0
     35377 MEMB     285      PVCL2    H8A      HAL2     0.900000E-01   1.00800           0
     35378 MEMB     285      PVCL2    H8B      HAL2     0.900000E-01   1.00800           0
     35379 MEMB     285      PVCL2    CA9      CTL2    -0.180000       12.0110           0
     35380 MEMB     285      PVCL2    H9A      HAL2     0.900000E-01   1.00800           0
     35381 MEMB     285      PVCL2    H9B      HAL2     0.900000E-01   1.00800           0
     35382 MEMB     285      PVCL2    CA10     CTL2    -0.180000       12.0110           0
     35383 MEMB     285      PVCL2    H10A     HAL2     0.900000E-01   1.00800           0
     35384 MEMB     285      PVCL2    H10B     HAL2     0.900000E-01   1.00800           0
     35385 MEMB     285      PVCL2    CA11     CEL1    -0.150000       12.0110           0
     35386 MEMB     285      PVCL2    H11A     HEL1     0.150000       1.00800           0
     35387 MEMB     285      PVCL2    CA12     CEL1    -0.150000       12.0110           0
     35388 MEMB     285      PVCL2    H12A     HEL1     0.150000       1.00800           0
     35389 MEMB     285      PVCL2    CA13     CTL2    -0.180000       12.0110           0
     35390 MEMB     285      PVCL2    H13A     HAL2     0.900000E-01   1.00800           0
     35391 MEMB     285      PVCL2    H13B     HAL2     0.900000E-01   1.00800           0
     35392 MEMB     285      PVCL2    CA14     CTL2    -0.180000       12.0110           0
     35393 MEMB     285      PVCL2    H14A     HAL2     0.900000E-01   1.00800           0
     35394 MEMB     285      PVCL2    H14B     HAL2     0.900000E-01   1.00800           0
     35395 MEMB     285      PVCL2    CA15     CTL2    -0.180000       12.0110           0
     35396 MEMB     285      PVCL2    H15A     HAL2     0.900000E-01   1.00800           0
     35397 MEMB     285      PVCL2    H15B     HAL2     0.900000E-01   1.00800           0
     35398 MEMB     285      PVCL2    CA16     CTL2    -0.180000       12.0110           0
     35399 MEMB     285      PVCL2    H16A     HAL2     0.900000E-01   1.00800           0
     35400 MEMB     285      PVCL2    H16B     HAL2     0.900000E-01   1.00800           0
     35401 MEMB     285      PVCL2    CA17     CTL2    -0.180000       12.0110           0
     35402 MEMB     285      PVCL2    H17A     HAL2     0.900000E-01   1.00800           0
     35403 MEMB     285      PVCL2    H17B     HAL2     0.900000E-01   1.00800           0
     35404 MEMB     285      PVCL2    CA18     CTL3    -0.270000       12.0110           0
     35405 MEMB     285      PVCL2    H18A     HAL3     0.900000E-01   1.00800           0
     35406 MEMB     285      PVCL2    H18B     HAL3     0.900000E-01   1.00800           0
     35407 MEMB     285      PVCL2    H18C     HAL3     0.900000E-01   1.00800           0
     35408 MEMB     285      PVCL2    CB3      CTL2    -0.180000       12.0110           0
     35409 MEMB     285      PVCL2    H3D      HAL2     0.900000E-01   1.00800           0
     35410 MEMB     285      PVCL2    H3E      HAL2     0.900000E-01   1.00800           0
     35411 MEMB     285      PVCL2    CB4      CTL2    -0.180000       12.0110           0
     35412 MEMB     285      PVCL2    H4D      HAL2     0.900000E-01   1.00800           0
     35413 MEMB     285      PVCL2    H4E      HAL2     0.900000E-01   1.00800           0
     35414 MEMB     285      PVCL2    CB5      CTL2    -0.180000       12.0110           0
     35415 MEMB     285      PVCL2    H5D      HAL2     0.900000E-01   1.00800           0
     35416 MEMB     285      PVCL2    H5E      HAL2     0.900000E-01   1.00800           0
     35417 MEMB     285      PVCL2    CB6      CTL2    -0.180000       12.0110           0
     35418 MEMB     285      PVCL2    H6D      HAL2     0.900000E-01   1.00800           0
     35419 MEMB     285      PVCL2    H6E      HAL2     0.900000E-01   1.00800           0
     35420 MEMB     285      PVCL2    CB7      CTL2    -0.180000       12.0110           0
     35421 MEMB     285      PVCL2    H7D      HAL2     0.900000E-01   1.00800           0
     35422 MEMB     285      PVCL2    H7E      HAL2     0.900000E-01   1.00800           0
     35423 MEMB     285      PVCL2    CB8      CTL2    -0.180000       12.0110           0
     35424 MEMB     285      PVCL2    H8D      HAL2     0.900000E-01   1.00800           0
     35425 MEMB     285      PVCL2    H8E      HAL2     0.900000E-01   1.00800           0
     35426 MEMB     285      PVCL2    CB9      CTL2    -0.180000       12.0110           0
     35427 MEMB     285      PVCL2    H9D      HAL2     0.900000E-01   1.00800           0
     35428 MEMB     285      PVCL2    H9E      HAL2     0.900000E-01   1.00800           0
     35429 MEMB     285      PVCL2    CB10     CTL2    -0.180000       12.0110           0
     35430 MEMB     285      PVCL2    H10D     HAL2     0.900000E-01   1.00800           0
     35431 MEMB     285      PVCL2    H10E     HAL2     0.900000E-01   1.00800           0
     35432 MEMB     285      PVCL2    CB11     CTL2    -0.180000       12.0110           0
     35433 MEMB     285      PVCL2    H11D     HAL2     0.900000E-01   1.00800           0
     35434 MEMB     285      PVCL2    H11E     HAL2     0.900000E-01   1.00800           0
     35435 MEMB     285      PVCL2    CB12     CTL2    -0.180000       12.0110           0
     35436 MEMB     285      PVCL2    H12D     HAL2     0.900000E-01   1.00800           0
     35437 MEMB     285      PVCL2    H12E     HAL2     0.900000E-01   1.00800           0
     35438 MEMB     285      PVCL2    CB13     CTL2    -0.180000       12.0110           0
     35439 MEMB     285      PVCL2    H13D     HAL2     0.900000E-01   1.00800           0
     35440 MEMB     285      PVCL2    H13E     HAL2     0.900000E-01   1.00800           0
     35441 MEMB     285      PVCL2    CB14     CTL2    -0.180000       12.0110           0
     35442 MEMB     285      PVCL2    H14D     HAL2     0.900000E-01   1.00800           0
     35443 MEMB     285      PVCL2    H14E     HAL2     0.900000E-01   1.00800           0
     35444 MEMB     285      PVCL2    CB15     CTL2    -0.180000       12.0110           0
     35445 MEMB     285      PVCL2    H15D     HAL2     0.900000E-01   1.00800           0
     35446 MEMB     285      PVCL2    H15E     HAL2     0.900000E-01   1.00800           0
     35447 MEMB     285      PVCL2    CB16     CTL3    -0.270000       12.0110           0
     35448 MEMB     285      PVCL2    H16D     HAL3     0.900000E-01   1.00800           0
     35449 MEMB     285      PVCL2    H16E     HAL3     0.900000E-01   1.00800           0
     35450 MEMB     285      PVCL2    H16F     HAL3     0.900000E-01   1.00800           0
     35451 MEMB     285      PVCL2    CC3      CTL2    -0.180000       12.0110           0
     35452 MEMB     285      PVCL2    H3R      HAL2     0.900000E-01   1.00800           0
     35453 MEMB     285      PVCL2    H3S      HAL2     0.900000E-01   1.00800           0
     35454 MEMB     285      PVCL2    CC4      CTL2    -0.180000       12.0110           0
     35455 MEMB     285      PVCL2    H4R      HAL2     0.900000E-01   1.00800           0
     35456 MEMB     285      PVCL2    H4S      HAL2     0.900000E-01   1.00800           0
     35457 MEMB     285      PVCL2    CC5      CTL2    -0.180000       12.0110           0
     35458 MEMB     285      PVCL2    H5R      HAL2     0.900000E-01   1.00800           0
     35459 MEMB     285      PVCL2    H5S      HAL2     0.900000E-01   1.00800           0
     35460 MEMB     285      PVCL2    CC6      CTL2    -0.180000       12.0110           0
     35461 MEMB     285      PVCL2    H6R      HAL2     0.900000E-01   1.00800           0
     35462 MEMB     285      PVCL2    H6S      HAL2     0.900000E-01   1.00800           0
     35463 MEMB     285      PVCL2    CC7      CTL2    -0.180000       12.0110           0
     35464 MEMB     285      PVCL2    H7R      HAL2     0.900000E-01   1.00800           0
     35465 MEMB     285      PVCL2    H7S      HAL2     0.900000E-01   1.00800           0
     35466 MEMB     285      PVCL2    CC8      CTL2    -0.180000       12.0110           0
     35467 MEMB     285      PVCL2    H8R      HAL2     0.900000E-01   1.00800           0
     35468 MEMB     285      PVCL2    H8S      HAL2     0.900000E-01   1.00800           0
     35469 MEMB     285      PVCL2    CC9      CTL2    -0.180000       12.0110           0
     35470 MEMB     285      PVCL2    H9R      HAL2     0.900000E-01   1.00800           0
     35471 MEMB     285      PVCL2    H9S      HAL2     0.900000E-01   1.00800           0
     35472 MEMB     285      PVCL2    CC10     CTL2    -0.180000       12.0110           0
     35473 MEMB     285      PVCL2    H10R     HAL2     0.900000E-01   1.00800           0
     35474 MEMB     285      PVCL2    H10S     HAL2     0.900000E-01   1.00800           0
     35475 MEMB     285      PVCL2    CC11     CEL1    -0.150000       12.0110           0
     35476 MEMB     285      PVCL2    H11R     HEL1     0.150000       1.00800           0
     35477 MEMB     285      PVCL2    CC12     CEL1    -0.150000       12.0110           0
     35478 MEMB     285      PVCL2    H12R     HEL1     0.150000       1.00800           0
     35479 MEMB     285      PVCL2    CC13     CTL2    -0.180000       12.0110           0
     35480 MEMB     285      PVCL2    H13R     HAL2     0.900000E-01   1.00800           0
     35481 MEMB     285      PVCL2    H13S     HAL2     0.900000E-01   1.00800           0
     35482 MEMB     285      PVCL2    CC14     CTL2    -0.180000       12.0110           0
     35483 MEMB     285      PVCL2    H14R     HAL2     0.900000E-01   1.00800           0
     35484 MEMB     285      PVCL2    H14S     HAL2     0.900000E-01   1.00800           0
     35485 MEMB     285      PVCL2    CC15     CTL2    -0.180000       12.0110           0
     35486 MEMB     285      PVCL2    H15R     HAL2     0.900000E-01   1.00800           0
     35487 MEMB     285      PVCL2    H15S     HAL2     0.900000E-01   1.00800           0
     35488 MEMB     285      PVCL2    CC16     CTL2    -0.180000       12.0110           0
     35489 MEMB     285      PVCL2    H16R     HAL2     0.900000E-01   1.00800           0
     35490 MEMB     285      PVCL2    H16S     HAL2     0.900000E-01   1.00800           0
     35491 MEMB     285      PVCL2    CC17     CTL2    -0.180000       12.0110           0
     35492 MEMB     285      PVCL2    H17R     HAL2     0.900000E-01   1.00800           0
     35493 MEMB     285      PVCL2    H17S     HAL2     0.900000E-01   1.00800           0
     35494 MEMB     285      PVCL2    CC18     CTL3    -0.270000       12.0110           0
     35495 MEMB     285      PVCL2    H18R     HAL3     0.900000E-01   1.00800           0
     35496 MEMB     285      PVCL2    H18S     HAL3     0.900000E-01   1.00800           0
     35497 MEMB     285      PVCL2    H18T     HAL3     0.900000E-01   1.00800           0
     35498 MEMB     285      PVCL2    CD3      CTL2    -0.180000       12.0110           0
     35499 MEMB     285      PVCL2    H3X      HAL2     0.900000E-01   1.00800           0
     35500 MEMB     285      PVCL2    H3Y      HAL2     0.900000E-01   1.00800           0
     35501 MEMB     285      PVCL2    CD4      CTL2    -0.180000       12.0110           0
     35502 MEMB     285      PVCL2    H4X      HAL2     0.900000E-01   1.00800           0
     35503 MEMB     285      PVCL2    H4Y      HAL2     0.900000E-01   1.00800           0
     35504 MEMB     285      PVCL2    CD5      CTL2    -0.180000       12.0110           0
     35505 MEMB     285      PVCL2    H5X      HAL2     0.900000E-01   1.00800           0
     35506 MEMB     285      PVCL2    H5Y      HAL2     0.900000E-01   1.00800           0
     35507 MEMB     285      PVCL2    CD6      CTL2    -0.180000       12.0110           0
     35508 MEMB     285      PVCL2    H6X      HAL2     0.900000E-01   1.00800           0
     35509 MEMB     285      PVCL2    H6Y      HAL2     0.900000E-01   1.00800           0
     35510 MEMB     285      PVCL2    CD7      CTL2    -0.180000       12.0110           0
     35511 MEMB     285      PVCL2    H7X      HAL2     0.900000E-01   1.00800           0
     35512 MEMB     285      PVCL2    H7Y      HAL2     0.900000E-01   1.00800           0
     35513 MEMB     285      PVCL2    CD8      CTL2    -0.180000       12.0110           0
     35514 MEMB     285      PVCL2    H8X      HAL2     0.900000E-01   1.00800           0
     35515 MEMB     285      PVCL2    H8Y      HAL2     0.900000E-01   1.00800           0
     35516 MEMB     285      PVCL2    CD9      CTL2    -0.180000       12.0110           0
     35517 MEMB     285      PVCL2    H9X      HAL2     0.900000E-01   1.00800           0
     35518 MEMB     285      PVCL2    H9Y      HAL2     0.900000E-01   1.00800           0
     35519 MEMB     285      PVCL2    CD10     CTL2    -0.180000       12.0110           0
     35520 MEMB     285      PVCL2    H10X     HAL2     0.900000E-01   1.00800           0
     35521 MEMB     285      PVCL2    H10Y     HAL2     0.900000E-01   1.00800           0
     35522 MEMB     285      PVCL2    CD11     CTL2    -0.180000       12.0110           0
     35523 MEMB     285      PVCL2    H11X     HAL2     0.900000E-01   1.00800           0
     35524 MEMB     285      PVCL2    H11Y     HAL2     0.900000E-01   1.00800           0
     35525 MEMB     285      PVCL2    CD12     CTL2    -0.180000       12.0110           0
     35526 MEMB     285      PVCL2    H12X     HAL2     0.900000E-01   1.00800           0
     35527 MEMB     285      PVCL2    H12Y     HAL2     0.900000E-01   1.00800           0
     35528 MEMB     285      PVCL2    CD13     CTL2    -0.180000       12.0110           0
     35529 MEMB     285      PVCL2    H13X     HAL2     0.900000E-01   1.00800           0
     35530 MEMB     285      PVCL2    H13Y     HAL2     0.900000E-01   1.00800           0
     35531 MEMB     285      PVCL2    CD14     CTL2    -0.180000       12.0110           0
     35532 MEMB     285      PVCL2    H14X     HAL2     0.900000E-01   1.00800           0
     35533 MEMB     285      PVCL2    H14Y     HAL2     0.900000E-01   1.00800           0
     35534 MEMB     285      PVCL2    CD15     CTL2    -0.180000       12.0110           0
     35535 MEMB     285      PVCL2    H15X     HAL2     0.900000E-01   1.00800           0
     35536 MEMB     285      PVCL2    H15Y     HAL2     0.900000E-01   1.00800           0
     35537 MEMB     285      PVCL2    CD16     CTL3    -0.270000       12.0110           0
     35538 MEMB     285      PVCL2    H16X     HAL3     0.900000E-01   1.00800           0
     35539 MEMB     285      PVCL2    H16Y     HAL3     0.900000E-01   1.00800           0
     35540 MEMB     285      PVCL2    H16Z     HAL3     0.900000E-01   1.00800           0
     35541 MEMB     286      PMPE     N        NH3L    -0.300000       14.0070           0
     35542 MEMB     286      PMPE     HN1      HCL      0.330000       1.00800           0
     35543 MEMB     286      PMPE     HN2      HCL      0.330000       1.00800           0
     35544 MEMB     286      PMPE     HN3      HCL      0.330000       1.00800           0
     35545 MEMB     286      PMPE     C12      CTL2     0.130000       12.0110           0
     35546 MEMB     286      PMPE     H12A     HAL2     0.900000E-01   1.00800           0
     35547 MEMB     286      PMPE     H12B     HAL2     0.900000E-01   1.00800           0
     35548 MEMB     286      PMPE     C11      CTL2    -0.800000E-01   12.0110           0
     35549 MEMB     286      PMPE     H11A     HAL2     0.900000E-01   1.00800           0
     35550 MEMB     286      PMPE     H11B     HAL2     0.900000E-01   1.00800           0
     35551 MEMB     286      PMPE     P        PL        1.50000       30.9740           0
     35552 MEMB     286      PMPE     O13      O2L     -0.780000       15.9994           0
     35553 MEMB     286      PMPE     O14      O2L     -0.780000       15.9994           0
     35554 MEMB     286      PMPE     O11      OSLP    -0.570000       15.9994           0
     35555 MEMB     286      PMPE     O12      OSLP    -0.570000       15.9994           0
     35556 MEMB     286      PMPE     C1       CTL2    -0.800000E-01   12.0110           0
     35557 MEMB     286      PMPE     HA       HAL2     0.900000E-01   1.00800           0
     35558 MEMB     286      PMPE     HB       HAL2     0.900000E-01   1.00800           0
     35559 MEMB     286      PMPE     C2       CTL1     0.170000       12.0110           0
     35560 MEMB     286      PMPE     HS       HAL1     0.900000E-01   1.00800           0
     35561 MEMB     286      PMPE     O21      OSL     -0.490000       15.9994           0
     35562 MEMB     286      PMPE     C21      CL       0.900000       12.0110           0
     35563 MEMB     286      PMPE     O22      OBL     -0.630000       15.9994           0
     35564 MEMB     286      PMPE     C22      CTL2    -0.220000       12.0110           0
     35565 MEMB     286      PMPE     H2R      HAL2     0.900000E-01   1.00800           0
     35566 MEMB     286      PMPE     H2S      HAL2     0.900000E-01   1.00800           0
     35567 MEMB     286      PMPE     C3       CTL2     0.800000E-01   12.0110           0
     35568 MEMB     286      PMPE     HX       HAL2     0.900000E-01   1.00800           0
     35569 MEMB     286      PMPE     HY       HAL2     0.900000E-01   1.00800           0
     35570 MEMB     286      PMPE     O31      OSL     -0.490000       15.9994           0
     35571 MEMB     286      PMPE     C31      CL       0.900000       12.0110           0
     35572 MEMB     286      PMPE     O32      OBL     -0.630000       15.9994           0
     35573 MEMB     286      PMPE     C32      CTL2    -0.220000       12.0110           0
     35574 MEMB     286      PMPE     H2X      HAL2     0.900000E-01   1.00800           0
     35575 MEMB     286      PMPE     H2Y      HAL2     0.900000E-01   1.00800           0
     35576 MEMB     286      PMPE     C23      CTL2    -0.180000       12.0110           0
     35577 MEMB     286      PMPE     H3R      HAL2     0.900000E-01   1.00800           0
     35578 MEMB     286      PMPE     H3S      HAL2     0.900000E-01   1.00800           0
     35579 MEMB     286      PMPE     C24      CTL2    -0.180000       12.0110           0
     35580 MEMB     286      PMPE     H4R      HAL2     0.900000E-01   1.00800           0
     35581 MEMB     286      PMPE     H4S      HAL2     0.900000E-01   1.00800           0
     35582 MEMB     286      PMPE     C25      CTL2    -0.180000       12.0110           0
     35583 MEMB     286      PMPE     H5R      HAL2     0.900000E-01   1.00800           0
     35584 MEMB     286      PMPE     H5S      HAL2     0.900000E-01   1.00800           0
     35585 MEMB     286      PMPE     C26      CTL2    -0.180000       12.0110           0
     35586 MEMB     286      PMPE     H6R      HAL2     0.900000E-01   1.00800           0
     35587 MEMB     286      PMPE     H6S      HAL2     0.900000E-01   1.00800           0
     35588 MEMB     286      PMPE     C27      CTL2    -0.180000       12.0110           0
     35589 MEMB     286      PMPE     H7R      HAL2     0.900000E-01   1.00800           0
     35590 MEMB     286      PMPE     H7S      HAL2     0.900000E-01   1.00800           0
     35591 MEMB     286      PMPE     C28      CTL2    -0.180000       12.0110           0
     35592 MEMB     286      PMPE     H8R      HAL2     0.900000E-01   1.00800           0
     35593 MEMB     286      PMPE     H8S      HAL2     0.900000E-01   1.00800           0
     35594 MEMB     286      PMPE     C29      CG3RC1  -0.900000E-01   12.0110           0
     35595 MEMB     286      PMPE     H9R      HGA1     0.900000E-01   1.00800           0
     35596 MEMB     286      PMPE     C217     CG3C31  -0.180000       12.0110           0
     35597 MEMB     286      PMPE     H17R     HGA2     0.900000E-01   1.00800           0
     35598 MEMB     286      PMPE     H17S     HGA2     0.900000E-01   1.00800           0
     35599 MEMB     286      PMPE     C210     CG3RC1  -0.900000E-01   12.0110           0
     35600 MEMB     286      PMPE     H10R     HGA1     0.900000E-01   1.00800           0
     35601 MEMB     286      PMPE     C211     CTL2    -0.180000       12.0110           0
     35602 MEMB     286      PMPE     H11R     HAL2     0.900000E-01   1.00800           0
     35603 MEMB     286      PMPE     H11S     HAL2     0.900000E-01   1.00800           0
     35604 MEMB     286      PMPE     C212     CTL2    -0.180000       12.0110           0
     35605 MEMB     286      PMPE     H12R     HAL2     0.900000E-01   1.00800           0
     35606 MEMB     286      PMPE     H12S     HAL2     0.900000E-01   1.00800           0
     35607 MEMB     286      PMPE     C213     CTL2    -0.180000       12.0110           0
     35608 MEMB     286      PMPE     H13R     HAL2     0.900000E-01   1.00800           0
     35609 MEMB     286      PMPE     H13S     HAL2     0.900000E-01   1.00800           0
     35610 MEMB     286      PMPE     C214     CTL2    -0.180000       12.0110           0
     35611 MEMB     286      PMPE     H14R     HAL2     0.900000E-01   1.00800           0
     35612 MEMB     286      PMPE     H14S     HAL2     0.900000E-01   1.00800           0
     35613 MEMB     286      PMPE     C215     CTL2    -0.180000       12.0110           0
     35614 MEMB     286      PMPE     H15R     HAL2     0.900000E-01   1.00800           0
     35615 MEMB     286      PMPE     H15S     HAL2     0.900000E-01   1.00800           0
     35616 MEMB     286      PMPE     C216     CTL3    -0.270000       12.0110           0
     35617 MEMB     286      PMPE     H16R     HAL3     0.900000E-01   1.00800           0
     35618 MEMB     286      PMPE     H16S     HAL3     0.900000E-01   1.00800           0
     35619 MEMB     286      PMPE     H16T     HAL3     0.900000E-01   1.00800           0
     35620 MEMB     286      PMPE     C33      CTL2    -0.180000       12.0110           0
     35621 MEMB     286      PMPE     H3X      HAL2     0.900000E-01   1.00800           0
     35622 MEMB     286      PMPE     H3Y      HAL2     0.900000E-01   1.00800           0
     35623 MEMB     286      PMPE     C34      CTL2    -0.180000       12.0110           0
     35624 MEMB     286      PMPE     H4X      HAL2     0.900000E-01   1.00800           0
     35625 MEMB     286      PMPE     H4Y      HAL2     0.900000E-01   1.00800           0
     35626 MEMB     286      PMPE     C35      CTL2    -0.180000       12.0110           0
     35627 MEMB     286      PMPE     H5X      HAL2     0.900000E-01   1.00800           0
     35628 MEMB     286      PMPE     H5Y      HAL2     0.900000E-01   1.00800           0
     35629 MEMB     286      PMPE     C36      CTL2    -0.180000       12.0110           0
     35630 MEMB     286      PMPE     H6X      HAL2     0.900000E-01   1.00800           0
     35631 MEMB     286      PMPE     H6Y      HAL2     0.900000E-01   1.00800           0
     35632 MEMB     286      PMPE     C37      CTL2    -0.180000       12.0110           0
     35633 MEMB     286      PMPE     H7X      HAL2     0.900000E-01   1.00800           0
     35634 MEMB     286      PMPE     H7Y      HAL2     0.900000E-01   1.00800           0
     35635 MEMB     286      PMPE     C38      CTL2    -0.180000       12.0110           0
     35636 MEMB     286      PMPE     H8X      HAL2     0.900000E-01   1.00800           0
     35637 MEMB     286      PMPE     H8Y      HAL2     0.900000E-01   1.00800           0
     35638 MEMB     286      PMPE     C39      CTL2    -0.180000       12.0110           0
     35639 MEMB     286      PMPE     H9X      HAL2     0.900000E-01   1.00800           0
     35640 MEMB     286      PMPE     H9Y      HAL2     0.900000E-01   1.00800           0
     35641 MEMB     286      PMPE     C310     CTL2    -0.180000       12.0110           0
     35642 MEMB     286      PMPE     H10X     HAL2     0.900000E-01   1.00800           0
     35643 MEMB     286      PMPE     H10Y     HAL2     0.900000E-01   1.00800           0
     35644 MEMB     286      PMPE     C311     CTL2    -0.180000       12.0110           0
     35645 MEMB     286      PMPE     H11X     HAL2     0.900000E-01   1.00800           0
     35646 MEMB     286      PMPE     H11Y     HAL2     0.900000E-01   1.00800           0
     35647 MEMB     286      PMPE     C312     CTL2    -0.180000       12.0110           0
     35648 MEMB     286      PMPE     H12X     HAL2     0.900000E-01   1.00800           0
     35649 MEMB     286      PMPE     H12Y     HAL2     0.900000E-01   1.00800           0
     35650 MEMB     286      PMPE     C313     CTL2    -0.180000       12.0110           0
     35651 MEMB     286      PMPE     H13X     HAL2     0.900000E-01   1.00800           0
     35652 MEMB     286      PMPE     H13Y     HAL2     0.900000E-01   1.00800           0
     35653 MEMB     286      PMPE     C314     CTL2    -0.180000       12.0110           0
     35654 MEMB     286      PMPE     H14X     HAL2     0.900000E-01   1.00800           0
     35655 MEMB     286      PMPE     H14Y     HAL2     0.900000E-01   1.00800           0
     35656 MEMB     286      PMPE     C315     CTL2    -0.180000       12.0110           0
     35657 MEMB     286      PMPE     H15X     HAL2     0.900000E-01   1.00800           0
     35658 MEMB     286      PMPE     H15Y     HAL2     0.900000E-01   1.00800           0
     35659 MEMB     286      PMPE     C316     CTL3    -0.270000       12.0110           0
     35660 MEMB     286      PMPE     H16X     HAL3     0.900000E-01   1.00800           0
     35661 MEMB     286      PMPE     H16Y     HAL3     0.900000E-01   1.00800           0
     35662 MEMB     286      PMPE     H16Z     HAL3     0.900000E-01   1.00800           0
     35663 MEMB     287      PMPE     N        NH3L    -0.300000       14.0070           0
     35664 MEMB     287      PMPE     HN1      HCL      0.330000       1.00800           0
     35665 MEMB     287      PMPE     HN2      HCL      0.330000       1.00800           0
     35666 MEMB     287      PMPE     HN3      HCL      0.330000       1.00800           0
     35667 MEMB     287      PMPE     C12      CTL2     0.130000       12.0110           0
     35668 MEMB     287      PMPE     H12A     HAL2     0.900000E-01   1.00800           0
     35669 MEMB     287      PMPE     H12B     HAL2     0.900000E-01   1.00800           0
     35670 MEMB     287      PMPE     C11      CTL2    -0.800000E-01   12.0110           0
     35671 MEMB     287      PMPE     H11A     HAL2     0.900000E-01   1.00800           0
     35672 MEMB     287      PMPE     H11B     HAL2     0.900000E-01   1.00800           0
     35673 MEMB     287      PMPE     P        PL        1.50000       30.9740           0
     35674 MEMB     287      PMPE     O13      O2L     -0.780000       15.9994           0
     35675 MEMB     287      PMPE     O14      O2L     -0.780000       15.9994           0
     35676 MEMB     287      PMPE     O11      OSLP    -0.570000       15.9994           0
     35677 MEMB     287      PMPE     O12      OSLP    -0.570000       15.9994           0
     35678 MEMB     287      PMPE     C1       CTL2    -0.800000E-01   12.0110           0
     35679 MEMB     287      PMPE     HA       HAL2     0.900000E-01   1.00800           0
     35680 MEMB     287      PMPE     HB       HAL2     0.900000E-01   1.00800           0
     35681 MEMB     287      PMPE     C2       CTL1     0.170000       12.0110           0
     35682 MEMB     287      PMPE     HS       HAL1     0.900000E-01   1.00800           0
     35683 MEMB     287      PMPE     O21      OSL     -0.490000       15.9994           0
     35684 MEMB     287      PMPE     C21      CL       0.900000       12.0110           0
     35685 MEMB     287      PMPE     O22      OBL     -0.630000       15.9994           0
     35686 MEMB     287      PMPE     C22      CTL2    -0.220000       12.0110           0
     35687 MEMB     287      PMPE     H2R      HAL2     0.900000E-01   1.00800           0
     35688 MEMB     287      PMPE     H2S      HAL2     0.900000E-01   1.00800           0
     35689 MEMB     287      PMPE     C3       CTL2     0.800000E-01   12.0110           0
     35690 MEMB     287      PMPE     HX       HAL2     0.900000E-01   1.00800           0
     35691 MEMB     287      PMPE     HY       HAL2     0.900000E-01   1.00800           0
     35692 MEMB     287      PMPE     O31      OSL     -0.490000       15.9994           0
     35693 MEMB     287      PMPE     C31      CL       0.900000       12.0110           0
     35694 MEMB     287      PMPE     O32      OBL     -0.630000       15.9994           0
     35695 MEMB     287      PMPE     C32      CTL2    -0.220000       12.0110           0
     35696 MEMB     287      PMPE     H2X      HAL2     0.900000E-01   1.00800           0
     35697 MEMB     287      PMPE     H2Y      HAL2     0.900000E-01   1.00800           0
     35698 MEMB     287      PMPE     C23      CTL2    -0.180000       12.0110           0
     35699 MEMB     287      PMPE     H3R      HAL2     0.900000E-01   1.00800           0
     35700 MEMB     287      PMPE     H3S      HAL2     0.900000E-01   1.00800           0
     35701 MEMB     287      PMPE     C24      CTL2    -0.180000       12.0110           0
     35702 MEMB     287      PMPE     H4R      HAL2     0.900000E-01   1.00800           0
     35703 MEMB     287      PMPE     H4S      HAL2     0.900000E-01   1.00800           0
     35704 MEMB     287      PMPE     C25      CTL2    -0.180000       12.0110           0
     35705 MEMB     287      PMPE     H5R      HAL2     0.900000E-01   1.00800           0
     35706 MEMB     287      PMPE     H5S      HAL2     0.900000E-01   1.00800           0
     35707 MEMB     287      PMPE     C26      CTL2    -0.180000       12.0110           0
     35708 MEMB     287      PMPE     H6R      HAL2     0.900000E-01   1.00800           0
     35709 MEMB     287      PMPE     H6S      HAL2     0.900000E-01   1.00800           0
     35710 MEMB     287      PMPE     C27      CTL2    -0.180000       12.0110           0
     35711 MEMB     287      PMPE     H7R      HAL2     0.900000E-01   1.00800           0
     35712 MEMB     287      PMPE     H7S      HAL2     0.900000E-01   1.00800           0
     35713 MEMB     287      PMPE     C28      CTL2    -0.180000       12.0110           0
     35714 MEMB     287      PMPE     H8R      HAL2     0.900000E-01   1.00800           0
     35715 MEMB     287      PMPE     H8S      HAL2     0.900000E-01   1.00800           0
     35716 MEMB     287      PMPE     C29      CG3RC1  -0.900000E-01   12.0110           0
     35717 MEMB     287      PMPE     H9R      HGA1     0.900000E-01   1.00800           0
     35718 MEMB     287      PMPE     C217     CG3C31  -0.180000       12.0110           0
     35719 MEMB     287      PMPE     H17R     HGA2     0.900000E-01   1.00800           0
     35720 MEMB     287      PMPE     H17S     HGA2     0.900000E-01   1.00800           0
     35721 MEMB     287      PMPE     C210     CG3RC1  -0.900000E-01   12.0110           0
     35722 MEMB     287      PMPE     H10R     HGA1     0.900000E-01   1.00800           0
     35723 MEMB     287      PMPE     C211     CTL2    -0.180000       12.0110           0
     35724 MEMB     287      PMPE     H11R     HAL2     0.900000E-01   1.00800           0
     35725 MEMB     287      PMPE     H11S     HAL2     0.900000E-01   1.00800           0
     35726 MEMB     287      PMPE     C212     CTL2    -0.180000       12.0110           0
     35727 MEMB     287      PMPE     H12R     HAL2     0.900000E-01   1.00800           0
     35728 MEMB     287      PMPE     H12S     HAL2     0.900000E-01   1.00800           0
     35729 MEMB     287      PMPE     C213     CTL2    -0.180000       12.0110           0
     35730 MEMB     287      PMPE     H13R     HAL2     0.900000E-01   1.00800           0
     35731 MEMB     287      PMPE     H13S     HAL2     0.900000E-01   1.00800           0
     35732 MEMB     287      PMPE     C214     CTL2    -0.180000       12.0110           0
     35733 MEMB     287      PMPE     H14R     HAL2     0.900000E-01   1.00800           0
     35734 MEMB     287      PMPE     H14S     HAL2     0.900000E-01   1.00800           0
     35735 MEMB     287      PMPE     C215     CTL2    -0.180000       12.0110           0
     35736 MEMB     287      PMPE     H15R     HAL2     0.900000E-01   1.00800           0
     35737 MEMB     287      PMPE     H15S     HAL2     0.900000E-01   1.00800           0
     35738 MEMB     287      PMPE     C216     CTL3    -0.270000       12.0110           0
     35739 MEMB     287      PMPE     H16R     HAL3     0.900000E-01   1.00800           0
     35740 MEMB     287      PMPE     H16S     HAL3     0.900000E-01   1.00800           0
     35741 MEMB     287      PMPE     H16T     HAL3     0.900000E-01   1.00800           0
     35742 MEMB     287      PMPE     C33      CTL2    -0.180000       12.0110           0
     35743 MEMB     287      PMPE     H3X      HAL2     0.900000E-01   1.00800           0
     35744 MEMB     287      PMPE     H3Y      HAL2     0.900000E-01   1.00800           0
     35745 MEMB     287      PMPE     C34      CTL2    -0.180000       12.0110           0
     35746 MEMB     287      PMPE     H4X      HAL2     0.900000E-01   1.00800           0
     35747 MEMB     287      PMPE     H4Y      HAL2     0.900000E-01   1.00800           0
     35748 MEMB     287      PMPE     C35      CTL2    -0.180000       12.0110           0
     35749 MEMB     287      PMPE     H5X      HAL2     0.900000E-01   1.00800           0
     35750 MEMB     287      PMPE     H5Y      HAL2     0.900000E-01   1.00800           0
     35751 MEMB     287      PMPE     C36      CTL2    -0.180000       12.0110           0
     35752 MEMB     287      PMPE     H6X      HAL2     0.900000E-01   1.00800           0
     35753 MEMB     287      PMPE     H6Y      HAL2     0.900000E-01   1.00800           0
     35754 MEMB     287      PMPE     C37      CTL2    -0.180000       12.0110           0
     35755 MEMB     287      PMPE     H7X      HAL2     0.900000E-01   1.00800           0
     35756 MEMB     287      PMPE     H7Y      HAL2     0.900000E-01   1.00800           0
     35757 MEMB     287      PMPE     C38      CTL2    -0.180000       12.0110           0
     35758 MEMB     287      PMPE     H8X      HAL2     0.900000E-01   1.00800           0
     35759 MEMB     287      PMPE     H8Y      HAL2     0.900000E-01   1.00800           0
     35760 MEMB     287      PMPE     C39      CTL2    -0.180000       12.0110           0
     35761 MEMB     287      PMPE     H9X      HAL2     0.900000E-01   1.00800           0
     35762 MEMB     287      PMPE     H9Y      HAL2     0.900000E-01   1.00800           0
     35763 MEMB     287      PMPE     C310     CTL2    -0.180000       12.0110           0
     35764 MEMB     287      PMPE     H10X     HAL2     0.900000E-01   1.00800           0
     35765 MEMB     287      PMPE     H10Y     HAL2     0.900000E-01   1.00800           0
     35766 MEMB     287      PMPE     C311     CTL2    -0.180000       12.0110           0
     35767 MEMB     287      PMPE     H11X     HAL2     0.900000E-01   1.00800           0
     35768 MEMB     287      PMPE     H11Y     HAL2     0.900000E-01   1.00800           0
     35769 MEMB     287      PMPE     C312     CTL2    -0.180000       12.0110           0
     35770 MEMB     287      PMPE     H12X     HAL2     0.900000E-01   1.00800           0
     35771 MEMB     287      PMPE     H12Y     HAL2     0.900000E-01   1.00800           0
     35772 MEMB     287      PMPE     C313     CTL2    -0.180000       12.0110           0
     35773 MEMB     287      PMPE     H13X     HAL2     0.900000E-01   1.00800           0
     35774 MEMB     287      PMPE     H13Y     HAL2     0.900000E-01   1.00800           0
     35775 MEMB     287      PMPE     C314     CTL2    -0.180000       12.0110           0
     35776 MEMB     287      PMPE     H14X     HAL2     0.900000E-01   1.00800           0
     35777 MEMB     287      PMPE     H14Y     HAL2     0.900000E-01   1.00800           0
     35778 MEMB     287      PMPE     C315     CTL2    -0.180000       12.0110           0
     35779 MEMB     287      PMPE     H15X     HAL2     0.900000E-01   1.00800           0
     35780 MEMB     287      PMPE     H15Y     HAL2     0.900000E-01   1.00800           0
     35781 MEMB     287      PMPE     C316     CTL3    -0.270000       12.0110           0
     35782 MEMB     287      PMPE     H16X     HAL3     0.900000E-01   1.00800           0
     35783 MEMB     287      PMPE     H16Y     HAL3     0.900000E-01   1.00800           0
     35784 MEMB     287      PMPE     H16Z     HAL3     0.900000E-01   1.00800           0
     35785 MEMB     288      PMPE     N        NH3L    -0.300000       14.0070           0
     35786 MEMB     288      PMPE     HN1      HCL      0.330000       1.00800           0
     35787 MEMB     288      PMPE     HN2      HCL      0.330000       1.00800           0
     35788 MEMB     288      PMPE     HN3      HCL      0.330000       1.00800           0
     35789 MEMB     288      PMPE     C12      CTL2     0.130000       12.0110           0
     35790 MEMB     288      PMPE     H12A     HAL2     0.900000E-01   1.00800           0
     35791 MEMB     288      PMPE     H12B     HAL2     0.900000E-01   1.00800           0
     35792 MEMB     288      PMPE     C11      CTL2    -0.800000E-01   12.0110           0
     35793 MEMB     288      PMPE     H11A     HAL2     0.900000E-01   1.00800           0
     35794 MEMB     288      PMPE     H11B     HAL2     0.900000E-01   1.00800           0
     35795 MEMB     288      PMPE     P        PL        1.50000       30.9740           0
     35796 MEMB     288      PMPE     O13      O2L     -0.780000       15.9994           0
     35797 MEMB     288      PMPE     O14      O2L     -0.780000       15.9994           0
     35798 MEMB     288      PMPE     O11      OSLP    -0.570000       15.9994           0
     35799 MEMB     288      PMPE     O12      OSLP    -0.570000       15.9994           0
     35800 MEMB     288      PMPE     C1       CTL2    -0.800000E-01   12.0110           0
     35801 MEMB     288      PMPE     HA       HAL2     0.900000E-01   1.00800           0
     35802 MEMB     288      PMPE     HB       HAL2     0.900000E-01   1.00800           0
     35803 MEMB     288      PMPE     C2       CTL1     0.170000       12.0110           0
     35804 MEMB     288      PMPE     HS       HAL1     0.900000E-01   1.00800           0
     35805 MEMB     288      PMPE     O21      OSL     -0.490000       15.9994           0
     35806 MEMB     288      PMPE     C21      CL       0.900000       12.0110           0
     35807 MEMB     288      PMPE     O22      OBL     -0.630000       15.9994           0
     35808 MEMB     288      PMPE     C22      CTL2    -0.220000       12.0110           0
     35809 MEMB     288      PMPE     H2R      HAL2     0.900000E-01   1.00800           0
     35810 MEMB     288      PMPE     H2S      HAL2     0.900000E-01   1.00800           0
     35811 MEMB     288      PMPE     C3       CTL2     0.800000E-01   12.0110           0
     35812 MEMB     288      PMPE     HX       HAL2     0.900000E-01   1.00800           0
     35813 MEMB     288      PMPE     HY       HAL2     0.900000E-01   1.00800           0
     35814 MEMB     288      PMPE     O31      OSL     -0.490000       15.9994           0
     35815 MEMB     288      PMPE     C31      CL       0.900000       12.0110           0
     35816 MEMB     288      PMPE     O32      OBL     -0.630000       15.9994           0
     35817 MEMB     288      PMPE     C32      CTL2    -0.220000       12.0110           0
     35818 MEMB     288      PMPE     H2X      HAL2     0.900000E-01   1.00800           0
     35819 MEMB     288      PMPE     H2Y      HAL2     0.900000E-01   1.00800           0
     35820 MEMB     288      PMPE     C23      CTL2    -0.180000       12.0110           0
     35821 MEMB     288      PMPE     H3R      HAL2     0.900000E-01   1.00800           0
     35822 MEMB     288      PMPE     H3S      HAL2     0.900000E-01   1.00800           0
     35823 MEMB     288      PMPE     C24      CTL2    -0.180000       12.0110           0
     35824 MEMB     288      PMPE     H4R      HAL2     0.900000E-01   1.00800           0
     35825 MEMB     288      PMPE     H4S      HAL2     0.900000E-01   1.00800           0
     35826 MEMB     288      PMPE     C25      CTL2    -0.180000       12.0110           0
     35827 MEMB     288      PMPE     H5R      HAL2     0.900000E-01   1.00800           0
     35828 MEMB     288      PMPE     H5S      HAL2     0.900000E-01   1.00800           0
     35829 MEMB     288      PMPE     C26      CTL2    -0.180000       12.0110           0
     35830 MEMB     288      PMPE     H6R      HAL2     0.900000E-01   1.00800           0
     35831 MEMB     288      PMPE     H6S      HAL2     0.900000E-01   1.00800           0
     35832 MEMB     288      PMPE     C27      CTL2    -0.180000       12.0110           0
     35833 MEMB     288      PMPE     H7R      HAL2     0.900000E-01   1.00800           0
     35834 MEMB     288      PMPE     H7S      HAL2     0.900000E-01   1.00800           0
     35835 MEMB     288      PMPE     C28      CTL2    -0.180000       12.0110           0
     35836 MEMB     288      PMPE     H8R      HAL2     0.900000E-01   1.00800           0
     35837 MEMB     288      PMPE     H8S      HAL2     0.900000E-01   1.00800           0
     35838 MEMB     288      PMPE     C29      CG3RC1  -0.900000E-01   12.0110           0
     35839 MEMB     288      PMPE     H9R      HGA1     0.900000E-01   1.00800           0
     35840 MEMB     288      PMPE     C217     CG3C31  -0.180000       12.0110           0
     35841 MEMB     288      PMPE     H17R     HGA2     0.900000E-01   1.00800           0
     35842 MEMB     288      PMPE     H17S     HGA2     0.900000E-01   1.00800           0
     35843 MEMB     288      PMPE     C210     CG3RC1  -0.900000E-01   12.0110           0
     35844 MEMB     288      PMPE     H10R     HGA1     0.900000E-01   1.00800           0
     35845 MEMB     288      PMPE     C211     CTL2    -0.180000       12.0110           0
     35846 MEMB     288      PMPE     H11R     HAL2     0.900000E-01   1.00800           0
     35847 MEMB     288      PMPE     H11S     HAL2     0.900000E-01   1.00800           0
     35848 MEMB     288      PMPE     C212     CTL2    -0.180000       12.0110           0
     35849 MEMB     288      PMPE     H12R     HAL2     0.900000E-01   1.00800           0
     35850 MEMB     288      PMPE     H12S     HAL2     0.900000E-01   1.00800           0
     35851 MEMB     288      PMPE     C213     CTL2    -0.180000       12.0110           0
     35852 MEMB     288      PMPE     H13R     HAL2     0.900000E-01   1.00800           0
     35853 MEMB     288      PMPE     H13S     HAL2     0.900000E-01   1.00800           0
     35854 MEMB     288      PMPE     C214     CTL2    -0.180000       12.0110           0
     35855 MEMB     288      PMPE     H14R     HAL2     0.900000E-01   1.00800           0
     35856 MEMB     288      PMPE     H14S     HAL2     0.900000E-01   1.00800           0
     35857 MEMB     288      PMPE     C215     CTL2    -0.180000       12.0110           0
     35858 MEMB     288      PMPE     H15R     HAL2     0.900000E-01   1.00800           0
     35859 MEMB     288      PMPE     H15S     HAL2     0.900000E-01   1.00800           0
     35860 MEMB     288      PMPE     C216     CTL3    -0.270000       12.0110           0
     35861 MEMB     288      PMPE     H16R     HAL3     0.900000E-01   1.00800           0
     35862 MEMB     288      PMPE     H16S     HAL3     0.900000E-01   1.00800           0
     35863 MEMB     288      PMPE     H16T     HAL3     0.900000E-01   1.00800           0
     35864 MEMB     288      PMPE     C33      CTL2    -0.180000       12.0110           0
     35865 MEMB     288      PMPE     H3X      HAL2     0.900000E-01   1.00800           0
     35866 MEMB     288      PMPE     H3Y      HAL2     0.900000E-01   1.00800           0
     35867 MEMB     288      PMPE     C34      CTL2    -0.180000       12.0110           0
     35868 MEMB     288      PMPE     H4X      HAL2     0.900000E-01   1.00800           0
     35869 MEMB     288      PMPE     H4Y      HAL2     0.900000E-01   1.00800           0
     35870 MEMB     288      PMPE     C35      CTL2    -0.180000       12.0110           0
     35871 MEMB     288      PMPE     H5X      HAL2     0.900000E-01   1.00800           0
     35872 MEMB     288      PMPE     H5Y      HAL2     0.900000E-01   1.00800           0
     35873 MEMB     288      PMPE     C36      CTL2    -0.180000       12.0110           0
     35874 MEMB     288      PMPE     H6X      HAL2     0.900000E-01   1.00800           0
     35875 MEMB     288      PMPE     H6Y      HAL2     0.900000E-01   1.00800           0
     35876 MEMB     288      PMPE     C37      CTL2    -0.180000       12.0110           0
     35877 MEMB     288      PMPE     H7X      HAL2     0.900000E-01   1.00800           0
     35878 MEMB     288      PMPE     H7Y      HAL2     0.900000E-01   1.00800           0
     35879 MEMB     288      PMPE     C38      CTL2    -0.180000       12.0110           0
     35880 MEMB     288      PMPE     H8X      HAL2     0.900000E-01   1.00800           0
     35881 MEMB     288      PMPE     H8Y      HAL2     0.900000E-01   1.00800           0
     35882 MEMB     288      PMPE     C39      CTL2    -0.180000       12.0110           0
     35883 MEMB     288      PMPE     H9X      HAL2     0.900000E-01   1.00800           0
     35884 MEMB     288      PMPE     H9Y      HAL2     0.900000E-01   1.00800           0
     35885 MEMB     288      PMPE     C310     CTL2    -0.180000       12.0110           0
     35886 MEMB     288      PMPE     H10X     HAL2     0.900000E-01   1.00800           0
     35887 MEMB     288      PMPE     H10Y     HAL2     0.900000E-01   1.00800           0
     35888 MEMB     288      PMPE     C311     CTL2    -0.180000       12.0110           0
     35889 MEMB     288      PMPE     H11X     HAL2     0.900000E-01   1.00800           0
     35890 MEMB     288      PMPE     H11Y     HAL2     0.900000E-01   1.00800           0
     35891 MEMB     288      PMPE     C312     CTL2    -0.180000       12.0110           0
     35892 MEMB     288      PMPE     H12X     HAL2     0.900000E-01   1.00800           0
     35893 MEMB     288      PMPE     H12Y     HAL2     0.900000E-01   1.00800           0
     35894 MEMB     288      PMPE     C313     CTL2    -0.180000       12.0110           0
     35895 MEMB     288      PMPE     H13X     HAL2     0.900000E-01   1.00800           0
     35896 MEMB     288      PMPE     H13Y     HAL2     0.900000E-01   1.00800           0
     35897 MEMB     288      PMPE     C314     CTL2    -0.180000       12.0110           0
     35898 MEMB     288      PMPE     H14X     HAL2     0.900000E-01   1.00800           0
     35899 MEMB     288      PMPE     H14Y     HAL2     0.900000E-01   1.00800           0
     35900 MEMB     288      PMPE     C315     CTL2    -0.180000       12.0110           0
     35901 MEMB     288      PMPE     H15X     HAL2     0.900000E-01   1.00800           0
     35902 MEMB     288      PMPE     H15Y     HAL2     0.900000E-01   1.00800           0
     35903 MEMB     288      PMPE     C316     CTL3    -0.270000       12.0110           0
     35904 MEMB     288      PMPE     H16X     HAL3     0.900000E-01   1.00800           0
     35905 MEMB     288      PMPE     H16Y     HAL3     0.900000E-01   1.00800           0
     35906 MEMB     288      PMPE     H16Z     HAL3     0.900000E-01   1.00800           0
     35907 MEMB     289      PYPG     C13      CTL2     0.500000E-01   12.0110           0
     35908 MEMB     289      PYPG     H13A     HAL2     0.900000E-01   1.00800           0
     35909 MEMB     289      PYPG     H13B     HAL2     0.900000E-01   1.00800           0
     35910 MEMB     289      PYPG     OC3      OHL     -0.660000       15.9994           0
     35911 MEMB     289      PYPG     HO3      HOL      0.430000       1.00800           0
     35912 MEMB     289      PYPG     C12      CTL1     0.140000       12.0110           0
     35913 MEMB     289      PYPG     H12A     HAL1     0.900000E-01   1.00800           0
     35914 MEMB     289      PYPG     OC2      OHL     -0.660000       15.9994           0
     35915 MEMB     289      PYPG     HO2      HOL      0.430000       1.00800           0
     35916 MEMB     289      PYPG     C11      CTL2    -0.800000E-01   12.0110           0
     35917 MEMB     289      PYPG     H11A     HAL2     0.900000E-01   1.00800           0
     35918 MEMB     289      PYPG     H11B     HAL2     0.900000E-01   1.00800           0
     35919 MEMB     289      PYPG     P        PL        1.50000       30.9740           0
     35920 MEMB     289      PYPG     O13      O2L     -0.780000       15.9994           0
     35921 MEMB     289      PYPG     O14      O2L     -0.780000       15.9994           0
     35922 MEMB     289      PYPG     O11      OSLP    -0.570000       15.9994           0
     35923 MEMB     289      PYPG     O12      OSLP    -0.570000       15.9994           0
     35924 MEMB     289      PYPG     C1       CTL2    -0.800000E-01   12.0110           0
     35925 MEMB     289      PYPG     HA       HAL2     0.900000E-01   1.00800           0
     35926 MEMB     289      PYPG     HB       HAL2     0.900000E-01   1.00800           0
     35927 MEMB     289      PYPG     C2       CTL1     0.170000       12.0110           0
     35928 MEMB     289      PYPG     HS       HAL1     0.900000E-01   1.00800           0
     35929 MEMB     289      PYPG     O21      OSL     -0.490000       15.9994           0
     35930 MEMB     289      PYPG     C21      CL       0.900000       12.0110           0
     35931 MEMB     289      PYPG     O22      OBL     -0.630000       15.9994           0
     35932 MEMB     289      PYPG     C22      CTL2    -0.220000       12.0110           0
     35933 MEMB     289      PYPG     H2R      HAL2     0.900000E-01   1.00800           0
     35934 MEMB     289      PYPG     H2S      HAL2     0.900000E-01   1.00800           0
     35935 MEMB     289      PYPG     C3       CTL2     0.800000E-01   12.0110           0
     35936 MEMB     289      PYPG     HX       HAL2     0.900000E-01   1.00800           0
     35937 MEMB     289      PYPG     HY       HAL2     0.900000E-01   1.00800           0
     35938 MEMB     289      PYPG     O31      OSL     -0.490000       15.9994           0
     35939 MEMB     289      PYPG     C31      CL       0.900000       12.0110           0
     35940 MEMB     289      PYPG     O32      OBL     -0.630000       15.9994           0
     35941 MEMB     289      PYPG     C32      CTL2    -0.220000       12.0110           0
     35942 MEMB     289      PYPG     H2X      HAL2     0.900000E-01   1.00800           0
     35943 MEMB     289      PYPG     H2Y      HAL2     0.900000E-01   1.00800           0
     35944 MEMB     289      PYPG     C23      CTL2    -0.180000       12.0110           0
     35945 MEMB     289      PYPG     H3R      HAL2     0.900000E-01   1.00800           0
     35946 MEMB     289      PYPG     H3S      HAL2     0.900000E-01   1.00800           0
     35947 MEMB     289      PYPG     C24      CTL2    -0.180000       12.0110           0
     35948 MEMB     289      PYPG     H4R      HAL2     0.900000E-01   1.00800           0
     35949 MEMB     289      PYPG     H4S      HAL2     0.900000E-01   1.00800           0
     35950 MEMB     289      PYPG     C25      CTL2    -0.180000       12.0110           0
     35951 MEMB     289      PYPG     H5R      HAL2     0.900000E-01   1.00800           0
     35952 MEMB     289      PYPG     H5S      HAL2     0.900000E-01   1.00800           0
     35953 MEMB     289      PYPG     C26      CTL2    -0.180000       12.0110           0
     35954 MEMB     289      PYPG     H6R      HAL2     0.900000E-01   1.00800           0
     35955 MEMB     289      PYPG     H6S      HAL2     0.900000E-01   1.00800           0
     35956 MEMB     289      PYPG     C27      CTL2    -0.180000       12.0110           0
     35957 MEMB     289      PYPG     H7R      HAL2     0.900000E-01   1.00800           0
     35958 MEMB     289      PYPG     H7S      HAL2     0.900000E-01   1.00800           0
     35959 MEMB     289      PYPG     C28      CTL2    -0.180000       12.0110           0
     35960 MEMB     289      PYPG     H8R      HAL2     0.900000E-01   1.00800           0
     35961 MEMB     289      PYPG     H8S      HAL2     0.900000E-01   1.00800           0
     35962 MEMB     289      PYPG     C29      CEL1    -0.150000       12.0110           0
     35963 MEMB     289      PYPG     H9R      HEL1     0.150000       1.00800           0
     35964 MEMB     289      PYPG     C210     CEL1    -0.150000       12.0110           0
     35965 MEMB     289      PYPG     H10R     HEL1     0.150000       1.00800           0
     35966 MEMB     289      PYPG     C211     CTL2    -0.180000       12.0110           0
     35967 MEMB     289      PYPG     H11R     HAL2     0.900000E-01   1.00800           0
     35968 MEMB     289      PYPG     H11S     HAL2     0.900000E-01   1.00800           0
     35969 MEMB     289      PYPG     C212     CTL2    -0.180000       12.0110           0
     35970 MEMB     289      PYPG     H12R     HAL2     0.900000E-01   1.00800           0
     35971 MEMB     289      PYPG     H12S     HAL2     0.900000E-01   1.00800           0
     35972 MEMB     289      PYPG     C213     CTL2    -0.180000       12.0110           0
     35973 MEMB     289      PYPG     H13R     HAL2     0.900000E-01   1.00800           0
     35974 MEMB     289      PYPG     H13S     HAL2     0.900000E-01   1.00800           0
     35975 MEMB     289      PYPG     C214     CTL2    -0.180000       12.0110           0
     35976 MEMB     289      PYPG     H14R     HAL2     0.900000E-01   1.00800           0
     35977 MEMB     289      PYPG     H14S     HAL2     0.900000E-01   1.00800           0
     35978 MEMB     289      PYPG     C215     CTL2    -0.180000       12.0110           0
     35979 MEMB     289      PYPG     H15R     HAL2     0.900000E-01   1.00800           0
     35980 MEMB     289      PYPG     H15S     HAL2     0.900000E-01   1.00800           0
     35981 MEMB     289      PYPG     C216     CTL3    -0.270000       12.0110           0
     35982 MEMB     289      PYPG     H16R     HAL3     0.900000E-01   1.00800           0
     35983 MEMB     289      PYPG     H16S     HAL3     0.900000E-01   1.00800           0
     35984 MEMB     289      PYPG     H16T     HAL3     0.900000E-01   1.00800           0
     35985 MEMB     289      PYPG     C33      CTL2    -0.180000       12.0110           0
     35986 MEMB     289      PYPG     H3X      HAL2     0.900000E-01   1.00800           0
     35987 MEMB     289      PYPG     H3Y      HAL2     0.900000E-01   1.00800           0
     35988 MEMB     289      PYPG     C34      CTL2    -0.180000       12.0110           0
     35989 MEMB     289      PYPG     H4X      HAL2     0.900000E-01   1.00800           0
     35990 MEMB     289      PYPG     H4Y      HAL2     0.900000E-01   1.00800           0
     35991 MEMB     289      PYPG     C35      CTL2    -0.180000       12.0110           0
     35992 MEMB     289      PYPG     H5X      HAL2     0.900000E-01   1.00800           0
     35993 MEMB     289      PYPG     H5Y      HAL2     0.900000E-01   1.00800           0
     35994 MEMB     289      PYPG     C36      CTL2    -0.180000       12.0110           0
     35995 MEMB     289      PYPG     H6X      HAL2     0.900000E-01   1.00800           0
     35996 MEMB     289      PYPG     H6Y      HAL2     0.900000E-01   1.00800           0
     35997 MEMB     289      PYPG     C37      CTL2    -0.180000       12.0110           0
     35998 MEMB     289      PYPG     H7X      HAL2     0.900000E-01   1.00800           0
     35999 MEMB     289      PYPG     H7Y      HAL2     0.900000E-01   1.00800           0
     36000 MEMB     289      PYPG     C38      CTL2    -0.180000       12.0110           0
     36001 MEMB     289      PYPG     H8X      HAL2     0.900000E-01   1.00800           0
     36002 MEMB     289      PYPG     H8Y      HAL2     0.900000E-01   1.00800           0
     36003 MEMB     289      PYPG     C39      CTL2    -0.180000       12.0110           0
     36004 MEMB     289      PYPG     H9X      HAL2     0.900000E-01   1.00800           0
     36005 MEMB     289      PYPG     H9Y      HAL2     0.900000E-01   1.00800           0
     36006 MEMB     289      PYPG     C310     CTL2    -0.180000       12.0110           0
     36007 MEMB     289      PYPG     H10X     HAL2     0.900000E-01   1.00800           0
     36008 MEMB     289      PYPG     H10Y     HAL2     0.900000E-01   1.00800           0
     36009 MEMB     289      PYPG     C311     CTL2    -0.180000       12.0110           0
     36010 MEMB     289      PYPG     H11X     HAL2     0.900000E-01   1.00800           0
     36011 MEMB     289      PYPG     H11Y     HAL2     0.900000E-01   1.00800           0
     36012 MEMB     289      PYPG     C312     CTL2    -0.180000       12.0110           0
     36013 MEMB     289      PYPG     H12X     HAL2     0.900000E-01   1.00800           0
     36014 MEMB     289      PYPG     H12Y     HAL2     0.900000E-01   1.00800           0
     36015 MEMB     289      PYPG     C313     CTL2    -0.180000       12.0110           0
     36016 MEMB     289      PYPG     H13X     HAL2     0.900000E-01   1.00800           0
     36017 MEMB     289      PYPG     H13Y     HAL2     0.900000E-01   1.00800           0
     36018 MEMB     289      PYPG     C314     CTL2    -0.180000       12.0110           0
     36019 MEMB     289      PYPG     H14X     HAL2     0.900000E-01   1.00800           0
     36020 MEMB     289      PYPG     H14Y     HAL2     0.900000E-01   1.00800           0
     36021 MEMB     289      PYPG     C315     CTL2    -0.180000       12.0110           0
     36022 MEMB     289      PYPG     H15X     HAL2     0.900000E-01   1.00800           0
     36023 MEMB     289      PYPG     H15Y     HAL2     0.900000E-01   1.00800           0
     36024 MEMB     289      PYPG     C316     CTL3    -0.270000       12.0110           0
     36025 MEMB     289      PYPG     H16X     HAL3     0.900000E-01   1.00800           0
     36026 MEMB     289      PYPG     H16Y     HAL3     0.900000E-01   1.00800           0
     36027 MEMB     289      PYPG     H16Z     HAL3     0.900000E-01   1.00800           0
     36028 MEMB     290      OYPE     N        NH3L    -0.300000       14.0070           0
     36029 MEMB     290      OYPE     HN1      HCL      0.330000       1.00800           0
     36030 MEMB     290      OYPE     HN2      HCL      0.330000       1.00800           0
     36031 MEMB     290      OYPE     HN3      HCL      0.330000       1.00800           0
     36032 MEMB     290      OYPE     C12      CTL2     0.130000       12.0110           0
     36033 MEMB     290      OYPE     H12A     HAL2     0.900000E-01   1.00800           0
     36034 MEMB     290      OYPE     H12B     HAL2     0.900000E-01   1.00800           0
     36035 MEMB     290      OYPE     C11      CTL2    -0.800000E-01   12.0110           0
     36036 MEMB     290      OYPE     H11A     HAL2     0.900000E-01   1.00800           0
     36037 MEMB     290      OYPE     H11B     HAL2     0.900000E-01   1.00800           0
     36038 MEMB     290      OYPE     P        PL        1.50000       30.9740           0
     36039 MEMB     290      OYPE     O13      O2L     -0.780000       15.9994           0
     36040 MEMB     290      OYPE     O14      O2L     -0.780000       15.9994           0
     36041 MEMB     290      OYPE     O11      OSLP    -0.570000       15.9994           0
     36042 MEMB     290      OYPE     O12      OSLP    -0.570000       15.9994           0
     36043 MEMB     290      OYPE     C1       CTL2    -0.800000E-01   12.0110           0
     36044 MEMB     290      OYPE     HA       HAL2     0.900000E-01   1.00800           0
     36045 MEMB     290      OYPE     HB       HAL2     0.900000E-01   1.00800           0
     36046 MEMB     290      OYPE     C2       CTL1     0.170000       12.0110           0
     36047 MEMB     290      OYPE     HS       HAL1     0.900000E-01   1.00800           0
     36048 MEMB     290      OYPE     O21      OSL     -0.490000       15.9994           0
     36049 MEMB     290      OYPE     C21      CL       0.900000       12.0110           0
     36050 MEMB     290      OYPE     O22      OBL     -0.630000       15.9994           0
     36051 MEMB     290      OYPE     C22      CTL2    -0.220000       12.0110           0
     36052 MEMB     290      OYPE     H2R      HAL2     0.900000E-01   1.00800           0
     36053 MEMB     290      OYPE     H2S      HAL2     0.900000E-01   1.00800           0
     36054 MEMB     290      OYPE     C3       CTL2     0.800000E-01   12.0110           0
     36055 MEMB     290      OYPE     HX       HAL2     0.900000E-01   1.00800           0
     36056 MEMB     290      OYPE     HY       HAL2     0.900000E-01   1.00800           0
     36057 MEMB     290      OYPE     O31      OSL     -0.490000       15.9994           0
     36058 MEMB     290      OYPE     C31      CL       0.900000       12.0110           0
     36059 MEMB     290      OYPE     O32      OBL     -0.630000       15.9994           0
     36060 MEMB     290      OYPE     C32      CTL2    -0.220000       12.0110           0
     36061 MEMB     290      OYPE     H2X      HAL2     0.900000E-01   1.00800           0
     36062 MEMB     290      OYPE     H2Y      HAL2     0.900000E-01   1.00800           0
     36063 MEMB     290      OYPE     C23      CTL2    -0.180000       12.0110           0
     36064 MEMB     290      OYPE     H3R      HAL2     0.900000E-01   1.00800           0
     36065 MEMB     290      OYPE     H3S      HAL2     0.900000E-01   1.00800           0
     36066 MEMB     290      OYPE     C24      CTL2    -0.180000       12.0110           0
     36067 MEMB     290      OYPE     H4R      HAL2     0.900000E-01   1.00800           0
     36068 MEMB     290      OYPE     H4S      HAL2     0.900000E-01   1.00800           0
     36069 MEMB     290      OYPE     C25      CTL2    -0.180000       12.0110           0
     36070 MEMB     290      OYPE     H5R      HAL2     0.900000E-01   1.00800           0
     36071 MEMB     290      OYPE     H5S      HAL2     0.900000E-01   1.00800           0
     36072 MEMB     290      OYPE     C26      CTL2    -0.180000       12.0110           0
     36073 MEMB     290      OYPE     H6R      HAL2     0.900000E-01   1.00800           0
     36074 MEMB     290      OYPE     H6S      HAL2     0.900000E-01   1.00800           0
     36075 MEMB     290      OYPE     C27      CTL2    -0.180000       12.0110           0
     36076 MEMB     290      OYPE     H7R      HAL2     0.900000E-01   1.00800           0
     36077 MEMB     290      OYPE     H7S      HAL2     0.900000E-01   1.00800           0
     36078 MEMB     290      OYPE     C28      CTL2    -0.180000       12.0110           0
     36079 MEMB     290      OYPE     H8R      HAL2     0.900000E-01   1.00800           0
     36080 MEMB     290      OYPE     H8S      HAL2     0.900000E-01   1.00800           0
     36081 MEMB     290      OYPE     C29      CEL1    -0.150000       12.0110           0
     36082 MEMB     290      OYPE     H9R      HEL1     0.150000       1.00800           0
     36083 MEMB     290      OYPE     C210     CEL1    -0.150000       12.0110           0
     36084 MEMB     290      OYPE     H10R     HEL1     0.150000       1.00800           0
     36085 MEMB     290      OYPE     C211     CTL2    -0.180000       12.0110           0
     36086 MEMB     290      OYPE     H11R     HAL2     0.900000E-01   1.00800           0
     36087 MEMB     290      OYPE     H11S     HAL2     0.900000E-01   1.00800           0
     36088 MEMB     290      OYPE     C212     CTL2    -0.180000       12.0110           0
     36089 MEMB     290      OYPE     H12R     HAL2     0.900000E-01   1.00800           0
     36090 MEMB     290      OYPE     H12S     HAL2     0.900000E-01   1.00800           0
     36091 MEMB     290      OYPE     C213     CTL2    -0.180000       12.0110           0
     36092 MEMB     290      OYPE     H13R     HAL2     0.900000E-01   1.00800           0
     36093 MEMB     290      OYPE     H13S     HAL2     0.900000E-01   1.00800           0
     36094 MEMB     290      OYPE     C214     CTL2    -0.180000       12.0110           0
     36095 MEMB     290      OYPE     H14R     HAL2     0.900000E-01   1.00800           0
     36096 MEMB     290      OYPE     H14S     HAL2     0.900000E-01   1.00800           0
     36097 MEMB     290      OYPE     C215     CTL2    -0.180000       12.0110           0
     36098 MEMB     290      OYPE     H15R     HAL2     0.900000E-01   1.00800           0
     36099 MEMB     290      OYPE     H15S     HAL2     0.900000E-01   1.00800           0
     36100 MEMB     290      OYPE     C216     CTL3    -0.270000       12.0110           0
     36101 MEMB     290      OYPE     H16R     HAL3     0.900000E-01   1.00800           0
     36102 MEMB     290      OYPE     H16S     HAL3     0.900000E-01   1.00800           0
     36103 MEMB     290      OYPE     H16T     HAL3     0.900000E-01   1.00800           0
     36104 MEMB     290      OYPE     C33      CTL2    -0.180000       12.0110           0
     36105 MEMB     290      OYPE     H3X      HAL2     0.900000E-01   1.00800           0
     36106 MEMB     290      OYPE     H3Y      HAL2     0.900000E-01   1.00800           0
     36107 MEMB     290      OYPE     C34      CTL2    -0.180000       12.0110           0
     36108 MEMB     290      OYPE     H4X      HAL2     0.900000E-01   1.00800           0
     36109 MEMB     290      OYPE     H4Y      HAL2     0.900000E-01   1.00800           0
     36110 MEMB     290      OYPE     C35      CTL2    -0.180000       12.0110           0
     36111 MEMB     290      OYPE     H5X      HAL2     0.900000E-01   1.00800           0
     36112 MEMB     290      OYPE     H5Y      HAL2     0.900000E-01   1.00800           0
     36113 MEMB     290      OYPE     C36      CTL2    -0.180000       12.0110           0
     36114 MEMB     290      OYPE     H6X      HAL2     0.900000E-01   1.00800           0
     36115 MEMB     290      OYPE     H6Y      HAL2     0.900000E-01   1.00800           0
     36116 MEMB     290      OYPE     C37      CTL2    -0.180000       12.0110           0
     36117 MEMB     290      OYPE     H7X      HAL2     0.900000E-01   1.00800           0
     36118 MEMB     290      OYPE     H7Y      HAL2     0.900000E-01   1.00800           0
     36119 MEMB     290      OYPE     C38      CTL2    -0.180000       12.0110           0
     36120 MEMB     290      OYPE     H8X      HAL2     0.900000E-01   1.00800           0
     36121 MEMB     290      OYPE     H8Y      HAL2     0.900000E-01   1.00800           0
     36122 MEMB     290      OYPE     C39      CEL1    -0.150000       12.0110           0
     36123 MEMB     290      OYPE     H9X      HEL1     0.150000       1.00800           0
     36124 MEMB     290      OYPE     C310     CEL1    -0.150000       12.0110           0
     36125 MEMB     290      OYPE     H10X     HEL1     0.150000       1.00800           0
     36126 MEMB     290      OYPE     C311     CTL2    -0.180000       12.0110           0
     36127 MEMB     290      OYPE     H11X     HAL2     0.900000E-01   1.00800           0
     36128 MEMB     290      OYPE     H11Y     HAL2     0.900000E-01   1.00800           0
     36129 MEMB     290      OYPE     C312     CTL2    -0.180000       12.0110           0
     36130 MEMB     290      OYPE     H12X     HAL2     0.900000E-01   1.00800           0
     36131 MEMB     290      OYPE     H12Y     HAL2     0.900000E-01   1.00800           0
     36132 MEMB     290      OYPE     C313     CTL2    -0.180000       12.0110           0
     36133 MEMB     290      OYPE     H13X     HAL2     0.900000E-01   1.00800           0
     36134 MEMB     290      OYPE     H13Y     HAL2     0.900000E-01   1.00800           0
     36135 MEMB     290      OYPE     C314     CTL2    -0.180000       12.0110           0
     36136 MEMB     290      OYPE     H14X     HAL2     0.900000E-01   1.00800           0
     36137 MEMB     290      OYPE     H14Y     HAL2     0.900000E-01   1.00800           0
     36138 MEMB     290      OYPE     C315     CTL2    -0.180000       12.0110           0
     36139 MEMB     290      OYPE     H15X     HAL2     0.900000E-01   1.00800           0
     36140 MEMB     290      OYPE     H15Y     HAL2     0.900000E-01   1.00800           0
     36141 MEMB     290      OYPE     C316     CTL2    -0.180000       12.0110           0
     36142 MEMB     290      OYPE     H16X     HAL2     0.900000E-01   1.00800           0
     36143 MEMB     290      OYPE     H16Y     HAL2     0.900000E-01   1.00800           0
     36144 MEMB     290      OYPE     C317     CTL2    -0.180000       12.0110           0
     36145 MEMB     290      OYPE     H17X     HAL2     0.900000E-01   1.00800           0
     36146 MEMB     290      OYPE     H17Y     HAL2     0.900000E-01   1.00800           0
     36147 MEMB     290      OYPE     C318     CTL3    -0.270000       12.0110           0
     36148 MEMB     290      OYPE     H18X     HAL3     0.900000E-01   1.00800           0
     36149 MEMB     290      OYPE     H18Y     HAL3     0.900000E-01   1.00800           0
     36150 MEMB     290      OYPE     H18Z     HAL3     0.900000E-01   1.00800           0
     36151 MEMB     291      PMPE     N        NH3L    -0.300000       14.0070           0
     36152 MEMB     291      PMPE     HN1      HCL      0.330000       1.00800           0
     36153 MEMB     291      PMPE     HN2      HCL      0.330000       1.00800           0
     36154 MEMB     291      PMPE     HN3      HCL      0.330000       1.00800           0
     36155 MEMB     291      PMPE     C12      CTL2     0.130000       12.0110           0
     36156 MEMB     291      PMPE     H12A     HAL2     0.900000E-01   1.00800           0
     36157 MEMB     291      PMPE     H12B     HAL2     0.900000E-01   1.00800           0
     36158 MEMB     291      PMPE     C11      CTL2    -0.800000E-01   12.0110           0
     36159 MEMB     291      PMPE     H11A     HAL2     0.900000E-01   1.00800           0
     36160 MEMB     291      PMPE     H11B     HAL2     0.900000E-01   1.00800           0
     36161 MEMB     291      PMPE     P        PL        1.50000       30.9740           0
     36162 MEMB     291      PMPE     O13      O2L     -0.780000       15.9994           0
     36163 MEMB     291      PMPE     O14      O2L     -0.780000       15.9994           0
     36164 MEMB     291      PMPE     O11      OSLP    -0.570000       15.9994           0
     36165 MEMB     291      PMPE     O12      OSLP    -0.570000       15.9994           0
     36166 MEMB     291      PMPE     C1       CTL2    -0.800000E-01   12.0110           0
     36167 MEMB     291      PMPE     HA       HAL2     0.900000E-01   1.00800           0
     36168 MEMB     291      PMPE     HB       HAL2     0.900000E-01   1.00800           0
     36169 MEMB     291      PMPE     C2       CTL1     0.170000       12.0110           0
     36170 MEMB     291      PMPE     HS       HAL1     0.900000E-01   1.00800           0
     36171 MEMB     291      PMPE     O21      OSL     -0.490000       15.9994           0
     36172 MEMB     291      PMPE     C21      CL       0.900000       12.0110           0
     36173 MEMB     291      PMPE     O22      OBL     -0.630000       15.9994           0
     36174 MEMB     291      PMPE     C22      CTL2    -0.220000       12.0110           0
     36175 MEMB     291      PMPE     H2R      HAL2     0.900000E-01   1.00800           0
     36176 MEMB     291      PMPE     H2S      HAL2     0.900000E-01   1.00800           0
     36177 MEMB     291      PMPE     C3       CTL2     0.800000E-01   12.0110           0
     36178 MEMB     291      PMPE     HX       HAL2     0.900000E-01   1.00800           0
     36179 MEMB     291      PMPE     HY       HAL2     0.900000E-01   1.00800           0
     36180 MEMB     291      PMPE     O31      OSL     -0.490000       15.9994           0
     36181 MEMB     291      PMPE     C31      CL       0.900000       12.0110           0
     36182 MEMB     291      PMPE     O32      OBL     -0.630000       15.9994           0
     36183 MEMB     291      PMPE     C32      CTL2    -0.220000       12.0110           0
     36184 MEMB     291      PMPE     H2X      HAL2     0.900000E-01   1.00800           0
     36185 MEMB     291      PMPE     H2Y      HAL2     0.900000E-01   1.00800           0
     36186 MEMB     291      PMPE     C23      CTL2    -0.180000       12.0110           0
     36187 MEMB     291      PMPE     H3R      HAL2     0.900000E-01   1.00800           0
     36188 MEMB     291      PMPE     H3S      HAL2     0.900000E-01   1.00800           0
     36189 MEMB     291      PMPE     C24      CTL2    -0.180000       12.0110           0
     36190 MEMB     291      PMPE     H4R      HAL2     0.900000E-01   1.00800           0
     36191 MEMB     291      PMPE     H4S      HAL2     0.900000E-01   1.00800           0
     36192 MEMB     291      PMPE     C25      CTL2    -0.180000       12.0110           0
     36193 MEMB     291      PMPE     H5R      HAL2     0.900000E-01   1.00800           0
     36194 MEMB     291      PMPE     H5S      HAL2     0.900000E-01   1.00800           0
     36195 MEMB     291      PMPE     C26      CTL2    -0.180000       12.0110           0
     36196 MEMB     291      PMPE     H6R      HAL2     0.900000E-01   1.00800           0
     36197 MEMB     291      PMPE     H6S      HAL2     0.900000E-01   1.00800           0
     36198 MEMB     291      PMPE     C27      CTL2    -0.180000       12.0110           0
     36199 MEMB     291      PMPE     H7R      HAL2     0.900000E-01   1.00800           0
     36200 MEMB     291      PMPE     H7S      HAL2     0.900000E-01   1.00800           0
     36201 MEMB     291      PMPE     C28      CTL2    -0.180000       12.0110           0
     36202 MEMB     291      PMPE     H8R      HAL2     0.900000E-01   1.00800           0
     36203 MEMB     291      PMPE     H8S      HAL2     0.900000E-01   1.00800           0
     36204 MEMB     291      PMPE     C29      CG3RC1  -0.900000E-01   12.0110           0
     36205 MEMB     291      PMPE     H9R      HGA1     0.900000E-01   1.00800           0
     36206 MEMB     291      PMPE     C217     CG3C31  -0.180000       12.0110           0
     36207 MEMB     291      PMPE     H17R     HGA2     0.900000E-01   1.00800           0
     36208 MEMB     291      PMPE     H17S     HGA2     0.900000E-01   1.00800           0
     36209 MEMB     291      PMPE     C210     CG3RC1  -0.900000E-01   12.0110           0
     36210 MEMB     291      PMPE     H10R     HGA1     0.900000E-01   1.00800           0
     36211 MEMB     291      PMPE     C211     CTL2    -0.180000       12.0110           0
     36212 MEMB     291      PMPE     H11R     HAL2     0.900000E-01   1.00800           0
     36213 MEMB     291      PMPE     H11S     HAL2     0.900000E-01   1.00800           0
     36214 MEMB     291      PMPE     C212     CTL2    -0.180000       12.0110           0
     36215 MEMB     291      PMPE     H12R     HAL2     0.900000E-01   1.00800           0
     36216 MEMB     291      PMPE     H12S     HAL2     0.900000E-01   1.00800           0
     36217 MEMB     291      PMPE     C213     CTL2    -0.180000       12.0110           0
     36218 MEMB     291      PMPE     H13R     HAL2     0.900000E-01   1.00800           0
     36219 MEMB     291      PMPE     H13S     HAL2     0.900000E-01   1.00800           0
     36220 MEMB     291      PMPE     C214     CTL2    -0.180000       12.0110           0
     36221 MEMB     291      PMPE     H14R     HAL2     0.900000E-01   1.00800           0
     36222 MEMB     291      PMPE     H14S     HAL2     0.900000E-01   1.00800           0
     36223 MEMB     291      PMPE     C215     CTL2    -0.180000       12.0110           0
     36224 MEMB     291      PMPE     H15R     HAL2     0.900000E-01   1.00800           0
     36225 MEMB     291      PMPE     H15S     HAL2     0.900000E-01   1.00800           0
     36226 MEMB     291      PMPE     C216     CTL3    -0.270000       12.0110           0
     36227 MEMB     291      PMPE     H16R     HAL3     0.900000E-01   1.00800           0
     36228 MEMB     291      PMPE     H16S     HAL3     0.900000E-01   1.00800           0
     36229 MEMB     291      PMPE     H16T     HAL3     0.900000E-01   1.00800           0
     36230 MEMB     291      PMPE     C33      CTL2    -0.180000       12.0110           0
     36231 MEMB     291      PMPE     H3X      HAL2     0.900000E-01   1.00800           0
     36232 MEMB     291      PMPE     H3Y      HAL2     0.900000E-01   1.00800           0
     36233 MEMB     291      PMPE     C34      CTL2    -0.180000       12.0110           0
     36234 MEMB     291      PMPE     H4X      HAL2     0.900000E-01   1.00800           0
     36235 MEMB     291      PMPE     H4Y      HAL2     0.900000E-01   1.00800           0
     36236 MEMB     291      PMPE     C35      CTL2    -0.180000       12.0110           0
     36237 MEMB     291      PMPE     H5X      HAL2     0.900000E-01   1.00800           0
     36238 MEMB     291      PMPE     H5Y      HAL2     0.900000E-01   1.00800           0
     36239 MEMB     291      PMPE     C36      CTL2    -0.180000       12.0110           0
     36240 MEMB     291      PMPE     H6X      HAL2     0.900000E-01   1.00800           0
     36241 MEMB     291      PMPE     H6Y      HAL2     0.900000E-01   1.00800           0
     36242 MEMB     291      PMPE     C37      CTL2    -0.180000       12.0110           0
     36243 MEMB     291      PMPE     H7X      HAL2     0.900000E-01   1.00800           0
     36244 MEMB     291      PMPE     H7Y      HAL2     0.900000E-01   1.00800           0
     36245 MEMB     291      PMPE     C38      CTL2    -0.180000       12.0110           0
     36246 MEMB     291      PMPE     H8X      HAL2     0.900000E-01   1.00800           0
     36247 MEMB     291      PMPE     H8Y      HAL2     0.900000E-01   1.00800           0
     36248 MEMB     291      PMPE     C39      CTL2    -0.180000       12.0110           0
     36249 MEMB     291      PMPE     H9X      HAL2     0.900000E-01   1.00800           0
     36250 MEMB     291      PMPE     H9Y      HAL2     0.900000E-01   1.00800           0
     36251 MEMB     291      PMPE     C310     CTL2    -0.180000       12.0110           0
     36252 MEMB     291      PMPE     H10X     HAL2     0.900000E-01   1.00800           0
     36253 MEMB     291      PMPE     H10Y     HAL2     0.900000E-01   1.00800           0
     36254 MEMB     291      PMPE     C311     CTL2    -0.180000       12.0110           0
     36255 MEMB     291      PMPE     H11X     HAL2     0.900000E-01   1.00800           0
     36256 MEMB     291      PMPE     H11Y     HAL2     0.900000E-01   1.00800           0
     36257 MEMB     291      PMPE     C312     CTL2    -0.180000       12.0110           0
     36258 MEMB     291      PMPE     H12X     HAL2     0.900000E-01   1.00800           0
     36259 MEMB     291      PMPE     H12Y     HAL2     0.900000E-01   1.00800           0
     36260 MEMB     291      PMPE     C313     CTL2    -0.180000       12.0110           0
     36261 MEMB     291      PMPE     H13X     HAL2     0.900000E-01   1.00800           0
     36262 MEMB     291      PMPE     H13Y     HAL2     0.900000E-01   1.00800           0
     36263 MEMB     291      PMPE     C314     CTL2    -0.180000       12.0110           0
     36264 MEMB     291      PMPE     H14X     HAL2     0.900000E-01   1.00800           0
     36265 MEMB     291      PMPE     H14Y     HAL2     0.900000E-01   1.00800           0
     36266 MEMB     291      PMPE     C315     CTL2    -0.180000       12.0110           0
     36267 MEMB     291      PMPE     H15X     HAL2     0.900000E-01   1.00800           0
     36268 MEMB     291      PMPE     H15Y     HAL2     0.900000E-01   1.00800           0
     36269 MEMB     291      PMPE     C316     CTL3    -0.270000       12.0110           0
     36270 MEMB     291      PMPE     H16X     HAL3     0.900000E-01   1.00800           0
     36271 MEMB     291      PMPE     H16Y     HAL3     0.900000E-01   1.00800           0
     36272 MEMB     291      PMPE     H16Z     HAL3     0.900000E-01   1.00800           0
     36273 MEMB     292      QMPE     N        NH3L    -0.300000       14.0070           0
     36274 MEMB     292      QMPE     HN1      HCL      0.330000       1.00800           0
     36275 MEMB     292      QMPE     HN2      HCL      0.330000       1.00800           0
     36276 MEMB     292      QMPE     HN3      HCL      0.330000       1.00800           0
     36277 MEMB     292      QMPE     C12      CTL2     0.130000       12.0110           0
     36278 MEMB     292      QMPE     H12A     HAL2     0.900000E-01   1.00800           0
     36279 MEMB     292      QMPE     H12B     HAL2     0.900000E-01   1.00800           0
     36280 MEMB     292      QMPE     C11      CTL2    -0.800000E-01   12.0110           0
     36281 MEMB     292      QMPE     H11A     HAL2     0.900000E-01   1.00800           0
     36282 MEMB     292      QMPE     H11B     HAL2     0.900000E-01   1.00800           0
     36283 MEMB     292      QMPE     P        PL        1.50000       30.9740           0
     36284 MEMB     292      QMPE     O13      O2L     -0.780000       15.9994           0
     36285 MEMB     292      QMPE     O14      O2L     -0.780000       15.9994           0
     36286 MEMB     292      QMPE     O11      OSLP    -0.570000       15.9994           0
     36287 MEMB     292      QMPE     O12      OSLP    -0.570000       15.9994           0
     36288 MEMB     292      QMPE     C1       CTL2    -0.800000E-01   12.0110           0
     36289 MEMB     292      QMPE     HA       HAL2     0.900000E-01   1.00800           0
     36290 MEMB     292      QMPE     HB       HAL2     0.900000E-01   1.00800           0
     36291 MEMB     292      QMPE     C2       CTL1     0.170000       12.0110           0
     36292 MEMB     292      QMPE     HS       HAL1     0.900000E-01   1.00800           0
     36293 MEMB     292      QMPE     O21      OSL     -0.490000       15.9994           0
     36294 MEMB     292      QMPE     C21      CL       0.900000       12.0110           0
     36295 MEMB     292      QMPE     O22      OBL     -0.630000       15.9994           0
     36296 MEMB     292      QMPE     C22      CTL2    -0.220000       12.0110           0
     36297 MEMB     292      QMPE     H2R      HAL2     0.900000E-01   1.00800           0
     36298 MEMB     292      QMPE     H2S      HAL2     0.900000E-01   1.00800           0
     36299 MEMB     292      QMPE     C3       CTL2     0.800000E-01   12.0110           0
     36300 MEMB     292      QMPE     HX       HAL2     0.900000E-01   1.00800           0
     36301 MEMB     292      QMPE     HY       HAL2     0.900000E-01   1.00800           0
     36302 MEMB     292      QMPE     O31      OSL     -0.490000       15.9994           0
     36303 MEMB     292      QMPE     C31      CL       0.900000       12.0110           0
     36304 MEMB     292      QMPE     O32      OBL     -0.630000       15.9994           0
     36305 MEMB     292      QMPE     C32      CTL2    -0.220000       12.0110           0
     36306 MEMB     292      QMPE     H2X      HAL2     0.900000E-01   1.00800           0
     36307 MEMB     292      QMPE     H2Y      HAL2     0.900000E-01   1.00800           0
     36308 MEMB     292      QMPE     C23      CTL2    -0.180000       12.0110           0
     36309 MEMB     292      QMPE     H3R      HAL2     0.900000E-01   1.00800           0
     36310 MEMB     292      QMPE     H3S      HAL2     0.900000E-01   1.00800           0
     36311 MEMB     292      QMPE     C24      CTL2    -0.180000       12.0110           0
     36312 MEMB     292      QMPE     H4R      HAL2     0.900000E-01   1.00800           0
     36313 MEMB     292      QMPE     H4S      HAL2     0.900000E-01   1.00800           0
     36314 MEMB     292      QMPE     C25      CTL2    -0.180000       12.0110           0
     36315 MEMB     292      QMPE     H5R      HAL2     0.900000E-01   1.00800           0
     36316 MEMB     292      QMPE     H5S      HAL2     0.900000E-01   1.00800           0
     36317 MEMB     292      QMPE     C26      CTL2    -0.180000       12.0110           0
     36318 MEMB     292      QMPE     H6R      HAL2     0.900000E-01   1.00800           0
     36319 MEMB     292      QMPE     H6S      HAL2     0.900000E-01   1.00800           0
     36320 MEMB     292      QMPE     C27      CTL2    -0.180000       12.0110           0
     36321 MEMB     292      QMPE     H7R      HAL2     0.900000E-01   1.00800           0
     36322 MEMB     292      QMPE     H7S      HAL2     0.900000E-01   1.00800           0
     36323 MEMB     292      QMPE     C28      CTL2    -0.180000       12.0110           0
     36324 MEMB     292      QMPE     H8R      HAL2     0.900000E-01   1.00800           0
     36325 MEMB     292      QMPE     H8S      HAL2     0.900000E-01   1.00800           0
     36326 MEMB     292      QMPE     C29      CG3RC1  -0.900000E-01   12.0110           0
     36327 MEMB     292      QMPE     H9R      HGA1     0.900000E-01   1.00800           0
     36328 MEMB     292      QMPE     C217     CG3C31  -0.180000       12.0110           0
     36329 MEMB     292      QMPE     H17R     HGA2     0.900000E-01   1.00800           0
     36330 MEMB     292      QMPE     H17S     HGA2     0.900000E-01   1.00800           0
     36331 MEMB     292      QMPE     C210     CG3RC1  -0.900000E-01   12.0110           0
     36332 MEMB     292      QMPE     H10R     HGA1     0.900000E-01   1.00800           0
     36333 MEMB     292      QMPE     C211     CTL2    -0.180000       12.0110           0
     36334 MEMB     292      QMPE     H11R     HAL2     0.900000E-01   1.00800           0
     36335 MEMB     292      QMPE     H11S     HAL2     0.900000E-01   1.00800           0
     36336 MEMB     292      QMPE     C212     CTL2    -0.180000       12.0110           0
     36337 MEMB     292      QMPE     H12R     HAL2     0.900000E-01   1.00800           0
     36338 MEMB     292      QMPE     H12S     HAL2     0.900000E-01   1.00800           0
     36339 MEMB     292      QMPE     C213     CTL2    -0.180000       12.0110           0
     36340 MEMB     292      QMPE     H13R     HAL2     0.900000E-01   1.00800           0
     36341 MEMB     292      QMPE     H13S     HAL2     0.900000E-01   1.00800           0
     36342 MEMB     292      QMPE     C214     CTL2    -0.180000       12.0110           0
     36343 MEMB     292      QMPE     H14R     HAL2     0.900000E-01   1.00800           0
     36344 MEMB     292      QMPE     H14S     HAL2     0.900000E-01   1.00800           0
     36345 MEMB     292      QMPE     C215     CTL2    -0.180000       12.0110           0
     36346 MEMB     292      QMPE     H15R     HAL2     0.900000E-01   1.00800           0
     36347 MEMB     292      QMPE     H15S     HAL2     0.900000E-01   1.00800           0
     36348 MEMB     292      QMPE     C216     CTL3    -0.270000       12.0110           0
     36349 MEMB     292      QMPE     H16R     HAL3     0.900000E-01   1.00800           0
     36350 MEMB     292      QMPE     H16S     HAL3     0.900000E-01   1.00800           0
     36351 MEMB     292      QMPE     H16T     HAL3     0.900000E-01   1.00800           0
     36352 MEMB     292      QMPE     C33      CTL2    -0.180000       12.0110           0
     36353 MEMB     292      QMPE     H3X      HAL2     0.900000E-01   1.00800           0
     36354 MEMB     292      QMPE     H3Y      HAL2     0.900000E-01   1.00800           0
     36355 MEMB     292      QMPE     C34      CTL2    -0.180000       12.0110           0
     36356 MEMB     292      QMPE     H4X      HAL2     0.900000E-01   1.00800           0
     36357 MEMB     292      QMPE     H4Y      HAL2     0.900000E-01   1.00800           0
     36358 MEMB     292      QMPE     C35      CTL2    -0.180000       12.0110           0
     36359 MEMB     292      QMPE     H5X      HAL2     0.900000E-01   1.00800           0
     36360 MEMB     292      QMPE     H5Y      HAL2     0.900000E-01   1.00800           0
     36361 MEMB     292      QMPE     C36      CTL2    -0.180000       12.0110           0
     36362 MEMB     292      QMPE     H6X      HAL2     0.900000E-01   1.00800           0
     36363 MEMB     292      QMPE     H6Y      HAL2     0.900000E-01   1.00800           0
     36364 MEMB     292      QMPE     C37      CTL2    -0.180000       12.0110           0
     36365 MEMB     292      QMPE     H7X      HAL2     0.900000E-01   1.00800           0
     36366 MEMB     292      QMPE     H7Y      HAL2     0.900000E-01   1.00800           0
     36367 MEMB     292      QMPE     C38      CTL2    -0.180000       12.0110           0
     36368 MEMB     292      QMPE     H8X      HAL2     0.900000E-01   1.00800           0
     36369 MEMB     292      QMPE     H8Y      HAL2     0.900000E-01   1.00800           0
     36370 MEMB     292      QMPE     C39      CTL2    -0.180000       12.0110           0
     36371 MEMB     292      QMPE     H9X      HAL2     0.900000E-01   1.00800           0
     36372 MEMB     292      QMPE     H9Y      HAL2     0.900000E-01   1.00800           0
     36373 MEMB     292      QMPE     C310     CTL2    -0.180000       12.0110           0
     36374 MEMB     292      QMPE     H10X     HAL2     0.900000E-01   1.00800           0
     36375 MEMB     292      QMPE     H10Y     HAL2     0.900000E-01   1.00800           0
     36376 MEMB     292      QMPE     C311     CTL2    -0.180000       12.0110           0
     36377 MEMB     292      QMPE     H11X     HAL2     0.900000E-01   1.00800           0
     36378 MEMB     292      QMPE     H11Y     HAL2     0.900000E-01   1.00800           0
     36379 MEMB     292      QMPE     C312     CTL2    -0.180000       12.0110           0
     36380 MEMB     292      QMPE     H12X     HAL2     0.900000E-01   1.00800           0
     36381 MEMB     292      QMPE     H12Y     HAL2     0.900000E-01   1.00800           0
     36382 MEMB     292      QMPE     C313     CTL2    -0.180000       12.0110           0
     36383 MEMB     292      QMPE     H13X     HAL2     0.900000E-01   1.00800           0
     36384 MEMB     292      QMPE     H13Y     HAL2     0.900000E-01   1.00800           0
     36385 MEMB     292      QMPE     C314     CTL2    -0.180000       12.0110           0
     36386 MEMB     292      QMPE     H14X     HAL2     0.900000E-01   1.00800           0
     36387 MEMB     292      QMPE     H14Y     HAL2     0.900000E-01   1.00800           0
     36388 MEMB     292      QMPE     C315     CTL3    -0.270000       12.0110           0
     36389 MEMB     292      QMPE     H15X     HAL3     0.900000E-01   1.00800           0
     36390 MEMB     292      QMPE     H15Y     HAL3     0.900000E-01   1.00800           0
     36391 MEMB     292      QMPE     H15Z     HAL3     0.900000E-01   1.00800           0
     36392 MEMB     293      POPE     N        NH3L    -0.300000       14.0070           0
     36393 MEMB     293      POPE     HN1      HCL      0.330000       1.00800           0
     36394 MEMB     293      POPE     HN2      HCL      0.330000       1.00800           0
     36395 MEMB     293      POPE     HN3      HCL      0.330000       1.00800           0
     36396 MEMB     293      POPE     C12      CTL2     0.130000       12.0110           0
     36397 MEMB     293      POPE     H12A     HAL2     0.900000E-01   1.00800           0
     36398 MEMB     293      POPE     H12B     HAL2     0.900000E-01   1.00800           0
     36399 MEMB     293      POPE     C11      CTL2    -0.800000E-01   12.0110           0
     36400 MEMB     293      POPE     H11A     HAL2     0.900000E-01   1.00800           0
     36401 MEMB     293      POPE     H11B     HAL2     0.900000E-01   1.00800           0
     36402 MEMB     293      POPE     P        PL        1.50000       30.9740           0
     36403 MEMB     293      POPE     O13      O2L     -0.780000       15.9994           0
     36404 MEMB     293      POPE     O14      O2L     -0.780000       15.9994           0
     36405 MEMB     293      POPE     O11      OSLP    -0.570000       15.9994           0
     36406 MEMB     293      POPE     O12      OSLP    -0.570000       15.9994           0
     36407 MEMB     293      POPE     C1       CTL2    -0.800000E-01   12.0110           0
     36408 MEMB     293      POPE     HA       HAL2     0.900000E-01   1.00800           0
     36409 MEMB     293      POPE     HB       HAL2     0.900000E-01   1.00800           0
     36410 MEMB     293      POPE     C2       CTL1     0.170000       12.0110           0
     36411 MEMB     293      POPE     HS       HAL1     0.900000E-01   1.00800           0
     36412 MEMB     293      POPE     O21      OSL     -0.490000       15.9994           0
     36413 MEMB     293      POPE     C21      CL       0.900000       12.0110           0
     36414 MEMB     293      POPE     O22      OBL     -0.630000       15.9994           0
     36415 MEMB     293      POPE     C22      CTL2    -0.220000       12.0110           0
     36416 MEMB     293      POPE     H2R      HAL2     0.900000E-01   1.00800           0
     36417 MEMB     293      POPE     H2S      HAL2     0.900000E-01   1.00800           0
     36418 MEMB     293      POPE     C3       CTL2     0.800000E-01   12.0110           0
     36419 MEMB     293      POPE     HX       HAL2     0.900000E-01   1.00800           0
     36420 MEMB     293      POPE     HY       HAL2     0.900000E-01   1.00800           0
     36421 MEMB     293      POPE     O31      OSL     -0.490000       15.9994           0
     36422 MEMB     293      POPE     C31      CL       0.900000       12.0110           0
     36423 MEMB     293      POPE     O32      OBL     -0.630000       15.9994           0
     36424 MEMB     293      POPE     C32      CTL2    -0.220000       12.0110           0
     36425 MEMB     293      POPE     H2X      HAL2     0.900000E-01   1.00800           0
     36426 MEMB     293      POPE     H2Y      HAL2     0.900000E-01   1.00800           0
     36427 MEMB     293      POPE     C23      CTL2    -0.180000       12.0110           0
     36428 MEMB     293      POPE     H3R      HAL2     0.900000E-01   1.00800           0
     36429 MEMB     293      POPE     H3S      HAL2     0.900000E-01   1.00800           0
     36430 MEMB     293      POPE     C24      CTL2    -0.180000       12.0110           0
     36431 MEMB     293      POPE     H4R      HAL2     0.900000E-01   1.00800           0
     36432 MEMB     293      POPE     H4S      HAL2     0.900000E-01   1.00800           0
     36433 MEMB     293      POPE     C25      CTL2    -0.180000       12.0110           0
     36434 MEMB     293      POPE     H5R      HAL2     0.900000E-01   1.00800           0
     36435 MEMB     293      POPE     H5S      HAL2     0.900000E-01   1.00800           0
     36436 MEMB     293      POPE     C26      CTL2    -0.180000       12.0110           0
     36437 MEMB     293      POPE     H6R      HAL2     0.900000E-01   1.00800           0
     36438 MEMB     293      POPE     H6S      HAL2     0.900000E-01   1.00800           0
     36439 MEMB     293      POPE     C27      CTL2    -0.180000       12.0110           0
     36440 MEMB     293      POPE     H7R      HAL2     0.900000E-01   1.00800           0
     36441 MEMB     293      POPE     H7S      HAL2     0.900000E-01   1.00800           0
     36442 MEMB     293      POPE     C28      CTL2    -0.180000       12.0110           0
     36443 MEMB     293      POPE     H8R      HAL2     0.900000E-01   1.00800           0
     36444 MEMB     293      POPE     H8S      HAL2     0.900000E-01   1.00800           0
     36445 MEMB     293      POPE     C29      CEL1    -0.150000       12.0110           0
     36446 MEMB     293      POPE     H91      HEL1     0.150000       1.00800           0
     36447 MEMB     293      POPE     C210     CEL1    -0.150000       12.0110           0
     36448 MEMB     293      POPE     H101     HEL1     0.150000       1.00800           0
     36449 MEMB     293      POPE     C211     CTL2    -0.180000       12.0110           0
     36450 MEMB     293      POPE     H11R     HAL2     0.900000E-01   1.00800           0
     36451 MEMB     293      POPE     H11S     HAL2     0.900000E-01   1.00800           0
     36452 MEMB     293      POPE     C212     CTL2    -0.180000       12.0110           0
     36453 MEMB     293      POPE     H12R     HAL2     0.900000E-01   1.00800           0
     36454 MEMB     293      POPE     H12S     HAL2     0.900000E-01   1.00800           0
     36455 MEMB     293      POPE     C213     CTL2    -0.180000       12.0110           0
     36456 MEMB     293      POPE     H13R     HAL2     0.900000E-01   1.00800           0
     36457 MEMB     293      POPE     H13S     HAL2     0.900000E-01   1.00800           0
     36458 MEMB     293      POPE     C214     CTL2    -0.180000       12.0110           0
     36459 MEMB     293      POPE     H14R     HAL2     0.900000E-01   1.00800           0
     36460 MEMB     293      POPE     H14S     HAL2     0.900000E-01   1.00800           0
     36461 MEMB     293      POPE     C215     CTL2    -0.180000       12.0110           0
     36462 MEMB     293      POPE     H15R     HAL2     0.900000E-01   1.00800           0
     36463 MEMB     293      POPE     H15S     HAL2     0.900000E-01   1.00800           0
     36464 MEMB     293      POPE     C216     CTL2    -0.180000       12.0110           0
     36465 MEMB     293      POPE     H16R     HAL2     0.900000E-01   1.00800           0
     36466 MEMB     293      POPE     H16S     HAL2     0.900000E-01   1.00800           0
     36467 MEMB     293      POPE     C217     CTL2    -0.180000       12.0110           0
     36468 MEMB     293      POPE     H17R     HAL2     0.900000E-01   1.00800           0
     36469 MEMB     293      POPE     H17S     HAL2     0.900000E-01   1.00800           0
     36470 MEMB     293      POPE     C218     CTL3    -0.270000       12.0110           0
     36471 MEMB     293      POPE     H18R     HAL3     0.900000E-01   1.00800           0
     36472 MEMB     293      POPE     H18S     HAL3     0.900000E-01   1.00800           0
     36473 MEMB     293      POPE     H18T     HAL3     0.900000E-01   1.00800           0
     36474 MEMB     293      POPE     C33      CTL2    -0.180000       12.0110           0
     36475 MEMB     293      POPE     H3X      HAL2     0.900000E-01   1.00800           0
     36476 MEMB     293      POPE     H3Y      HAL2     0.900000E-01   1.00800           0
     36477 MEMB     293      POPE     C34      CTL2    -0.180000       12.0110           0
     36478 MEMB     293      POPE     H4X      HAL2     0.900000E-01   1.00800           0
     36479 MEMB     293      POPE     H4Y      HAL2     0.900000E-01   1.00800           0
     36480 MEMB     293      POPE     C35      CTL2    -0.180000       12.0110           0
     36481 MEMB     293      POPE     H5X      HAL2     0.900000E-01   1.00800           0
     36482 MEMB     293      POPE     H5Y      HAL2     0.900000E-01   1.00800           0
     36483 MEMB     293      POPE     C36      CTL2    -0.180000       12.0110           0
     36484 MEMB     293      POPE     H6X      HAL2     0.900000E-01   1.00800           0
     36485 MEMB     293      POPE     H6Y      HAL2     0.900000E-01   1.00800           0
     36486 MEMB     293      POPE     C37      CTL2    -0.180000       12.0110           0
     36487 MEMB     293      POPE     H7X      HAL2     0.900000E-01   1.00800           0
     36488 MEMB     293      POPE     H7Y      HAL2     0.900000E-01   1.00800           0
     36489 MEMB     293      POPE     C38      CTL2    -0.180000       12.0110           0
     36490 MEMB     293      POPE     H8X      HAL2     0.900000E-01   1.00800           0
     36491 MEMB     293      POPE     H8Y      HAL2     0.900000E-01   1.00800           0
     36492 MEMB     293      POPE     C39      CTL2    -0.180000       12.0110           0
     36493 MEMB     293      POPE     H9X      HAL2     0.900000E-01   1.00800           0
     36494 MEMB     293      POPE     H9Y      HAL2     0.900000E-01   1.00800           0
     36495 MEMB     293      POPE     C310     CTL2    -0.180000       12.0110           0
     36496 MEMB     293      POPE     H10X     HAL2     0.900000E-01   1.00800           0
     36497 MEMB     293      POPE     H10Y     HAL2     0.900000E-01   1.00800           0
     36498 MEMB     293      POPE     C311     CTL2    -0.180000       12.0110           0
     36499 MEMB     293      POPE     H11X     HAL2     0.900000E-01   1.00800           0
     36500 MEMB     293      POPE     H11Y     HAL2     0.900000E-01   1.00800           0
     36501 MEMB     293      POPE     C312     CTL2    -0.180000       12.0110           0
     36502 MEMB     293      POPE     H12X     HAL2     0.900000E-01   1.00800           0
     36503 MEMB     293      POPE     H12Y     HAL2     0.900000E-01   1.00800           0
     36504 MEMB     293      POPE     C313     CTL2    -0.180000       12.0110           0
     36505 MEMB     293      POPE     H13X     HAL2     0.900000E-01   1.00800           0
     36506 MEMB     293      POPE     H13Y     HAL2     0.900000E-01   1.00800           0
     36507 MEMB     293      POPE     C314     CTL2    -0.180000       12.0110           0
     36508 MEMB     293      POPE     H14X     HAL2     0.900000E-01   1.00800           0
     36509 MEMB     293      POPE     H14Y     HAL2     0.900000E-01   1.00800           0
     36510 MEMB     293      POPE     C315     CTL2    -0.180000       12.0110           0
     36511 MEMB     293      POPE     H15X     HAL2     0.900000E-01   1.00800           0
     36512 MEMB     293      POPE     H15Y     HAL2     0.900000E-01   1.00800           0
     36513 MEMB     293      POPE     C316     CTL3    -0.270000       12.0110           0
     36514 MEMB     293      POPE     H16X     HAL3     0.900000E-01   1.00800           0
     36515 MEMB     293      POPE     H16Y     HAL3     0.900000E-01   1.00800           0
     36516 MEMB     293      POPE     H16Z     HAL3     0.900000E-01   1.00800           0
     36517 MEMB     294      PMPG     C13      CTL2     0.500000E-01   12.0110           0
     36518 MEMB     294      PMPG     H13A     HAL2     0.900000E-01   1.00800           0
     36519 MEMB     294      PMPG     H13B     HAL2     0.900000E-01   1.00800           0
     36520 MEMB     294      PMPG     OC3      OHL     -0.660000       15.9994           0
     36521 MEMB     294      PMPG     HO3      HOL      0.430000       1.00800           0
     36522 MEMB     294      PMPG     C12      CTL1     0.140000       12.0110           0
     36523 MEMB     294      PMPG     H12A     HAL1     0.900000E-01   1.00800           0
     36524 MEMB     294      PMPG     OC2      OHL     -0.660000       15.9994           0
     36525 MEMB     294      PMPG     HO2      HOL      0.430000       1.00800           0
     36526 MEMB     294      PMPG     C11      CTL2    -0.800000E-01   12.0110           0
     36527 MEMB     294      PMPG     H11A     HAL2     0.900000E-01   1.00800           0
     36528 MEMB     294      PMPG     H11B     HAL2     0.900000E-01   1.00800           0
     36529 MEMB     294      PMPG     P        PL        1.50000       30.9740           0
     36530 MEMB     294      PMPG     O13      O2L     -0.780000       15.9994           0
     36531 MEMB     294      PMPG     O14      O2L     -0.780000       15.9994           0
     36532 MEMB     294      PMPG     O11      OSLP    -0.570000       15.9994           0
     36533 MEMB     294      PMPG     O12      OSLP    -0.570000       15.9994           0
     36534 MEMB     294      PMPG     C1       CTL2    -0.800000E-01   12.0110           0
     36535 MEMB     294      PMPG     HA       HAL2     0.900000E-01   1.00800           0
     36536 MEMB     294      PMPG     HB       HAL2     0.900000E-01   1.00800           0
     36537 MEMB     294      PMPG     C2       CTL1     0.170000       12.0110           0
     36538 MEMB     294      PMPG     HS       HAL1     0.900000E-01   1.00800           0
     36539 MEMB     294      PMPG     O21      OSL     -0.490000       15.9994           0
     36540 MEMB     294      PMPG     C21      CL       0.900000       12.0110           0
     36541 MEMB     294      PMPG     O22      OBL     -0.630000       15.9994           0
     36542 MEMB     294      PMPG     C22      CTL2    -0.220000       12.0110           0
     36543 MEMB     294      PMPG     H2R      HAL2     0.900000E-01   1.00800           0
     36544 MEMB     294      PMPG     H2S      HAL2     0.900000E-01   1.00800           0
     36545 MEMB     294      PMPG     C3       CTL2     0.800000E-01   12.0110           0
     36546 MEMB     294      PMPG     HX       HAL2     0.900000E-01   1.00800           0
     36547 MEMB     294      PMPG     HY       HAL2     0.900000E-01   1.00800           0
     36548 MEMB     294      PMPG     O31      OSL     -0.490000       15.9994           0
     36549 MEMB     294      PMPG     C31      CL       0.900000       12.0110           0
     36550 MEMB     294      PMPG     O32      OBL     -0.630000       15.9994           0
     36551 MEMB     294      PMPG     C32      CTL2    -0.220000       12.0110           0
     36552 MEMB     294      PMPG     H2X      HAL2     0.900000E-01   1.00800           0
     36553 MEMB     294      PMPG     H2Y      HAL2     0.900000E-01   1.00800           0
     36554 MEMB     294      PMPG     C23      CTL2    -0.180000       12.0110           0
     36555 MEMB     294      PMPG     H3R      HAL2     0.900000E-01   1.00800           0
     36556 MEMB     294      PMPG     H3S      HAL2     0.900000E-01   1.00800           0
     36557 MEMB     294      PMPG     C24      CTL2    -0.180000       12.0110           0
     36558 MEMB     294      PMPG     H4R      HAL2     0.900000E-01   1.00800           0
     36559 MEMB     294      PMPG     H4S      HAL2     0.900000E-01   1.00800           0
     36560 MEMB     294      PMPG     C25      CTL2    -0.180000       12.0110           0
     36561 MEMB     294      PMPG     H5R      HAL2     0.900000E-01   1.00800           0
     36562 MEMB     294      PMPG     H5S      HAL2     0.900000E-01   1.00800           0
     36563 MEMB     294      PMPG     C26      CTL2    -0.180000       12.0110           0
     36564 MEMB     294      PMPG     H6R      HAL2     0.900000E-01   1.00800           0
     36565 MEMB     294      PMPG     H6S      HAL2     0.900000E-01   1.00800           0
     36566 MEMB     294      PMPG     C27      CTL2    -0.180000       12.0110           0
     36567 MEMB     294      PMPG     H7R      HAL2     0.900000E-01   1.00800           0
     36568 MEMB     294      PMPG     H7S      HAL2     0.900000E-01   1.00800           0
     36569 MEMB     294      PMPG     C28      CTL2    -0.180000       12.0110           0
     36570 MEMB     294      PMPG     H8R      HAL2     0.900000E-01   1.00800           0
     36571 MEMB     294      PMPG     H8S      HAL2     0.900000E-01   1.00800           0
     36572 MEMB     294      PMPG     C29      CG3RC1  -0.900000E-01   12.0110           0
     36573 MEMB     294      PMPG     H9R      HGA1     0.900000E-01   1.00800           0
     36574 MEMB     294      PMPG     C217     CG3C31  -0.180000       12.0110           0
     36575 MEMB     294      PMPG     H17R     HGA2     0.900000E-01   1.00800           0
     36576 MEMB     294      PMPG     H17S     HGA2     0.900000E-01   1.00800           0
     36577 MEMB     294      PMPG     C210     CG3RC1  -0.900000E-01   12.0110           0
     36578 MEMB     294      PMPG     H10R     HGA1     0.900000E-01   1.00800           0
     36579 MEMB     294      PMPG     C211     CTL2    -0.180000       12.0110           0
     36580 MEMB     294      PMPG     H11R     HAL2     0.900000E-01   1.00800           0
     36581 MEMB     294      PMPG     H11S     HAL2     0.900000E-01   1.00800           0
     36582 MEMB     294      PMPG     C212     CTL2    -0.180000       12.0110           0
     36583 MEMB     294      PMPG     H12R     HAL2     0.900000E-01   1.00800           0
     36584 MEMB     294      PMPG     H12S     HAL2     0.900000E-01   1.00800           0
     36585 MEMB     294      PMPG     C213     CTL2    -0.180000       12.0110           0
     36586 MEMB     294      PMPG     H13R     HAL2     0.900000E-01   1.00800           0
     36587 MEMB     294      PMPG     H13S     HAL2     0.900000E-01   1.00800           0
     36588 MEMB     294      PMPG     C214     CTL2    -0.180000       12.0110           0
     36589 MEMB     294      PMPG     H14R     HAL2     0.900000E-01   1.00800           0
     36590 MEMB     294      PMPG     H14S     HAL2     0.900000E-01   1.00800           0
     36591 MEMB     294      PMPG     C215     CTL2    -0.180000       12.0110           0
     36592 MEMB     294      PMPG     H15R     HAL2     0.900000E-01   1.00800           0
     36593 MEMB     294      PMPG     H15S     HAL2     0.900000E-01   1.00800           0
     36594 MEMB     294      PMPG     C216     CTL3    -0.270000       12.0110           0
     36595 MEMB     294      PMPG     H16R     HAL3     0.900000E-01   1.00800           0
     36596 MEMB     294      PMPG     H16S     HAL3     0.900000E-01   1.00800           0
     36597 MEMB     294      PMPG     H16T     HAL3     0.900000E-01   1.00800           0
     36598 MEMB     294      PMPG     C33      CTL2    -0.180000       12.0110           0
     36599 MEMB     294      PMPG     H3X      HAL2     0.900000E-01   1.00800           0
     36600 MEMB     294      PMPG     H3Y      HAL2     0.900000E-01   1.00800           0
     36601 MEMB     294      PMPG     C34      CTL2    -0.180000       12.0110           0
     36602 MEMB     294      PMPG     H4X      HAL2     0.900000E-01   1.00800           0
     36603 MEMB     294      PMPG     H4Y      HAL2     0.900000E-01   1.00800           0
     36604 MEMB     294      PMPG     C35      CTL2    -0.180000       12.0110           0
     36605 MEMB     294      PMPG     H5X      HAL2     0.900000E-01   1.00800           0
     36606 MEMB     294      PMPG     H5Y      HAL2     0.900000E-01   1.00800           0
     36607 MEMB     294      PMPG     C36      CTL2    -0.180000       12.0110           0
     36608 MEMB     294      PMPG     H6X      HAL2     0.900000E-01   1.00800           0
     36609 MEMB     294      PMPG     H6Y      HAL2     0.900000E-01   1.00800           0
     36610 MEMB     294      PMPG     C37      CTL2    -0.180000       12.0110           0
     36611 MEMB     294      PMPG     H7X      HAL2     0.900000E-01   1.00800           0
     36612 MEMB     294      PMPG     H7Y      HAL2     0.900000E-01   1.00800           0
     36613 MEMB     294      PMPG     C38      CTL2    -0.180000       12.0110           0
     36614 MEMB     294      PMPG     H8X      HAL2     0.900000E-01   1.00800           0
     36615 MEMB     294      PMPG     H8Y      HAL2     0.900000E-01   1.00800           0
     36616 MEMB     294      PMPG     C39      CTL2    -0.180000       12.0110           0
     36617 MEMB     294      PMPG     H9X      HAL2     0.900000E-01   1.00800           0
     36618 MEMB     294      PMPG     H9Y      HAL2     0.900000E-01   1.00800           0
     36619 MEMB     294      PMPG     C310     CTL2    -0.180000       12.0110           0
     36620 MEMB     294      PMPG     H10X     HAL2     0.900000E-01   1.00800           0
     36621 MEMB     294      PMPG     H10Y     HAL2     0.900000E-01   1.00800           0
     36622 MEMB     294      PMPG     C311     CTL2    -0.180000       12.0110           0
     36623 MEMB     294      PMPG     H11X     HAL2     0.900000E-01   1.00800           0
     36624 MEMB     294      PMPG     H11Y     HAL2     0.900000E-01   1.00800           0
     36625 MEMB     294      PMPG     C312     CTL2    -0.180000       12.0110           0
     36626 MEMB     294      PMPG     H12X     HAL2     0.900000E-01   1.00800           0
     36627 MEMB     294      PMPG     H12Y     HAL2     0.900000E-01   1.00800           0
     36628 MEMB     294      PMPG     C313     CTL2    -0.180000       12.0110           0
     36629 MEMB     294      PMPG     H13X     HAL2     0.900000E-01   1.00800           0
     36630 MEMB     294      PMPG     H13Y     HAL2     0.900000E-01   1.00800           0
     36631 MEMB     294      PMPG     C314     CTL2    -0.180000       12.0110           0
     36632 MEMB     294      PMPG     H14X     HAL2     0.900000E-01   1.00800           0
     36633 MEMB     294      PMPG     H14Y     HAL2     0.900000E-01   1.00800           0
     36634 MEMB     294      PMPG     C315     CTL2    -0.180000       12.0110           0
     36635 MEMB     294      PMPG     H15X     HAL2     0.900000E-01   1.00800           0
     36636 MEMB     294      PMPG     H15Y     HAL2     0.900000E-01   1.00800           0
     36637 MEMB     294      PMPG     C316     CTL3    -0.270000       12.0110           0
     36638 MEMB     294      PMPG     H16X     HAL3     0.900000E-01   1.00800           0
     36639 MEMB     294      PMPG     H16Y     HAL3     0.900000E-01   1.00800           0
     36640 MEMB     294      PMPG     H16Z     HAL3     0.900000E-01   1.00800           0
     36641 MEMB     295      PMPE     N        NH3L    -0.300000       14.0070           0
     36642 MEMB     295      PMPE     HN1      HCL      0.330000       1.00800           0
     36643 MEMB     295      PMPE     HN2      HCL      0.330000       1.00800           0
     36644 MEMB     295      PMPE     HN3      HCL      0.330000       1.00800           0
     36645 MEMB     295      PMPE     C12      CTL2     0.130000       12.0110           0
     36646 MEMB     295      PMPE     H12A     HAL2     0.900000E-01   1.00800           0
     36647 MEMB     295      PMPE     H12B     HAL2     0.900000E-01   1.00800           0
     36648 MEMB     295      PMPE     C11      CTL2    -0.800000E-01   12.0110           0
     36649 MEMB     295      PMPE     H11A     HAL2     0.900000E-01   1.00800           0
     36650 MEMB     295      PMPE     H11B     HAL2     0.900000E-01   1.00800           0
     36651 MEMB     295      PMPE     P        PL        1.50000       30.9740           0
     36652 MEMB     295      PMPE     O13      O2L     -0.780000       15.9994           0
     36653 MEMB     295      PMPE     O14      O2L     -0.780000       15.9994           0
     36654 MEMB     295      PMPE     O11      OSLP    -0.570000       15.9994           0
     36655 MEMB     295      PMPE     O12      OSLP    -0.570000       15.9994           0
     36656 MEMB     295      PMPE     C1       CTL2    -0.800000E-01   12.0110           0
     36657 MEMB     295      PMPE     HA       HAL2     0.900000E-01   1.00800           0
     36658 MEMB     295      PMPE     HB       HAL2     0.900000E-01   1.00800           0
     36659 MEMB     295      PMPE     C2       CTL1     0.170000       12.0110           0
     36660 MEMB     295      PMPE     HS       HAL1     0.900000E-01   1.00800           0
     36661 MEMB     295      PMPE     O21      OSL     -0.490000       15.9994           0
     36662 MEMB     295      PMPE     C21      CL       0.900000       12.0110           0
     36663 MEMB     295      PMPE     O22      OBL     -0.630000       15.9994           0
     36664 MEMB     295      PMPE     C22      CTL2    -0.220000       12.0110           0
     36665 MEMB     295      PMPE     H2R      HAL2     0.900000E-01   1.00800           0
     36666 MEMB     295      PMPE     H2S      HAL2     0.900000E-01   1.00800           0
     36667 MEMB     295      PMPE     C3       CTL2     0.800000E-01   12.0110           0
     36668 MEMB     295      PMPE     HX       HAL2     0.900000E-01   1.00800           0
     36669 MEMB     295      PMPE     HY       HAL2     0.900000E-01   1.00800           0
     36670 MEMB     295      PMPE     O31      OSL     -0.490000       15.9994           0
     36671 MEMB     295      PMPE     C31      CL       0.900000       12.0110           0
     36672 MEMB     295      PMPE     O32      OBL     -0.630000       15.9994           0
     36673 MEMB     295      PMPE     C32      CTL2    -0.220000       12.0110           0
     36674 MEMB     295      PMPE     H2X      HAL2     0.900000E-01   1.00800           0
     36675 MEMB     295      PMPE     H2Y      HAL2     0.900000E-01   1.00800           0
     36676 MEMB     295      PMPE     C23      CTL2    -0.180000       12.0110           0
     36677 MEMB     295      PMPE     H3R      HAL2     0.900000E-01   1.00800           0
     36678 MEMB     295      PMPE     H3S      HAL2     0.900000E-01   1.00800           0
     36679 MEMB     295      PMPE     C24      CTL2    -0.180000       12.0110           0
     36680 MEMB     295      PMPE     H4R      HAL2     0.900000E-01   1.00800           0
     36681 MEMB     295      PMPE     H4S      HAL2     0.900000E-01   1.00800           0
     36682 MEMB     295      PMPE     C25      CTL2    -0.180000       12.0110           0
     36683 MEMB     295      PMPE     H5R      HAL2     0.900000E-01   1.00800           0
     36684 MEMB     295      PMPE     H5S      HAL2     0.900000E-01   1.00800           0
     36685 MEMB     295      PMPE     C26      CTL2    -0.180000       12.0110           0
     36686 MEMB     295      PMPE     H6R      HAL2     0.900000E-01   1.00800           0
     36687 MEMB     295      PMPE     H6S      HAL2     0.900000E-01   1.00800           0
     36688 MEMB     295      PMPE     C27      CTL2    -0.180000       12.0110           0
     36689 MEMB     295      PMPE     H7R      HAL2     0.900000E-01   1.00800           0
     36690 MEMB     295      PMPE     H7S      HAL2     0.900000E-01   1.00800           0
     36691 MEMB     295      PMPE     C28      CTL2    -0.180000       12.0110           0
     36692 MEMB     295      PMPE     H8R      HAL2     0.900000E-01   1.00800           0
     36693 MEMB     295      PMPE     H8S      HAL2     0.900000E-01   1.00800           0
     36694 MEMB     295      PMPE     C29      CG3RC1  -0.900000E-01   12.0110           0
     36695 MEMB     295      PMPE     H9R      HGA1     0.900000E-01   1.00800           0
     36696 MEMB     295      PMPE     C217     CG3C31  -0.180000       12.0110           0
     36697 MEMB     295      PMPE     H17R     HGA2     0.900000E-01   1.00800           0
     36698 MEMB     295      PMPE     H17S     HGA2     0.900000E-01   1.00800           0
     36699 MEMB     295      PMPE     C210     CG3RC1  -0.900000E-01   12.0110           0
     36700 MEMB     295      PMPE     H10R     HGA1     0.900000E-01   1.00800           0
     36701 MEMB     295      PMPE     C211     CTL2    -0.180000       12.0110           0
     36702 MEMB     295      PMPE     H11R     HAL2     0.900000E-01   1.00800           0
     36703 MEMB     295      PMPE     H11S     HAL2     0.900000E-01   1.00800           0
     36704 MEMB     295      PMPE     C212     CTL2    -0.180000       12.0110           0
     36705 MEMB     295      PMPE     H12R     HAL2     0.900000E-01   1.00800           0
     36706 MEMB     295      PMPE     H12S     HAL2     0.900000E-01   1.00800           0
     36707 MEMB     295      PMPE     C213     CTL2    -0.180000       12.0110           0
     36708 MEMB     295      PMPE     H13R     HAL2     0.900000E-01   1.00800           0
     36709 MEMB     295      PMPE     H13S     HAL2     0.900000E-01   1.00800           0
     36710 MEMB     295      PMPE     C214     CTL2    -0.180000       12.0110           0
     36711 MEMB     295      PMPE     H14R     HAL2     0.900000E-01   1.00800           0
     36712 MEMB     295      PMPE     H14S     HAL2     0.900000E-01   1.00800           0
     36713 MEMB     295      PMPE     C215     CTL2    -0.180000       12.0110           0
     36714 MEMB     295      PMPE     H15R     HAL2     0.900000E-01   1.00800           0
     36715 MEMB     295      PMPE     H15S     HAL2     0.900000E-01   1.00800           0
     36716 MEMB     295      PMPE     C216     CTL3    -0.270000       12.0110           0
     36717 MEMB     295      PMPE     H16R     HAL3     0.900000E-01   1.00800           0
     36718 MEMB     295      PMPE     H16S     HAL3     0.900000E-01   1.00800           0
     36719 MEMB     295      PMPE     H16T     HAL3     0.900000E-01   1.00800           0
     36720 MEMB     295      PMPE     C33      CTL2    -0.180000       12.0110           0
     36721 MEMB     295      PMPE     H3X      HAL2     0.900000E-01   1.00800           0
     36722 MEMB     295      PMPE     H3Y      HAL2     0.900000E-01   1.00800           0
     36723 MEMB     295      PMPE     C34      CTL2    -0.180000       12.0110           0
     36724 MEMB     295      PMPE     H4X      HAL2     0.900000E-01   1.00800           0
     36725 MEMB     295      PMPE     H4Y      HAL2     0.900000E-01   1.00800           0
     36726 MEMB     295      PMPE     C35      CTL2    -0.180000       12.0110           0
     36727 MEMB     295      PMPE     H5X      HAL2     0.900000E-01   1.00800           0
     36728 MEMB     295      PMPE     H5Y      HAL2     0.900000E-01   1.00800           0
     36729 MEMB     295      PMPE     C36      CTL2    -0.180000       12.0110           0
     36730 MEMB     295      PMPE     H6X      HAL2     0.900000E-01   1.00800           0
     36731 MEMB     295      PMPE     H6Y      HAL2     0.900000E-01   1.00800           0
     36732 MEMB     295      PMPE     C37      CTL2    -0.180000       12.0110           0
     36733 MEMB     295      PMPE     H7X      HAL2     0.900000E-01   1.00800           0
     36734 MEMB     295      PMPE     H7Y      HAL2     0.900000E-01   1.00800           0
     36735 MEMB     295      PMPE     C38      CTL2    -0.180000       12.0110           0
     36736 MEMB     295      PMPE     H8X      HAL2     0.900000E-01   1.00800           0
     36737 MEMB     295      PMPE     H8Y      HAL2     0.900000E-01   1.00800           0
     36738 MEMB     295      PMPE     C39      CTL2    -0.180000       12.0110           0
     36739 MEMB     295      PMPE     H9X      HAL2     0.900000E-01   1.00800           0
     36740 MEMB     295      PMPE     H9Y      HAL2     0.900000E-01   1.00800           0
     36741 MEMB     295      PMPE     C310     CTL2    -0.180000       12.0110           0
     36742 MEMB     295      PMPE     H10X     HAL2     0.900000E-01   1.00800           0
     36743 MEMB     295      PMPE     H10Y     HAL2     0.900000E-01   1.00800           0
     36744 MEMB     295      PMPE     C311     CTL2    -0.180000       12.0110           0
     36745 MEMB     295      PMPE     H11X     HAL2     0.900000E-01   1.00800           0
     36746 MEMB     295      PMPE     H11Y     HAL2     0.900000E-01   1.00800           0
     36747 MEMB     295      PMPE     C312     CTL2    -0.180000       12.0110           0
     36748 MEMB     295      PMPE     H12X     HAL2     0.900000E-01   1.00800           0
     36749 MEMB     295      PMPE     H12Y     HAL2     0.900000E-01   1.00800           0
     36750 MEMB     295      PMPE     C313     CTL2    -0.180000       12.0110           0
     36751 MEMB     295      PMPE     H13X     HAL2     0.900000E-01   1.00800           0
     36752 MEMB     295      PMPE     H13Y     HAL2     0.900000E-01   1.00800           0
     36753 MEMB     295      PMPE     C314     CTL2    -0.180000       12.0110           0
     36754 MEMB     295      PMPE     H14X     HAL2     0.900000E-01   1.00800           0
     36755 MEMB     295      PMPE     H14Y     HAL2     0.900000E-01   1.00800           0
     36756 MEMB     295      PMPE     C315     CTL2    -0.180000       12.0110           0
     36757 MEMB     295      PMPE     H15X     HAL2     0.900000E-01   1.00800           0
     36758 MEMB     295      PMPE     H15Y     HAL2     0.900000E-01   1.00800           0
     36759 MEMB     295      PMPE     C316     CTL3    -0.270000       12.0110           0
     36760 MEMB     295      PMPE     H16X     HAL3     0.900000E-01   1.00800           0
     36761 MEMB     295      PMPE     H16Y     HAL3     0.900000E-01   1.00800           0
     36762 MEMB     295      PMPE     H16Z     HAL3     0.900000E-01   1.00800           0
     36763 MEMB     296      PMPE     N        NH3L    -0.300000       14.0070           0
     36764 MEMB     296      PMPE     HN1      HCL      0.330000       1.00800           0
     36765 MEMB     296      PMPE     HN2      HCL      0.330000       1.00800           0
     36766 MEMB     296      PMPE     HN3      HCL      0.330000       1.00800           0
     36767 MEMB     296      PMPE     C12      CTL2     0.130000       12.0110           0
     36768 MEMB     296      PMPE     H12A     HAL2     0.900000E-01   1.00800           0
     36769 MEMB     296      PMPE     H12B     HAL2     0.900000E-01   1.00800           0
     36770 MEMB     296      PMPE     C11      CTL2    -0.800000E-01   12.0110           0
     36771 MEMB     296      PMPE     H11A     HAL2     0.900000E-01   1.00800           0
     36772 MEMB     296      PMPE     H11B     HAL2     0.900000E-01   1.00800           0
     36773 MEMB     296      PMPE     P        PL        1.50000       30.9740           0
     36774 MEMB     296      PMPE     O13      O2L     -0.780000       15.9994           0
     36775 MEMB     296      PMPE     O14      O2L     -0.780000       15.9994           0
     36776 MEMB     296      PMPE     O11      OSLP    -0.570000       15.9994           0
     36777 MEMB     296      PMPE     O12      OSLP    -0.570000       15.9994           0
     36778 MEMB     296      PMPE     C1       CTL2    -0.800000E-01   12.0110           0
     36779 MEMB     296      PMPE     HA       HAL2     0.900000E-01   1.00800           0
     36780 MEMB     296      PMPE     HB       HAL2     0.900000E-01   1.00800           0
     36781 MEMB     296      PMPE     C2       CTL1     0.170000       12.0110           0
     36782 MEMB     296      PMPE     HS       HAL1     0.900000E-01   1.00800           0
     36783 MEMB     296      PMPE     O21      OSL     -0.490000       15.9994           0
     36784 MEMB     296      PMPE     C21      CL       0.900000       12.0110           0
     36785 MEMB     296      PMPE     O22      OBL     -0.630000       15.9994           0
     36786 MEMB     296      PMPE     C22      CTL2    -0.220000       12.0110           0
     36787 MEMB     296      PMPE     H2R      HAL2     0.900000E-01   1.00800           0
     36788 MEMB     296      PMPE     H2S      HAL2     0.900000E-01   1.00800           0
     36789 MEMB     296      PMPE     C3       CTL2     0.800000E-01   12.0110           0
     36790 MEMB     296      PMPE     HX       HAL2     0.900000E-01   1.00800           0
     36791 MEMB     296      PMPE     HY       HAL2     0.900000E-01   1.00800           0
     36792 MEMB     296      PMPE     O31      OSL     -0.490000       15.9994           0
     36793 MEMB     296      PMPE     C31      CL       0.900000       12.0110           0
     36794 MEMB     296      PMPE     O32      OBL     -0.630000       15.9994           0
     36795 MEMB     296      PMPE     C32      CTL2    -0.220000       12.0110           0
     36796 MEMB     296      PMPE     H2X      HAL2     0.900000E-01   1.00800           0
     36797 MEMB     296      PMPE     H2Y      HAL2     0.900000E-01   1.00800           0
     36798 MEMB     296      PMPE     C23      CTL2    -0.180000       12.0110           0
     36799 MEMB     296      PMPE     H3R      HAL2     0.900000E-01   1.00800           0
     36800 MEMB     296      PMPE     H3S      HAL2     0.900000E-01   1.00800           0
     36801 MEMB     296      PMPE     C24      CTL2    -0.180000       12.0110           0
     36802 MEMB     296      PMPE     H4R      HAL2     0.900000E-01   1.00800           0
     36803 MEMB     296      PMPE     H4S      HAL2     0.900000E-01   1.00800           0
     36804 MEMB     296      PMPE     C25      CTL2    -0.180000       12.0110           0
     36805 MEMB     296      PMPE     H5R      HAL2     0.900000E-01   1.00800           0
     36806 MEMB     296      PMPE     H5S      HAL2     0.900000E-01   1.00800           0
     36807 MEMB     296      PMPE     C26      CTL2    -0.180000       12.0110           0
     36808 MEMB     296      PMPE     H6R      HAL2     0.900000E-01   1.00800           0
     36809 MEMB     296      PMPE     H6S      HAL2     0.900000E-01   1.00800           0
     36810 MEMB     296      PMPE     C27      CTL2    -0.180000       12.0110           0
     36811 MEMB     296      PMPE     H7R      HAL2     0.900000E-01   1.00800           0
     36812 MEMB     296      PMPE     H7S      HAL2     0.900000E-01   1.00800           0
     36813 MEMB     296      PMPE     C28      CTL2    -0.180000       12.0110           0
     36814 MEMB     296      PMPE     H8R      HAL2     0.900000E-01   1.00800           0
     36815 MEMB     296      PMPE     H8S      HAL2     0.900000E-01   1.00800           0
     36816 MEMB     296      PMPE     C29      CG3RC1  -0.900000E-01   12.0110           0
     36817 MEMB     296      PMPE     H9R      HGA1     0.900000E-01   1.00800           0
     36818 MEMB     296      PMPE     C217     CG3C31  -0.180000       12.0110           0
     36819 MEMB     296      PMPE     H17R     HGA2     0.900000E-01   1.00800           0
     36820 MEMB     296      PMPE     H17S     HGA2     0.900000E-01   1.00800           0
     36821 MEMB     296      PMPE     C210     CG3RC1  -0.900000E-01   12.0110           0
     36822 MEMB     296      PMPE     H10R     HGA1     0.900000E-01   1.00800           0
     36823 MEMB     296      PMPE     C211     CTL2    -0.180000       12.0110           0
     36824 MEMB     296      PMPE     H11R     HAL2     0.900000E-01   1.00800           0
     36825 MEMB     296      PMPE     H11S     HAL2     0.900000E-01   1.00800           0
     36826 MEMB     296      PMPE     C212     CTL2    -0.180000       12.0110           0
     36827 MEMB     296      PMPE     H12R     HAL2     0.900000E-01   1.00800           0
     36828 MEMB     296      PMPE     H12S     HAL2     0.900000E-01   1.00800           0
     36829 MEMB     296      PMPE     C213     CTL2    -0.180000       12.0110           0
     36830 MEMB     296      PMPE     H13R     HAL2     0.900000E-01   1.00800           0
     36831 MEMB     296      PMPE     H13S     HAL2     0.900000E-01   1.00800           0
     36832 MEMB     296      PMPE     C214     CTL2    -0.180000       12.0110           0
     36833 MEMB     296      PMPE     H14R     HAL2     0.900000E-01   1.00800           0
     36834 MEMB     296      PMPE     H14S     HAL2     0.900000E-01   1.00800           0
     36835 MEMB     296      PMPE     C215     CTL2    -0.180000       12.0110           0
     36836 MEMB     296      PMPE     H15R     HAL2     0.900000E-01   1.00800           0
     36837 MEMB     296      PMPE     H15S     HAL2     0.900000E-01   1.00800           0
     36838 MEMB     296      PMPE     C216     CTL3    -0.270000       12.0110           0
     36839 MEMB     296      PMPE     H16R     HAL3     0.900000E-01   1.00800           0
     36840 MEMB     296      PMPE     H16S     HAL3     0.900000E-01   1.00800           0
     36841 MEMB     296      PMPE     H16T     HAL3     0.900000E-01   1.00800           0
     36842 MEMB     296      PMPE     C33      CTL2    -0.180000       12.0110           0
     36843 MEMB     296      PMPE     H3X      HAL2     0.900000E-01   1.00800           0
     36844 MEMB     296      PMPE     H3Y      HAL2     0.900000E-01   1.00800           0
     36845 MEMB     296      PMPE     C34      CTL2    -0.180000       12.0110           0
     36846 MEMB     296      PMPE     H4X      HAL2     0.900000E-01   1.00800           0
     36847 MEMB     296      PMPE     H4Y      HAL2     0.900000E-01   1.00800           0
     36848 MEMB     296      PMPE     C35      CTL2    -0.180000       12.0110           0
     36849 MEMB     296      PMPE     H5X      HAL2     0.900000E-01   1.00800           0
     36850 MEMB     296      PMPE     H5Y      HAL2     0.900000E-01   1.00800           0
     36851 MEMB     296      PMPE     C36      CTL2    -0.180000       12.0110           0
     36852 MEMB     296      PMPE     H6X      HAL2     0.900000E-01   1.00800           0
     36853 MEMB     296      PMPE     H6Y      HAL2     0.900000E-01   1.00800           0
     36854 MEMB     296      PMPE     C37      CTL2    -0.180000       12.0110           0
     36855 MEMB     296      PMPE     H7X      HAL2     0.900000E-01   1.00800           0
     36856 MEMB     296      PMPE     H7Y      HAL2     0.900000E-01   1.00800           0
     36857 MEMB     296      PMPE     C38      CTL2    -0.180000       12.0110           0
     36858 MEMB     296      PMPE     H8X      HAL2     0.900000E-01   1.00800           0
     36859 MEMB     296      PMPE     H8Y      HAL2     0.900000E-01   1.00800           0
     36860 MEMB     296      PMPE     C39      CTL2    -0.180000       12.0110           0
     36861 MEMB     296      PMPE     H9X      HAL2     0.900000E-01   1.00800           0
     36862 MEMB     296      PMPE     H9Y      HAL2     0.900000E-01   1.00800           0
     36863 MEMB     296      PMPE     C310     CTL2    -0.180000       12.0110           0
     36864 MEMB     296      PMPE     H10X     HAL2     0.900000E-01   1.00800           0
     36865 MEMB     296      PMPE     H10Y     HAL2     0.900000E-01   1.00800           0
     36866 MEMB     296      PMPE     C311     CTL2    -0.180000       12.0110           0
     36867 MEMB     296      PMPE     H11X     HAL2     0.900000E-01   1.00800           0
     36868 MEMB     296      PMPE     H11Y     HAL2     0.900000E-01   1.00800           0
     36869 MEMB     296      PMPE     C312     CTL2    -0.180000       12.0110           0
     36870 MEMB     296      PMPE     H12X     HAL2     0.900000E-01   1.00800           0
     36871 MEMB     296      PMPE     H12Y     HAL2     0.900000E-01   1.00800           0
     36872 MEMB     296      PMPE     C313     CTL2    -0.180000       12.0110           0
     36873 MEMB     296      PMPE     H13X     HAL2     0.900000E-01   1.00800           0
     36874 MEMB     296      PMPE     H13Y     HAL2     0.900000E-01   1.00800           0
     36875 MEMB     296      PMPE     C314     CTL2    -0.180000       12.0110           0
     36876 MEMB     296      PMPE     H14X     HAL2     0.900000E-01   1.00800           0
     36877 MEMB     296      PMPE     H14Y     HAL2     0.900000E-01   1.00800           0
     36878 MEMB     296      PMPE     C315     CTL2    -0.180000       12.0110           0
     36879 MEMB     296      PMPE     H15X     HAL2     0.900000E-01   1.00800           0
     36880 MEMB     296      PMPE     H15Y     HAL2     0.900000E-01   1.00800           0
     36881 MEMB     296      PMPE     C316     CTL3    -0.270000       12.0110           0
     36882 MEMB     296      PMPE     H16X     HAL3     0.900000E-01   1.00800           0
     36883 MEMB     296      PMPE     H16Y     HAL3     0.900000E-01   1.00800           0
     36884 MEMB     296      PMPE     H16Z     HAL3     0.900000E-01   1.00800           0
     36885 MEMB     297      PMPE     N        NH3L    -0.300000       14.0070           0
     36886 MEMB     297      PMPE     HN1      HCL      0.330000       1.00800           0
     36887 MEMB     297      PMPE     HN2      HCL      0.330000       1.00800           0
     36888 MEMB     297      PMPE     HN3      HCL      0.330000       1.00800           0
     36889 MEMB     297      PMPE     C12      CTL2     0.130000       12.0110           0
     36890 MEMB     297      PMPE     H12A     HAL2     0.900000E-01   1.00800           0
     36891 MEMB     297      PMPE     H12B     HAL2     0.900000E-01   1.00800           0
     36892 MEMB     297      PMPE     C11      CTL2    -0.800000E-01   12.0110           0
     36893 MEMB     297      PMPE     H11A     HAL2     0.900000E-01   1.00800           0
     36894 MEMB     297      PMPE     H11B     HAL2     0.900000E-01   1.00800           0
     36895 MEMB     297      PMPE     P        PL        1.50000       30.9740           0
     36896 MEMB     297      PMPE     O13      O2L     -0.780000       15.9994           0
     36897 MEMB     297      PMPE     O14      O2L     -0.780000       15.9994           0
     36898 MEMB     297      PMPE     O11      OSLP    -0.570000       15.9994           0
     36899 MEMB     297      PMPE     O12      OSLP    -0.570000       15.9994           0
     36900 MEMB     297      PMPE     C1       CTL2    -0.800000E-01   12.0110           0
     36901 MEMB     297      PMPE     HA       HAL2     0.900000E-01   1.00800           0
     36902 MEMB     297      PMPE     HB       HAL2     0.900000E-01   1.00800           0
     36903 MEMB     297      PMPE     C2       CTL1     0.170000       12.0110           0
     36904 MEMB     297      PMPE     HS       HAL1     0.900000E-01   1.00800           0
     36905 MEMB     297      PMPE     O21      OSL     -0.490000       15.9994           0
     36906 MEMB     297      PMPE     C21      CL       0.900000       12.0110           0
     36907 MEMB     297      PMPE     O22      OBL     -0.630000       15.9994           0
     36908 MEMB     297      PMPE     C22      CTL2    -0.220000       12.0110           0
     36909 MEMB     297      PMPE     H2R      HAL2     0.900000E-01   1.00800           0
     36910 MEMB     297      PMPE     H2S      HAL2     0.900000E-01   1.00800           0
     36911 MEMB     297      PMPE     C3       CTL2     0.800000E-01   12.0110           0
     36912 MEMB     297      PMPE     HX       HAL2     0.900000E-01   1.00800           0
     36913 MEMB     297      PMPE     HY       HAL2     0.900000E-01   1.00800           0
     36914 MEMB     297      PMPE     O31      OSL     -0.490000       15.9994           0
     36915 MEMB     297      PMPE     C31      CL       0.900000       12.0110           0
     36916 MEMB     297      PMPE     O32      OBL     -0.630000       15.9994           0
     36917 MEMB     297      PMPE     C32      CTL2    -0.220000       12.0110           0
     36918 MEMB     297      PMPE     H2X      HAL2     0.900000E-01   1.00800           0
     36919 MEMB     297      PMPE     H2Y      HAL2     0.900000E-01   1.00800           0
     36920 MEMB     297      PMPE     C23      CTL2    -0.180000       12.0110           0
     36921 MEMB     297      PMPE     H3R      HAL2     0.900000E-01   1.00800           0
     36922 MEMB     297      PMPE     H3S      HAL2     0.900000E-01   1.00800           0
     36923 MEMB     297      PMPE     C24      CTL2    -0.180000       12.0110           0
     36924 MEMB     297      PMPE     H4R      HAL2     0.900000E-01   1.00800           0
     36925 MEMB     297      PMPE     H4S      HAL2     0.900000E-01   1.00800           0
     36926 MEMB     297      PMPE     C25      CTL2    -0.180000       12.0110           0
     36927 MEMB     297      PMPE     H5R      HAL2     0.900000E-01   1.00800           0
     36928 MEMB     297      PMPE     H5S      HAL2     0.900000E-01   1.00800           0
     36929 MEMB     297      PMPE     C26      CTL2    -0.180000       12.0110           0
     36930 MEMB     297      PMPE     H6R      HAL2     0.900000E-01   1.00800           0
     36931 MEMB     297      PMPE     H6S      HAL2     0.900000E-01   1.00800           0
     36932 MEMB     297      PMPE     C27      CTL2    -0.180000       12.0110           0
     36933 MEMB     297      PMPE     H7R      HAL2     0.900000E-01   1.00800           0
     36934 MEMB     297      PMPE     H7S      HAL2     0.900000E-01   1.00800           0
     36935 MEMB     297      PMPE     C28      CTL2    -0.180000       12.0110           0
     36936 MEMB     297      PMPE     H8R      HAL2     0.900000E-01   1.00800           0
     36937 MEMB     297      PMPE     H8S      HAL2     0.900000E-01   1.00800           0
     36938 MEMB     297      PMPE     C29      CG3RC1  -0.900000E-01   12.0110           0
     36939 MEMB     297      PMPE     H9R      HGA1     0.900000E-01   1.00800           0
     36940 MEMB     297      PMPE     C217     CG3C31  -0.180000       12.0110           0
     36941 MEMB     297      PMPE     H17R     HGA2     0.900000E-01   1.00800           0
     36942 MEMB     297      PMPE     H17S     HGA2     0.900000E-01   1.00800           0
     36943 MEMB     297      PMPE     C210     CG3RC1  -0.900000E-01   12.0110           0
     36944 MEMB     297      PMPE     H10R     HGA1     0.900000E-01   1.00800           0
     36945 MEMB     297      PMPE     C211     CTL2    -0.180000       12.0110           0
     36946 MEMB     297      PMPE     H11R     HAL2     0.900000E-01   1.00800           0
     36947 MEMB     297      PMPE     H11S     HAL2     0.900000E-01   1.00800           0
     36948 MEMB     297      PMPE     C212     CTL2    -0.180000       12.0110           0
     36949 MEMB     297      PMPE     H12R     HAL2     0.900000E-01   1.00800           0
     36950 MEMB     297      PMPE     H12S     HAL2     0.900000E-01   1.00800           0
     36951 MEMB     297      PMPE     C213     CTL2    -0.180000       12.0110           0
     36952 MEMB     297      PMPE     H13R     HAL2     0.900000E-01   1.00800           0
     36953 MEMB     297      PMPE     H13S     HAL2     0.900000E-01   1.00800           0
     36954 MEMB     297      PMPE     C214     CTL2    -0.180000       12.0110           0
     36955 MEMB     297      PMPE     H14R     HAL2     0.900000E-01   1.00800           0
     36956 MEMB     297      PMPE     H14S     HAL2     0.900000E-01   1.00800           0
     36957 MEMB     297      PMPE     C215     CTL2    -0.180000       12.0110           0
     36958 MEMB     297      PMPE     H15R     HAL2     0.900000E-01   1.00800           0
     36959 MEMB     297      PMPE     H15S     HAL2     0.900000E-01   1.00800           0
     36960 MEMB     297      PMPE     C216     CTL3    -0.270000       12.0110           0
     36961 MEMB     297      PMPE     H16R     HAL3     0.900000E-01   1.00800           0
     36962 MEMB     297      PMPE     H16S     HAL3     0.900000E-01   1.00800           0
     36963 MEMB     297      PMPE     H16T     HAL3     0.900000E-01   1.00800           0
     36964 MEMB     297      PMPE     C33      CTL2    -0.180000       12.0110           0
     36965 MEMB     297      PMPE     H3X      HAL2     0.900000E-01   1.00800           0
     36966 MEMB     297      PMPE     H3Y      HAL2     0.900000E-01   1.00800           0
     36967 MEMB     297      PMPE     C34      CTL2    -0.180000       12.0110           0
     36968 MEMB     297      PMPE     H4X      HAL2     0.900000E-01   1.00800           0
     36969 MEMB     297      PMPE     H4Y      HAL2     0.900000E-01   1.00800           0
     36970 MEMB     297      PMPE     C35      CTL2    -0.180000       12.0110           0
     36971 MEMB     297      PMPE     H5X      HAL2     0.900000E-01   1.00800           0
     36972 MEMB     297      PMPE     H5Y      HAL2     0.900000E-01   1.00800           0
     36973 MEMB     297      PMPE     C36      CTL2    -0.180000       12.0110           0
     36974 MEMB     297      PMPE     H6X      HAL2     0.900000E-01   1.00800           0
     36975 MEMB     297      PMPE     H6Y      HAL2     0.900000E-01   1.00800           0
     36976 MEMB     297      PMPE     C37      CTL2    -0.180000       12.0110           0
     36977 MEMB     297      PMPE     H7X      HAL2     0.900000E-01   1.00800           0
     36978 MEMB     297      PMPE     H7Y      HAL2     0.900000E-01   1.00800           0
     36979 MEMB     297      PMPE     C38      CTL2    -0.180000       12.0110           0
     36980 MEMB     297      PMPE     H8X      HAL2     0.900000E-01   1.00800           0
     36981 MEMB     297      PMPE     H8Y      HAL2     0.900000E-01   1.00800           0
     36982 MEMB     297      PMPE     C39      CTL2    -0.180000       12.0110           0
     36983 MEMB     297      PMPE     H9X      HAL2     0.900000E-01   1.00800           0
     36984 MEMB     297      PMPE     H9Y      HAL2     0.900000E-01   1.00800           0
     36985 MEMB     297      PMPE     C310     CTL2    -0.180000       12.0110           0
     36986 MEMB     297      PMPE     H10X     HAL2     0.900000E-01   1.00800           0
     36987 MEMB     297      PMPE     H10Y     HAL2     0.900000E-01   1.00800           0
     36988 MEMB     297      PMPE     C311     CTL2    -0.180000       12.0110           0
     36989 MEMB     297      PMPE     H11X     HAL2     0.900000E-01   1.00800           0
     36990 MEMB     297      PMPE     H11Y     HAL2     0.900000E-01   1.00800           0
     36991 MEMB     297      PMPE     C312     CTL2    -0.180000       12.0110           0
     36992 MEMB     297      PMPE     H12X     HAL2     0.900000E-01   1.00800           0
     36993 MEMB     297      PMPE     H12Y     HAL2     0.900000E-01   1.00800           0
     36994 MEMB     297      PMPE     C313     CTL2    -0.180000       12.0110           0
     36995 MEMB     297      PMPE     H13X     HAL2     0.900000E-01   1.00800           0
     36996 MEMB     297      PMPE     H13Y     HAL2     0.900000E-01   1.00800           0
     36997 MEMB     297      PMPE     C314     CTL2    -0.180000       12.0110           0
     36998 MEMB     297      PMPE     H14X     HAL2     0.900000E-01   1.00800           0
     36999 MEMB     297      PMPE     H14Y     HAL2     0.900000E-01   1.00800           0
     37000 MEMB     297      PMPE     C315     CTL2    -0.180000       12.0110           0
     37001 MEMB     297      PMPE     H15X     HAL2     0.900000E-01   1.00800           0
     37002 MEMB     297      PMPE     H15Y     HAL2     0.900000E-01   1.00800           0
     37003 MEMB     297      PMPE     C316     CTL3    -0.270000       12.0110           0
     37004 MEMB     297      PMPE     H16X     HAL3     0.900000E-01   1.00800           0
     37005 MEMB     297      PMPE     H16Y     HAL3     0.900000E-01   1.00800           0
     37006 MEMB     297      PMPE     H16Z     HAL3     0.900000E-01   1.00800           0
     37007 MEMB     298      PMPE     N        NH3L    -0.300000       14.0070           0
     37008 MEMB     298      PMPE     HN1      HCL      0.330000       1.00800           0
     37009 MEMB     298      PMPE     HN2      HCL      0.330000       1.00800           0
     37010 MEMB     298      PMPE     HN3      HCL      0.330000       1.00800           0
     37011 MEMB     298      PMPE     C12      CTL2     0.130000       12.0110           0
     37012 MEMB     298      PMPE     H12A     HAL2     0.900000E-01   1.00800           0
     37013 MEMB     298      PMPE     H12B     HAL2     0.900000E-01   1.00800           0
     37014 MEMB     298      PMPE     C11      CTL2    -0.800000E-01   12.0110           0
     37015 MEMB     298      PMPE     H11A     HAL2     0.900000E-01   1.00800           0
     37016 MEMB     298      PMPE     H11B     HAL2     0.900000E-01   1.00800           0
     37017 MEMB     298      PMPE     P        PL        1.50000       30.9740           0
     37018 MEMB     298      PMPE     O13      O2L     -0.780000       15.9994           0
     37019 MEMB     298      PMPE     O14      O2L     -0.780000       15.9994           0
     37020 MEMB     298      PMPE     O11      OSLP    -0.570000       15.9994           0
     37021 MEMB     298      PMPE     O12      OSLP    -0.570000       15.9994           0
     37022 MEMB     298      PMPE     C1       CTL2    -0.800000E-01   12.0110           0
     37023 MEMB     298      PMPE     HA       HAL2     0.900000E-01   1.00800           0
     37024 MEMB     298      PMPE     HB       HAL2     0.900000E-01   1.00800           0
     37025 MEMB     298      PMPE     C2       CTL1     0.170000       12.0110           0
     37026 MEMB     298      PMPE     HS       HAL1     0.900000E-01   1.00800           0
     37027 MEMB     298      PMPE     O21      OSL     -0.490000       15.9994           0
     37028 MEMB     298      PMPE     C21      CL       0.900000       12.0110           0
     37029 MEMB     298      PMPE     O22      OBL     -0.630000       15.9994           0
     37030 MEMB     298      PMPE     C22      CTL2    -0.220000       12.0110           0
     37031 MEMB     298      PMPE     H2R      HAL2     0.900000E-01   1.00800           0
     37032 MEMB     298      PMPE     H2S      HAL2     0.900000E-01   1.00800           0
     37033 MEMB     298      PMPE     C3       CTL2     0.800000E-01   12.0110           0
     37034 MEMB     298      PMPE     HX       HAL2     0.900000E-01   1.00800           0
     37035 MEMB     298      PMPE     HY       HAL2     0.900000E-01   1.00800           0
     37036 MEMB     298      PMPE     O31      OSL     -0.490000       15.9994           0
     37037 MEMB     298      PMPE     C31      CL       0.900000       12.0110           0
     37038 MEMB     298      PMPE     O32      OBL     -0.630000       15.9994           0
     37039 MEMB     298      PMPE     C32      CTL2    -0.220000       12.0110           0
     37040 MEMB     298      PMPE     H2X      HAL2     0.900000E-01   1.00800           0
     37041 MEMB     298      PMPE     H2Y      HAL2     0.900000E-01   1.00800           0
     37042 MEMB     298      PMPE     C23      CTL2    -0.180000       12.0110           0
     37043 MEMB     298      PMPE     H3R      HAL2     0.900000E-01   1.00800           0
     37044 MEMB     298      PMPE     H3S      HAL2     0.900000E-01   1.00800           0
     37045 MEMB     298      PMPE     C24      CTL2    -0.180000       12.0110           0
     37046 MEMB     298      PMPE     H4R      HAL2     0.900000E-01   1.00800           0
     37047 MEMB     298      PMPE     H4S      HAL2     0.900000E-01   1.00800           0
     37048 MEMB     298      PMPE     C25      CTL2    -0.180000       12.0110           0
     37049 MEMB     298      PMPE     H5R      HAL2     0.900000E-01   1.00800           0
     37050 MEMB     298      PMPE     H5S      HAL2     0.900000E-01   1.00800           0
     37051 MEMB     298      PMPE     C26      CTL2    -0.180000       12.0110           0
     37052 MEMB     298      PMPE     H6R      HAL2     0.900000E-01   1.00800           0
     37053 MEMB     298      PMPE     H6S      HAL2     0.900000E-01   1.00800           0
     37054 MEMB     298      PMPE     C27      CTL2    -0.180000       12.0110           0
     37055 MEMB     298      PMPE     H7R      HAL2     0.900000E-01   1.00800           0
     37056 MEMB     298      PMPE     H7S      HAL2     0.900000E-01   1.00800           0
     37057 MEMB     298      PMPE     C28      CTL2    -0.180000       12.0110           0
     37058 MEMB     298      PMPE     H8R      HAL2     0.900000E-01   1.00800           0
     37059 MEMB     298      PMPE     H8S      HAL2     0.900000E-01   1.00800           0
     37060 MEMB     298      PMPE     C29      CG3RC1  -0.900000E-01   12.0110           0
     37061 MEMB     298      PMPE     H9R      HGA1     0.900000E-01   1.00800           0
     37062 MEMB     298      PMPE     C217     CG3C31  -0.180000       12.0110           0
     37063 MEMB     298      PMPE     H17R     HGA2     0.900000E-01   1.00800           0
     37064 MEMB     298      PMPE     H17S     HGA2     0.900000E-01   1.00800           0
     37065 MEMB     298      PMPE     C210     CG3RC1  -0.900000E-01   12.0110           0
     37066 MEMB     298      PMPE     H10R     HGA1     0.900000E-01   1.00800           0
     37067 MEMB     298      PMPE     C211     CTL2    -0.180000       12.0110           0
     37068 MEMB     298      PMPE     H11R     HAL2     0.900000E-01   1.00800           0
     37069 MEMB     298      PMPE     H11S     HAL2     0.900000E-01   1.00800           0
     37070 MEMB     298      PMPE     C212     CTL2    -0.180000       12.0110           0
     37071 MEMB     298      PMPE     H12R     HAL2     0.900000E-01   1.00800           0
     37072 MEMB     298      PMPE     H12S     HAL2     0.900000E-01   1.00800           0
     37073 MEMB     298      PMPE     C213     CTL2    -0.180000       12.0110           0
     37074 MEMB     298      PMPE     H13R     HAL2     0.900000E-01   1.00800           0
     37075 MEMB     298      PMPE     H13S     HAL2     0.900000E-01   1.00800           0
     37076 MEMB     298      PMPE     C214     CTL2    -0.180000       12.0110           0
     37077 MEMB     298      PMPE     H14R     HAL2     0.900000E-01   1.00800           0
     37078 MEMB     298      PMPE     H14S     HAL2     0.900000E-01   1.00800           0
     37079 MEMB     298      PMPE     C215     CTL2    -0.180000       12.0110           0
     37080 MEMB     298      PMPE     H15R     HAL2     0.900000E-01   1.00800           0
     37081 MEMB     298      PMPE     H15S     HAL2     0.900000E-01   1.00800           0
     37082 MEMB     298      PMPE     C216     CTL3    -0.270000       12.0110           0
     37083 MEMB     298      PMPE     H16R     HAL3     0.900000E-01   1.00800           0
     37084 MEMB     298      PMPE     H16S     HAL3     0.900000E-01   1.00800           0
     37085 MEMB     298      PMPE     H16T     HAL3     0.900000E-01   1.00800           0
     37086 MEMB     298      PMPE     C33      CTL2    -0.180000       12.0110           0
     37087 MEMB     298      PMPE     H3X      HAL2     0.900000E-01   1.00800           0
     37088 MEMB     298      PMPE     H3Y      HAL2     0.900000E-01   1.00800           0
     37089 MEMB     298      PMPE     C34      CTL2    -0.180000       12.0110           0
     37090 MEMB     298      PMPE     H4X      HAL2     0.900000E-01   1.00800           0
     37091 MEMB     298      PMPE     H4Y      HAL2     0.900000E-01   1.00800           0
     37092 MEMB     298      PMPE     C35      CTL2    -0.180000       12.0110           0
     37093 MEMB     298      PMPE     H5X      HAL2     0.900000E-01   1.00800           0
     37094 MEMB     298      PMPE     H5Y      HAL2     0.900000E-01   1.00800           0
     37095 MEMB     298      PMPE     C36      CTL2    -0.180000       12.0110           0
     37096 MEMB     298      PMPE     H6X      HAL2     0.900000E-01   1.00800           0
     37097 MEMB     298      PMPE     H6Y      HAL2     0.900000E-01   1.00800           0
     37098 MEMB     298      PMPE     C37      CTL2    -0.180000       12.0110           0
     37099 MEMB     298      PMPE     H7X      HAL2     0.900000E-01   1.00800           0
     37100 MEMB     298      PMPE     H7Y      HAL2     0.900000E-01   1.00800           0
     37101 MEMB     298      PMPE     C38      CTL2    -0.180000       12.0110           0
     37102 MEMB     298      PMPE     H8X      HAL2     0.900000E-01   1.00800           0
     37103 MEMB     298      PMPE     H8Y      HAL2     0.900000E-01   1.00800           0
     37104 MEMB     298      PMPE     C39      CTL2    -0.180000       12.0110           0
     37105 MEMB     298      PMPE     H9X      HAL2     0.900000E-01   1.00800           0
     37106 MEMB     298      PMPE     H9Y      HAL2     0.900000E-01   1.00800           0
     37107 MEMB     298      PMPE     C310     CTL2    -0.180000       12.0110           0
     37108 MEMB     298      PMPE     H10X     HAL2     0.900000E-01   1.00800           0
     37109 MEMB     298      PMPE     H10Y     HAL2     0.900000E-01   1.00800           0
     37110 MEMB     298      PMPE     C311     CTL2    -0.180000       12.0110           0
     37111 MEMB     298      PMPE     H11X     HAL2     0.900000E-01   1.00800           0
     37112 MEMB     298      PMPE     H11Y     HAL2     0.900000E-01   1.00800           0
     37113 MEMB     298      PMPE     C312     CTL2    -0.180000       12.0110           0
     37114 MEMB     298      PMPE     H12X     HAL2     0.900000E-01   1.00800           0
     37115 MEMB     298      PMPE     H12Y     HAL2     0.900000E-01   1.00800           0
     37116 MEMB     298      PMPE     C313     CTL2    -0.180000       12.0110           0
     37117 MEMB     298      PMPE     H13X     HAL2     0.900000E-01   1.00800           0
     37118 MEMB     298      PMPE     H13Y     HAL2     0.900000E-01   1.00800           0
     37119 MEMB     298      PMPE     C314     CTL2    -0.180000       12.0110           0
     37120 MEMB     298      PMPE     H14X     HAL2     0.900000E-01   1.00800           0
     37121 MEMB     298      PMPE     H14Y     HAL2     0.900000E-01   1.00800           0
     37122 MEMB     298      PMPE     C315     CTL2    -0.180000       12.0110           0
     37123 MEMB     298      PMPE     H15X     HAL2     0.900000E-01   1.00800           0
     37124 MEMB     298      PMPE     H15Y     HAL2     0.900000E-01   1.00800           0
     37125 MEMB     298      PMPE     C316     CTL3    -0.270000       12.0110           0
     37126 MEMB     298      PMPE     H16X     HAL3     0.900000E-01   1.00800           0
     37127 MEMB     298      PMPE     H16Y     HAL3     0.900000E-01   1.00800           0
     37128 MEMB     298      PMPE     H16Z     HAL3     0.900000E-01   1.00800           0
     37129 MEMB     299      PMPE     N        NH3L    -0.300000       14.0070           0
     37130 MEMB     299      PMPE     HN1      HCL      0.330000       1.00800           0
     37131 MEMB     299      PMPE     HN2      HCL      0.330000       1.00800           0
     37132 MEMB     299      PMPE     HN3      HCL      0.330000       1.00800           0
     37133 MEMB     299      PMPE     C12      CTL2     0.130000       12.0110           0
     37134 MEMB     299      PMPE     H12A     HAL2     0.900000E-01   1.00800           0
     37135 MEMB     299      PMPE     H12B     HAL2     0.900000E-01   1.00800           0
     37136 MEMB     299      PMPE     C11      CTL2    -0.800000E-01   12.0110           0
     37137 MEMB     299      PMPE     H11A     HAL2     0.900000E-01   1.00800           0
     37138 MEMB     299      PMPE     H11B     HAL2     0.900000E-01   1.00800           0
     37139 MEMB     299      PMPE     P        PL        1.50000       30.9740           0
     37140 MEMB     299      PMPE     O13      O2L     -0.780000       15.9994           0
     37141 MEMB     299      PMPE     O14      O2L     -0.780000       15.9994           0
     37142 MEMB     299      PMPE     O11      OSLP    -0.570000       15.9994           0
     37143 MEMB     299      PMPE     O12      OSLP    -0.570000       15.9994           0
     37144 MEMB     299      PMPE     C1       CTL2    -0.800000E-01   12.0110           0
     37145 MEMB     299      PMPE     HA       HAL2     0.900000E-01   1.00800           0
     37146 MEMB     299      PMPE     HB       HAL2     0.900000E-01   1.00800           0
     37147 MEMB     299      PMPE     C2       CTL1     0.170000       12.0110           0
     37148 MEMB     299      PMPE     HS       HAL1     0.900000E-01   1.00800           0
     37149 MEMB     299      PMPE     O21      OSL     -0.490000       15.9994           0
     37150 MEMB     299      PMPE     C21      CL       0.900000       12.0110           0
     37151 MEMB     299      PMPE     O22      OBL     -0.630000       15.9994           0
     37152 MEMB     299      PMPE     C22      CTL2    -0.220000       12.0110           0
     37153 MEMB     299      PMPE     H2R      HAL2     0.900000E-01   1.00800           0
     37154 MEMB     299      PMPE     H2S      HAL2     0.900000E-01   1.00800           0
     37155 MEMB     299      PMPE     C3       CTL2     0.800000E-01   12.0110           0
     37156 MEMB     299      PMPE     HX       HAL2     0.900000E-01   1.00800           0
     37157 MEMB     299      PMPE     HY       HAL2     0.900000E-01   1.00800           0
     37158 MEMB     299      PMPE     O31      OSL     -0.490000       15.9994           0
     37159 MEMB     299      PMPE     C31      CL       0.900000       12.0110           0
     37160 MEMB     299      PMPE     O32      OBL     -0.630000       15.9994           0
     37161 MEMB     299      PMPE     C32      CTL2    -0.220000       12.0110           0
     37162 MEMB     299      PMPE     H2X      HAL2     0.900000E-01   1.00800           0
     37163 MEMB     299      PMPE     H2Y      HAL2     0.900000E-01   1.00800           0
     37164 MEMB     299      PMPE     C23      CTL2    -0.180000       12.0110           0
     37165 MEMB     299      PMPE     H3R      HAL2     0.900000E-01   1.00800           0
     37166 MEMB     299      PMPE     H3S      HAL2     0.900000E-01   1.00800           0
     37167 MEMB     299      PMPE     C24      CTL2    -0.180000       12.0110           0
     37168 MEMB     299      PMPE     H4R      HAL2     0.900000E-01   1.00800           0
     37169 MEMB     299      PMPE     H4S      HAL2     0.900000E-01   1.00800           0
     37170 MEMB     299      PMPE     C25      CTL2    -0.180000       12.0110           0
     37171 MEMB     299      PMPE     H5R      HAL2     0.900000E-01   1.00800           0
     37172 MEMB     299      PMPE     H5S      HAL2     0.900000E-01   1.00800           0
     37173 MEMB     299      PMPE     C26      CTL2    -0.180000       12.0110           0
     37174 MEMB     299      PMPE     H6R      HAL2     0.900000E-01   1.00800           0
     37175 MEMB     299      PMPE     H6S      HAL2     0.900000E-01   1.00800           0
     37176 MEMB     299      PMPE     C27      CTL2    -0.180000       12.0110           0
     37177 MEMB     299      PMPE     H7R      HAL2     0.900000E-01   1.00800           0
     37178 MEMB     299      PMPE     H7S      HAL2     0.900000E-01   1.00800           0
     37179 MEMB     299      PMPE     C28      CTL2    -0.180000       12.0110           0
     37180 MEMB     299      PMPE     H8R      HAL2     0.900000E-01   1.00800           0
     37181 MEMB     299      PMPE     H8S      HAL2     0.900000E-01   1.00800           0
     37182 MEMB     299      PMPE     C29      CG3RC1  -0.900000E-01   12.0110           0
     37183 MEMB     299      PMPE     H9R      HGA1     0.900000E-01   1.00800           0
     37184 MEMB     299      PMPE     C217     CG3C31  -0.180000       12.0110           0
     37185 MEMB     299      PMPE     H17R     HGA2     0.900000E-01   1.00800           0
     37186 MEMB     299      PMPE     H17S     HGA2     0.900000E-01   1.00800           0
     37187 MEMB     299      PMPE     C210     CG3RC1  -0.900000E-01   12.0110           0
     37188 MEMB     299      PMPE     H10R     HGA1     0.900000E-01   1.00800           0
     37189 MEMB     299      PMPE     C211     CTL2    -0.180000       12.0110           0
     37190 MEMB     299      PMPE     H11R     HAL2     0.900000E-01   1.00800           0
     37191 MEMB     299      PMPE     H11S     HAL2     0.900000E-01   1.00800           0
     37192 MEMB     299      PMPE     C212     CTL2    -0.180000       12.0110           0
     37193 MEMB     299      PMPE     H12R     HAL2     0.900000E-01   1.00800           0
     37194 MEMB     299      PMPE     H12S     HAL2     0.900000E-01   1.00800           0
     37195 MEMB     299      PMPE     C213     CTL2    -0.180000       12.0110           0
     37196 MEMB     299      PMPE     H13R     HAL2     0.900000E-01   1.00800           0
     37197 MEMB     299      PMPE     H13S     HAL2     0.900000E-01   1.00800           0
     37198 MEMB     299      PMPE     C214     CTL2    -0.180000       12.0110           0
     37199 MEMB     299      PMPE     H14R     HAL2     0.900000E-01   1.00800           0
     37200 MEMB     299      PMPE     H14S     HAL2     0.900000E-01   1.00800           0
     37201 MEMB     299      PMPE     C215     CTL2    -0.180000       12.0110           0
     37202 MEMB     299      PMPE     H15R     HAL2     0.900000E-01   1.00800           0
     37203 MEMB     299      PMPE     H15S     HAL2     0.900000E-01   1.00800           0
     37204 MEMB     299      PMPE     C216     CTL3    -0.270000       12.0110           0
     37205 MEMB     299      PMPE     H16R     HAL3     0.900000E-01   1.00800           0
     37206 MEMB     299      PMPE     H16S     HAL3     0.900000E-01   1.00800           0
     37207 MEMB     299      PMPE     H16T     HAL3     0.900000E-01   1.00800           0
     37208 MEMB     299      PMPE     C33      CTL2    -0.180000       12.0110           0
     37209 MEMB     299      PMPE     H3X      HAL2     0.900000E-01   1.00800           0
     37210 MEMB     299      PMPE     H3Y      HAL2     0.900000E-01   1.00800           0
     37211 MEMB     299      PMPE     C34      CTL2    -0.180000       12.0110           0
     37212 MEMB     299      PMPE     H4X      HAL2     0.900000E-01   1.00800           0
     37213 MEMB     299      PMPE     H4Y      HAL2     0.900000E-01   1.00800           0
     37214 MEMB     299      PMPE     C35      CTL2    -0.180000       12.0110           0
     37215 MEMB     299      PMPE     H5X      HAL2     0.900000E-01   1.00800           0
     37216 MEMB     299      PMPE     H5Y      HAL2     0.900000E-01   1.00800           0
     37217 MEMB     299      PMPE     C36      CTL2    -0.180000       12.0110           0
     37218 MEMB     299      PMPE     H6X      HAL2     0.900000E-01   1.00800           0
     37219 MEMB     299      PMPE     H6Y      HAL2     0.900000E-01   1.00800           0
     37220 MEMB     299      PMPE     C37      CTL2    -0.180000       12.0110           0
     37221 MEMB     299      PMPE     H7X      HAL2     0.900000E-01   1.00800           0
     37222 MEMB     299      PMPE     H7Y      HAL2     0.900000E-01   1.00800           0
     37223 MEMB     299      PMPE     C38      CTL2    -0.180000       12.0110           0
     37224 MEMB     299      PMPE     H8X      HAL2     0.900000E-01   1.00800           0
     37225 MEMB     299      PMPE     H8Y      HAL2     0.900000E-01   1.00800           0
     37226 MEMB     299      PMPE     C39      CTL2    -0.180000       12.0110           0
     37227 MEMB     299      PMPE     H9X      HAL2     0.900000E-01   1.00800           0
     37228 MEMB     299      PMPE     H9Y      HAL2     0.900000E-01   1.00800           0
     37229 MEMB     299      PMPE     C310     CTL2    -0.180000       12.0110           0
     37230 MEMB     299      PMPE     H10X     HAL2     0.900000E-01   1.00800           0
     37231 MEMB     299      PMPE     H10Y     HAL2     0.900000E-01   1.00800           0
     37232 MEMB     299      PMPE     C311     CTL2    -0.180000       12.0110           0
     37233 MEMB     299      PMPE     H11X     HAL2     0.900000E-01   1.00800           0
     37234 MEMB     299      PMPE     H11Y     HAL2     0.900000E-01   1.00800           0
     37235 MEMB     299      PMPE     C312     CTL2    -0.180000       12.0110           0
     37236 MEMB     299      PMPE     H12X     HAL2     0.900000E-01   1.00800           0
     37237 MEMB     299      PMPE     H12Y     HAL2     0.900000E-01   1.00800           0
     37238 MEMB     299      PMPE     C313     CTL2    -0.180000       12.0110           0
     37239 MEMB     299      PMPE     H13X     HAL2     0.900000E-01   1.00800           0
     37240 MEMB     299      PMPE     H13Y     HAL2     0.900000E-01   1.00800           0
     37241 MEMB     299      PMPE     C314     CTL2    -0.180000       12.0110           0
     37242 MEMB     299      PMPE     H14X     HAL2     0.900000E-01   1.00800           0
     37243 MEMB     299      PMPE     H14Y     HAL2     0.900000E-01   1.00800           0
     37244 MEMB     299      PMPE     C315     CTL2    -0.180000       12.0110           0
     37245 MEMB     299      PMPE     H15X     HAL2     0.900000E-01   1.00800           0
     37246 MEMB     299      PMPE     H15Y     HAL2     0.900000E-01   1.00800           0
     37247 MEMB     299      PMPE     C316     CTL3    -0.270000       12.0110           0
     37248 MEMB     299      PMPE     H16X     HAL3     0.900000E-01   1.00800           0
     37249 MEMB     299      PMPE     H16Y     HAL3     0.900000E-01   1.00800           0
     37250 MEMB     299      PMPE     H16Z     HAL3     0.900000E-01   1.00800           0
     37251 MEMB     300      PMPE     N        NH3L    -0.300000       14.0070           0
     37252 MEMB     300      PMPE     HN1      HCL      0.330000       1.00800           0
     37253 MEMB     300      PMPE     HN2      HCL      0.330000       1.00800           0
     37254 MEMB     300      PMPE     HN3      HCL      0.330000       1.00800           0
     37255 MEMB     300      PMPE     C12      CTL2     0.130000       12.0110           0
     37256 MEMB     300      PMPE     H12A     HAL2     0.900000E-01   1.00800           0
     37257 MEMB     300      PMPE     H12B     HAL2     0.900000E-01   1.00800           0
     37258 MEMB     300      PMPE     C11      CTL2    -0.800000E-01   12.0110           0
     37259 MEMB     300      PMPE     H11A     HAL2     0.900000E-01   1.00800           0
     37260 MEMB     300      PMPE     H11B     HAL2     0.900000E-01   1.00800           0
     37261 MEMB     300      PMPE     P        PL        1.50000       30.9740           0
     37262 MEMB     300      PMPE     O13      O2L     -0.780000       15.9994           0
     37263 MEMB     300      PMPE     O14      O2L     -0.780000       15.9994           0
     37264 MEMB     300      PMPE     O11      OSLP    -0.570000       15.9994           0
     37265 MEMB     300      PMPE     O12      OSLP    -0.570000       15.9994           0
     37266 MEMB     300      PMPE     C1       CTL2    -0.800000E-01   12.0110           0
     37267 MEMB     300      PMPE     HA       HAL2     0.900000E-01   1.00800           0
     37268 MEMB     300      PMPE     HB       HAL2     0.900000E-01   1.00800           0
     37269 MEMB     300      PMPE     C2       CTL1     0.170000       12.0110           0
     37270 MEMB     300      PMPE     HS       HAL1     0.900000E-01   1.00800           0
     37271 MEMB     300      PMPE     O21      OSL     -0.490000       15.9994           0
     37272 MEMB     300      PMPE     C21      CL       0.900000       12.0110           0
     37273 MEMB     300      PMPE     O22      OBL     -0.630000       15.9994           0
     37274 MEMB     300      PMPE     C22      CTL2    -0.220000       12.0110           0
     37275 MEMB     300      PMPE     H2R      HAL2     0.900000E-01   1.00800           0
     37276 MEMB     300      PMPE     H2S      HAL2     0.900000E-01   1.00800           0
     37277 MEMB     300      PMPE     C3       CTL2     0.800000E-01   12.0110           0
     37278 MEMB     300      PMPE     HX       HAL2     0.900000E-01   1.00800           0
     37279 MEMB     300      PMPE     HY       HAL2     0.900000E-01   1.00800           0
     37280 MEMB     300      PMPE     O31      OSL     -0.490000       15.9994           0
     37281 MEMB     300      PMPE     C31      CL       0.900000       12.0110           0
     37282 MEMB     300      PMPE     O32      OBL     -0.630000       15.9994           0
     37283 MEMB     300      PMPE     C32      CTL2    -0.220000       12.0110           0
     37284 MEMB     300      PMPE     H2X      HAL2     0.900000E-01   1.00800           0
     37285 MEMB     300      PMPE     H2Y      HAL2     0.900000E-01   1.00800           0
     37286 MEMB     300      PMPE     C23      CTL2    -0.180000       12.0110           0
     37287 MEMB     300      PMPE     H3R      HAL2     0.900000E-01   1.00800           0
     37288 MEMB     300      PMPE     H3S      HAL2     0.900000E-01   1.00800           0
     37289 MEMB     300      PMPE     C24      CTL2    -0.180000       12.0110           0
     37290 MEMB     300      PMPE     H4R      HAL2     0.900000E-01   1.00800           0
     37291 MEMB     300      PMPE     H4S      HAL2     0.900000E-01   1.00800           0
     37292 MEMB     300      PMPE     C25      CTL2    -0.180000       12.0110           0
     37293 MEMB     300      PMPE     H5R      HAL2     0.900000E-01   1.00800           0
     37294 MEMB     300      PMPE     H5S      HAL2     0.900000E-01   1.00800           0
     37295 MEMB     300      PMPE     C26      CTL2    -0.180000       12.0110           0
     37296 MEMB     300      PMPE     H6R      HAL2     0.900000E-01   1.00800           0
     37297 MEMB     300      PMPE     H6S      HAL2     0.900000E-01   1.00800           0
     37298 MEMB     300      PMPE     C27      CTL2    -0.180000       12.0110           0
     37299 MEMB     300      PMPE     H7R      HAL2     0.900000E-01   1.00800           0
     37300 MEMB     300      PMPE     H7S      HAL2     0.900000E-01   1.00800           0
     37301 MEMB     300      PMPE     C28      CTL2    -0.180000       12.0110           0
     37302 MEMB     300      PMPE     H8R      HAL2     0.900000E-01   1.00800           0
     37303 MEMB     300      PMPE     H8S      HAL2     0.900000E-01   1.00800           0
     37304 MEMB     300      PMPE     C29      CG3RC1  -0.900000E-01   12.0110           0
     37305 MEMB     300      PMPE     H9R      HGA1     0.900000E-01   1.00800           0
     37306 MEMB     300      PMPE     C217     CG3C31  -0.180000       12.0110           0
     37307 MEMB     300      PMPE     H17R     HGA2     0.900000E-01   1.00800           0
     37308 MEMB     300      PMPE     H17S     HGA2     0.900000E-01   1.00800           0
     37309 MEMB     300      PMPE     C210     CG3RC1  -0.900000E-01   12.0110           0
     37310 MEMB     300      PMPE     H10R     HGA1     0.900000E-01   1.00800           0
     37311 MEMB     300      PMPE     C211     CTL2    -0.180000       12.0110           0
     37312 MEMB     300      PMPE     H11R     HAL2     0.900000E-01   1.00800           0
     37313 MEMB     300      PMPE     H11S     HAL2     0.900000E-01   1.00800           0
     37314 MEMB     300      PMPE     C212     CTL2    -0.180000       12.0110           0
     37315 MEMB     300      PMPE     H12R     HAL2     0.900000E-01   1.00800           0
     37316 MEMB     300      PMPE     H12S     HAL2     0.900000E-01   1.00800           0
     37317 MEMB     300      PMPE     C213     CTL2    -0.180000       12.0110           0
     37318 MEMB     300      PMPE     H13R     HAL2     0.900000E-01   1.00800           0
     37319 MEMB     300      PMPE     H13S     HAL2     0.900000E-01   1.00800           0
     37320 MEMB     300      PMPE     C214     CTL2    -0.180000       12.0110           0
     37321 MEMB     300      PMPE     H14R     HAL2     0.900000E-01   1.00800           0
     37322 MEMB     300      PMPE     H14S     HAL2     0.900000E-01   1.00800           0
     37323 MEMB     300      PMPE     C215     CTL2    -0.180000       12.0110           0
     37324 MEMB     300      PMPE     H15R     HAL2     0.900000E-01   1.00800           0
     37325 MEMB     300      PMPE     H15S     HAL2     0.900000E-01   1.00800           0
     37326 MEMB     300      PMPE     C216     CTL3    -0.270000       12.0110           0
     37327 MEMB     300      PMPE     H16R     HAL3     0.900000E-01   1.00800           0
     37328 MEMB     300      PMPE     H16S     HAL3     0.900000E-01   1.00800           0
     37329 MEMB     300      PMPE     H16T     HAL3     0.900000E-01   1.00800           0
     37330 MEMB     300      PMPE     C33      CTL2    -0.180000       12.0110           0
     37331 MEMB     300      PMPE     H3X      HAL2     0.900000E-01   1.00800           0
     37332 MEMB     300      PMPE     H3Y      HAL2     0.900000E-01   1.00800           0
     37333 MEMB     300      PMPE     C34      CTL2    -0.180000       12.0110           0
     37334 MEMB     300      PMPE     H4X      HAL2     0.900000E-01   1.00800           0
     37335 MEMB     300      PMPE     H4Y      HAL2     0.900000E-01   1.00800           0
     37336 MEMB     300      PMPE     C35      CTL2    -0.180000       12.0110           0
     37337 MEMB     300      PMPE     H5X      HAL2     0.900000E-01   1.00800           0
     37338 MEMB     300      PMPE     H5Y      HAL2     0.900000E-01   1.00800           0
     37339 MEMB     300      PMPE     C36      CTL2    -0.180000       12.0110           0
     37340 MEMB     300      PMPE     H6X      HAL2     0.900000E-01   1.00800           0
     37341 MEMB     300      PMPE     H6Y      HAL2     0.900000E-01   1.00800           0
     37342 MEMB     300      PMPE     C37      CTL2    -0.180000       12.0110           0
     37343 MEMB     300      PMPE     H7X      HAL2     0.900000E-01   1.00800           0
     37344 MEMB     300      PMPE     H7Y      HAL2     0.900000E-01   1.00800           0
     37345 MEMB     300      PMPE     C38      CTL2    -0.180000       12.0110           0
     37346 MEMB     300      PMPE     H8X      HAL2     0.900000E-01   1.00800           0
     37347 MEMB     300      PMPE     H8Y      HAL2     0.900000E-01   1.00800           0
     37348 MEMB     300      PMPE     C39      CTL2    -0.180000       12.0110           0
     37349 MEMB     300      PMPE     H9X      HAL2     0.900000E-01   1.00800           0
     37350 MEMB     300      PMPE     H9Y      HAL2     0.900000E-01   1.00800           0
     37351 MEMB     300      PMPE     C310     CTL2    -0.180000       12.0110           0
     37352 MEMB     300      PMPE     H10X     HAL2     0.900000E-01   1.00800           0
     37353 MEMB     300      PMPE     H10Y     HAL2     0.900000E-01   1.00800           0
     37354 MEMB     300      PMPE     C311     CTL2    -0.180000       12.0110           0
     37355 MEMB     300      PMPE     H11X     HAL2     0.900000E-01   1.00800           0
     37356 MEMB     300      PMPE     H11Y     HAL2     0.900000E-01   1.00800           0
     37357 MEMB     300      PMPE     C312     CTL2    -0.180000       12.0110           0
     37358 MEMB     300      PMPE     H12X     HAL2     0.900000E-01   1.00800           0
     37359 MEMB     300      PMPE     H12Y     HAL2     0.900000E-01   1.00800           0
     37360 MEMB     300      PMPE     C313     CTL2    -0.180000       12.0110           0
     37361 MEMB     300      PMPE     H13X     HAL2     0.900000E-01   1.00800           0
     37362 MEMB     300      PMPE     H13Y     HAL2     0.900000E-01   1.00800           0
     37363 MEMB     300      PMPE     C314     CTL2    -0.180000       12.0110           0
     37364 MEMB     300      PMPE     H14X     HAL2     0.900000E-01   1.00800           0
     37365 MEMB     300      PMPE     H14Y     HAL2     0.900000E-01   1.00800           0
     37366 MEMB     300      PMPE     C315     CTL2    -0.180000       12.0110           0
     37367 MEMB     300      PMPE     H15X     HAL2     0.900000E-01   1.00800           0
     37368 MEMB     300      PMPE     H15Y     HAL2     0.900000E-01   1.00800           0
     37369 MEMB     300      PMPE     C316     CTL3    -0.270000       12.0110           0
     37370 MEMB     300      PMPE     H16X     HAL3     0.900000E-01   1.00800           0
     37371 MEMB     300      PMPE     H16Y     HAL3     0.900000E-01   1.00800           0
     37372 MEMB     300      PMPE     H16Z     HAL3     0.900000E-01   1.00800           0
     37373 MEMB     301      PMPG     C13      CTL2     0.500000E-01   12.0110           0
     37374 MEMB     301      PMPG     H13A     HAL2     0.900000E-01   1.00800           0
     37375 MEMB     301      PMPG     H13B     HAL2     0.900000E-01   1.00800           0
     37376 MEMB     301      PMPG     OC3      OHL     -0.660000       15.9994           0
     37377 MEMB     301      PMPG     HO3      HOL      0.430000       1.00800           0
     37378 MEMB     301      PMPG     C12      CTL1     0.140000       12.0110           0
     37379 MEMB     301      PMPG     H12A     HAL1     0.900000E-01   1.00800           0
     37380 MEMB     301      PMPG     OC2      OHL     -0.660000       15.9994           0
     37381 MEMB     301      PMPG     HO2      HOL      0.430000       1.00800           0
     37382 MEMB     301      PMPG     C11      CTL2    -0.800000E-01   12.0110           0
     37383 MEMB     301      PMPG     H11A     HAL2     0.900000E-01   1.00800           0
     37384 MEMB     301      PMPG     H11B     HAL2     0.900000E-01   1.00800           0
     37385 MEMB     301      PMPG     P        PL        1.50000       30.9740           0
     37386 MEMB     301      PMPG     O13      O2L     -0.780000       15.9994           0
     37387 MEMB     301      PMPG     O14      O2L     -0.780000       15.9994           0
     37388 MEMB     301      PMPG     O11      OSLP    -0.570000       15.9994           0
     37389 MEMB     301      PMPG     O12      OSLP    -0.570000       15.9994           0
     37390 MEMB     301      PMPG     C1       CTL2    -0.800000E-01   12.0110           0
     37391 MEMB     301      PMPG     HA       HAL2     0.900000E-01   1.00800           0
     37392 MEMB     301      PMPG     HB       HAL2     0.900000E-01   1.00800           0
     37393 MEMB     301      PMPG     C2       CTL1     0.170000       12.0110           0
     37394 MEMB     301      PMPG     HS       HAL1     0.900000E-01   1.00800           0
     37395 MEMB     301      PMPG     O21      OSL     -0.490000       15.9994           0
     37396 MEMB     301      PMPG     C21      CL       0.900000       12.0110           0
     37397 MEMB     301      PMPG     O22      OBL     -0.630000       15.9994           0
     37398 MEMB     301      PMPG     C22      CTL2    -0.220000       12.0110           0
     37399 MEMB     301      PMPG     H2R      HAL2     0.900000E-01   1.00800           0
     37400 MEMB     301      PMPG     H2S      HAL2     0.900000E-01   1.00800           0
     37401 MEMB     301      PMPG     C3       CTL2     0.800000E-01   12.0110           0
     37402 MEMB     301      PMPG     HX       HAL2     0.900000E-01   1.00800           0
     37403 MEMB     301      PMPG     HY       HAL2     0.900000E-01   1.00800           0
     37404 MEMB     301      PMPG     O31      OSL     -0.490000       15.9994           0
     37405 MEMB     301      PMPG     C31      CL       0.900000       12.0110           0
     37406 MEMB     301      PMPG     O32      OBL     -0.630000       15.9994           0
     37407 MEMB     301      PMPG     C32      CTL2    -0.220000       12.0110           0
     37408 MEMB     301      PMPG     H2X      HAL2     0.900000E-01   1.00800           0
     37409 MEMB     301      PMPG     H2Y      HAL2     0.900000E-01   1.00800           0
     37410 MEMB     301      PMPG     C23      CTL2    -0.180000       12.0110           0
     37411 MEMB     301      PMPG     H3R      HAL2     0.900000E-01   1.00800           0
     37412 MEMB     301      PMPG     H3S      HAL2     0.900000E-01   1.00800           0
     37413 MEMB     301      PMPG     C24      CTL2    -0.180000       12.0110           0
     37414 MEMB     301      PMPG     H4R      HAL2     0.900000E-01   1.00800           0
     37415 MEMB     301      PMPG     H4S      HAL2     0.900000E-01   1.00800           0
     37416 MEMB     301      PMPG     C25      CTL2    -0.180000       12.0110           0
     37417 MEMB     301      PMPG     H5R      HAL2     0.900000E-01   1.00800           0
     37418 MEMB     301      PMPG     H5S      HAL2     0.900000E-01   1.00800           0
     37419 MEMB     301      PMPG     C26      CTL2    -0.180000       12.0110           0
     37420 MEMB     301      PMPG     H6R      HAL2     0.900000E-01   1.00800           0
     37421 MEMB     301      PMPG     H6S      HAL2     0.900000E-01   1.00800           0
     37422 MEMB     301      PMPG     C27      CTL2    -0.180000       12.0110           0
     37423 MEMB     301      PMPG     H7R      HAL2     0.900000E-01   1.00800           0
     37424 MEMB     301      PMPG     H7S      HAL2     0.900000E-01   1.00800           0
     37425 MEMB     301      PMPG     C28      CTL2    -0.180000       12.0110           0
     37426 MEMB     301      PMPG     H8R      HAL2     0.900000E-01   1.00800           0
     37427 MEMB     301      PMPG     H8S      HAL2     0.900000E-01   1.00800           0
     37428 MEMB     301      PMPG     C29      CG3RC1  -0.900000E-01   12.0110           0
     37429 MEMB     301      PMPG     H9R      HGA1     0.900000E-01   1.00800           0
     37430 MEMB     301      PMPG     C217     CG3C31  -0.180000       12.0110           0
     37431 MEMB     301      PMPG     H17R     HGA2     0.900000E-01   1.00800           0
     37432 MEMB     301      PMPG     H17S     HGA2     0.900000E-01   1.00800           0
     37433 MEMB     301      PMPG     C210     CG3RC1  -0.900000E-01   12.0110           0
     37434 MEMB     301      PMPG     H10R     HGA1     0.900000E-01   1.00800           0
     37435 MEMB     301      PMPG     C211     CTL2    -0.180000       12.0110           0
     37436 MEMB     301      PMPG     H11R     HAL2     0.900000E-01   1.00800           0
     37437 MEMB     301      PMPG     H11S     HAL2     0.900000E-01   1.00800           0
     37438 MEMB     301      PMPG     C212     CTL2    -0.180000       12.0110           0
     37439 MEMB     301      PMPG     H12R     HAL2     0.900000E-01   1.00800           0
     37440 MEMB     301      PMPG     H12S     HAL2     0.900000E-01   1.00800           0
     37441 MEMB     301      PMPG     C213     CTL2    -0.180000       12.0110           0
     37442 MEMB     301      PMPG     H13R     HAL2     0.900000E-01   1.00800           0
     37443 MEMB     301      PMPG     H13S     HAL2     0.900000E-01   1.00800           0
     37444 MEMB     301      PMPG     C214     CTL2    -0.180000       12.0110           0
     37445 MEMB     301      PMPG     H14R     HAL2     0.900000E-01   1.00800           0
     37446 MEMB     301      PMPG     H14S     HAL2     0.900000E-01   1.00800           0
     37447 MEMB     301      PMPG     C215     CTL2    -0.180000       12.0110           0
     37448 MEMB     301      PMPG     H15R     HAL2     0.900000E-01   1.00800           0
     37449 MEMB     301      PMPG     H15S     HAL2     0.900000E-01   1.00800           0
     37450 MEMB     301      PMPG     C216     CTL3    -0.270000       12.0110           0
     37451 MEMB     301      PMPG     H16R     HAL3     0.900000E-01   1.00800           0
     37452 MEMB     301      PMPG     H16S     HAL3     0.900000E-01   1.00800           0
     37453 MEMB     301      PMPG     H16T     HAL3     0.900000E-01   1.00800           0
     37454 MEMB     301      PMPG     C33      CTL2    -0.180000       12.0110           0
     37455 MEMB     301      PMPG     H3X      HAL2     0.900000E-01   1.00800           0
     37456 MEMB     301      PMPG     H3Y      HAL2     0.900000E-01   1.00800           0
     37457 MEMB     301      PMPG     C34      CTL2    -0.180000       12.0110           0
     37458 MEMB     301      PMPG     H4X      HAL2     0.900000E-01   1.00800           0
     37459 MEMB     301      PMPG     H4Y      HAL2     0.900000E-01   1.00800           0
     37460 MEMB     301      PMPG     C35      CTL2    -0.180000       12.0110           0
     37461 MEMB     301      PMPG     H5X      HAL2     0.900000E-01   1.00800           0
     37462 MEMB     301      PMPG     H5Y      HAL2     0.900000E-01   1.00800           0
     37463 MEMB     301      PMPG     C36      CTL2    -0.180000       12.0110           0
     37464 MEMB     301      PMPG     H6X      HAL2     0.900000E-01   1.00800           0
     37465 MEMB     301      PMPG     H6Y      HAL2     0.900000E-01   1.00800           0
     37466 MEMB     301      PMPG     C37      CTL2    -0.180000       12.0110           0
     37467 MEMB     301      PMPG     H7X      HAL2     0.900000E-01   1.00800           0
     37468 MEMB     301      PMPG     H7Y      HAL2     0.900000E-01   1.00800           0
     37469 MEMB     301      PMPG     C38      CTL2    -0.180000       12.0110           0
     37470 MEMB     301      PMPG     H8X      HAL2     0.900000E-01   1.00800           0
     37471 MEMB     301      PMPG     H8Y      HAL2     0.900000E-01   1.00800           0
     37472 MEMB     301      PMPG     C39      CTL2    -0.180000       12.0110           0
     37473 MEMB     301      PMPG     H9X      HAL2     0.900000E-01   1.00800           0
     37474 MEMB     301      PMPG     H9Y      HAL2     0.900000E-01   1.00800           0
     37475 MEMB     301      PMPG     C310     CTL2    -0.180000       12.0110           0
     37476 MEMB     301      PMPG     H10X     HAL2     0.900000E-01   1.00800           0
     37477 MEMB     301      PMPG     H10Y     HAL2     0.900000E-01   1.00800           0
     37478 MEMB     301      PMPG     C311     CTL2    -0.180000       12.0110           0
     37479 MEMB     301      PMPG     H11X     HAL2     0.900000E-01   1.00800           0
     37480 MEMB     301      PMPG     H11Y     HAL2     0.900000E-01   1.00800           0
     37481 MEMB     301      PMPG     C312     CTL2    -0.180000       12.0110           0
     37482 MEMB     301      PMPG     H12X     HAL2     0.900000E-01   1.00800           0
     37483 MEMB     301      PMPG     H12Y     HAL2     0.900000E-01   1.00800           0
     37484 MEMB     301      PMPG     C313     CTL2    -0.180000       12.0110           0
     37485 MEMB     301      PMPG     H13X     HAL2     0.900000E-01   1.00800           0
     37486 MEMB     301      PMPG     H13Y     HAL2     0.900000E-01   1.00800           0
     37487 MEMB     301      PMPG     C314     CTL2    -0.180000       12.0110           0
     37488 MEMB     301      PMPG     H14X     HAL2     0.900000E-01   1.00800           0
     37489 MEMB     301      PMPG     H14Y     HAL2     0.900000E-01   1.00800           0
     37490 MEMB     301      PMPG     C315     CTL2    -0.180000       12.0110           0
     37491 MEMB     301      PMPG     H15X     HAL2     0.900000E-01   1.00800           0
     37492 MEMB     301      PMPG     H15Y     HAL2     0.900000E-01   1.00800           0
     37493 MEMB     301      PMPG     C316     CTL3    -0.270000       12.0110           0
     37494 MEMB     301      PMPG     H16X     HAL3     0.900000E-01   1.00800           0
     37495 MEMB     301      PMPG     H16Y     HAL3     0.900000E-01   1.00800           0
     37496 MEMB     301      PMPG     H16Z     HAL3     0.900000E-01   1.00800           0
     37497 MEMB     302      PMPE     N        NH3L    -0.300000       14.0070           0
     37498 MEMB     302      PMPE     HN1      HCL      0.330000       1.00800           0
     37499 MEMB     302      PMPE     HN2      HCL      0.330000       1.00800           0
     37500 MEMB     302      PMPE     HN3      HCL      0.330000       1.00800           0
     37501 MEMB     302      PMPE     C12      CTL2     0.130000       12.0110           0
     37502 MEMB     302      PMPE     H12A     HAL2     0.900000E-01   1.00800           0
     37503 MEMB     302      PMPE     H12B     HAL2     0.900000E-01   1.00800           0
     37504 MEMB     302      PMPE     C11      CTL2    -0.800000E-01   12.0110           0
     37505 MEMB     302      PMPE     H11A     HAL2     0.900000E-01   1.00800           0
     37506 MEMB     302      PMPE     H11B     HAL2     0.900000E-01   1.00800           0
     37507 MEMB     302      PMPE     P        PL        1.50000       30.9740           0
     37508 MEMB     302      PMPE     O13      O2L     -0.780000       15.9994           0
     37509 MEMB     302      PMPE     O14      O2L     -0.780000       15.9994           0
     37510 MEMB     302      PMPE     O11      OSLP    -0.570000       15.9994           0
     37511 MEMB     302      PMPE     O12      OSLP    -0.570000       15.9994           0
     37512 MEMB     302      PMPE     C1       CTL2    -0.800000E-01   12.0110           0
     37513 MEMB     302      PMPE     HA       HAL2     0.900000E-01   1.00800           0
     37514 MEMB     302      PMPE     HB       HAL2     0.900000E-01   1.00800           0
     37515 MEMB     302      PMPE     C2       CTL1     0.170000       12.0110           0
     37516 MEMB     302      PMPE     HS       HAL1     0.900000E-01   1.00800           0
     37517 MEMB     302      PMPE     O21      OSL     -0.490000       15.9994           0
     37518 MEMB     302      PMPE     C21      CL       0.900000       12.0110           0
     37519 MEMB     302      PMPE     O22      OBL     -0.630000       15.9994           0
     37520 MEMB     302      PMPE     C22      CTL2    -0.220000       12.0110           0
     37521 MEMB     302      PMPE     H2R      HAL2     0.900000E-01   1.00800           0
     37522 MEMB     302      PMPE     H2S      HAL2     0.900000E-01   1.00800           0
     37523 MEMB     302      PMPE     C3       CTL2     0.800000E-01   12.0110           0
     37524 MEMB     302      PMPE     HX       HAL2     0.900000E-01   1.00800           0
     37525 MEMB     302      PMPE     HY       HAL2     0.900000E-01   1.00800           0
     37526 MEMB     302      PMPE     O31      OSL     -0.490000       15.9994           0
     37527 MEMB     302      PMPE     C31      CL       0.900000       12.0110           0
     37528 MEMB     302      PMPE     O32      OBL     -0.630000       15.9994           0
     37529 MEMB     302      PMPE     C32      CTL2    -0.220000       12.0110           0
     37530 MEMB     302      PMPE     H2X      HAL2     0.900000E-01   1.00800           0
     37531 MEMB     302      PMPE     H2Y      HAL2     0.900000E-01   1.00800           0
     37532 MEMB     302      PMPE     C23      CTL2    -0.180000       12.0110           0
     37533 MEMB     302      PMPE     H3R      HAL2     0.900000E-01   1.00800           0
     37534 MEMB     302      PMPE     H3S      HAL2     0.900000E-01   1.00800           0
     37535 MEMB     302      PMPE     C24      CTL2    -0.180000       12.0110           0
     37536 MEMB     302      PMPE     H4R      HAL2     0.900000E-01   1.00800           0
     37537 MEMB     302      PMPE     H4S      HAL2     0.900000E-01   1.00800           0
     37538 MEMB     302      PMPE     C25      CTL2    -0.180000       12.0110           0
     37539 MEMB     302      PMPE     H5R      HAL2     0.900000E-01   1.00800           0
     37540 MEMB     302      PMPE     H5S      HAL2     0.900000E-01   1.00800           0
     37541 MEMB     302      PMPE     C26      CTL2    -0.180000       12.0110           0
     37542 MEMB     302      PMPE     H6R      HAL2     0.900000E-01   1.00800           0
     37543 MEMB     302      PMPE     H6S      HAL2     0.900000E-01   1.00800           0
     37544 MEMB     302      PMPE     C27      CTL2    -0.180000       12.0110           0
     37545 MEMB     302      PMPE     H7R      HAL2     0.900000E-01   1.00800           0
     37546 MEMB     302      PMPE     H7S      HAL2     0.900000E-01   1.00800           0
     37547 MEMB     302      PMPE     C28      CTL2    -0.180000       12.0110           0
     37548 MEMB     302      PMPE     H8R      HAL2     0.900000E-01   1.00800           0
     37549 MEMB     302      PMPE     H8S      HAL2     0.900000E-01   1.00800           0
     37550 MEMB     302      PMPE     C29      CG3RC1  -0.900000E-01   12.0110           0
     37551 MEMB     302      PMPE     H9R      HGA1     0.900000E-01   1.00800           0
     37552 MEMB     302      PMPE     C217     CG3C31  -0.180000       12.0110           0
     37553 MEMB     302      PMPE     H17R     HGA2     0.900000E-01   1.00800           0
     37554 MEMB     302      PMPE     H17S     HGA2     0.900000E-01   1.00800           0
     37555 MEMB     302      PMPE     C210     CG3RC1  -0.900000E-01   12.0110           0
     37556 MEMB     302      PMPE     H10R     HGA1     0.900000E-01   1.00800           0
     37557 MEMB     302      PMPE     C211     CTL2    -0.180000       12.0110           0
     37558 MEMB     302      PMPE     H11R     HAL2     0.900000E-01   1.00800           0
     37559 MEMB     302      PMPE     H11S     HAL2     0.900000E-01   1.00800           0
     37560 MEMB     302      PMPE     C212     CTL2    -0.180000       12.0110           0
     37561 MEMB     302      PMPE     H12R     HAL2     0.900000E-01   1.00800           0
     37562 MEMB     302      PMPE     H12S     HAL2     0.900000E-01   1.00800           0
     37563 MEMB     302      PMPE     C213     CTL2    -0.180000       12.0110           0
     37564 MEMB     302      PMPE     H13R     HAL2     0.900000E-01   1.00800           0
     37565 MEMB     302      PMPE     H13S     HAL2     0.900000E-01   1.00800           0
     37566 MEMB     302      PMPE     C214     CTL2    -0.180000       12.0110           0
     37567 MEMB     302      PMPE     H14R     HAL2     0.900000E-01   1.00800           0
     37568 MEMB     302      PMPE     H14S     HAL2     0.900000E-01   1.00800           0
     37569 MEMB     302      PMPE     C215     CTL2    -0.180000       12.0110           0
     37570 MEMB     302      PMPE     H15R     HAL2     0.900000E-01   1.00800           0
     37571 MEMB     302      PMPE     H15S     HAL2     0.900000E-01   1.00800           0
     37572 MEMB     302      PMPE     C216     CTL3    -0.270000       12.0110           0
     37573 MEMB     302      PMPE     H16R     HAL3     0.900000E-01   1.00800           0
     37574 MEMB     302      PMPE     H16S     HAL3     0.900000E-01   1.00800           0
     37575 MEMB     302      PMPE     H16T     HAL3     0.900000E-01   1.00800           0
     37576 MEMB     302      PMPE     C33      CTL2    -0.180000       12.0110           0
     37577 MEMB     302      PMPE     H3X      HAL2     0.900000E-01   1.00800           0
     37578 MEMB     302      PMPE     H3Y      HAL2     0.900000E-01   1.00800           0
     37579 MEMB     302      PMPE     C34      CTL2    -0.180000       12.0110           0
     37580 MEMB     302      PMPE     H4X      HAL2     0.900000E-01   1.00800           0
     37581 MEMB     302      PMPE     H4Y      HAL2     0.900000E-01   1.00800           0
     37582 MEMB     302      PMPE     C35      CTL2    -0.180000       12.0110           0
     37583 MEMB     302      PMPE     H5X      HAL2     0.900000E-01   1.00800           0
     37584 MEMB     302      PMPE     H5Y      HAL2     0.900000E-01   1.00800           0
     37585 MEMB     302      PMPE     C36      CTL2    -0.180000       12.0110           0
     37586 MEMB     302      PMPE     H6X      HAL2     0.900000E-01   1.00800           0
     37587 MEMB     302      PMPE     H6Y      HAL2     0.900000E-01   1.00800           0
     37588 MEMB     302      PMPE     C37      CTL2    -0.180000       12.0110           0
     37589 MEMB     302      PMPE     H7X      HAL2     0.900000E-01   1.00800           0
     37590 MEMB     302      PMPE     H7Y      HAL2     0.900000E-01   1.00800           0
     37591 MEMB     302      PMPE     C38      CTL2    -0.180000       12.0110           0
     37592 MEMB     302      PMPE     H8X      HAL2     0.900000E-01   1.00800           0
     37593 MEMB     302      PMPE     H8Y      HAL2     0.900000E-01   1.00800           0
     37594 MEMB     302      PMPE     C39      CTL2    -0.180000       12.0110           0
     37595 MEMB     302      PMPE     H9X      HAL2     0.900000E-01   1.00800           0
     37596 MEMB     302      PMPE     H9Y      HAL2     0.900000E-01   1.00800           0
     37597 MEMB     302      PMPE     C310     CTL2    -0.180000       12.0110           0
     37598 MEMB     302      PMPE     H10X     HAL2     0.900000E-01   1.00800           0
     37599 MEMB     302      PMPE     H10Y     HAL2     0.900000E-01   1.00800           0
     37600 MEMB     302      PMPE     C311     CTL2    -0.180000       12.0110           0
     37601 MEMB     302      PMPE     H11X     HAL2     0.900000E-01   1.00800           0
     37602 MEMB     302      PMPE     H11Y     HAL2     0.900000E-01   1.00800           0
     37603 MEMB     302      PMPE     C312     CTL2    -0.180000       12.0110           0
     37604 MEMB     302      PMPE     H12X     HAL2     0.900000E-01   1.00800           0
     37605 MEMB     302      PMPE     H12Y     HAL2     0.900000E-01   1.00800           0
     37606 MEMB     302      PMPE     C313     CTL2    -0.180000       12.0110           0
     37607 MEMB     302      PMPE     H13X     HAL2     0.900000E-01   1.00800           0
     37608 MEMB     302      PMPE     H13Y     HAL2     0.900000E-01   1.00800           0
     37609 MEMB     302      PMPE     C314     CTL2    -0.180000       12.0110           0
     37610 MEMB     302      PMPE     H14X     HAL2     0.900000E-01   1.00800           0
     37611 MEMB     302      PMPE     H14Y     HAL2     0.900000E-01   1.00800           0
     37612 MEMB     302      PMPE     C315     CTL2    -0.180000       12.0110           0
     37613 MEMB     302      PMPE     H15X     HAL2     0.900000E-01   1.00800           0
     37614 MEMB     302      PMPE     H15Y     HAL2     0.900000E-01   1.00800           0
     37615 MEMB     302      PMPE     C316     CTL3    -0.270000       12.0110           0
     37616 MEMB     302      PMPE     H16X     HAL3     0.900000E-01   1.00800           0
     37617 MEMB     302      PMPE     H16Y     HAL3     0.900000E-01   1.00800           0
     37618 MEMB     302      PMPE     H16Z     HAL3     0.900000E-01   1.00800           0
     37619 MEMB     303      PMPE     N        NH3L    -0.300000       14.0070           0
     37620 MEMB     303      PMPE     HN1      HCL      0.330000       1.00800           0
     37621 MEMB     303      PMPE     HN2      HCL      0.330000       1.00800           0
     37622 MEMB     303      PMPE     HN3      HCL      0.330000       1.00800           0
     37623 MEMB     303      PMPE     C12      CTL2     0.130000       12.0110           0
     37624 MEMB     303      PMPE     H12A     HAL2     0.900000E-01   1.00800           0
     37625 MEMB     303      PMPE     H12B     HAL2     0.900000E-01   1.00800           0
     37626 MEMB     303      PMPE     C11      CTL2    -0.800000E-01   12.0110           0
     37627 MEMB     303      PMPE     H11A     HAL2     0.900000E-01   1.00800           0
     37628 MEMB     303      PMPE     H11B     HAL2     0.900000E-01   1.00800           0
     37629 MEMB     303      PMPE     P        PL        1.50000       30.9740           0
     37630 MEMB     303      PMPE     O13      O2L     -0.780000       15.9994           0
     37631 MEMB     303      PMPE     O14      O2L     -0.780000       15.9994           0
     37632 MEMB     303      PMPE     O11      OSLP    -0.570000       15.9994           0
     37633 MEMB     303      PMPE     O12      OSLP    -0.570000       15.9994           0
     37634 MEMB     303      PMPE     C1       CTL2    -0.800000E-01   12.0110           0
     37635 MEMB     303      PMPE     HA       HAL2     0.900000E-01   1.00800           0
     37636 MEMB     303      PMPE     HB       HAL2     0.900000E-01   1.00800           0
     37637 MEMB     303      PMPE     C2       CTL1     0.170000       12.0110           0
     37638 MEMB     303      PMPE     HS       HAL1     0.900000E-01   1.00800           0
     37639 MEMB     303      PMPE     O21      OSL     -0.490000       15.9994           0
     37640 MEMB     303      PMPE     C21      CL       0.900000       12.0110           0
     37641 MEMB     303      PMPE     O22      OBL     -0.630000       15.9994           0
     37642 MEMB     303      PMPE     C22      CTL2    -0.220000       12.0110           0
     37643 MEMB     303      PMPE     H2R      HAL2     0.900000E-01   1.00800           0
     37644 MEMB     303      PMPE     H2S      HAL2     0.900000E-01   1.00800           0
     37645 MEMB     303      PMPE     C3       CTL2     0.800000E-01   12.0110           0
     37646 MEMB     303      PMPE     HX       HAL2     0.900000E-01   1.00800           0
     37647 MEMB     303      PMPE     HY       HAL2     0.900000E-01   1.00800           0
     37648 MEMB     303      PMPE     O31      OSL     -0.490000       15.9994           0
     37649 MEMB     303      PMPE     C31      CL       0.900000       12.0110           0
     37650 MEMB     303      PMPE     O32      OBL     -0.630000       15.9994           0
     37651 MEMB     303      PMPE     C32      CTL2    -0.220000       12.0110           0
     37652 MEMB     303      PMPE     H2X      HAL2     0.900000E-01   1.00800           0
     37653 MEMB     303      PMPE     H2Y      HAL2     0.900000E-01   1.00800           0
     37654 MEMB     303      PMPE     C23      CTL2    -0.180000       12.0110           0
     37655 MEMB     303      PMPE     H3R      HAL2     0.900000E-01   1.00800           0
     37656 MEMB     303      PMPE     H3S      HAL2     0.900000E-01   1.00800           0
     37657 MEMB     303      PMPE     C24      CTL2    -0.180000       12.0110           0
     37658 MEMB     303      PMPE     H4R      HAL2     0.900000E-01   1.00800           0
     37659 MEMB     303      PMPE     H4S      HAL2     0.900000E-01   1.00800           0
     37660 MEMB     303      PMPE     C25      CTL2    -0.180000       12.0110           0
     37661 MEMB     303      PMPE     H5R      HAL2     0.900000E-01   1.00800           0
     37662 MEMB     303      PMPE     H5S      HAL2     0.900000E-01   1.00800           0
     37663 MEMB     303      PMPE     C26      CTL2    -0.180000       12.0110           0
     37664 MEMB     303      PMPE     H6R      HAL2     0.900000E-01   1.00800           0
     37665 MEMB     303      PMPE     H6S      HAL2     0.900000E-01   1.00800           0
     37666 MEMB     303      PMPE     C27      CTL2    -0.180000       12.0110           0
     37667 MEMB     303      PMPE     H7R      HAL2     0.900000E-01   1.00800           0
     37668 MEMB     303      PMPE     H7S      HAL2     0.900000E-01   1.00800           0
     37669 MEMB     303      PMPE     C28      CTL2    -0.180000       12.0110           0
     37670 MEMB     303      PMPE     H8R      HAL2     0.900000E-01   1.00800           0
     37671 MEMB     303      PMPE     H8S      HAL2     0.900000E-01   1.00800           0
     37672 MEMB     303      PMPE     C29      CG3RC1  -0.900000E-01   12.0110           0
     37673 MEMB     303      PMPE     H9R      HGA1     0.900000E-01   1.00800           0
     37674 MEMB     303      PMPE     C217     CG3C31  -0.180000       12.0110           0
     37675 MEMB     303      PMPE     H17R     HGA2     0.900000E-01   1.00800           0
     37676 MEMB     303      PMPE     H17S     HGA2     0.900000E-01   1.00800           0
     37677 MEMB     303      PMPE     C210     CG3RC1  -0.900000E-01   12.0110           0
     37678 MEMB     303      PMPE     H10R     HGA1     0.900000E-01   1.00800           0
     37679 MEMB     303      PMPE     C211     CTL2    -0.180000       12.0110           0
     37680 MEMB     303      PMPE     H11R     HAL2     0.900000E-01   1.00800           0
     37681 MEMB     303      PMPE     H11S     HAL2     0.900000E-01   1.00800           0
     37682 MEMB     303      PMPE     C212     CTL2    -0.180000       12.0110           0
     37683 MEMB     303      PMPE     H12R     HAL2     0.900000E-01   1.00800           0
     37684 MEMB     303      PMPE     H12S     HAL2     0.900000E-01   1.00800           0
     37685 MEMB     303      PMPE     C213     CTL2    -0.180000       12.0110           0
     37686 MEMB     303      PMPE     H13R     HAL2     0.900000E-01   1.00800           0
     37687 MEMB     303      PMPE     H13S     HAL2     0.900000E-01   1.00800           0
     37688 MEMB     303      PMPE     C214     CTL2    -0.180000       12.0110           0
     37689 MEMB     303      PMPE     H14R     HAL2     0.900000E-01   1.00800           0
     37690 MEMB     303      PMPE     H14S     HAL2     0.900000E-01   1.00800           0
     37691 MEMB     303      PMPE     C215     CTL2    -0.180000       12.0110           0
     37692 MEMB     303      PMPE     H15R     HAL2     0.900000E-01   1.00800           0
     37693 MEMB     303      PMPE     H15S     HAL2     0.900000E-01   1.00800           0
     37694 MEMB     303      PMPE     C216     CTL3    -0.270000       12.0110           0
     37695 MEMB     303      PMPE     H16R     HAL3     0.900000E-01   1.00800           0
     37696 MEMB     303      PMPE     H16S     HAL3     0.900000E-01   1.00800           0
     37697 MEMB     303      PMPE     H16T     HAL3     0.900000E-01   1.00800           0
     37698 MEMB     303      PMPE     C33      CTL2    -0.180000       12.0110           0
     37699 MEMB     303      PMPE     H3X      HAL2     0.900000E-01   1.00800           0
     37700 MEMB     303      PMPE     H3Y      HAL2     0.900000E-01   1.00800           0
     37701 MEMB     303      PMPE     C34      CTL2    -0.180000       12.0110           0
     37702 MEMB     303      PMPE     H4X      HAL2     0.900000E-01   1.00800           0
     37703 MEMB     303      PMPE     H4Y      HAL2     0.900000E-01   1.00800           0
     37704 MEMB     303      PMPE     C35      CTL2    -0.180000       12.0110           0
     37705 MEMB     303      PMPE     H5X      HAL2     0.900000E-01   1.00800           0
     37706 MEMB     303      PMPE     H5Y      HAL2     0.900000E-01   1.00800           0
     37707 MEMB     303      PMPE     C36      CTL2    -0.180000       12.0110           0
     37708 MEMB     303      PMPE     H6X      HAL2     0.900000E-01   1.00800           0
     37709 MEMB     303      PMPE     H6Y      HAL2     0.900000E-01   1.00800           0
     37710 MEMB     303      PMPE     C37      CTL2    -0.180000       12.0110           0
     37711 MEMB     303      PMPE     H7X      HAL2     0.900000E-01   1.00800           0
     37712 MEMB     303      PMPE     H7Y      HAL2     0.900000E-01   1.00800           0
     37713 MEMB     303      PMPE     C38      CTL2    -0.180000       12.0110           0
     37714 MEMB     303      PMPE     H8X      HAL2     0.900000E-01   1.00800           0
     37715 MEMB     303      PMPE     H8Y      HAL2     0.900000E-01   1.00800           0
     37716 MEMB     303      PMPE     C39      CTL2    -0.180000       12.0110           0
     37717 MEMB     303      PMPE     H9X      HAL2     0.900000E-01   1.00800           0
     37718 MEMB     303      PMPE     H9Y      HAL2     0.900000E-01   1.00800           0
     37719 MEMB     303      PMPE     C310     CTL2    -0.180000       12.0110           0
     37720 MEMB     303      PMPE     H10X     HAL2     0.900000E-01   1.00800           0
     37721 MEMB     303      PMPE     H10Y     HAL2     0.900000E-01   1.00800           0
     37722 MEMB     303      PMPE     C311     CTL2    -0.180000       12.0110           0
     37723 MEMB     303      PMPE     H11X     HAL2     0.900000E-01   1.00800           0
     37724 MEMB     303      PMPE     H11Y     HAL2     0.900000E-01   1.00800           0
     37725 MEMB     303      PMPE     C312     CTL2    -0.180000       12.0110           0
     37726 MEMB     303      PMPE     H12X     HAL2     0.900000E-01   1.00800           0
     37727 MEMB     303      PMPE     H12Y     HAL2     0.900000E-01   1.00800           0
     37728 MEMB     303      PMPE     C313     CTL2    -0.180000       12.0110           0
     37729 MEMB     303      PMPE     H13X     HAL2     0.900000E-01   1.00800           0
     37730 MEMB     303      PMPE     H13Y     HAL2     0.900000E-01   1.00800           0
     37731 MEMB     303      PMPE     C314     CTL2    -0.180000       12.0110           0
     37732 MEMB     303      PMPE     H14X     HAL2     0.900000E-01   1.00800           0
     37733 MEMB     303      PMPE     H14Y     HAL2     0.900000E-01   1.00800           0
     37734 MEMB     303      PMPE     C315     CTL2    -0.180000       12.0110           0
     37735 MEMB     303      PMPE     H15X     HAL2     0.900000E-01   1.00800           0
     37736 MEMB     303      PMPE     H15Y     HAL2     0.900000E-01   1.00800           0
     37737 MEMB     303      PMPE     C316     CTL3    -0.270000       12.0110           0
     37738 MEMB     303      PMPE     H16X     HAL3     0.900000E-01   1.00800           0
     37739 MEMB     303      PMPE     H16Y     HAL3     0.900000E-01   1.00800           0
     37740 MEMB     303      PMPE     H16Z     HAL3     0.900000E-01   1.00800           0
     37741 MEMB     304      POPE     N        NH3L    -0.300000       14.0070           0
     37742 MEMB     304      POPE     HN1      HCL      0.330000       1.00800           0
     37743 MEMB     304      POPE     HN2      HCL      0.330000       1.00800           0
     37744 MEMB     304      POPE     HN3      HCL      0.330000       1.00800           0
     37745 MEMB     304      POPE     C12      CTL2     0.130000       12.0110           0
     37746 MEMB     304      POPE     H12A     HAL2     0.900000E-01   1.00800           0
     37747 MEMB     304      POPE     H12B     HAL2     0.900000E-01   1.00800           0
     37748 MEMB     304      POPE     C11      CTL2    -0.800000E-01   12.0110           0
     37749 MEMB     304      POPE     H11A     HAL2     0.900000E-01   1.00800           0
     37750 MEMB     304      POPE     H11B     HAL2     0.900000E-01   1.00800           0
     37751 MEMB     304      POPE     P        PL        1.50000       30.9740           0
     37752 MEMB     304      POPE     O13      O2L     -0.780000       15.9994           0
     37753 MEMB     304      POPE     O14      O2L     -0.780000       15.9994           0
     37754 MEMB     304      POPE     O11      OSLP    -0.570000       15.9994           0
     37755 MEMB     304      POPE     O12      OSLP    -0.570000       15.9994           0
     37756 MEMB     304      POPE     C1       CTL2    -0.800000E-01   12.0110           0
     37757 MEMB     304      POPE     HA       HAL2     0.900000E-01   1.00800           0
     37758 MEMB     304      POPE     HB       HAL2     0.900000E-01   1.00800           0
     37759 MEMB     304      POPE     C2       CTL1     0.170000       12.0110           0
     37760 MEMB     304      POPE     HS       HAL1     0.900000E-01   1.00800           0
     37761 MEMB     304      POPE     O21      OSL     -0.490000       15.9994           0
     37762 MEMB     304      POPE     C21      CL       0.900000       12.0110           0
     37763 MEMB     304      POPE     O22      OBL     -0.630000       15.9994           0
     37764 MEMB     304      POPE     C22      CTL2    -0.220000       12.0110           0
     37765 MEMB     304      POPE     H2R      HAL2     0.900000E-01   1.00800           0
     37766 MEMB     304      POPE     H2S      HAL2     0.900000E-01   1.00800           0
     37767 MEMB     304      POPE     C3       CTL2     0.800000E-01   12.0110           0
     37768 MEMB     304      POPE     HX       HAL2     0.900000E-01   1.00800           0
     37769 MEMB     304      POPE     HY       HAL2     0.900000E-01   1.00800           0
     37770 MEMB     304      POPE     O31      OSL     -0.490000       15.9994           0
     37771 MEMB     304      POPE     C31      CL       0.900000       12.0110           0
     37772 MEMB     304      POPE     O32      OBL     -0.630000       15.9994           0
     37773 MEMB     304      POPE     C32      CTL2    -0.220000       12.0110           0
     37774 MEMB     304      POPE     H2X      HAL2     0.900000E-01   1.00800           0
     37775 MEMB     304      POPE     H2Y      HAL2     0.900000E-01   1.00800           0
     37776 MEMB     304      POPE     C23      CTL2    -0.180000       12.0110           0
     37777 MEMB     304      POPE     H3R      HAL2     0.900000E-01   1.00800           0
     37778 MEMB     304      POPE     H3S      HAL2     0.900000E-01   1.00800           0
     37779 MEMB     304      POPE     C24      CTL2    -0.180000       12.0110           0
     37780 MEMB     304      POPE     H4R      HAL2     0.900000E-01   1.00800           0
     37781 MEMB     304      POPE     H4S      HAL2     0.900000E-01   1.00800           0
     37782 MEMB     304      POPE     C25      CTL2    -0.180000       12.0110           0
     37783 MEMB     304      POPE     H5R      HAL2     0.900000E-01   1.00800           0
     37784 MEMB     304      POPE     H5S      HAL2     0.900000E-01   1.00800           0
     37785 MEMB     304      POPE     C26      CTL2    -0.180000       12.0110           0
     37786 MEMB     304      POPE     H6R      HAL2     0.900000E-01   1.00800           0
     37787 MEMB     304      POPE     H6S      HAL2     0.900000E-01   1.00800           0
     37788 MEMB     304      POPE     C27      CTL2    -0.180000       12.0110           0
     37789 MEMB     304      POPE     H7R      HAL2     0.900000E-01   1.00800           0
     37790 MEMB     304      POPE     H7S      HAL2     0.900000E-01   1.00800           0
     37791 MEMB     304      POPE     C28      CTL2    -0.180000       12.0110           0
     37792 MEMB     304      POPE     H8R      HAL2     0.900000E-01   1.00800           0
     37793 MEMB     304      POPE     H8S      HAL2     0.900000E-01   1.00800           0
     37794 MEMB     304      POPE     C29      CEL1    -0.150000       12.0110           0
     37795 MEMB     304      POPE     H91      HEL1     0.150000       1.00800           0
     37796 MEMB     304      POPE     C210     CEL1    -0.150000       12.0110           0
     37797 MEMB     304      POPE     H101     HEL1     0.150000       1.00800           0
     37798 MEMB     304      POPE     C211     CTL2    -0.180000       12.0110           0
     37799 MEMB     304      POPE     H11R     HAL2     0.900000E-01   1.00800           0
     37800 MEMB     304      POPE     H11S     HAL2     0.900000E-01   1.00800           0
     37801 MEMB     304      POPE     C212     CTL2    -0.180000       12.0110           0
     37802 MEMB     304      POPE     H12R     HAL2     0.900000E-01   1.00800           0
     37803 MEMB     304      POPE     H12S     HAL2     0.900000E-01   1.00800           0
     37804 MEMB     304      POPE     C213     CTL2    -0.180000       12.0110           0
     37805 MEMB     304      POPE     H13R     HAL2     0.900000E-01   1.00800           0
     37806 MEMB     304      POPE     H13S     HAL2     0.900000E-01   1.00800           0
     37807 MEMB     304      POPE     C214     CTL2    -0.180000       12.0110           0
     37808 MEMB     304      POPE     H14R     HAL2     0.900000E-01   1.00800           0
     37809 MEMB     304      POPE     H14S     HAL2     0.900000E-01   1.00800           0
     37810 MEMB     304      POPE     C215     CTL2    -0.180000       12.0110           0
     37811 MEMB     304      POPE     H15R     HAL2     0.900000E-01   1.00800           0
     37812 MEMB     304      POPE     H15S     HAL2     0.900000E-01   1.00800           0
     37813 MEMB     304      POPE     C216     CTL2    -0.180000       12.0110           0
     37814 MEMB     304      POPE     H16R     HAL2     0.900000E-01   1.00800           0
     37815 MEMB     304      POPE     H16S     HAL2     0.900000E-01   1.00800           0
     37816 MEMB     304      POPE     C217     CTL2    -0.180000       12.0110           0
     37817 MEMB     304      POPE     H17R     HAL2     0.900000E-01   1.00800           0
     37818 MEMB     304      POPE     H17S     HAL2     0.900000E-01   1.00800           0
     37819 MEMB     304      POPE     C218     CTL3    -0.270000       12.0110           0
     37820 MEMB     304      POPE     H18R     HAL3     0.900000E-01   1.00800           0
     37821 MEMB     304      POPE     H18S     HAL3     0.900000E-01   1.00800           0
     37822 MEMB     304      POPE     H18T     HAL3     0.900000E-01   1.00800           0
     37823 MEMB     304      POPE     C33      CTL2    -0.180000       12.0110           0
     37824 MEMB     304      POPE     H3X      HAL2     0.900000E-01   1.00800           0
     37825 MEMB     304      POPE     H3Y      HAL2     0.900000E-01   1.00800           0
     37826 MEMB     304      POPE     C34      CTL2    -0.180000       12.0110           0
     37827 MEMB     304      POPE     H4X      HAL2     0.900000E-01   1.00800           0
     37828 MEMB     304      POPE     H4Y      HAL2     0.900000E-01   1.00800           0
     37829 MEMB     304      POPE     C35      CTL2    -0.180000       12.0110           0
     37830 MEMB     304      POPE     H5X      HAL2     0.900000E-01   1.00800           0
     37831 MEMB     304      POPE     H5Y      HAL2     0.900000E-01   1.00800           0
     37832 MEMB     304      POPE     C36      CTL2    -0.180000       12.0110           0
     37833 MEMB     304      POPE     H6X      HAL2     0.900000E-01   1.00800           0
     37834 MEMB     304      POPE     H6Y      HAL2     0.900000E-01   1.00800           0
     37835 MEMB     304      POPE     C37      CTL2    -0.180000       12.0110           0
     37836 MEMB     304      POPE     H7X      HAL2     0.900000E-01   1.00800           0
     37837 MEMB     304      POPE     H7Y      HAL2     0.900000E-01   1.00800           0
     37838 MEMB     304      POPE     C38      CTL2    -0.180000       12.0110           0
     37839 MEMB     304      POPE     H8X      HAL2     0.900000E-01   1.00800           0
     37840 MEMB     304      POPE     H8Y      HAL2     0.900000E-01   1.00800           0
     37841 MEMB     304      POPE     C39      CTL2    -0.180000       12.0110           0
     37842 MEMB     304      POPE     H9X      HAL2     0.900000E-01   1.00800           0
     37843 MEMB     304      POPE     H9Y      HAL2     0.900000E-01   1.00800           0
     37844 MEMB     304      POPE     C310     CTL2    -0.180000       12.0110           0
     37845 MEMB     304      POPE     H10X     HAL2     0.900000E-01   1.00800           0
     37846 MEMB     304      POPE     H10Y     HAL2     0.900000E-01   1.00800           0
     37847 MEMB     304      POPE     C311     CTL2    -0.180000       12.0110           0
     37848 MEMB     304      POPE     H11X     HAL2     0.900000E-01   1.00800           0
     37849 MEMB     304      POPE     H11Y     HAL2     0.900000E-01   1.00800           0
     37850 MEMB     304      POPE     C312     CTL2    -0.180000       12.0110           0
     37851 MEMB     304      POPE     H12X     HAL2     0.900000E-01   1.00800           0
     37852 MEMB     304      POPE     H12Y     HAL2     0.900000E-01   1.00800           0
     37853 MEMB     304      POPE     C313     CTL2    -0.180000       12.0110           0
     37854 MEMB     304      POPE     H13X     HAL2     0.900000E-01   1.00800           0
     37855 MEMB     304      POPE     H13Y     HAL2     0.900000E-01   1.00800           0
     37856 MEMB     304      POPE     C314     CTL2    -0.180000       12.0110           0
     37857 MEMB     304      POPE     H14X     HAL2     0.900000E-01   1.00800           0
     37858 MEMB     304      POPE     H14Y     HAL2     0.900000E-01   1.00800           0
     37859 MEMB     304      POPE     C315     CTL2    -0.180000       12.0110           0
     37860 MEMB     304      POPE     H15X     HAL2     0.900000E-01   1.00800           0
     37861 MEMB     304      POPE     H15Y     HAL2     0.900000E-01   1.00800           0
     37862 MEMB     304      POPE     C316     CTL3    -0.270000       12.0110           0
     37863 MEMB     304      POPE     H16X     HAL3     0.900000E-01   1.00800           0
     37864 MEMB     304      POPE     H16Y     HAL3     0.900000E-01   1.00800           0
     37865 MEMB     304      POPE     H16Z     HAL3     0.900000E-01   1.00800           0
     37866 MEMB     305      PMPE     N        NH3L    -0.300000       14.0070           0
     37867 MEMB     305      PMPE     HN1      HCL      0.330000       1.00800           0
     37868 MEMB     305      PMPE     HN2      HCL      0.330000       1.00800           0
     37869 MEMB     305      PMPE     HN3      HCL      0.330000       1.00800           0
     37870 MEMB     305      PMPE     C12      CTL2     0.130000       12.0110           0
     37871 MEMB     305      PMPE     H12A     HAL2     0.900000E-01   1.00800           0
     37872 MEMB     305      PMPE     H12B     HAL2     0.900000E-01   1.00800           0
     37873 MEMB     305      PMPE     C11      CTL2    -0.800000E-01   12.0110           0
     37874 MEMB     305      PMPE     H11A     HAL2     0.900000E-01   1.00800           0
     37875 MEMB     305      PMPE     H11B     HAL2     0.900000E-01   1.00800           0
     37876 MEMB     305      PMPE     P        PL        1.50000       30.9740           0
     37877 MEMB     305      PMPE     O13      O2L     -0.780000       15.9994           0
     37878 MEMB     305      PMPE     O14      O2L     -0.780000       15.9994           0
     37879 MEMB     305      PMPE     O11      OSLP    -0.570000       15.9994           0
     37880 MEMB     305      PMPE     O12      OSLP    -0.570000       15.9994           0
     37881 MEMB     305      PMPE     C1       CTL2    -0.800000E-01   12.0110           0
     37882 MEMB     305      PMPE     HA       HAL2     0.900000E-01   1.00800           0
     37883 MEMB     305      PMPE     HB       HAL2     0.900000E-01   1.00800           0
     37884 MEMB     305      PMPE     C2       CTL1     0.170000       12.0110           0
     37885 MEMB     305      PMPE     HS       HAL1     0.900000E-01   1.00800           0
     37886 MEMB     305      PMPE     O21      OSL     -0.490000       15.9994           0
     37887 MEMB     305      PMPE     C21      CL       0.900000       12.0110           0
     37888 MEMB     305      PMPE     O22      OBL     -0.630000       15.9994           0
     37889 MEMB     305      PMPE     C22      CTL2    -0.220000       12.0110           0
     37890 MEMB     305      PMPE     H2R      HAL2     0.900000E-01   1.00800           0
     37891 MEMB     305      PMPE     H2S      HAL2     0.900000E-01   1.00800           0
     37892 MEMB     305      PMPE     C3       CTL2     0.800000E-01   12.0110           0
     37893 MEMB     305      PMPE     HX       HAL2     0.900000E-01   1.00800           0
     37894 MEMB     305      PMPE     HY       HAL2     0.900000E-01   1.00800           0
     37895 MEMB     305      PMPE     O31      OSL     -0.490000       15.9994           0
     37896 MEMB     305      PMPE     C31      CL       0.900000       12.0110           0
     37897 MEMB     305      PMPE     O32      OBL     -0.630000       15.9994           0
     37898 MEMB     305      PMPE     C32      CTL2    -0.220000       12.0110           0
     37899 MEMB     305      PMPE     H2X      HAL2     0.900000E-01   1.00800           0
     37900 MEMB     305      PMPE     H2Y      HAL2     0.900000E-01   1.00800           0
     37901 MEMB     305      PMPE     C23      CTL2    -0.180000       12.0110           0
     37902 MEMB     305      PMPE     H3R      HAL2     0.900000E-01   1.00800           0
     37903 MEMB     305      PMPE     H3S      HAL2     0.900000E-01   1.00800           0
     37904 MEMB     305      PMPE     C24      CTL2    -0.180000       12.0110           0
     37905 MEMB     305      PMPE     H4R      HAL2     0.900000E-01   1.00800           0
     37906 MEMB     305      PMPE     H4S      HAL2     0.900000E-01   1.00800           0
     37907 MEMB     305      PMPE     C25      CTL2    -0.180000       12.0110           0
     37908 MEMB     305      PMPE     H5R      HAL2     0.900000E-01   1.00800           0
     37909 MEMB     305      PMPE     H5S      HAL2     0.900000E-01   1.00800           0
     37910 MEMB     305      PMPE     C26      CTL2    -0.180000       12.0110           0
     37911 MEMB     305      PMPE     H6R      HAL2     0.900000E-01   1.00800           0
     37912 MEMB     305      PMPE     H6S      HAL2     0.900000E-01   1.00800           0
     37913 MEMB     305      PMPE     C27      CTL2    -0.180000       12.0110           0
     37914 MEMB     305      PMPE     H7R      HAL2     0.900000E-01   1.00800           0
     37915 MEMB     305      PMPE     H7S      HAL2     0.900000E-01   1.00800           0
     37916 MEMB     305      PMPE     C28      CTL2    -0.180000       12.0110           0
     37917 MEMB     305      PMPE     H8R      HAL2     0.900000E-01   1.00800           0
     37918 MEMB     305      PMPE     H8S      HAL2     0.900000E-01   1.00800           0
     37919 MEMB     305      PMPE     C29      CG3RC1  -0.900000E-01   12.0110           0
     37920 MEMB     305      PMPE     H9R      HGA1     0.900000E-01   1.00800           0
     37921 MEMB     305      PMPE     C217     CG3C31  -0.180000       12.0110           0
     37922 MEMB     305      PMPE     H17R     HGA2     0.900000E-01   1.00800           0
     37923 MEMB     305      PMPE     H17S     HGA2     0.900000E-01   1.00800           0
     37924 MEMB     305      PMPE     C210     CG3RC1  -0.900000E-01   12.0110           0
     37925 MEMB     305      PMPE     H10R     HGA1     0.900000E-01   1.00800           0
     37926 MEMB     305      PMPE     C211     CTL2    -0.180000       12.0110           0
     37927 MEMB     305      PMPE     H11R     HAL2     0.900000E-01   1.00800           0
     37928 MEMB     305      PMPE     H11S     HAL2     0.900000E-01   1.00800           0
     37929 MEMB     305      PMPE     C212     CTL2    -0.180000       12.0110           0
     37930 MEMB     305      PMPE     H12R     HAL2     0.900000E-01   1.00800           0
     37931 MEMB     305      PMPE     H12S     HAL2     0.900000E-01   1.00800           0
     37932 MEMB     305      PMPE     C213     CTL2    -0.180000       12.0110           0
     37933 MEMB     305      PMPE     H13R     HAL2     0.900000E-01   1.00800           0
     37934 MEMB     305      PMPE     H13S     HAL2     0.900000E-01   1.00800           0
     37935 MEMB     305      PMPE     C214     CTL2    -0.180000       12.0110           0
     37936 MEMB     305      PMPE     H14R     HAL2     0.900000E-01   1.00800           0
     37937 MEMB     305      PMPE     H14S     HAL2     0.900000E-01   1.00800           0
     37938 MEMB     305      PMPE     C215     CTL2    -0.180000       12.0110           0
     37939 MEMB     305      PMPE     H15R     HAL2     0.900000E-01   1.00800           0
     37940 MEMB     305      PMPE     H15S     HAL2     0.900000E-01   1.00800           0
     37941 MEMB     305      PMPE     C216     CTL3    -0.270000       12.0110           0
     37942 MEMB     305      PMPE     H16R     HAL3     0.900000E-01   1.00800           0
     37943 MEMB     305      PMPE     H16S     HAL3     0.900000E-01   1.00800           0
     37944 MEMB     305      PMPE     H16T     HAL3     0.900000E-01   1.00800           0
     37945 MEMB     305      PMPE     C33      CTL2    -0.180000       12.0110           0
     37946 MEMB     305      PMPE     H3X      HAL2     0.900000E-01   1.00800           0
     37947 MEMB     305      PMPE     H3Y      HAL2     0.900000E-01   1.00800           0
     37948 MEMB     305      PMPE     C34      CTL2    -0.180000       12.0110           0
     37949 MEMB     305      PMPE     H4X      HAL2     0.900000E-01   1.00800           0
     37950 MEMB     305      PMPE     H4Y      HAL2     0.900000E-01   1.00800           0
     37951 MEMB     305      PMPE     C35      CTL2    -0.180000       12.0110           0
     37952 MEMB     305      PMPE     H5X      HAL2     0.900000E-01   1.00800           0
     37953 MEMB     305      PMPE     H5Y      HAL2     0.900000E-01   1.00800           0
     37954 MEMB     305      PMPE     C36      CTL2    -0.180000       12.0110           0
     37955 MEMB     305      PMPE     H6X      HAL2     0.900000E-01   1.00800           0
     37956 MEMB     305      PMPE     H6Y      HAL2     0.900000E-01   1.00800           0
     37957 MEMB     305      PMPE     C37      CTL2    -0.180000       12.0110           0
     37958 MEMB     305      PMPE     H7X      HAL2     0.900000E-01   1.00800           0
     37959 MEMB     305      PMPE     H7Y      HAL2     0.900000E-01   1.00800           0
     37960 MEMB     305      PMPE     C38      CTL2    -0.180000       12.0110           0
     37961 MEMB     305      PMPE     H8X      HAL2     0.900000E-01   1.00800           0
     37962 MEMB     305      PMPE     H8Y      HAL2     0.900000E-01   1.00800           0
     37963 MEMB     305      PMPE     C39      CTL2    -0.180000       12.0110           0
     37964 MEMB     305      PMPE     H9X      HAL2     0.900000E-01   1.00800           0
     37965 MEMB     305      PMPE     H9Y      HAL2     0.900000E-01   1.00800           0
     37966 MEMB     305      PMPE     C310     CTL2    -0.180000       12.0110           0
     37967 MEMB     305      PMPE     H10X     HAL2     0.900000E-01   1.00800           0
     37968 MEMB     305      PMPE     H10Y     HAL2     0.900000E-01   1.00800           0
     37969 MEMB     305      PMPE     C311     CTL2    -0.180000       12.0110           0
     37970 MEMB     305      PMPE     H11X     HAL2     0.900000E-01   1.00800           0
     37971 MEMB     305      PMPE     H11Y     HAL2     0.900000E-01   1.00800           0
     37972 MEMB     305      PMPE     C312     CTL2    -0.180000       12.0110           0
     37973 MEMB     305      PMPE     H12X     HAL2     0.900000E-01   1.00800           0
     37974 MEMB     305      PMPE     H12Y     HAL2     0.900000E-01   1.00800           0
     37975 MEMB     305      PMPE     C313     CTL2    -0.180000       12.0110           0
     37976 MEMB     305      PMPE     H13X     HAL2     0.900000E-01   1.00800           0
     37977 MEMB     305      PMPE     H13Y     HAL2     0.900000E-01   1.00800           0
     37978 MEMB     305      PMPE     C314     CTL2    -0.180000       12.0110           0
     37979 MEMB     305      PMPE     H14X     HAL2     0.900000E-01   1.00800           0
     37980 MEMB     305      PMPE     H14Y     HAL2     0.900000E-01   1.00800           0
     37981 MEMB     305      PMPE     C315     CTL2    -0.180000       12.0110           0
     37982 MEMB     305      PMPE     H15X     HAL2     0.900000E-01   1.00800           0
     37983 MEMB     305      PMPE     H15Y     HAL2     0.900000E-01   1.00800           0
     37984 MEMB     305      PMPE     C316     CTL3    -0.270000       12.0110           0
     37985 MEMB     305      PMPE     H16X     HAL3     0.900000E-01   1.00800           0
     37986 MEMB     305      PMPE     H16Y     HAL3     0.900000E-01   1.00800           0
     37987 MEMB     305      PMPE     H16Z     HAL3     0.900000E-01   1.00800           0
     37988 MEMB     306      POPE     N        NH3L    -0.300000       14.0070           0
     37989 MEMB     306      POPE     HN1      HCL      0.330000       1.00800           0
     37990 MEMB     306      POPE     HN2      HCL      0.330000       1.00800           0
     37991 MEMB     306      POPE     HN3      HCL      0.330000       1.00800           0
     37992 MEMB     306      POPE     C12      CTL2     0.130000       12.0110           0
     37993 MEMB     306      POPE     H12A     HAL2     0.900000E-01   1.00800           0
     37994 MEMB     306      POPE     H12B     HAL2     0.900000E-01   1.00800           0
     37995 MEMB     306      POPE     C11      CTL2    -0.800000E-01   12.0110           0
     37996 MEMB     306      POPE     H11A     HAL2     0.900000E-01   1.00800           0
     37997 MEMB     306      POPE     H11B     HAL2     0.900000E-01   1.00800           0
     37998 MEMB     306      POPE     P        PL        1.50000       30.9740           0
     37999 MEMB     306      POPE     O13      O2L     -0.780000       15.9994           0
     38000 MEMB     306      POPE     O14      O2L     -0.780000       15.9994           0
     38001 MEMB     306      POPE     O11      OSLP    -0.570000       15.9994           0
     38002 MEMB     306      POPE     O12      OSLP    -0.570000       15.9994           0
     38003 MEMB     306      POPE     C1       CTL2    -0.800000E-01   12.0110           0
     38004 MEMB     306      POPE     HA       HAL2     0.900000E-01   1.00800           0
     38005 MEMB     306      POPE     HB       HAL2     0.900000E-01   1.00800           0
     38006 MEMB     306      POPE     C2       CTL1     0.170000       12.0110           0
     38007 MEMB     306      POPE     HS       HAL1     0.900000E-01   1.00800           0
     38008 MEMB     306      POPE     O21      OSL     -0.490000       15.9994           0
     38009 MEMB     306      POPE     C21      CL       0.900000       12.0110           0
     38010 MEMB     306      POPE     O22      OBL     -0.630000       15.9994           0
     38011 MEMB     306      POPE     C22      CTL2    -0.220000       12.0110           0
     38012 MEMB     306      POPE     H2R      HAL2     0.900000E-01   1.00800           0
     38013 MEMB     306      POPE     H2S      HAL2     0.900000E-01   1.00800           0
     38014 MEMB     306      POPE     C3       CTL2     0.800000E-01   12.0110           0
     38015 MEMB     306      POPE     HX       HAL2     0.900000E-01   1.00800           0
     38016 MEMB     306      POPE     HY       HAL2     0.900000E-01   1.00800           0
     38017 MEMB     306      POPE     O31      OSL     -0.490000       15.9994           0
     38018 MEMB     306      POPE     C31      CL       0.900000       12.0110           0
     38019 MEMB     306      POPE     O32      OBL     -0.630000       15.9994           0
     38020 MEMB     306      POPE     C32      CTL2    -0.220000       12.0110           0
     38021 MEMB     306      POPE     H2X      HAL2     0.900000E-01   1.00800           0
     38022 MEMB     306      POPE     H2Y      HAL2     0.900000E-01   1.00800           0
     38023 MEMB     306      POPE     C23      CTL2    -0.180000       12.0110           0
     38024 MEMB     306      POPE     H3R      HAL2     0.900000E-01   1.00800           0
     38025 MEMB     306      POPE     H3S      HAL2     0.900000E-01   1.00800           0
     38026 MEMB     306      POPE     C24      CTL2    -0.180000       12.0110           0
     38027 MEMB     306      POPE     H4R      HAL2     0.900000E-01   1.00800           0
     38028 MEMB     306      POPE     H4S      HAL2     0.900000E-01   1.00800           0
     38029 MEMB     306      POPE     C25      CTL2    -0.180000       12.0110           0
     38030 MEMB     306      POPE     H5R      HAL2     0.900000E-01   1.00800           0
     38031 MEMB     306      POPE     H5S      HAL2     0.900000E-01   1.00800           0
     38032 MEMB     306      POPE     C26      CTL2    -0.180000       12.0110           0
     38033 MEMB     306      POPE     H6R      HAL2     0.900000E-01   1.00800           0
     38034 MEMB     306      POPE     H6S      HAL2     0.900000E-01   1.00800           0
     38035 MEMB     306      POPE     C27      CTL2    -0.180000       12.0110           0
     38036 MEMB     306      POPE     H7R      HAL2     0.900000E-01   1.00800           0
     38037 MEMB     306      POPE     H7S      HAL2     0.900000E-01   1.00800           0
     38038 MEMB     306      POPE     C28      CTL2    -0.180000       12.0110           0
     38039 MEMB     306      POPE     H8R      HAL2     0.900000E-01   1.00800           0
     38040 MEMB     306      POPE     H8S      HAL2     0.900000E-01   1.00800           0
     38041 MEMB     306      POPE     C29      CEL1    -0.150000       12.0110           0
     38042 MEMB     306      POPE     H91      HEL1     0.150000       1.00800           0
     38043 MEMB     306      POPE     C210     CEL1    -0.150000       12.0110           0
     38044 MEMB     306      POPE     H101     HEL1     0.150000       1.00800           0
     38045 MEMB     306      POPE     C211     CTL2    -0.180000       12.0110           0
     38046 MEMB     306      POPE     H11R     HAL2     0.900000E-01   1.00800           0
     38047 MEMB     306      POPE     H11S     HAL2     0.900000E-01   1.00800           0
     38048 MEMB     306      POPE     C212     CTL2    -0.180000       12.0110           0
     38049 MEMB     306      POPE     H12R     HAL2     0.900000E-01   1.00800           0
     38050 MEMB     306      POPE     H12S     HAL2     0.900000E-01   1.00800           0
     38051 MEMB     306      POPE     C213     CTL2    -0.180000       12.0110           0
     38052 MEMB     306      POPE     H13R     HAL2     0.900000E-01   1.00800           0
     38053 MEMB     306      POPE     H13S     HAL2     0.900000E-01   1.00800           0
     38054 MEMB     306      POPE     C214     CTL2    -0.180000       12.0110           0
     38055 MEMB     306      POPE     H14R     HAL2     0.900000E-01   1.00800           0
     38056 MEMB     306      POPE     H14S     HAL2     0.900000E-01   1.00800           0
     38057 MEMB     306      POPE     C215     CTL2    -0.180000       12.0110           0
     38058 MEMB     306      POPE     H15R     HAL2     0.900000E-01   1.00800           0
     38059 MEMB     306      POPE     H15S     HAL2     0.900000E-01   1.00800           0
     38060 MEMB     306      POPE     C216     CTL2    -0.180000       12.0110           0
     38061 MEMB     306      POPE     H16R     HAL2     0.900000E-01   1.00800           0
     38062 MEMB     306      POPE     H16S     HAL2     0.900000E-01   1.00800           0
     38063 MEMB     306      POPE     C217     CTL2    -0.180000       12.0110           0
     38064 MEMB     306      POPE     H17R     HAL2     0.900000E-01   1.00800           0
     38065 MEMB     306      POPE     H17S     HAL2     0.900000E-01   1.00800           0
     38066 MEMB     306      POPE     C218     CTL3    -0.270000       12.0110           0
     38067 MEMB     306      POPE     H18R     HAL3     0.900000E-01   1.00800           0
     38068 MEMB     306      POPE     H18S     HAL3     0.900000E-01   1.00800           0
     38069 MEMB     306      POPE     H18T     HAL3     0.900000E-01   1.00800           0
     38070 MEMB     306      POPE     C33      CTL2    -0.180000       12.0110           0
     38071 MEMB     306      POPE     H3X      HAL2     0.900000E-01   1.00800           0
     38072 MEMB     306      POPE     H3Y      HAL2     0.900000E-01   1.00800           0
     38073 MEMB     306      POPE     C34      CTL2    -0.180000       12.0110           0
     38074 MEMB     306      POPE     H4X      HAL2     0.900000E-01   1.00800           0
     38075 MEMB     306      POPE     H4Y      HAL2     0.900000E-01   1.00800           0
     38076 MEMB     306      POPE     C35      CTL2    -0.180000       12.0110           0
     38077 MEMB     306      POPE     H5X      HAL2     0.900000E-01   1.00800           0
     38078 MEMB     306      POPE     H5Y      HAL2     0.900000E-01   1.00800           0
     38079 MEMB     306      POPE     C36      CTL2    -0.180000       12.0110           0
     38080 MEMB     306      POPE     H6X      HAL2     0.900000E-01   1.00800           0
     38081 MEMB     306      POPE     H6Y      HAL2     0.900000E-01   1.00800           0
     38082 MEMB     306      POPE     C37      CTL2    -0.180000       12.0110           0
     38083 MEMB     306      POPE     H7X      HAL2     0.900000E-01   1.00800           0
     38084 MEMB     306      POPE     H7Y      HAL2     0.900000E-01   1.00800           0
     38085 MEMB     306      POPE     C38      CTL2    -0.180000       12.0110           0
     38086 MEMB     306      POPE     H8X      HAL2     0.900000E-01   1.00800           0
     38087 MEMB     306      POPE     H8Y      HAL2     0.900000E-01   1.00800           0
     38088 MEMB     306      POPE     C39      CTL2    -0.180000       12.0110           0
     38089 MEMB     306      POPE     H9X      HAL2     0.900000E-01   1.00800           0
     38090 MEMB     306      POPE     H9Y      HAL2     0.900000E-01   1.00800           0
     38091 MEMB     306      POPE     C310     CTL2    -0.180000       12.0110           0
     38092 MEMB     306      POPE     H10X     HAL2     0.900000E-01   1.00800           0
     38093 MEMB     306      POPE     H10Y     HAL2     0.900000E-01   1.00800           0
     38094 MEMB     306      POPE     C311     CTL2    -0.180000       12.0110           0
     38095 MEMB     306      POPE     H11X     HAL2     0.900000E-01   1.00800           0
     38096 MEMB     306      POPE     H11Y     HAL2     0.900000E-01   1.00800           0
     38097 MEMB     306      POPE     C312     CTL2    -0.180000       12.0110           0
     38098 MEMB     306      POPE     H12X     HAL2     0.900000E-01   1.00800           0
     38099 MEMB     306      POPE     H12Y     HAL2     0.900000E-01   1.00800           0
     38100 MEMB     306      POPE     C313     CTL2    -0.180000       12.0110           0
     38101 MEMB     306      POPE     H13X     HAL2     0.900000E-01   1.00800           0
     38102 MEMB     306      POPE     H13Y     HAL2     0.900000E-01   1.00800           0
     38103 MEMB     306      POPE     C314     CTL2    -0.180000       12.0110           0
     38104 MEMB     306      POPE     H14X     HAL2     0.900000E-01   1.00800           0
     38105 MEMB     306      POPE     H14Y     HAL2     0.900000E-01   1.00800           0
     38106 MEMB     306      POPE     C315     CTL2    -0.180000       12.0110           0
     38107 MEMB     306      POPE     H15X     HAL2     0.900000E-01   1.00800           0
     38108 MEMB     306      POPE     H15Y     HAL2     0.900000E-01   1.00800           0
     38109 MEMB     306      POPE     C316     CTL3    -0.270000       12.0110           0
     38110 MEMB     306      POPE     H16X     HAL3     0.900000E-01   1.00800           0
     38111 MEMB     306      POPE     H16Y     HAL3     0.900000E-01   1.00800           0
     38112 MEMB     306      POPE     H16Z     HAL3     0.900000E-01   1.00800           0
     38113 MEMB     307      OYPE     N        NH3L    -0.300000       14.0070           0
     38114 MEMB     307      OYPE     HN1      HCL      0.330000       1.00800           0
     38115 MEMB     307      OYPE     HN2      HCL      0.330000       1.00800           0
     38116 MEMB     307      OYPE     HN3      HCL      0.330000       1.00800           0
     38117 MEMB     307      OYPE     C12      CTL2     0.130000       12.0110           0
     38118 MEMB     307      OYPE     H12A     HAL2     0.900000E-01   1.00800           0
     38119 MEMB     307      OYPE     H12B     HAL2     0.900000E-01   1.00800           0
     38120 MEMB     307      OYPE     C11      CTL2    -0.800000E-01   12.0110           0
     38121 MEMB     307      OYPE     H11A     HAL2     0.900000E-01   1.00800           0
     38122 MEMB     307      OYPE     H11B     HAL2     0.900000E-01   1.00800           0
     38123 MEMB     307      OYPE     P        PL        1.50000       30.9740           0
     38124 MEMB     307      OYPE     O13      O2L     -0.780000       15.9994           0
     38125 MEMB     307      OYPE     O14      O2L     -0.780000       15.9994           0
     38126 MEMB     307      OYPE     O11      OSLP    -0.570000       15.9994           0
     38127 MEMB     307      OYPE     O12      OSLP    -0.570000       15.9994           0
     38128 MEMB     307      OYPE     C1       CTL2    -0.800000E-01   12.0110           0
     38129 MEMB     307      OYPE     HA       HAL2     0.900000E-01   1.00800           0
     38130 MEMB     307      OYPE     HB       HAL2     0.900000E-01   1.00800           0
     38131 MEMB     307      OYPE     C2       CTL1     0.170000       12.0110           0
     38132 MEMB     307      OYPE     HS       HAL1     0.900000E-01   1.00800           0
     38133 MEMB     307      OYPE     O21      OSL     -0.490000       15.9994           0
     38134 MEMB     307      OYPE     C21      CL       0.900000       12.0110           0
     38135 MEMB     307      OYPE     O22      OBL     -0.630000       15.9994           0
     38136 MEMB     307      OYPE     C22      CTL2    -0.220000       12.0110           0
     38137 MEMB     307      OYPE     H2R      HAL2     0.900000E-01   1.00800           0
     38138 MEMB     307      OYPE     H2S      HAL2     0.900000E-01   1.00800           0
     38139 MEMB     307      OYPE     C3       CTL2     0.800000E-01   12.0110           0
     38140 MEMB     307      OYPE     HX       HAL2     0.900000E-01   1.00800           0
     38141 MEMB     307      OYPE     HY       HAL2     0.900000E-01   1.00800           0
     38142 MEMB     307      OYPE     O31      OSL     -0.490000       15.9994           0
     38143 MEMB     307      OYPE     C31      CL       0.900000       12.0110           0
     38144 MEMB     307      OYPE     O32      OBL     -0.630000       15.9994           0
     38145 MEMB     307      OYPE     C32      CTL2    -0.220000       12.0110           0
     38146 MEMB     307      OYPE     H2X      HAL2     0.900000E-01   1.00800           0
     38147 MEMB     307      OYPE     H2Y      HAL2     0.900000E-01   1.00800           0
     38148 MEMB     307      OYPE     C23      CTL2    -0.180000       12.0110           0
     38149 MEMB     307      OYPE     H3R      HAL2     0.900000E-01   1.00800           0
     38150 MEMB     307      OYPE     H3S      HAL2     0.900000E-01   1.00800           0
     38151 MEMB     307      OYPE     C24      CTL2    -0.180000       12.0110           0
     38152 MEMB     307      OYPE     H4R      HAL2     0.900000E-01   1.00800           0
     38153 MEMB     307      OYPE     H4S      HAL2     0.900000E-01   1.00800           0
     38154 MEMB     307      OYPE     C25      CTL2    -0.180000       12.0110           0
     38155 MEMB     307      OYPE     H5R      HAL2     0.900000E-01   1.00800           0
     38156 MEMB     307      OYPE     H5S      HAL2     0.900000E-01   1.00800           0
     38157 MEMB     307      OYPE     C26      CTL2    -0.180000       12.0110           0
     38158 MEMB     307      OYPE     H6R      HAL2     0.900000E-01   1.00800           0
     38159 MEMB     307      OYPE     H6S      HAL2     0.900000E-01   1.00800           0
     38160 MEMB     307      OYPE     C27      CTL2    -0.180000       12.0110           0
     38161 MEMB     307      OYPE     H7R      HAL2     0.900000E-01   1.00800           0
     38162 MEMB     307      OYPE     H7S      HAL2     0.900000E-01   1.00800           0
     38163 MEMB     307      OYPE     C28      CTL2    -0.180000       12.0110           0
     38164 MEMB     307      OYPE     H8R      HAL2     0.900000E-01   1.00800           0
     38165 MEMB     307      OYPE     H8S      HAL2     0.900000E-01   1.00800           0
     38166 MEMB     307      OYPE     C29      CEL1    -0.150000       12.0110           0
     38167 MEMB     307      OYPE     H9R      HEL1     0.150000       1.00800           0
     38168 MEMB     307      OYPE     C210     CEL1    -0.150000       12.0110           0
     38169 MEMB     307      OYPE     H10R     HEL1     0.150000       1.00800           0
     38170 MEMB     307      OYPE     C211     CTL2    -0.180000       12.0110           0
     38171 MEMB     307      OYPE     H11R     HAL2     0.900000E-01   1.00800           0
     38172 MEMB     307      OYPE     H11S     HAL2     0.900000E-01   1.00800           0
     38173 MEMB     307      OYPE     C212     CTL2    -0.180000       12.0110           0
     38174 MEMB     307      OYPE     H12R     HAL2     0.900000E-01   1.00800           0
     38175 MEMB     307      OYPE     H12S     HAL2     0.900000E-01   1.00800           0
     38176 MEMB     307      OYPE     C213     CTL2    -0.180000       12.0110           0
     38177 MEMB     307      OYPE     H13R     HAL2     0.900000E-01   1.00800           0
     38178 MEMB     307      OYPE     H13S     HAL2     0.900000E-01   1.00800           0
     38179 MEMB     307      OYPE     C214     CTL2    -0.180000       12.0110           0
     38180 MEMB     307      OYPE     H14R     HAL2     0.900000E-01   1.00800           0
     38181 MEMB     307      OYPE     H14S     HAL2     0.900000E-01   1.00800           0
     38182 MEMB     307      OYPE     C215     CTL2    -0.180000       12.0110           0
     38183 MEMB     307      OYPE     H15R     HAL2     0.900000E-01   1.00800           0
     38184 MEMB     307      OYPE     H15S     HAL2     0.900000E-01   1.00800           0
     38185 MEMB     307      OYPE     C216     CTL3    -0.270000       12.0110           0
     38186 MEMB     307      OYPE     H16R     HAL3     0.900000E-01   1.00800           0
     38187 MEMB     307      OYPE     H16S     HAL3     0.900000E-01   1.00800           0
     38188 MEMB     307      OYPE     H16T     HAL3     0.900000E-01   1.00800           0
     38189 MEMB     307      OYPE     C33      CTL2    -0.180000       12.0110           0
     38190 MEMB     307      OYPE     H3X      HAL2     0.900000E-01   1.00800           0
     38191 MEMB     307      OYPE     H3Y      HAL2     0.900000E-01   1.00800           0
     38192 MEMB     307      OYPE     C34      CTL2    -0.180000       12.0110           0
     38193 MEMB     307      OYPE     H4X      HAL2     0.900000E-01   1.00800           0
     38194 MEMB     307      OYPE     H4Y      HAL2     0.900000E-01   1.00800           0
     38195 MEMB     307      OYPE     C35      CTL2    -0.180000       12.0110           0
     38196 MEMB     307      OYPE     H5X      HAL2     0.900000E-01   1.00800           0
     38197 MEMB     307      OYPE     H5Y      HAL2     0.900000E-01   1.00800           0
     38198 MEMB     307      OYPE     C36      CTL2    -0.180000       12.0110           0
     38199 MEMB     307      OYPE     H6X      HAL2     0.900000E-01   1.00800           0
     38200 MEMB     307      OYPE     H6Y      HAL2     0.900000E-01   1.00800           0
     38201 MEMB     307      OYPE     C37      CTL2    -0.180000       12.0110           0
     38202 MEMB     307      OYPE     H7X      HAL2     0.900000E-01   1.00800           0
     38203 MEMB     307      OYPE     H7Y      HAL2     0.900000E-01   1.00800           0
     38204 MEMB     307      OYPE     C38      CTL2    -0.180000       12.0110           0
     38205 MEMB     307      OYPE     H8X      HAL2     0.900000E-01   1.00800           0
     38206 MEMB     307      OYPE     H8Y      HAL2     0.900000E-01   1.00800           0
     38207 MEMB     307      OYPE     C39      CEL1    -0.150000       12.0110           0
     38208 MEMB     307      OYPE     H9X      HEL1     0.150000       1.00800           0
     38209 MEMB     307      OYPE     C310     CEL1    -0.150000       12.0110           0
     38210 MEMB     307      OYPE     H10X     HEL1     0.150000       1.00800           0
     38211 MEMB     307      OYPE     C311     CTL2    -0.180000       12.0110           0
     38212 MEMB     307      OYPE     H11X     HAL2     0.900000E-01   1.00800           0
     38213 MEMB     307      OYPE     H11Y     HAL2     0.900000E-01   1.00800           0
     38214 MEMB     307      OYPE     C312     CTL2    -0.180000       12.0110           0
     38215 MEMB     307      OYPE     H12X     HAL2     0.900000E-01   1.00800           0
     38216 MEMB     307      OYPE     H12Y     HAL2     0.900000E-01   1.00800           0
     38217 MEMB     307      OYPE     C313     CTL2    -0.180000       12.0110           0
     38218 MEMB     307      OYPE     H13X     HAL2     0.900000E-01   1.00800           0
     38219 MEMB     307      OYPE     H13Y     HAL2     0.900000E-01   1.00800           0
     38220 MEMB     307      OYPE     C314     CTL2    -0.180000       12.0110           0
     38221 MEMB     307      OYPE     H14X     HAL2     0.900000E-01   1.00800           0
     38222 MEMB     307      OYPE     H14Y     HAL2     0.900000E-01   1.00800           0
     38223 MEMB     307      OYPE     C315     CTL2    -0.180000       12.0110           0
     38224 MEMB     307      OYPE     H15X     HAL2     0.900000E-01   1.00800           0
     38225 MEMB     307      OYPE     H15Y     HAL2     0.900000E-01   1.00800           0
     38226 MEMB     307      OYPE     C316     CTL2    -0.180000       12.0110           0
     38227 MEMB     307      OYPE     H16X     HAL2     0.900000E-01   1.00800           0
     38228 MEMB     307      OYPE     H16Y     HAL2     0.900000E-01   1.00800           0
     38229 MEMB     307      OYPE     C317     CTL2    -0.180000       12.0110           0
     38230 MEMB     307      OYPE     H17X     HAL2     0.900000E-01   1.00800           0
     38231 MEMB     307      OYPE     H17Y     HAL2     0.900000E-01   1.00800           0
     38232 MEMB     307      OYPE     C318     CTL3    -0.270000       12.0110           0
     38233 MEMB     307      OYPE     H18X     HAL3     0.900000E-01   1.00800           0
     38234 MEMB     307      OYPE     H18Y     HAL3     0.900000E-01   1.00800           0
     38235 MEMB     307      OYPE     H18Z     HAL3     0.900000E-01   1.00800           0
     38236 MEMB     308      QMPE     N        NH3L    -0.300000       14.0070           0
     38237 MEMB     308      QMPE     HN1      HCL      0.330000       1.00800           0
     38238 MEMB     308      QMPE     HN2      HCL      0.330000       1.00800           0
     38239 MEMB     308      QMPE     HN3      HCL      0.330000       1.00800           0
     38240 MEMB     308      QMPE     C12      CTL2     0.130000       12.0110           0
     38241 MEMB     308      QMPE     H12A     HAL2     0.900000E-01   1.00800           0
     38242 MEMB     308      QMPE     H12B     HAL2     0.900000E-01   1.00800           0
     38243 MEMB     308      QMPE     C11      CTL2    -0.800000E-01   12.0110           0
     38244 MEMB     308      QMPE     H11A     HAL2     0.900000E-01   1.00800           0
     38245 MEMB     308      QMPE     H11B     HAL2     0.900000E-01   1.00800           0
     38246 MEMB     308      QMPE     P        PL        1.50000       30.9740           0
     38247 MEMB     308      QMPE     O13      O2L     -0.780000       15.9994           0
     38248 MEMB     308      QMPE     O14      O2L     -0.780000       15.9994           0
     38249 MEMB     308      QMPE     O11      OSLP    -0.570000       15.9994           0
     38250 MEMB     308      QMPE     O12      OSLP    -0.570000       15.9994           0
     38251 MEMB     308      QMPE     C1       CTL2    -0.800000E-01   12.0110           0
     38252 MEMB     308      QMPE     HA       HAL2     0.900000E-01   1.00800           0
     38253 MEMB     308      QMPE     HB       HAL2     0.900000E-01   1.00800           0
     38254 MEMB     308      QMPE     C2       CTL1     0.170000       12.0110           0
     38255 MEMB     308      QMPE     HS       HAL1     0.900000E-01   1.00800           0
     38256 MEMB     308      QMPE     O21      OSL     -0.490000       15.9994           0
     38257 MEMB     308      QMPE     C21      CL       0.900000       12.0110           0
     38258 MEMB     308      QMPE     O22      OBL     -0.630000       15.9994           0
     38259 MEMB     308      QMPE     C22      CTL2    -0.220000       12.0110           0
     38260 MEMB     308      QMPE     H2R      HAL2     0.900000E-01   1.00800           0
     38261 MEMB     308      QMPE     H2S      HAL2     0.900000E-01   1.00800           0
     38262 MEMB     308      QMPE     C3       CTL2     0.800000E-01   12.0110           0
     38263 MEMB     308      QMPE     HX       HAL2     0.900000E-01   1.00800           0
     38264 MEMB     308      QMPE     HY       HAL2     0.900000E-01   1.00800           0
     38265 MEMB     308      QMPE     O31      OSL     -0.490000       15.9994           0
     38266 MEMB     308      QMPE     C31      CL       0.900000       12.0110           0
     38267 MEMB     308      QMPE     O32      OBL     -0.630000       15.9994           0
     38268 MEMB     308      QMPE     C32      CTL2    -0.220000       12.0110           0
     38269 MEMB     308      QMPE     H2X      HAL2     0.900000E-01   1.00800           0
     38270 MEMB     308      QMPE     H2Y      HAL2     0.900000E-01   1.00800           0
     38271 MEMB     308      QMPE     C23      CTL2    -0.180000       12.0110           0
     38272 MEMB     308      QMPE     H3R      HAL2     0.900000E-01   1.00800           0
     38273 MEMB     308      QMPE     H3S      HAL2     0.900000E-01   1.00800           0
     38274 MEMB     308      QMPE     C24      CTL2    -0.180000       12.0110           0
     38275 MEMB     308      QMPE     H4R      HAL2     0.900000E-01   1.00800           0
     38276 MEMB     308      QMPE     H4S      HAL2     0.900000E-01   1.00800           0
     38277 MEMB     308      QMPE     C25      CTL2    -0.180000       12.0110           0
     38278 MEMB     308      QMPE     H5R      HAL2     0.900000E-01   1.00800           0
     38279 MEMB     308      QMPE     H5S      HAL2     0.900000E-01   1.00800           0
     38280 MEMB     308      QMPE     C26      CTL2    -0.180000       12.0110           0
     38281 MEMB     308      QMPE     H6R      HAL2     0.900000E-01   1.00800           0
     38282 MEMB     308      QMPE     H6S      HAL2     0.900000E-01   1.00800           0
     38283 MEMB     308      QMPE     C27      CTL2    -0.180000       12.0110           0
     38284 MEMB     308      QMPE     H7R      HAL2     0.900000E-01   1.00800           0
     38285 MEMB     308      QMPE     H7S      HAL2     0.900000E-01   1.00800           0
     38286 MEMB     308      QMPE     C28      CTL2    -0.180000       12.0110           0
     38287 MEMB     308      QMPE     H8R      HAL2     0.900000E-01   1.00800           0
     38288 MEMB     308      QMPE     H8S      HAL2     0.900000E-01   1.00800           0
     38289 MEMB     308      QMPE     C29      CG3RC1  -0.900000E-01   12.0110           0
     38290 MEMB     308      QMPE     H9R      HGA1     0.900000E-01   1.00800           0
     38291 MEMB     308      QMPE     C217     CG3C31  -0.180000       12.0110           0
     38292 MEMB     308      QMPE     H17R     HGA2     0.900000E-01   1.00800           0
     38293 MEMB     308      QMPE     H17S     HGA2     0.900000E-01   1.00800           0
     38294 MEMB     308      QMPE     C210     CG3RC1  -0.900000E-01   12.0110           0
     38295 MEMB     308      QMPE     H10R     HGA1     0.900000E-01   1.00800           0
     38296 MEMB     308      QMPE     C211     CTL2    -0.180000       12.0110           0
     38297 MEMB     308      QMPE     H11R     HAL2     0.900000E-01   1.00800           0
     38298 MEMB     308      QMPE     H11S     HAL2     0.900000E-01   1.00800           0
     38299 MEMB     308      QMPE     C212     CTL2    -0.180000       12.0110           0
     38300 MEMB     308      QMPE     H12R     HAL2     0.900000E-01   1.00800           0
     38301 MEMB     308      QMPE     H12S     HAL2     0.900000E-01   1.00800           0
     38302 MEMB     308      QMPE     C213     CTL2    -0.180000       12.0110           0
     38303 MEMB     308      QMPE     H13R     HAL2     0.900000E-01   1.00800           0
     38304 MEMB     308      QMPE     H13S     HAL2     0.900000E-01   1.00800           0
     38305 MEMB     308      QMPE     C214     CTL2    -0.180000       12.0110           0
     38306 MEMB     308      QMPE     H14R     HAL2     0.900000E-01   1.00800           0
     38307 MEMB     308      QMPE     H14S     HAL2     0.900000E-01   1.00800           0
     38308 MEMB     308      QMPE     C215     CTL2    -0.180000       12.0110           0
     38309 MEMB     308      QMPE     H15R     HAL2     0.900000E-01   1.00800           0
     38310 MEMB     308      QMPE     H15S     HAL2     0.900000E-01   1.00800           0
     38311 MEMB     308      QMPE     C216     CTL3    -0.270000       12.0110           0
     38312 MEMB     308      QMPE     H16R     HAL3     0.900000E-01   1.00800           0
     38313 MEMB     308      QMPE     H16S     HAL3     0.900000E-01   1.00800           0
     38314 MEMB     308      QMPE     H16T     HAL3     0.900000E-01   1.00800           0
     38315 MEMB     308      QMPE     C33      CTL2    -0.180000       12.0110           0
     38316 MEMB     308      QMPE     H3X      HAL2     0.900000E-01   1.00800           0
     38317 MEMB     308      QMPE     H3Y      HAL2     0.900000E-01   1.00800           0
     38318 MEMB     308      QMPE     C34      CTL2    -0.180000       12.0110           0
     38319 MEMB     308      QMPE     H4X      HAL2     0.900000E-01   1.00800           0
     38320 MEMB     308      QMPE     H4Y      HAL2     0.900000E-01   1.00800           0
     38321 MEMB     308      QMPE     C35      CTL2    -0.180000       12.0110           0
     38322 MEMB     308      QMPE     H5X      HAL2     0.900000E-01   1.00800           0
     38323 MEMB     308      QMPE     H5Y      HAL2     0.900000E-01   1.00800           0
     38324 MEMB     308      QMPE     C36      CTL2    -0.180000       12.0110           0
     38325 MEMB     308      QMPE     H6X      HAL2     0.900000E-01   1.00800           0
     38326 MEMB     308      QMPE     H6Y      HAL2     0.900000E-01   1.00800           0
     38327 MEMB     308      QMPE     C37      CTL2    -0.180000       12.0110           0
     38328 MEMB     308      QMPE     H7X      HAL2     0.900000E-01   1.00800           0
     38329 MEMB     308      QMPE     H7Y      HAL2     0.900000E-01   1.00800           0
     38330 MEMB     308      QMPE     C38      CTL2    -0.180000       12.0110           0
     38331 MEMB     308      QMPE     H8X      HAL2     0.900000E-01   1.00800           0
     38332 MEMB     308      QMPE     H8Y      HAL2     0.900000E-01   1.00800           0
     38333 MEMB     308      QMPE     C39      CTL2    -0.180000       12.0110           0
     38334 MEMB     308      QMPE     H9X      HAL2     0.900000E-01   1.00800           0
     38335 MEMB     308      QMPE     H9Y      HAL2     0.900000E-01   1.00800           0
     38336 MEMB     308      QMPE     C310     CTL2    -0.180000       12.0110           0
     38337 MEMB     308      QMPE     H10X     HAL2     0.900000E-01   1.00800           0
     38338 MEMB     308      QMPE     H10Y     HAL2     0.900000E-01   1.00800           0
     38339 MEMB     308      QMPE     C311     CTL2    -0.180000       12.0110           0
     38340 MEMB     308      QMPE     H11X     HAL2     0.900000E-01   1.00800           0
     38341 MEMB     308      QMPE     H11Y     HAL2     0.900000E-01   1.00800           0
     38342 MEMB     308      QMPE     C312     CTL2    -0.180000       12.0110           0
     38343 MEMB     308      QMPE     H12X     HAL2     0.900000E-01   1.00800           0
     38344 MEMB     308      QMPE     H12Y     HAL2     0.900000E-01   1.00800           0
     38345 MEMB     308      QMPE     C313     CTL2    -0.180000       12.0110           0
     38346 MEMB     308      QMPE     H13X     HAL2     0.900000E-01   1.00800           0
     38347 MEMB     308      QMPE     H13Y     HAL2     0.900000E-01   1.00800           0
     38348 MEMB     308      QMPE     C314     CTL2    -0.180000       12.0110           0
     38349 MEMB     308      QMPE     H14X     HAL2     0.900000E-01   1.00800           0
     38350 MEMB     308      QMPE     H14Y     HAL2     0.900000E-01   1.00800           0
     38351 MEMB     308      QMPE     C315     CTL3    -0.270000       12.0110           0
     38352 MEMB     308      QMPE     H15X     HAL3     0.900000E-01   1.00800           0
     38353 MEMB     308      QMPE     H15Y     HAL3     0.900000E-01   1.00800           0
     38354 MEMB     308      QMPE     H15Z     HAL3     0.900000E-01   1.00800           0
     38355 MEMB     309      PMPE     N        NH3L    -0.300000       14.0070           0
     38356 MEMB     309      PMPE     HN1      HCL      0.330000       1.00800           0
     38357 MEMB     309      PMPE     HN2      HCL      0.330000       1.00800           0
     38358 MEMB     309      PMPE     HN3      HCL      0.330000       1.00800           0
     38359 MEMB     309      PMPE     C12      CTL2     0.130000       12.0110           0
     38360 MEMB     309      PMPE     H12A     HAL2     0.900000E-01   1.00800           0
     38361 MEMB     309      PMPE     H12B     HAL2     0.900000E-01   1.00800           0
     38362 MEMB     309      PMPE     C11      CTL2    -0.800000E-01   12.0110           0
     38363 MEMB     309      PMPE     H11A     HAL2     0.900000E-01   1.00800           0
     38364 MEMB     309      PMPE     H11B     HAL2     0.900000E-01   1.00800           0
     38365 MEMB     309      PMPE     P        PL        1.50000       30.9740           0
     38366 MEMB     309      PMPE     O13      O2L     -0.780000       15.9994           0
     38367 MEMB     309      PMPE     O14      O2L     -0.780000       15.9994           0
     38368 MEMB     309      PMPE     O11      OSLP    -0.570000       15.9994           0
     38369 MEMB     309      PMPE     O12      OSLP    -0.570000       15.9994           0
     38370 MEMB     309      PMPE     C1       CTL2    -0.800000E-01   12.0110           0
     38371 MEMB     309      PMPE     HA       HAL2     0.900000E-01   1.00800           0
     38372 MEMB     309      PMPE     HB       HAL2     0.900000E-01   1.00800           0
     38373 MEMB     309      PMPE     C2       CTL1     0.170000       12.0110           0
     38374 MEMB     309      PMPE     HS       HAL1     0.900000E-01   1.00800           0
     38375 MEMB     309      PMPE     O21      OSL     -0.490000       15.9994           0
     38376 MEMB     309      PMPE     C21      CL       0.900000       12.0110           0
     38377 MEMB     309      PMPE     O22      OBL     -0.630000       15.9994           0
     38378 MEMB     309      PMPE     C22      CTL2    -0.220000       12.0110           0
     38379 MEMB     309      PMPE     H2R      HAL2     0.900000E-01   1.00800           0
     38380 MEMB     309      PMPE     H2S      HAL2     0.900000E-01   1.00800           0
     38381 MEMB     309      PMPE     C3       CTL2     0.800000E-01   12.0110           0
     38382 MEMB     309      PMPE     HX       HAL2     0.900000E-01   1.00800           0
     38383 MEMB     309      PMPE     HY       HAL2     0.900000E-01   1.00800           0
     38384 MEMB     309      PMPE     O31      OSL     -0.490000       15.9994           0
     38385 MEMB     309      PMPE     C31      CL       0.900000       12.0110           0
     38386 MEMB     309      PMPE     O32      OBL     -0.630000       15.9994           0
     38387 MEMB     309      PMPE     C32      CTL2    -0.220000       12.0110           0
     38388 MEMB     309      PMPE     H2X      HAL2     0.900000E-01   1.00800           0
     38389 MEMB     309      PMPE     H2Y      HAL2     0.900000E-01   1.00800           0
     38390 MEMB     309      PMPE     C23      CTL2    -0.180000       12.0110           0
     38391 MEMB     309      PMPE     H3R      HAL2     0.900000E-01   1.00800           0
     38392 MEMB     309      PMPE     H3S      HAL2     0.900000E-01   1.00800           0
     38393 MEMB     309      PMPE     C24      CTL2    -0.180000       12.0110           0
     38394 MEMB     309      PMPE     H4R      HAL2     0.900000E-01   1.00800           0
     38395 MEMB     309      PMPE     H4S      HAL2     0.900000E-01   1.00800           0
     38396 MEMB     309      PMPE     C25      CTL2    -0.180000       12.0110           0
     38397 MEMB     309      PMPE     H5R      HAL2     0.900000E-01   1.00800           0
     38398 MEMB     309      PMPE     H5S      HAL2     0.900000E-01   1.00800           0
     38399 MEMB     309      PMPE     C26      CTL2    -0.180000       12.0110           0
     38400 MEMB     309      PMPE     H6R      HAL2     0.900000E-01   1.00800           0
     38401 MEMB     309      PMPE     H6S      HAL2     0.900000E-01   1.00800           0
     38402 MEMB     309      PMPE     C27      CTL2    -0.180000       12.0110           0
     38403 MEMB     309      PMPE     H7R      HAL2     0.900000E-01   1.00800           0
     38404 MEMB     309      PMPE     H7S      HAL2     0.900000E-01   1.00800           0
     38405 MEMB     309      PMPE     C28      CTL2    -0.180000       12.0110           0
     38406 MEMB     309      PMPE     H8R      HAL2     0.900000E-01   1.00800           0
     38407 MEMB     309      PMPE     H8S      HAL2     0.900000E-01   1.00800           0
     38408 MEMB     309      PMPE     C29      CG3RC1  -0.900000E-01   12.0110           0
     38409 MEMB     309      PMPE     H9R      HGA1     0.900000E-01   1.00800           0
     38410 MEMB     309      PMPE     C217     CG3C31  -0.180000       12.0110           0
     38411 MEMB     309      PMPE     H17R     HGA2     0.900000E-01   1.00800           0
     38412 MEMB     309      PMPE     H17S     HGA2     0.900000E-01   1.00800           0
     38413 MEMB     309      PMPE     C210     CG3RC1  -0.900000E-01   12.0110           0
     38414 MEMB     309      PMPE     H10R     HGA1     0.900000E-01   1.00800           0
     38415 MEMB     309      PMPE     C211     CTL2    -0.180000       12.0110           0
     38416 MEMB     309      PMPE     H11R     HAL2     0.900000E-01   1.00800           0
     38417 MEMB     309      PMPE     H11S     HAL2     0.900000E-01   1.00800           0
     38418 MEMB     309      PMPE     C212     CTL2    -0.180000       12.0110           0
     38419 MEMB     309      PMPE     H12R     HAL2     0.900000E-01   1.00800           0
     38420 MEMB     309      PMPE     H12S     HAL2     0.900000E-01   1.00800           0
     38421 MEMB     309      PMPE     C213     CTL2    -0.180000       12.0110           0
     38422 MEMB     309      PMPE     H13R     HAL2     0.900000E-01   1.00800           0
     38423 MEMB     309      PMPE     H13S     HAL2     0.900000E-01   1.00800           0
     38424 MEMB     309      PMPE     C214     CTL2    -0.180000       12.0110           0
     38425 MEMB     309      PMPE     H14R     HAL2     0.900000E-01   1.00800           0
     38426 MEMB     309      PMPE     H14S     HAL2     0.900000E-01   1.00800           0
     38427 MEMB     309      PMPE     C215     CTL2    -0.180000       12.0110           0
     38428 MEMB     309      PMPE     H15R     HAL2     0.900000E-01   1.00800           0
     38429 MEMB     309      PMPE     H15S     HAL2     0.900000E-01   1.00800           0
     38430 MEMB     309      PMPE     C216     CTL3    -0.270000       12.0110           0
     38431 MEMB     309      PMPE     H16R     HAL3     0.900000E-01   1.00800           0
     38432 MEMB     309      PMPE     H16S     HAL3     0.900000E-01   1.00800           0
     38433 MEMB     309      PMPE     H16T     HAL3     0.900000E-01   1.00800           0
     38434 MEMB     309      PMPE     C33      CTL2    -0.180000       12.0110           0
     38435 MEMB     309      PMPE     H3X      HAL2     0.900000E-01   1.00800           0
     38436 MEMB     309      PMPE     H3Y      HAL2     0.900000E-01   1.00800           0
     38437 MEMB     309      PMPE     C34      CTL2    -0.180000       12.0110           0
     38438 MEMB     309      PMPE     H4X      HAL2     0.900000E-01   1.00800           0
     38439 MEMB     309      PMPE     H4Y      HAL2     0.900000E-01   1.00800           0
     38440 MEMB     309      PMPE     C35      CTL2    -0.180000       12.0110           0
     38441 MEMB     309      PMPE     H5X      HAL2     0.900000E-01   1.00800           0
     38442 MEMB     309      PMPE     H5Y      HAL2     0.900000E-01   1.00800           0
     38443 MEMB     309      PMPE     C36      CTL2    -0.180000       12.0110           0
     38444 MEMB     309      PMPE     H6X      HAL2     0.900000E-01   1.00800           0
     38445 MEMB     309      PMPE     H6Y      HAL2     0.900000E-01   1.00800           0
     38446 MEMB     309      PMPE     C37      CTL2    -0.180000       12.0110           0
     38447 MEMB     309      PMPE     H7X      HAL2     0.900000E-01   1.00800           0
     38448 MEMB     309      PMPE     H7Y      HAL2     0.900000E-01   1.00800           0
     38449 MEMB     309      PMPE     C38      CTL2    -0.180000       12.0110           0
     38450 MEMB     309      PMPE     H8X      HAL2     0.900000E-01   1.00800           0
     38451 MEMB     309      PMPE     H8Y      HAL2     0.900000E-01   1.00800           0
     38452 MEMB     309      PMPE     C39      CTL2    -0.180000       12.0110           0
     38453 MEMB     309      PMPE     H9X      HAL2     0.900000E-01   1.00800           0
     38454 MEMB     309      PMPE     H9Y      HAL2     0.900000E-01   1.00800           0
     38455 MEMB     309      PMPE     C310     CTL2    -0.180000       12.0110           0
     38456 MEMB     309      PMPE     H10X     HAL2     0.900000E-01   1.00800           0
     38457 MEMB     309      PMPE     H10Y     HAL2     0.900000E-01   1.00800           0
     38458 MEMB     309      PMPE     C311     CTL2    -0.180000       12.0110           0
     38459 MEMB     309      PMPE     H11X     HAL2     0.900000E-01   1.00800           0
     38460 MEMB     309      PMPE     H11Y     HAL2     0.900000E-01   1.00800           0
     38461 MEMB     309      PMPE     C312     CTL2    -0.180000       12.0110           0
     38462 MEMB     309      PMPE     H12X     HAL2     0.900000E-01   1.00800           0
     38463 MEMB     309      PMPE     H12Y     HAL2     0.900000E-01   1.00800           0
     38464 MEMB     309      PMPE     C313     CTL2    -0.180000       12.0110           0
     38465 MEMB     309      PMPE     H13X     HAL2     0.900000E-01   1.00800           0
     38466 MEMB     309      PMPE     H13Y     HAL2     0.900000E-01   1.00800           0
     38467 MEMB     309      PMPE     C314     CTL2    -0.180000       12.0110           0
     38468 MEMB     309      PMPE     H14X     HAL2     0.900000E-01   1.00800           0
     38469 MEMB     309      PMPE     H14Y     HAL2     0.900000E-01   1.00800           0
     38470 MEMB     309      PMPE     C315     CTL2    -0.180000       12.0110           0
     38471 MEMB     309      PMPE     H15X     HAL2     0.900000E-01   1.00800           0
     38472 MEMB     309      PMPE     H15Y     HAL2     0.900000E-01   1.00800           0
     38473 MEMB     309      PMPE     C316     CTL3    -0.270000       12.0110           0
     38474 MEMB     309      PMPE     H16X     HAL3     0.900000E-01   1.00800           0
     38475 MEMB     309      PMPE     H16Y     HAL3     0.900000E-01   1.00800           0
     38476 MEMB     309      PMPE     H16Z     HAL3     0.900000E-01   1.00800           0
     38477 MEMB     310      PMPE     N        NH3L    -0.300000       14.0070           0
     38478 MEMB     310      PMPE     HN1      HCL      0.330000       1.00800           0
     38479 MEMB     310      PMPE     HN2      HCL      0.330000       1.00800           0
     38480 MEMB     310      PMPE     HN3      HCL      0.330000       1.00800           0
     38481 MEMB     310      PMPE     C12      CTL2     0.130000       12.0110           0
     38482 MEMB     310      PMPE     H12A     HAL2     0.900000E-01   1.00800           0
     38483 MEMB     310      PMPE     H12B     HAL2     0.900000E-01   1.00800           0
     38484 MEMB     310      PMPE     C11      CTL2    -0.800000E-01   12.0110           0
     38485 MEMB     310      PMPE     H11A     HAL2     0.900000E-01   1.00800           0
     38486 MEMB     310      PMPE     H11B     HAL2     0.900000E-01   1.00800           0
     38487 MEMB     310      PMPE     P        PL        1.50000       30.9740           0
     38488 MEMB     310      PMPE     O13      O2L     -0.780000       15.9994           0
     38489 MEMB     310      PMPE     O14      O2L     -0.780000       15.9994           0
     38490 MEMB     310      PMPE     O11      OSLP    -0.570000       15.9994           0
     38491 MEMB     310      PMPE     O12      OSLP    -0.570000       15.9994           0
     38492 MEMB     310      PMPE     C1       CTL2    -0.800000E-01   12.0110           0
     38493 MEMB     310      PMPE     HA       HAL2     0.900000E-01   1.00800           0
     38494 MEMB     310      PMPE     HB       HAL2     0.900000E-01   1.00800           0
     38495 MEMB     310      PMPE     C2       CTL1     0.170000       12.0110           0
     38496 MEMB     310      PMPE     HS       HAL1     0.900000E-01   1.00800           0
     38497 MEMB     310      PMPE     O21      OSL     -0.490000       15.9994           0
     38498 MEMB     310      PMPE     C21      CL       0.900000       12.0110           0
     38499 MEMB     310      PMPE     O22      OBL     -0.630000       15.9994           0
     38500 MEMB     310      PMPE     C22      CTL2    -0.220000       12.0110           0
     38501 MEMB     310      PMPE     H2R      HAL2     0.900000E-01   1.00800           0
     38502 MEMB     310      PMPE     H2S      HAL2     0.900000E-01   1.00800           0
     38503 MEMB     310      PMPE     C3       CTL2     0.800000E-01   12.0110           0
     38504 MEMB     310      PMPE     HX       HAL2     0.900000E-01   1.00800           0
     38505 MEMB     310      PMPE     HY       HAL2     0.900000E-01   1.00800           0
     38506 MEMB     310      PMPE     O31      OSL     -0.490000       15.9994           0
     38507 MEMB     310      PMPE     C31      CL       0.900000       12.0110           0
     38508 MEMB     310      PMPE     O32      OBL     -0.630000       15.9994           0
     38509 MEMB     310      PMPE     C32      CTL2    -0.220000       12.0110           0
     38510 MEMB     310      PMPE     H2X      HAL2     0.900000E-01   1.00800           0
     38511 MEMB     310      PMPE     H2Y      HAL2     0.900000E-01   1.00800           0
     38512 MEMB     310      PMPE     C23      CTL2    -0.180000       12.0110           0
     38513 MEMB     310      PMPE     H3R      HAL2     0.900000E-01   1.00800           0
     38514 MEMB     310      PMPE     H3S      HAL2     0.900000E-01   1.00800           0
     38515 MEMB     310      PMPE     C24      CTL2    -0.180000       12.0110           0
     38516 MEMB     310      PMPE     H4R      HAL2     0.900000E-01   1.00800           0
     38517 MEMB     310      PMPE     H4S      HAL2     0.900000E-01   1.00800           0
     38518 MEMB     310      PMPE     C25      CTL2    -0.180000       12.0110           0
     38519 MEMB     310      PMPE     H5R      HAL2     0.900000E-01   1.00800           0
     38520 MEMB     310      PMPE     H5S      HAL2     0.900000E-01   1.00800           0
     38521 MEMB     310      PMPE     C26      CTL2    -0.180000       12.0110           0
     38522 MEMB     310      PMPE     H6R      HAL2     0.900000E-01   1.00800           0
     38523 MEMB     310      PMPE     H6S      HAL2     0.900000E-01   1.00800           0
     38524 MEMB     310      PMPE     C27      CTL2    -0.180000       12.0110           0
     38525 MEMB     310      PMPE     H7R      HAL2     0.900000E-01   1.00800           0
     38526 MEMB     310      PMPE     H7S      HAL2     0.900000E-01   1.00800           0
     38527 MEMB     310      PMPE     C28      CTL2    -0.180000       12.0110           0
     38528 MEMB     310      PMPE     H8R      HAL2     0.900000E-01   1.00800           0
     38529 MEMB     310      PMPE     H8S      HAL2     0.900000E-01   1.00800           0
     38530 MEMB     310      PMPE     C29      CG3RC1  -0.900000E-01   12.0110           0
     38531 MEMB     310      PMPE     H9R      HGA1     0.900000E-01   1.00800           0
     38532 MEMB     310      PMPE     C217     CG3C31  -0.180000       12.0110           0
     38533 MEMB     310      PMPE     H17R     HGA2     0.900000E-01   1.00800           0
     38534 MEMB     310      PMPE     H17S     HGA2     0.900000E-01   1.00800           0
     38535 MEMB     310      PMPE     C210     CG3RC1  -0.900000E-01   12.0110           0
     38536 MEMB     310      PMPE     H10R     HGA1     0.900000E-01   1.00800           0
     38537 MEMB     310      PMPE     C211     CTL2    -0.180000       12.0110           0
     38538 MEMB     310      PMPE     H11R     HAL2     0.900000E-01   1.00800           0
     38539 MEMB     310      PMPE     H11S     HAL2     0.900000E-01   1.00800           0
     38540 MEMB     310      PMPE     C212     CTL2    -0.180000       12.0110           0
     38541 MEMB     310      PMPE     H12R     HAL2     0.900000E-01   1.00800           0
     38542 MEMB     310      PMPE     H12S     HAL2     0.900000E-01   1.00800           0
     38543 MEMB     310      PMPE     C213     CTL2    -0.180000       12.0110           0
     38544 MEMB     310      PMPE     H13R     HAL2     0.900000E-01   1.00800           0
     38545 MEMB     310      PMPE     H13S     HAL2     0.900000E-01   1.00800           0
     38546 MEMB     310      PMPE     C214     CTL2    -0.180000       12.0110           0
     38547 MEMB     310      PMPE     H14R     HAL2     0.900000E-01   1.00800           0
     38548 MEMB     310      PMPE     H14S     HAL2     0.900000E-01   1.00800           0
     38549 MEMB     310      PMPE     C215     CTL2    -0.180000       12.0110           0
     38550 MEMB     310      PMPE     H15R     HAL2     0.900000E-01   1.00800           0
     38551 MEMB     310      PMPE     H15S     HAL2     0.900000E-01   1.00800           0
     38552 MEMB     310      PMPE     C216     CTL3    -0.270000       12.0110           0
     38553 MEMB     310      PMPE     H16R     HAL3     0.900000E-01   1.00800           0
     38554 MEMB     310      PMPE     H16S     HAL3     0.900000E-01   1.00800           0
     38555 MEMB     310      PMPE     H16T     HAL3     0.900000E-01   1.00800           0
     38556 MEMB     310      PMPE     C33      CTL2    -0.180000       12.0110           0
     38557 MEMB     310      PMPE     H3X      HAL2     0.900000E-01   1.00800           0
     38558 MEMB     310      PMPE     H3Y      HAL2     0.900000E-01   1.00800           0
     38559 MEMB     310      PMPE     C34      CTL2    -0.180000       12.0110           0
     38560 MEMB     310      PMPE     H4X      HAL2     0.900000E-01   1.00800           0
     38561 MEMB     310      PMPE     H4Y      HAL2     0.900000E-01   1.00800           0
     38562 MEMB     310      PMPE     C35      CTL2    -0.180000       12.0110           0
     38563 MEMB     310      PMPE     H5X      HAL2     0.900000E-01   1.00800           0
     38564 MEMB     310      PMPE     H5Y      HAL2     0.900000E-01   1.00800           0
     38565 MEMB     310      PMPE     C36      CTL2    -0.180000       12.0110           0
     38566 MEMB     310      PMPE     H6X      HAL2     0.900000E-01   1.00800           0
     38567 MEMB     310      PMPE     H6Y      HAL2     0.900000E-01   1.00800           0
     38568 MEMB     310      PMPE     C37      CTL2    -0.180000       12.0110           0
     38569 MEMB     310      PMPE     H7X      HAL2     0.900000E-01   1.00800           0
     38570 MEMB     310      PMPE     H7Y      HAL2     0.900000E-01   1.00800           0
     38571 MEMB     310      PMPE     C38      CTL2    -0.180000       12.0110           0
     38572 MEMB     310      PMPE     H8X      HAL2     0.900000E-01   1.00800           0
     38573 MEMB     310      PMPE     H8Y      HAL2     0.900000E-01   1.00800           0
     38574 MEMB     310      PMPE     C39      CTL2    -0.180000       12.0110           0
     38575 MEMB     310      PMPE     H9X      HAL2     0.900000E-01   1.00800           0
     38576 MEMB     310      PMPE     H9Y      HAL2     0.900000E-01   1.00800           0
     38577 MEMB     310      PMPE     C310     CTL2    -0.180000       12.0110           0
     38578 MEMB     310      PMPE     H10X     HAL2     0.900000E-01   1.00800           0
     38579 MEMB     310      PMPE     H10Y     HAL2     0.900000E-01   1.00800           0
     38580 MEMB     310      PMPE     C311     CTL2    -0.180000       12.0110           0
     38581 MEMB     310      PMPE     H11X     HAL2     0.900000E-01   1.00800           0
     38582 MEMB     310      PMPE     H11Y     HAL2     0.900000E-01   1.00800           0
     38583 MEMB     310      PMPE     C312     CTL2    -0.180000       12.0110           0
     38584 MEMB     310      PMPE     H12X     HAL2     0.900000E-01   1.00800           0
     38585 MEMB     310      PMPE     H12Y     HAL2     0.900000E-01   1.00800           0
     38586 MEMB     310      PMPE     C313     CTL2    -0.180000       12.0110           0
     38587 MEMB     310      PMPE     H13X     HAL2     0.900000E-01   1.00800           0
     38588 MEMB     310      PMPE     H13Y     HAL2     0.900000E-01   1.00800           0
     38589 MEMB     310      PMPE     C314     CTL2    -0.180000       12.0110           0
     38590 MEMB     310      PMPE     H14X     HAL2     0.900000E-01   1.00800           0
     38591 MEMB     310      PMPE     H14Y     HAL2     0.900000E-01   1.00800           0
     38592 MEMB     310      PMPE     C315     CTL2    -0.180000       12.0110           0
     38593 MEMB     310      PMPE     H15X     HAL2     0.900000E-01   1.00800           0
     38594 MEMB     310      PMPE     H15Y     HAL2     0.900000E-01   1.00800           0
     38595 MEMB     310      PMPE     C316     CTL3    -0.270000       12.0110           0
     38596 MEMB     310      PMPE     H16X     HAL3     0.900000E-01   1.00800           0
     38597 MEMB     310      PMPE     H16Y     HAL3     0.900000E-01   1.00800           0
     38598 MEMB     310      PMPE     H16Z     HAL3     0.900000E-01   1.00800           0
     38599 MEMB     311      POPE     N        NH3L    -0.300000       14.0070           0
     38600 MEMB     311      POPE     HN1      HCL      0.330000       1.00800           0
     38601 MEMB     311      POPE     HN2      HCL      0.330000       1.00800           0
     38602 MEMB     311      POPE     HN3      HCL      0.330000       1.00800           0
     38603 MEMB     311      POPE     C12      CTL2     0.130000       12.0110           0
     38604 MEMB     311      POPE     H12A     HAL2     0.900000E-01   1.00800           0
     38605 MEMB     311      POPE     H12B     HAL2     0.900000E-01   1.00800           0
     38606 MEMB     311      POPE     C11      CTL2    -0.800000E-01   12.0110           0
     38607 MEMB     311      POPE     H11A     HAL2     0.900000E-01   1.00800           0
     38608 MEMB     311      POPE     H11B     HAL2     0.900000E-01   1.00800           0
     38609 MEMB     311      POPE     P        PL        1.50000       30.9740           0
     38610 MEMB     311      POPE     O13      O2L     -0.780000       15.9994           0
     38611 MEMB     311      POPE     O14      O2L     -0.780000       15.9994           0
     38612 MEMB     311      POPE     O11      OSLP    -0.570000       15.9994           0
     38613 MEMB     311      POPE     O12      OSLP    -0.570000       15.9994           0
     38614 MEMB     311      POPE     C1       CTL2    -0.800000E-01   12.0110           0
     38615 MEMB     311      POPE     HA       HAL2     0.900000E-01   1.00800           0
     38616 MEMB     311      POPE     HB       HAL2     0.900000E-01   1.00800           0
     38617 MEMB     311      POPE     C2       CTL1     0.170000       12.0110           0
     38618 MEMB     311      POPE     HS       HAL1     0.900000E-01   1.00800           0
     38619 MEMB     311      POPE     O21      OSL     -0.490000       15.9994           0
     38620 MEMB     311      POPE     C21      CL       0.900000       12.0110           0
     38621 MEMB     311      POPE     O22      OBL     -0.630000       15.9994           0
     38622 MEMB     311      POPE     C22      CTL2    -0.220000       12.0110           0
     38623 MEMB     311      POPE     H2R      HAL2     0.900000E-01   1.00800           0
     38624 MEMB     311      POPE     H2S      HAL2     0.900000E-01   1.00800           0
     38625 MEMB     311      POPE     C3       CTL2     0.800000E-01   12.0110           0
     38626 MEMB     311      POPE     HX       HAL2     0.900000E-01   1.00800           0
     38627 MEMB     311      POPE     HY       HAL2     0.900000E-01   1.00800           0
     38628 MEMB     311      POPE     O31      OSL     -0.490000       15.9994           0
     38629 MEMB     311      POPE     C31      CL       0.900000       12.0110           0
     38630 MEMB     311      POPE     O32      OBL     -0.630000       15.9994           0
     38631 MEMB     311      POPE     C32      CTL2    -0.220000       12.0110           0
     38632 MEMB     311      POPE     H2X      HAL2     0.900000E-01   1.00800           0
     38633 MEMB     311      POPE     H2Y      HAL2     0.900000E-01   1.00800           0
     38634 MEMB     311      POPE     C23      CTL2    -0.180000       12.0110           0
     38635 MEMB     311      POPE     H3R      HAL2     0.900000E-01   1.00800           0
     38636 MEMB     311      POPE     H3S      HAL2     0.900000E-01   1.00800           0
     38637 MEMB     311      POPE     C24      CTL2    -0.180000       12.0110           0
     38638 MEMB     311      POPE     H4R      HAL2     0.900000E-01   1.00800           0
     38639 MEMB     311      POPE     H4S      HAL2     0.900000E-01   1.00800           0
     38640 MEMB     311      POPE     C25      CTL2    -0.180000       12.0110           0
     38641 MEMB     311      POPE     H5R      HAL2     0.900000E-01   1.00800           0
     38642 MEMB     311      POPE     H5S      HAL2     0.900000E-01   1.00800           0
     38643 MEMB     311      POPE     C26      CTL2    -0.180000       12.0110           0
     38644 MEMB     311      POPE     H6R      HAL2     0.900000E-01   1.00800           0
     38645 MEMB     311      POPE     H6S      HAL2     0.900000E-01   1.00800           0
     38646 MEMB     311      POPE     C27      CTL2    -0.180000       12.0110           0
     38647 MEMB     311      POPE     H7R      HAL2     0.900000E-01   1.00800           0
     38648 MEMB     311      POPE     H7S      HAL2     0.900000E-01   1.00800           0
     38649 MEMB     311      POPE     C28      CTL2    -0.180000       12.0110           0
     38650 MEMB     311      POPE     H8R      HAL2     0.900000E-01   1.00800           0
     38651 MEMB     311      POPE     H8S      HAL2     0.900000E-01   1.00800           0
     38652 MEMB     311      POPE     C29      CEL1    -0.150000       12.0110           0
     38653 MEMB     311      POPE     H91      HEL1     0.150000       1.00800           0
     38654 MEMB     311      POPE     C210     CEL1    -0.150000       12.0110           0
     38655 MEMB     311      POPE     H101     HEL1     0.150000       1.00800           0
     38656 MEMB     311      POPE     C211     CTL2    -0.180000       12.0110           0
     38657 MEMB     311      POPE     H11R     HAL2     0.900000E-01   1.00800           0
     38658 MEMB     311      POPE     H11S     HAL2     0.900000E-01   1.00800           0
     38659 MEMB     311      POPE     C212     CTL2    -0.180000       12.0110           0
     38660 MEMB     311      POPE     H12R     HAL2     0.900000E-01   1.00800           0
     38661 MEMB     311      POPE     H12S     HAL2     0.900000E-01   1.00800           0
     38662 MEMB     311      POPE     C213     CTL2    -0.180000       12.0110           0
     38663 MEMB     311      POPE     H13R     HAL2     0.900000E-01   1.00800           0
     38664 MEMB     311      POPE     H13S     HAL2     0.900000E-01   1.00800           0
     38665 MEMB     311      POPE     C214     CTL2    -0.180000       12.0110           0
     38666 MEMB     311      POPE     H14R     HAL2     0.900000E-01   1.00800           0
     38667 MEMB     311      POPE     H14S     HAL2     0.900000E-01   1.00800           0
     38668 MEMB     311      POPE     C215     CTL2    -0.180000       12.0110           0
     38669 MEMB     311      POPE     H15R     HAL2     0.900000E-01   1.00800           0
     38670 MEMB     311      POPE     H15S     HAL2     0.900000E-01   1.00800           0
     38671 MEMB     311      POPE     C216     CTL2    -0.180000       12.0110           0
     38672 MEMB     311      POPE     H16R     HAL2     0.900000E-01   1.00800           0
     38673 MEMB     311      POPE     H16S     HAL2     0.900000E-01   1.00800           0
     38674 MEMB     311      POPE     C217     CTL2    -0.180000       12.0110           0
     38675 MEMB     311      POPE     H17R     HAL2     0.900000E-01   1.00800           0
     38676 MEMB     311      POPE     H17S     HAL2     0.900000E-01   1.00800           0
     38677 MEMB     311      POPE     C218     CTL3    -0.270000       12.0110           0
     38678 MEMB     311      POPE     H18R     HAL3     0.900000E-01   1.00800           0
     38679 MEMB     311      POPE     H18S     HAL3     0.900000E-01   1.00800           0
     38680 MEMB     311      POPE     H18T     HAL3     0.900000E-01   1.00800           0
     38681 MEMB     311      POPE     C33      CTL2    -0.180000       12.0110           0
     38682 MEMB     311      POPE     H3X      HAL2     0.900000E-01   1.00800           0
     38683 MEMB     311      POPE     H3Y      HAL2     0.900000E-01   1.00800           0
     38684 MEMB     311      POPE     C34      CTL2    -0.180000       12.0110           0
     38685 MEMB     311      POPE     H4X      HAL2     0.900000E-01   1.00800           0
     38686 MEMB     311      POPE     H4Y      HAL2     0.900000E-01   1.00800           0
     38687 MEMB     311      POPE     C35      CTL2    -0.180000       12.0110           0
     38688 MEMB     311      POPE     H5X      HAL2     0.900000E-01   1.00800           0
     38689 MEMB     311      POPE     H5Y      HAL2     0.900000E-01   1.00800           0
     38690 MEMB     311      POPE     C36      CTL2    -0.180000       12.0110           0
     38691 MEMB     311      POPE     H6X      HAL2     0.900000E-01   1.00800           0
     38692 MEMB     311      POPE     H6Y      HAL2     0.900000E-01   1.00800           0
     38693 MEMB     311      POPE     C37      CTL2    -0.180000       12.0110           0
     38694 MEMB     311      POPE     H7X      HAL2     0.900000E-01   1.00800           0
     38695 MEMB     311      POPE     H7Y      HAL2     0.900000E-01   1.00800           0
     38696 MEMB     311      POPE     C38      CTL2    -0.180000       12.0110           0
     38697 MEMB     311      POPE     H8X      HAL2     0.900000E-01   1.00800           0
     38698 MEMB     311      POPE     H8Y      HAL2     0.900000E-01   1.00800           0
     38699 MEMB     311      POPE     C39      CTL2    -0.180000       12.0110           0
     38700 MEMB     311      POPE     H9X      HAL2     0.900000E-01   1.00800           0
     38701 MEMB     311      POPE     H9Y      HAL2     0.900000E-01   1.00800           0
     38702 MEMB     311      POPE     C310     CTL2    -0.180000       12.0110           0
     38703 MEMB     311      POPE     H10X     HAL2     0.900000E-01   1.00800           0
     38704 MEMB     311      POPE     H10Y     HAL2     0.900000E-01   1.00800           0
     38705 MEMB     311      POPE     C311     CTL2    -0.180000       12.0110           0
     38706 MEMB     311      POPE     H11X     HAL2     0.900000E-01   1.00800           0
     38707 MEMB     311      POPE     H11Y     HAL2     0.900000E-01   1.00800           0
     38708 MEMB     311      POPE     C312     CTL2    -0.180000       12.0110           0
     38709 MEMB     311      POPE     H12X     HAL2     0.900000E-01   1.00800           0
     38710 MEMB     311      POPE     H12Y     HAL2     0.900000E-01   1.00800           0
     38711 MEMB     311      POPE     C313     CTL2    -0.180000       12.0110           0
     38712 MEMB     311      POPE     H13X     HAL2     0.900000E-01   1.00800           0
     38713 MEMB     311      POPE     H13Y     HAL2     0.900000E-01   1.00800           0
     38714 MEMB     311      POPE     C314     CTL2    -0.180000       12.0110           0
     38715 MEMB     311      POPE     H14X     HAL2     0.900000E-01   1.00800           0
     38716 MEMB     311      POPE     H14Y     HAL2     0.900000E-01   1.00800           0
     38717 MEMB     311      POPE     C315     CTL2    -0.180000       12.0110           0
     38718 MEMB     311      POPE     H15X     HAL2     0.900000E-01   1.00800           0
     38719 MEMB     311      POPE     H15Y     HAL2     0.900000E-01   1.00800           0
     38720 MEMB     311      POPE     C316     CTL3    -0.270000       12.0110           0
     38721 MEMB     311      POPE     H16X     HAL3     0.900000E-01   1.00800           0
     38722 MEMB     311      POPE     H16Y     HAL3     0.900000E-01   1.00800           0
     38723 MEMB     311      POPE     H16Z     HAL3     0.900000E-01   1.00800           0
     38724 MEMB     312      PMPE     N        NH3L    -0.300000       14.0070           0
     38725 MEMB     312      PMPE     HN1      HCL      0.330000       1.00800           0
     38726 MEMB     312      PMPE     HN2      HCL      0.330000       1.00800           0
     38727 MEMB     312      PMPE     HN3      HCL      0.330000       1.00800           0
     38728 MEMB     312      PMPE     C12      CTL2     0.130000       12.0110           0
     38729 MEMB     312      PMPE     H12A     HAL2     0.900000E-01   1.00800           0
     38730 MEMB     312      PMPE     H12B     HAL2     0.900000E-01   1.00800           0
     38731 MEMB     312      PMPE     C11      CTL2    -0.800000E-01   12.0110           0
     38732 MEMB     312      PMPE     H11A     HAL2     0.900000E-01   1.00800           0
     38733 MEMB     312      PMPE     H11B     HAL2     0.900000E-01   1.00800           0
     38734 MEMB     312      PMPE     P        PL        1.50000       30.9740           0
     38735 MEMB     312      PMPE     O13      O2L     -0.780000       15.9994           0
     38736 MEMB     312      PMPE     O14      O2L     -0.780000       15.9994           0
     38737 MEMB     312      PMPE     O11      OSLP    -0.570000       15.9994           0
     38738 MEMB     312      PMPE     O12      OSLP    -0.570000       15.9994           0
     38739 MEMB     312      PMPE     C1       CTL2    -0.800000E-01   12.0110           0
     38740 MEMB     312      PMPE     HA       HAL2     0.900000E-01   1.00800           0
     38741 MEMB     312      PMPE     HB       HAL2     0.900000E-01   1.00800           0
     38742 MEMB     312      PMPE     C2       CTL1     0.170000       12.0110           0
     38743 MEMB     312      PMPE     HS       HAL1     0.900000E-01   1.00800           0
     38744 MEMB     312      PMPE     O21      OSL     -0.490000       15.9994           0
     38745 MEMB     312      PMPE     C21      CL       0.900000       12.0110           0
     38746 MEMB     312      PMPE     O22      OBL     -0.630000       15.9994           0
     38747 MEMB     312      PMPE     C22      CTL2    -0.220000       12.0110           0
     38748 MEMB     312      PMPE     H2R      HAL2     0.900000E-01   1.00800           0
     38749 MEMB     312      PMPE     H2S      HAL2     0.900000E-01   1.00800           0
     38750 MEMB     312      PMPE     C3       CTL2     0.800000E-01   12.0110           0
     38751 MEMB     312      PMPE     HX       HAL2     0.900000E-01   1.00800           0
     38752 MEMB     312      PMPE     HY       HAL2     0.900000E-01   1.00800           0
     38753 MEMB     312      PMPE     O31      OSL     -0.490000       15.9994           0
     38754 MEMB     312      PMPE     C31      CL       0.900000       12.0110           0
     38755 MEMB     312      PMPE     O32      OBL     -0.630000       15.9994           0
     38756 MEMB     312      PMPE     C32      CTL2    -0.220000       12.0110           0
     38757 MEMB     312      PMPE     H2X      HAL2     0.900000E-01   1.00800           0
     38758 MEMB     312      PMPE     H2Y      HAL2     0.900000E-01   1.00800           0
     38759 MEMB     312      PMPE     C23      CTL2    -0.180000       12.0110           0
     38760 MEMB     312      PMPE     H3R      HAL2     0.900000E-01   1.00800           0
     38761 MEMB     312      PMPE     H3S      HAL2     0.900000E-01   1.00800           0
     38762 MEMB     312      PMPE     C24      CTL2    -0.180000       12.0110           0
     38763 MEMB     312      PMPE     H4R      HAL2     0.900000E-01   1.00800           0
     38764 MEMB     312      PMPE     H4S      HAL2     0.900000E-01   1.00800           0
     38765 MEMB     312      PMPE     C25      CTL2    -0.180000       12.0110           0
     38766 MEMB     312      PMPE     H5R      HAL2     0.900000E-01   1.00800           0
     38767 MEMB     312      PMPE     H5S      HAL2     0.900000E-01   1.00800           0
     38768 MEMB     312      PMPE     C26      CTL2    -0.180000       12.0110           0
     38769 MEMB     312      PMPE     H6R      HAL2     0.900000E-01   1.00800           0
     38770 MEMB     312      PMPE     H6S      HAL2     0.900000E-01   1.00800           0
     38771 MEMB     312      PMPE     C27      CTL2    -0.180000       12.0110           0
     38772 MEMB     312      PMPE     H7R      HAL2     0.900000E-01   1.00800           0
     38773 MEMB     312      PMPE     H7S      HAL2     0.900000E-01   1.00800           0
     38774 MEMB     312      PMPE     C28      CTL2    -0.180000       12.0110           0
     38775 MEMB     312      PMPE     H8R      HAL2     0.900000E-01   1.00800           0
     38776 MEMB     312      PMPE     H8S      HAL2     0.900000E-01   1.00800           0
     38777 MEMB     312      PMPE     C29      CG3RC1  -0.900000E-01   12.0110           0
     38778 MEMB     312      PMPE     H9R      HGA1     0.900000E-01   1.00800           0
     38779 MEMB     312      PMPE     C217     CG3C31  -0.180000       12.0110           0
     38780 MEMB     312      PMPE     H17R     HGA2     0.900000E-01   1.00800           0
     38781 MEMB     312      PMPE     H17S     HGA2     0.900000E-01   1.00800           0
     38782 MEMB     312      PMPE     C210     CG3RC1  -0.900000E-01   12.0110           0
     38783 MEMB     312      PMPE     H10R     HGA1     0.900000E-01   1.00800           0
     38784 MEMB     312      PMPE     C211     CTL2    -0.180000       12.0110           0
     38785 MEMB     312      PMPE     H11R     HAL2     0.900000E-01   1.00800           0
     38786 MEMB     312      PMPE     H11S     HAL2     0.900000E-01   1.00800           0
     38787 MEMB     312      PMPE     C212     CTL2    -0.180000       12.0110           0
     38788 MEMB     312      PMPE     H12R     HAL2     0.900000E-01   1.00800           0
     38789 MEMB     312      PMPE     H12S     HAL2     0.900000E-01   1.00800           0
     38790 MEMB     312      PMPE     C213     CTL2    -0.180000       12.0110           0
     38791 MEMB     312      PMPE     H13R     HAL2     0.900000E-01   1.00800           0
     38792 MEMB     312      PMPE     H13S     HAL2     0.900000E-01   1.00800           0
     38793 MEMB     312      PMPE     C214     CTL2    -0.180000       12.0110           0
     38794 MEMB     312      PMPE     H14R     HAL2     0.900000E-01   1.00800           0
     38795 MEMB     312      PMPE     H14S     HAL2     0.900000E-01   1.00800           0
     38796 MEMB     312      PMPE     C215     CTL2    -0.180000       12.0110           0
     38797 MEMB     312      PMPE     H15R     HAL2     0.900000E-01   1.00800           0
     38798 MEMB     312      PMPE     H15S     HAL2     0.900000E-01   1.00800           0
     38799 MEMB     312      PMPE     C216     CTL3    -0.270000       12.0110           0
     38800 MEMB     312      PMPE     H16R     HAL3     0.900000E-01   1.00800           0
     38801 MEMB     312      PMPE     H16S     HAL3     0.900000E-01   1.00800           0
     38802 MEMB     312      PMPE     H16T     HAL3     0.900000E-01   1.00800           0
     38803 MEMB     312      PMPE     C33      CTL2    -0.180000       12.0110           0
     38804 MEMB     312      PMPE     H3X      HAL2     0.900000E-01   1.00800           0
     38805 MEMB     312      PMPE     H3Y      HAL2     0.900000E-01   1.00800           0
     38806 MEMB     312      PMPE     C34      CTL2    -0.180000       12.0110           0
     38807 MEMB     312      PMPE     H4X      HAL2     0.900000E-01   1.00800           0
     38808 MEMB     312      PMPE     H4Y      HAL2     0.900000E-01   1.00800           0
     38809 MEMB     312      PMPE     C35      CTL2    -0.180000       12.0110           0
     38810 MEMB     312      PMPE     H5X      HAL2     0.900000E-01   1.00800           0
     38811 MEMB     312      PMPE     H5Y      HAL2     0.900000E-01   1.00800           0
     38812 MEMB     312      PMPE     C36      CTL2    -0.180000       12.0110           0
     38813 MEMB     312      PMPE     H6X      HAL2     0.900000E-01   1.00800           0
     38814 MEMB     312      PMPE     H6Y      HAL2     0.900000E-01   1.00800           0
     38815 MEMB     312      PMPE     C37      CTL2    -0.180000       12.0110           0
     38816 MEMB     312      PMPE     H7X      HAL2     0.900000E-01   1.00800           0
     38817 MEMB     312      PMPE     H7Y      HAL2     0.900000E-01   1.00800           0
     38818 MEMB     312      PMPE     C38      CTL2    -0.180000       12.0110           0
     38819 MEMB     312      PMPE     H8X      HAL2     0.900000E-01   1.00800           0
     38820 MEMB     312      PMPE     H8Y      HAL2     0.900000E-01   1.00800           0
     38821 MEMB     312      PMPE     C39      CTL2    -0.180000       12.0110           0
     38822 MEMB     312      PMPE     H9X      HAL2     0.900000E-01   1.00800           0
     38823 MEMB     312      PMPE     H9Y      HAL2     0.900000E-01   1.00800           0
     38824 MEMB     312      PMPE     C310     CTL2    -0.180000       12.0110           0
     38825 MEMB     312      PMPE     H10X     HAL2     0.900000E-01   1.00800           0
     38826 MEMB     312      PMPE     H10Y     HAL2     0.900000E-01   1.00800           0
     38827 MEMB     312      PMPE     C311     CTL2    -0.180000       12.0110           0
     38828 MEMB     312      PMPE     H11X     HAL2     0.900000E-01   1.00800           0
     38829 MEMB     312      PMPE     H11Y     HAL2     0.900000E-01   1.00800           0
     38830 MEMB     312      PMPE     C312     CTL2    -0.180000       12.0110           0
     38831 MEMB     312      PMPE     H12X     HAL2     0.900000E-01   1.00800           0
     38832 MEMB     312      PMPE     H12Y     HAL2     0.900000E-01   1.00800           0
     38833 MEMB     312      PMPE     C313     CTL2    -0.180000       12.0110           0
     38834 MEMB     312      PMPE     H13X     HAL2     0.900000E-01   1.00800           0
     38835 MEMB     312      PMPE     H13Y     HAL2     0.900000E-01   1.00800           0
     38836 MEMB     312      PMPE     C314     CTL2    -0.180000       12.0110           0
     38837 MEMB     312      PMPE     H14X     HAL2     0.900000E-01   1.00800           0
     38838 MEMB     312      PMPE     H14Y     HAL2     0.900000E-01   1.00800           0
     38839 MEMB     312      PMPE     C315     CTL2    -0.180000       12.0110           0
     38840 MEMB     312      PMPE     H15X     HAL2     0.900000E-01   1.00800           0
     38841 MEMB     312      PMPE     H15Y     HAL2     0.900000E-01   1.00800           0
     38842 MEMB     312      PMPE     C316     CTL3    -0.270000       12.0110           0
     38843 MEMB     312      PMPE     H16X     HAL3     0.900000E-01   1.00800           0
     38844 MEMB     312      PMPE     H16Y     HAL3     0.900000E-01   1.00800           0
     38845 MEMB     312      PMPE     H16Z     HAL3     0.900000E-01   1.00800           0
     38846 MEMB     313      QMPE     N        NH3L    -0.300000       14.0070           0
     38847 MEMB     313      QMPE     HN1      HCL      0.330000       1.00800           0
     38848 MEMB     313      QMPE     HN2      HCL      0.330000       1.00800           0
     38849 MEMB     313      QMPE     HN3      HCL      0.330000       1.00800           0
     38850 MEMB     313      QMPE     C12      CTL2     0.130000       12.0110           0
     38851 MEMB     313      QMPE     H12A     HAL2     0.900000E-01   1.00800           0
     38852 MEMB     313      QMPE     H12B     HAL2     0.900000E-01   1.00800           0
     38853 MEMB     313      QMPE     C11      CTL2    -0.800000E-01   12.0110           0
     38854 MEMB     313      QMPE     H11A     HAL2     0.900000E-01   1.00800           0
     38855 MEMB     313      QMPE     H11B     HAL2     0.900000E-01   1.00800           0
     38856 MEMB     313      QMPE     P        PL        1.50000       30.9740           0
     38857 MEMB     313      QMPE     O13      O2L     -0.780000       15.9994           0
     38858 MEMB     313      QMPE     O14      O2L     -0.780000       15.9994           0
     38859 MEMB     313      QMPE     O11      OSLP    -0.570000       15.9994           0
     38860 MEMB     313      QMPE     O12      OSLP    -0.570000       15.9994           0
     38861 MEMB     313      QMPE     C1       CTL2    -0.800000E-01   12.0110           0
     38862 MEMB     313      QMPE     HA       HAL2     0.900000E-01   1.00800           0
     38863 MEMB     313      QMPE     HB       HAL2     0.900000E-01   1.00800           0
     38864 MEMB     313      QMPE     C2       CTL1     0.170000       12.0110           0
     38865 MEMB     313      QMPE     HS       HAL1     0.900000E-01   1.00800           0
     38866 MEMB     313      QMPE     O21      OSL     -0.490000       15.9994           0
     38867 MEMB     313      QMPE     C21      CL       0.900000       12.0110           0
     38868 MEMB     313      QMPE     O22      OBL     -0.630000       15.9994           0
     38869 MEMB     313      QMPE     C22      CTL2    -0.220000       12.0110           0
     38870 MEMB     313      QMPE     H2R      HAL2     0.900000E-01   1.00800           0
     38871 MEMB     313      QMPE     H2S      HAL2     0.900000E-01   1.00800           0
     38872 MEMB     313      QMPE     C3       CTL2     0.800000E-01   12.0110           0
     38873 MEMB     313      QMPE     HX       HAL2     0.900000E-01   1.00800           0
     38874 MEMB     313      QMPE     HY       HAL2     0.900000E-01   1.00800           0
     38875 MEMB     313      QMPE     O31      OSL     -0.490000       15.9994           0
     38876 MEMB     313      QMPE     C31      CL       0.900000       12.0110           0
     38877 MEMB     313      QMPE     O32      OBL     -0.630000       15.9994           0
     38878 MEMB     313      QMPE     C32      CTL2    -0.220000       12.0110           0
     38879 MEMB     313      QMPE     H2X      HAL2     0.900000E-01   1.00800           0
     38880 MEMB     313      QMPE     H2Y      HAL2     0.900000E-01   1.00800           0
     38881 MEMB     313      QMPE     C23      CTL2    -0.180000       12.0110           0
     38882 MEMB     313      QMPE     H3R      HAL2     0.900000E-01   1.00800           0
     38883 MEMB     313      QMPE     H3S      HAL2     0.900000E-01   1.00800           0
     38884 MEMB     313      QMPE     C24      CTL2    -0.180000       12.0110           0
     38885 MEMB     313      QMPE     H4R      HAL2     0.900000E-01   1.00800           0
     38886 MEMB     313      QMPE     H4S      HAL2     0.900000E-01   1.00800           0
     38887 MEMB     313      QMPE     C25      CTL2    -0.180000       12.0110           0
     38888 MEMB     313      QMPE     H5R      HAL2     0.900000E-01   1.00800           0
     38889 MEMB     313      QMPE     H5S      HAL2     0.900000E-01   1.00800           0
     38890 MEMB     313      QMPE     C26      CTL2    -0.180000       12.0110           0
     38891 MEMB     313      QMPE     H6R      HAL2     0.900000E-01   1.00800           0
     38892 MEMB     313      QMPE     H6S      HAL2     0.900000E-01   1.00800           0
     38893 MEMB     313      QMPE     C27      CTL2    -0.180000       12.0110           0
     38894 MEMB     313      QMPE     H7R      HAL2     0.900000E-01   1.00800           0
     38895 MEMB     313      QMPE     H7S      HAL2     0.900000E-01   1.00800           0
     38896 MEMB     313      QMPE     C28      CTL2    -0.180000       12.0110           0
     38897 MEMB     313      QMPE     H8R      HAL2     0.900000E-01   1.00800           0
     38898 MEMB     313      QMPE     H8S      HAL2     0.900000E-01   1.00800           0
     38899 MEMB     313      QMPE     C29      CG3RC1  -0.900000E-01   12.0110           0
     38900 MEMB     313      QMPE     H9R      HGA1     0.900000E-01   1.00800           0
     38901 MEMB     313      QMPE     C217     CG3C31  -0.180000       12.0110           0
     38902 MEMB     313      QMPE     H17R     HGA2     0.900000E-01   1.00800           0
     38903 MEMB     313      QMPE     H17S     HGA2     0.900000E-01   1.00800           0
     38904 MEMB     313      QMPE     C210     CG3RC1  -0.900000E-01   12.0110           0
     38905 MEMB     313      QMPE     H10R     HGA1     0.900000E-01   1.00800           0
     38906 MEMB     313      QMPE     C211     CTL2    -0.180000       12.0110           0
     38907 MEMB     313      QMPE     H11R     HAL2     0.900000E-01   1.00800           0
     38908 MEMB     313      QMPE     H11S     HAL2     0.900000E-01   1.00800           0
     38909 MEMB     313      QMPE     C212     CTL2    -0.180000       12.0110           0
     38910 MEMB     313      QMPE     H12R     HAL2     0.900000E-01   1.00800           0
     38911 MEMB     313      QMPE     H12S     HAL2     0.900000E-01   1.00800           0
     38912 MEMB     313      QMPE     C213     CTL2    -0.180000       12.0110           0
     38913 MEMB     313      QMPE     H13R     HAL2     0.900000E-01   1.00800           0
     38914 MEMB     313      QMPE     H13S     HAL2     0.900000E-01   1.00800           0
     38915 MEMB     313      QMPE     C214     CTL2    -0.180000       12.0110           0
     38916 MEMB     313      QMPE     H14R     HAL2     0.900000E-01   1.00800           0
     38917 MEMB     313      QMPE     H14S     HAL2     0.900000E-01   1.00800           0
     38918 MEMB     313      QMPE     C215     CTL2    -0.180000       12.0110           0
     38919 MEMB     313      QMPE     H15R     HAL2     0.900000E-01   1.00800           0
     38920 MEMB     313      QMPE     H15S     HAL2     0.900000E-01   1.00800           0
     38921 MEMB     313      QMPE     C216     CTL3    -0.270000       12.0110           0
     38922 MEMB     313      QMPE     H16R     HAL3     0.900000E-01   1.00800           0
     38923 MEMB     313      QMPE     H16S     HAL3     0.900000E-01   1.00800           0
     38924 MEMB     313      QMPE     H16T     HAL3     0.900000E-01   1.00800           0
     38925 MEMB     313      QMPE     C33      CTL2    -0.180000       12.0110           0
     38926 MEMB     313      QMPE     H3X      HAL2     0.900000E-01   1.00800           0
     38927 MEMB     313      QMPE     H3Y      HAL2     0.900000E-01   1.00800           0
     38928 MEMB     313      QMPE     C34      CTL2    -0.180000       12.0110           0
     38929 MEMB     313      QMPE     H4X      HAL2     0.900000E-01   1.00800           0
     38930 MEMB     313      QMPE     H4Y      HAL2     0.900000E-01   1.00800           0
     38931 MEMB     313      QMPE     C35      CTL2    -0.180000       12.0110           0
     38932 MEMB     313      QMPE     H5X      HAL2     0.900000E-01   1.00800           0
     38933 MEMB     313      QMPE     H5Y      HAL2     0.900000E-01   1.00800           0
     38934 MEMB     313      QMPE     C36      CTL2    -0.180000       12.0110           0
     38935 MEMB     313      QMPE     H6X      HAL2     0.900000E-01   1.00800           0
     38936 MEMB     313      QMPE     H6Y      HAL2     0.900000E-01   1.00800           0
     38937 MEMB     313      QMPE     C37      CTL2    -0.180000       12.0110           0
     38938 MEMB     313      QMPE     H7X      HAL2     0.900000E-01   1.00800           0
     38939 MEMB     313      QMPE     H7Y      HAL2     0.900000E-01   1.00800           0
     38940 MEMB     313      QMPE     C38      CTL2    -0.180000       12.0110           0
     38941 MEMB     313      QMPE     H8X      HAL2     0.900000E-01   1.00800           0
     38942 MEMB     313      QMPE     H8Y      HAL2     0.900000E-01   1.00800           0
     38943 MEMB     313      QMPE     C39      CTL2    -0.180000       12.0110           0
     38944 MEMB     313      QMPE     H9X      HAL2     0.900000E-01   1.00800           0
     38945 MEMB     313      QMPE     H9Y      HAL2     0.900000E-01   1.00800           0
     38946 MEMB     313      QMPE     C310     CTL2    -0.180000       12.0110           0
     38947 MEMB     313      QMPE     H10X     HAL2     0.900000E-01   1.00800           0
     38948 MEMB     313      QMPE     H10Y     HAL2     0.900000E-01   1.00800           0
     38949 MEMB     313      QMPE     C311     CTL2    -0.180000       12.0110           0
     38950 MEMB     313      QMPE     H11X     HAL2     0.900000E-01   1.00800           0
     38951 MEMB     313      QMPE     H11Y     HAL2     0.900000E-01   1.00800           0
     38952 MEMB     313      QMPE     C312     CTL2    -0.180000       12.0110           0
     38953 MEMB     313      QMPE     H12X     HAL2     0.900000E-01   1.00800           0
     38954 MEMB     313      QMPE     H12Y     HAL2     0.900000E-01   1.00800           0
     38955 MEMB     313      QMPE     C313     CTL2    -0.180000       12.0110           0
     38956 MEMB     313      QMPE     H13X     HAL2     0.900000E-01   1.00800           0
     38957 MEMB     313      QMPE     H13Y     HAL2     0.900000E-01   1.00800           0
     38958 MEMB     313      QMPE     C314     CTL2    -0.180000       12.0110           0
     38959 MEMB     313      QMPE     H14X     HAL2     0.900000E-01   1.00800           0
     38960 MEMB     313      QMPE     H14Y     HAL2     0.900000E-01   1.00800           0
     38961 MEMB     313      QMPE     C315     CTL3    -0.270000       12.0110           0
     38962 MEMB     313      QMPE     H15X     HAL3     0.900000E-01   1.00800           0
     38963 MEMB     313      QMPE     H15Y     HAL3     0.900000E-01   1.00800           0
     38964 MEMB     313      QMPE     H15Z     HAL3     0.900000E-01   1.00800           0
     38965 MEMB     314      QMPE     N        NH3L    -0.300000       14.0070           0
     38966 MEMB     314      QMPE     HN1      HCL      0.330000       1.00800           0
     38967 MEMB     314      QMPE     HN2      HCL      0.330000       1.00800           0
     38968 MEMB     314      QMPE     HN3      HCL      0.330000       1.00800           0
     38969 MEMB     314      QMPE     C12      CTL2     0.130000       12.0110           0
     38970 MEMB     314      QMPE     H12A     HAL2     0.900000E-01   1.00800           0
     38971 MEMB     314      QMPE     H12B     HAL2     0.900000E-01   1.00800           0
     38972 MEMB     314      QMPE     C11      CTL2    -0.800000E-01   12.0110           0
     38973 MEMB     314      QMPE     H11A     HAL2     0.900000E-01   1.00800           0
     38974 MEMB     314      QMPE     H11B     HAL2     0.900000E-01   1.00800           0
     38975 MEMB     314      QMPE     P        PL        1.50000       30.9740           0
     38976 MEMB     314      QMPE     O13      O2L     -0.780000       15.9994           0
     38977 MEMB     314      QMPE     O14      O2L     -0.780000       15.9994           0
     38978 MEMB     314      QMPE     O11      OSLP    -0.570000       15.9994           0
     38979 MEMB     314      QMPE     O12      OSLP    -0.570000       15.9994           0
     38980 MEMB     314      QMPE     C1       CTL2    -0.800000E-01   12.0110           0
     38981 MEMB     314      QMPE     HA       HAL2     0.900000E-01   1.00800           0
     38982 MEMB     314      QMPE     HB       HAL2     0.900000E-01   1.00800           0
     38983 MEMB     314      QMPE     C2       CTL1     0.170000       12.0110           0
     38984 MEMB     314      QMPE     HS       HAL1     0.900000E-01   1.00800           0
     38985 MEMB     314      QMPE     O21      OSL     -0.490000       15.9994           0
     38986 MEMB     314      QMPE     C21      CL       0.900000       12.0110           0
     38987 MEMB     314      QMPE     O22      OBL     -0.630000       15.9994           0
     38988 MEMB     314      QMPE     C22      CTL2    -0.220000       12.0110           0
     38989 MEMB     314      QMPE     H2R      HAL2     0.900000E-01   1.00800           0
     38990 MEMB     314      QMPE     H2S      HAL2     0.900000E-01   1.00800           0
     38991 MEMB     314      QMPE     C3       CTL2     0.800000E-01   12.0110           0
     38992 MEMB     314      QMPE     HX       HAL2     0.900000E-01   1.00800           0
     38993 MEMB     314      QMPE     HY       HAL2     0.900000E-01   1.00800           0
     38994 MEMB     314      QMPE     O31      OSL     -0.490000       15.9994           0
     38995 MEMB     314      QMPE     C31      CL       0.900000       12.0110           0
     38996 MEMB     314      QMPE     O32      OBL     -0.630000       15.9994           0
     38997 MEMB     314      QMPE     C32      CTL2    -0.220000       12.0110           0
     38998 MEMB     314      QMPE     H2X      HAL2     0.900000E-01   1.00800           0
     38999 MEMB     314      QMPE     H2Y      HAL2     0.900000E-01   1.00800           0
     39000 MEMB     314      QMPE     C23      CTL2    -0.180000       12.0110           0
     39001 MEMB     314      QMPE     H3R      HAL2     0.900000E-01   1.00800           0
     39002 MEMB     314      QMPE     H3S      HAL2     0.900000E-01   1.00800           0
     39003 MEMB     314      QMPE     C24      CTL2    -0.180000       12.0110           0
     39004 MEMB     314      QMPE     H4R      HAL2     0.900000E-01   1.00800           0
     39005 MEMB     314      QMPE     H4S      HAL2     0.900000E-01   1.00800           0
     39006 MEMB     314      QMPE     C25      CTL2    -0.180000       12.0110           0
     39007 MEMB     314      QMPE     H5R      HAL2     0.900000E-01   1.00800           0
     39008 MEMB     314      QMPE     H5S      HAL2     0.900000E-01   1.00800           0
     39009 MEMB     314      QMPE     C26      CTL2    -0.180000       12.0110           0
     39010 MEMB     314      QMPE     H6R      HAL2     0.900000E-01   1.00800           0
     39011 MEMB     314      QMPE     H6S      HAL2     0.900000E-01   1.00800           0
     39012 MEMB     314      QMPE     C27      CTL2    -0.180000       12.0110           0
     39013 MEMB     314      QMPE     H7R      HAL2     0.900000E-01   1.00800           0
     39014 MEMB     314      QMPE     H7S      HAL2     0.900000E-01   1.00800           0
     39015 MEMB     314      QMPE     C28      CTL2    -0.180000       12.0110           0
     39016 MEMB     314      QMPE     H8R      HAL2     0.900000E-01   1.00800           0
     39017 MEMB     314      QMPE     H8S      HAL2     0.900000E-01   1.00800           0
     39018 MEMB     314      QMPE     C29      CG3RC1  -0.900000E-01   12.0110           0
     39019 MEMB     314      QMPE     H9R      HGA1     0.900000E-01   1.00800           0
     39020 MEMB     314      QMPE     C217     CG3C31  -0.180000       12.0110           0
     39021 MEMB     314      QMPE     H17R     HGA2     0.900000E-01   1.00800           0
     39022 MEMB     314      QMPE     H17S     HGA2     0.900000E-01   1.00800           0
     39023 MEMB     314      QMPE     C210     CG3RC1  -0.900000E-01   12.0110           0
     39024 MEMB     314      QMPE     H10R     HGA1     0.900000E-01   1.00800           0
     39025 MEMB     314      QMPE     C211     CTL2    -0.180000       12.0110           0
     39026 MEMB     314      QMPE     H11R     HAL2     0.900000E-01   1.00800           0
     39027 MEMB     314      QMPE     H11S     HAL2     0.900000E-01   1.00800           0
     39028 MEMB     314      QMPE     C212     CTL2    -0.180000       12.0110           0
     39029 MEMB     314      QMPE     H12R     HAL2     0.900000E-01   1.00800           0
     39030 MEMB     314      QMPE     H12S     HAL2     0.900000E-01   1.00800           0
     39031 MEMB     314      QMPE     C213     CTL2    -0.180000       12.0110           0
     39032 MEMB     314      QMPE     H13R     HAL2     0.900000E-01   1.00800           0
     39033 MEMB     314      QMPE     H13S     HAL2     0.900000E-01   1.00800           0
     39034 MEMB     314      QMPE     C214     CTL2    -0.180000       12.0110           0
     39035 MEMB     314      QMPE     H14R     HAL2     0.900000E-01   1.00800           0
     39036 MEMB     314      QMPE     H14S     HAL2     0.900000E-01   1.00800           0
     39037 MEMB     314      QMPE     C215     CTL2    -0.180000       12.0110           0
     39038 MEMB     314      QMPE     H15R     HAL2     0.900000E-01   1.00800           0
     39039 MEMB     314      QMPE     H15S     HAL2     0.900000E-01   1.00800           0
     39040 MEMB     314      QMPE     C216     CTL3    -0.270000       12.0110           0
     39041 MEMB     314      QMPE     H16R     HAL3     0.900000E-01   1.00800           0
     39042 MEMB     314      QMPE     H16S     HAL3     0.900000E-01   1.00800           0
     39043 MEMB     314      QMPE     H16T     HAL3     0.900000E-01   1.00800           0
     39044 MEMB     314      QMPE     C33      CTL2    -0.180000       12.0110           0
     39045 MEMB     314      QMPE     H3X      HAL2     0.900000E-01   1.00800           0
     39046 MEMB     314      QMPE     H3Y      HAL2     0.900000E-01   1.00800           0
     39047 MEMB     314      QMPE     C34      CTL2    -0.180000       12.0110           0
     39048 MEMB     314      QMPE     H4X      HAL2     0.900000E-01   1.00800           0
     39049 MEMB     314      QMPE     H4Y      HAL2     0.900000E-01   1.00800           0
     39050 MEMB     314      QMPE     C35      CTL2    -0.180000       12.0110           0
     39051 MEMB     314      QMPE     H5X      HAL2     0.900000E-01   1.00800           0
     39052 MEMB     314      QMPE     H5Y      HAL2     0.900000E-01   1.00800           0
     39053 MEMB     314      QMPE     C36      CTL2    -0.180000       12.0110           0
     39054 MEMB     314      QMPE     H6X      HAL2     0.900000E-01   1.00800           0
     39055 MEMB     314      QMPE     H6Y      HAL2     0.900000E-01   1.00800           0
     39056 MEMB     314      QMPE     C37      CTL2    -0.180000       12.0110           0
     39057 MEMB     314      QMPE     H7X      HAL2     0.900000E-01   1.00800           0
     39058 MEMB     314      QMPE     H7Y      HAL2     0.900000E-01   1.00800           0
     39059 MEMB     314      QMPE     C38      CTL2    -0.180000       12.0110           0
     39060 MEMB     314      QMPE     H8X      HAL2     0.900000E-01   1.00800           0
     39061 MEMB     314      QMPE     H8Y      HAL2     0.900000E-01   1.00800           0
     39062 MEMB     314      QMPE     C39      CTL2    -0.180000       12.0110           0
     39063 MEMB     314      QMPE     H9X      HAL2     0.900000E-01   1.00800           0
     39064 MEMB     314      QMPE     H9Y      HAL2     0.900000E-01   1.00800           0
     39065 MEMB     314      QMPE     C310     CTL2    -0.180000       12.0110           0
     39066 MEMB     314      QMPE     H10X     HAL2     0.900000E-01   1.00800           0
     39067 MEMB     314      QMPE     H10Y     HAL2     0.900000E-01   1.00800           0
     39068 MEMB     314      QMPE     C311     CTL2    -0.180000       12.0110           0
     39069 MEMB     314      QMPE     H11X     HAL2     0.900000E-01   1.00800           0
     39070 MEMB     314      QMPE     H11Y     HAL2     0.900000E-01   1.00800           0
     39071 MEMB     314      QMPE     C312     CTL2    -0.180000       12.0110           0
     39072 MEMB     314      QMPE     H12X     HAL2     0.900000E-01   1.00800           0
     39073 MEMB     314      QMPE     H12Y     HAL2     0.900000E-01   1.00800           0
     39074 MEMB     314      QMPE     C313     CTL2    -0.180000       12.0110           0
     39075 MEMB     314      QMPE     H13X     HAL2     0.900000E-01   1.00800           0
     39076 MEMB     314      QMPE     H13Y     HAL2     0.900000E-01   1.00800           0
     39077 MEMB     314      QMPE     C314     CTL2    -0.180000       12.0110           0
     39078 MEMB     314      QMPE     H14X     HAL2     0.900000E-01   1.00800           0
     39079 MEMB     314      QMPE     H14Y     HAL2     0.900000E-01   1.00800           0
     39080 MEMB     314      QMPE     C315     CTL3    -0.270000       12.0110           0
     39081 MEMB     314      QMPE     H15X     HAL3     0.900000E-01   1.00800           0
     39082 MEMB     314      QMPE     H15Y     HAL3     0.900000E-01   1.00800           0
     39083 MEMB     314      QMPE     H15Z     HAL3     0.900000E-01   1.00800           0
     39084 MEMB     315      POPE     N        NH3L    -0.300000       14.0070           0
     39085 MEMB     315      POPE     HN1      HCL      0.330000       1.00800           0
     39086 MEMB     315      POPE     HN2      HCL      0.330000       1.00800           0
     39087 MEMB     315      POPE     HN3      HCL      0.330000       1.00800           0
     39088 MEMB     315      POPE     C12      CTL2     0.130000       12.0110           0
     39089 MEMB     315      POPE     H12A     HAL2     0.900000E-01   1.00800           0
     39090 MEMB     315      POPE     H12B     HAL2     0.900000E-01   1.00800           0
     39091 MEMB     315      POPE     C11      CTL2    -0.800000E-01   12.0110           0
     39092 MEMB     315      POPE     H11A     HAL2     0.900000E-01   1.00800           0
     39093 MEMB     315      POPE     H11B     HAL2     0.900000E-01   1.00800           0
     39094 MEMB     315      POPE     P        PL        1.50000       30.9740           0
     39095 MEMB     315      POPE     O13      O2L     -0.780000       15.9994           0
     39096 MEMB     315      POPE     O14      O2L     -0.780000       15.9994           0
     39097 MEMB     315      POPE     O11      OSLP    -0.570000       15.9994           0
     39098 MEMB     315      POPE     O12      OSLP    -0.570000       15.9994           0
     39099 MEMB     315      POPE     C1       CTL2    -0.800000E-01   12.0110           0
     39100 MEMB     315      POPE     HA       HAL2     0.900000E-01   1.00800           0
     39101 MEMB     315      POPE     HB       HAL2     0.900000E-01   1.00800           0
     39102 MEMB     315      POPE     C2       CTL1     0.170000       12.0110           0
     39103 MEMB     315      POPE     HS       HAL1     0.900000E-01   1.00800           0
     39104 MEMB     315      POPE     O21      OSL     -0.490000       15.9994           0
     39105 MEMB     315      POPE     C21      CL       0.900000       12.0110           0
     39106 MEMB     315      POPE     O22      OBL     -0.630000       15.9994           0
     39107 MEMB     315      POPE     C22      CTL2    -0.220000       12.0110           0
     39108 MEMB     315      POPE     H2R      HAL2     0.900000E-01   1.00800           0
     39109 MEMB     315      POPE     H2S      HAL2     0.900000E-01   1.00800           0
     39110 MEMB     315      POPE     C3       CTL2     0.800000E-01   12.0110           0
     39111 MEMB     315      POPE     HX       HAL2     0.900000E-01   1.00800           0
     39112 MEMB     315      POPE     HY       HAL2     0.900000E-01   1.00800           0
     39113 MEMB     315      POPE     O31      OSL     -0.490000       15.9994           0
     39114 MEMB     315      POPE     C31      CL       0.900000       12.0110           0
     39115 MEMB     315      POPE     O32      OBL     -0.630000       15.9994           0
     39116 MEMB     315      POPE     C32      CTL2    -0.220000       12.0110           0
     39117 MEMB     315      POPE     H2X      HAL2     0.900000E-01   1.00800           0
     39118 MEMB     315      POPE     H2Y      HAL2     0.900000E-01   1.00800           0
     39119 MEMB     315      POPE     C23      CTL2    -0.180000       12.0110           0
     39120 MEMB     315      POPE     H3R      HAL2     0.900000E-01   1.00800           0
     39121 MEMB     315      POPE     H3S      HAL2     0.900000E-01   1.00800           0
     39122 MEMB     315      POPE     C24      CTL2    -0.180000       12.0110           0
     39123 MEMB     315      POPE     H4R      HAL2     0.900000E-01   1.00800           0
     39124 MEMB     315      POPE     H4S      HAL2     0.900000E-01   1.00800           0
     39125 MEMB     315      POPE     C25      CTL2    -0.180000       12.0110           0
     39126 MEMB     315      POPE     H5R      HAL2     0.900000E-01   1.00800           0
     39127 MEMB     315      POPE     H5S      HAL2     0.900000E-01   1.00800           0
     39128 MEMB     315      POPE     C26      CTL2    -0.180000       12.0110           0
     39129 MEMB     315      POPE     H6R      HAL2     0.900000E-01   1.00800           0
     39130 MEMB     315      POPE     H6S      HAL2     0.900000E-01   1.00800           0
     39131 MEMB     315      POPE     C27      CTL2    -0.180000       12.0110           0
     39132 MEMB     315      POPE     H7R      HAL2     0.900000E-01   1.00800           0
     39133 MEMB     315      POPE     H7S      HAL2     0.900000E-01   1.00800           0
     39134 MEMB     315      POPE     C28      CTL2    -0.180000       12.0110           0
     39135 MEMB     315      POPE     H8R      HAL2     0.900000E-01   1.00800           0
     39136 MEMB     315      POPE     H8S      HAL2     0.900000E-01   1.00800           0
     39137 MEMB     315      POPE     C29      CEL1    -0.150000       12.0110           0
     39138 MEMB     315      POPE     H91      HEL1     0.150000       1.00800           0
     39139 MEMB     315      POPE     C210     CEL1    -0.150000       12.0110           0
     39140 MEMB     315      POPE     H101     HEL1     0.150000       1.00800           0
     39141 MEMB     315      POPE     C211     CTL2    -0.180000       12.0110           0
     39142 MEMB     315      POPE     H11R     HAL2     0.900000E-01   1.00800           0
     39143 MEMB     315      POPE     H11S     HAL2     0.900000E-01   1.00800           0
     39144 MEMB     315      POPE     C212     CTL2    -0.180000       12.0110           0
     39145 MEMB     315      POPE     H12R     HAL2     0.900000E-01   1.00800           0
     39146 MEMB     315      POPE     H12S     HAL2     0.900000E-01   1.00800           0
     39147 MEMB     315      POPE     C213     CTL2    -0.180000       12.0110           0
     39148 MEMB     315      POPE     H13R     HAL2     0.900000E-01   1.00800           0
     39149 MEMB     315      POPE     H13S     HAL2     0.900000E-01   1.00800           0
     39150 MEMB     315      POPE     C214     CTL2    -0.180000       12.0110           0
     39151 MEMB     315      POPE     H14R     HAL2     0.900000E-01   1.00800           0
     39152 MEMB     315      POPE     H14S     HAL2     0.900000E-01   1.00800           0
     39153 MEMB     315      POPE     C215     CTL2    -0.180000       12.0110           0
     39154 MEMB     315      POPE     H15R     HAL2     0.900000E-01   1.00800           0
     39155 MEMB     315      POPE     H15S     HAL2     0.900000E-01   1.00800           0
     39156 MEMB     315      POPE     C216     CTL2    -0.180000       12.0110           0
     39157 MEMB     315      POPE     H16R     HAL2     0.900000E-01   1.00800           0
     39158 MEMB     315      POPE     H16S     HAL2     0.900000E-01   1.00800           0
     39159 MEMB     315      POPE     C217     CTL2    -0.180000       12.0110           0
     39160 MEMB     315      POPE     H17R     HAL2     0.900000E-01   1.00800           0
     39161 MEMB     315      POPE     H17S     HAL2     0.900000E-01   1.00800           0
     39162 MEMB     315      POPE     C218     CTL3    -0.270000       12.0110           0
     39163 MEMB     315      POPE     H18R     HAL3     0.900000E-01   1.00800           0
     39164 MEMB     315      POPE     H18S     HAL3     0.900000E-01   1.00800           0
     39165 MEMB     315      POPE     H18T     HAL3     0.900000E-01   1.00800           0
     39166 MEMB     315      POPE     C33      CTL2    -0.180000       12.0110           0
     39167 MEMB     315      POPE     H3X      HAL2     0.900000E-01   1.00800           0
     39168 MEMB     315      POPE     H3Y      HAL2     0.900000E-01   1.00800           0
     39169 MEMB     315      POPE     C34      CTL2    -0.180000       12.0110           0
     39170 MEMB     315      POPE     H4X      HAL2     0.900000E-01   1.00800           0
     39171 MEMB     315      POPE     H4Y      HAL2     0.900000E-01   1.00800           0
     39172 MEMB     315      POPE     C35      CTL2    -0.180000       12.0110           0
     39173 MEMB     315      POPE     H5X      HAL2     0.900000E-01   1.00800           0
     39174 MEMB     315      POPE     H5Y      HAL2     0.900000E-01   1.00800           0
     39175 MEMB     315      POPE     C36      CTL2    -0.180000       12.0110           0
     39176 MEMB     315      POPE     H6X      HAL2     0.900000E-01   1.00800           0
     39177 MEMB     315      POPE     H6Y      HAL2     0.900000E-01   1.00800           0
     39178 MEMB     315      POPE     C37      CTL2    -0.180000       12.0110           0
     39179 MEMB     315      POPE     H7X      HAL2     0.900000E-01   1.00800           0
     39180 MEMB     315      POPE     H7Y      HAL2     0.900000E-01   1.00800           0
     39181 MEMB     315      POPE     C38      CTL2    -0.180000       12.0110           0
     39182 MEMB     315      POPE     H8X      HAL2     0.900000E-01   1.00800           0
     39183 MEMB     315      POPE     H8Y      HAL2     0.900000E-01   1.00800           0
     39184 MEMB     315      POPE     C39      CTL2    -0.180000       12.0110           0
     39185 MEMB     315      POPE     H9X      HAL2     0.900000E-01   1.00800           0
     39186 MEMB     315      POPE     H9Y      HAL2     0.900000E-01   1.00800           0
     39187 MEMB     315      POPE     C310     CTL2    -0.180000       12.0110           0
     39188 MEMB     315      POPE     H10X     HAL2     0.900000E-01   1.00800           0
     39189 MEMB     315      POPE     H10Y     HAL2     0.900000E-01   1.00800           0
     39190 MEMB     315      POPE     C311     CTL2    -0.180000       12.0110           0
     39191 MEMB     315      POPE     H11X     HAL2     0.900000E-01   1.00800           0
     39192 MEMB     315      POPE     H11Y     HAL2     0.900000E-01   1.00800           0
     39193 MEMB     315      POPE     C312     CTL2    -0.180000       12.0110           0
     39194 MEMB     315      POPE     H12X     HAL2     0.900000E-01   1.00800           0
     39195 MEMB     315      POPE     H12Y     HAL2     0.900000E-01   1.00800           0
     39196 MEMB     315      POPE     C313     CTL2    -0.180000       12.0110           0
     39197 MEMB     315      POPE     H13X     HAL2     0.900000E-01   1.00800           0
     39198 MEMB     315      POPE     H13Y     HAL2     0.900000E-01   1.00800           0
     39199 MEMB     315      POPE     C314     CTL2    -0.180000       12.0110           0
     39200 MEMB     315      POPE     H14X     HAL2     0.900000E-01   1.00800           0
     39201 MEMB     315      POPE     H14Y     HAL2     0.900000E-01   1.00800           0
     39202 MEMB     315      POPE     C315     CTL2    -0.180000       12.0110           0
     39203 MEMB     315      POPE     H15X     HAL2     0.900000E-01   1.00800           0
     39204 MEMB     315      POPE     H15Y     HAL2     0.900000E-01   1.00800           0
     39205 MEMB     315      POPE     C316     CTL3    -0.270000       12.0110           0
     39206 MEMB     315      POPE     H16X     HAL3     0.900000E-01   1.00800           0
     39207 MEMB     315      POPE     H16Y     HAL3     0.900000E-01   1.00800           0
     39208 MEMB     315      POPE     H16Z     HAL3     0.900000E-01   1.00800           0
     39209 MEMB     316      PMPE     N        NH3L    -0.300000       14.0070           0
     39210 MEMB     316      PMPE     HN1      HCL      0.330000       1.00800           0
     39211 MEMB     316      PMPE     HN2      HCL      0.330000       1.00800           0
     39212 MEMB     316      PMPE     HN3      HCL      0.330000       1.00800           0
     39213 MEMB     316      PMPE     C12      CTL2     0.130000       12.0110           0
     39214 MEMB     316      PMPE     H12A     HAL2     0.900000E-01   1.00800           0
     39215 MEMB     316      PMPE     H12B     HAL2     0.900000E-01   1.00800           0
     39216 MEMB     316      PMPE     C11      CTL2    -0.800000E-01   12.0110           0
     39217 MEMB     316      PMPE     H11A     HAL2     0.900000E-01   1.00800           0
     39218 MEMB     316      PMPE     H11B     HAL2     0.900000E-01   1.00800           0
     39219 MEMB     316      PMPE     P        PL        1.50000       30.9740           0
     39220 MEMB     316      PMPE     O13      O2L     -0.780000       15.9994           0
     39221 MEMB     316      PMPE     O14      O2L     -0.780000       15.9994           0
     39222 MEMB     316      PMPE     O11      OSLP    -0.570000       15.9994           0
     39223 MEMB     316      PMPE     O12      OSLP    -0.570000       15.9994           0
     39224 MEMB     316      PMPE     C1       CTL2    -0.800000E-01   12.0110           0
     39225 MEMB     316      PMPE     HA       HAL2     0.900000E-01   1.00800           0
     39226 MEMB     316      PMPE     HB       HAL2     0.900000E-01   1.00800           0
     39227 MEMB     316      PMPE     C2       CTL1     0.170000       12.0110           0
     39228 MEMB     316      PMPE     HS       HAL1     0.900000E-01   1.00800           0
     39229 MEMB     316      PMPE     O21      OSL     -0.490000       15.9994           0
     39230 MEMB     316      PMPE     C21      CL       0.900000       12.0110           0
     39231 MEMB     316      PMPE     O22      OBL     -0.630000       15.9994           0
     39232 MEMB     316      PMPE     C22      CTL2    -0.220000       12.0110           0
     39233 MEMB     316      PMPE     H2R      HAL2     0.900000E-01   1.00800           0
     39234 MEMB     316      PMPE     H2S      HAL2     0.900000E-01   1.00800           0
     39235 MEMB     316      PMPE     C3       CTL2     0.800000E-01   12.0110           0
     39236 MEMB     316      PMPE     HX       HAL2     0.900000E-01   1.00800           0
     39237 MEMB     316      PMPE     HY       HAL2     0.900000E-01   1.00800           0
     39238 MEMB     316      PMPE     O31      OSL     -0.490000       15.9994           0
     39239 MEMB     316      PMPE     C31      CL       0.900000       12.0110           0
     39240 MEMB     316      PMPE     O32      OBL     -0.630000       15.9994           0
     39241 MEMB     316      PMPE     C32      CTL2    -0.220000       12.0110           0
     39242 MEMB     316      PMPE     H2X      HAL2     0.900000E-01   1.00800           0
     39243 MEMB     316      PMPE     H2Y      HAL2     0.900000E-01   1.00800           0
     39244 MEMB     316      PMPE     C23      CTL2    -0.180000       12.0110           0
     39245 MEMB     316      PMPE     H3R      HAL2     0.900000E-01   1.00800           0
     39246 MEMB     316      PMPE     H3S      HAL2     0.900000E-01   1.00800           0
     39247 MEMB     316      PMPE     C24      CTL2    -0.180000       12.0110           0
     39248 MEMB     316      PMPE     H4R      HAL2     0.900000E-01   1.00800           0
     39249 MEMB     316      PMPE     H4S      HAL2     0.900000E-01   1.00800           0
     39250 MEMB     316      PMPE     C25      CTL2    -0.180000       12.0110           0
     39251 MEMB     316      PMPE     H5R      HAL2     0.900000E-01   1.00800           0
     39252 MEMB     316      PMPE     H5S      HAL2     0.900000E-01   1.00800           0
     39253 MEMB     316      PMPE     C26      CTL2    -0.180000       12.0110           0
     39254 MEMB     316      PMPE     H6R      HAL2     0.900000E-01   1.00800           0
     39255 MEMB     316      PMPE     H6S      HAL2     0.900000E-01   1.00800           0
     39256 MEMB     316      PMPE     C27      CTL2    -0.180000       12.0110           0
     39257 MEMB     316      PMPE     H7R      HAL2     0.900000E-01   1.00800           0
     39258 MEMB     316      PMPE     H7S      HAL2     0.900000E-01   1.00800           0
     39259 MEMB     316      PMPE     C28      CTL2    -0.180000       12.0110           0
     39260 MEMB     316      PMPE     H8R      HAL2     0.900000E-01   1.00800           0
     39261 MEMB     316      PMPE     H8S      HAL2     0.900000E-01   1.00800           0
     39262 MEMB     316      PMPE     C29      CG3RC1  -0.900000E-01   12.0110           0
     39263 MEMB     316      PMPE     H9R      HGA1     0.900000E-01   1.00800           0
     39264 MEMB     316      PMPE     C217     CG3C31  -0.180000       12.0110           0
     39265 MEMB     316      PMPE     H17R     HGA2     0.900000E-01   1.00800           0
     39266 MEMB     316      PMPE     H17S     HGA2     0.900000E-01   1.00800           0
     39267 MEMB     316      PMPE     C210     CG3RC1  -0.900000E-01   12.0110           0
     39268 MEMB     316      PMPE     H10R     HGA1     0.900000E-01   1.00800           0
     39269 MEMB     316      PMPE     C211     CTL2    -0.180000       12.0110           0
     39270 MEMB     316      PMPE     H11R     HAL2     0.900000E-01   1.00800           0
     39271 MEMB     316      PMPE     H11S     HAL2     0.900000E-01   1.00800           0
     39272 MEMB     316      PMPE     C212     CTL2    -0.180000       12.0110           0
     39273 MEMB     316      PMPE     H12R     HAL2     0.900000E-01   1.00800           0
     39274 MEMB     316      PMPE     H12S     HAL2     0.900000E-01   1.00800           0
     39275 MEMB     316      PMPE     C213     CTL2    -0.180000       12.0110           0
     39276 MEMB     316      PMPE     H13R     HAL2     0.900000E-01   1.00800           0
     39277 MEMB     316      PMPE     H13S     HAL2     0.900000E-01   1.00800           0
     39278 MEMB     316      PMPE     C214     CTL2    -0.180000       12.0110           0
     39279 MEMB     316      PMPE     H14R     HAL2     0.900000E-01   1.00800           0
     39280 MEMB     316      PMPE     H14S     HAL2     0.900000E-01   1.00800           0
     39281 MEMB     316      PMPE     C215     CTL2    -0.180000       12.0110           0
     39282 MEMB     316      PMPE     H15R     HAL2     0.900000E-01   1.00800           0
     39283 MEMB     316      PMPE     H15S     HAL2     0.900000E-01   1.00800           0
     39284 MEMB     316      PMPE     C216     CTL3    -0.270000       12.0110           0
     39285 MEMB     316      PMPE     H16R     HAL3     0.900000E-01   1.00800           0
     39286 MEMB     316      PMPE     H16S     HAL3     0.900000E-01   1.00800           0
     39287 MEMB     316      PMPE     H16T     HAL3     0.900000E-01   1.00800           0
     39288 MEMB     316      PMPE     C33      CTL2    -0.180000       12.0110           0
     39289 MEMB     316      PMPE     H3X      HAL2     0.900000E-01   1.00800           0
     39290 MEMB     316      PMPE     H3Y      HAL2     0.900000E-01   1.00800           0
     39291 MEMB     316      PMPE     C34      CTL2    -0.180000       12.0110           0
     39292 MEMB     316      PMPE     H4X      HAL2     0.900000E-01   1.00800           0
     39293 MEMB     316      PMPE     H4Y      HAL2     0.900000E-01   1.00800           0
     39294 MEMB     316      PMPE     C35      CTL2    -0.180000       12.0110           0
     39295 MEMB     316      PMPE     H5X      HAL2     0.900000E-01   1.00800           0
     39296 MEMB     316      PMPE     H5Y      HAL2     0.900000E-01   1.00800           0
     39297 MEMB     316      PMPE     C36      CTL2    -0.180000       12.0110           0
     39298 MEMB     316      PMPE     H6X      HAL2     0.900000E-01   1.00800           0
     39299 MEMB     316      PMPE     H6Y      HAL2     0.900000E-01   1.00800           0
     39300 MEMB     316      PMPE     C37      CTL2    -0.180000       12.0110           0
     39301 MEMB     316      PMPE     H7X      HAL2     0.900000E-01   1.00800           0
     39302 MEMB     316      PMPE     H7Y      HAL2     0.900000E-01   1.00800           0
     39303 MEMB     316      PMPE     C38      CTL2    -0.180000       12.0110           0
     39304 MEMB     316      PMPE     H8X      HAL2     0.900000E-01   1.00800           0
     39305 MEMB     316      PMPE     H8Y      HAL2     0.900000E-01   1.00800           0
     39306 MEMB     316      PMPE     C39      CTL2    -0.180000       12.0110           0
     39307 MEMB     316      PMPE     H9X      HAL2     0.900000E-01   1.00800           0
     39308 MEMB     316      PMPE     H9Y      HAL2     0.900000E-01   1.00800           0
     39309 MEMB     316      PMPE     C310     CTL2    -0.180000       12.0110           0
     39310 MEMB     316      PMPE     H10X     HAL2     0.900000E-01   1.00800           0
     39311 MEMB     316      PMPE     H10Y     HAL2     0.900000E-01   1.00800           0
     39312 MEMB     316      PMPE     C311     CTL2    -0.180000       12.0110           0
     39313 MEMB     316      PMPE     H11X     HAL2     0.900000E-01   1.00800           0
     39314 MEMB     316      PMPE     H11Y     HAL2     0.900000E-01   1.00800           0
     39315 MEMB     316      PMPE     C312     CTL2    -0.180000       12.0110           0
     39316 MEMB     316      PMPE     H12X     HAL2     0.900000E-01   1.00800           0
     39317 MEMB     316      PMPE     H12Y     HAL2     0.900000E-01   1.00800           0
     39318 MEMB     316      PMPE     C313     CTL2    -0.180000       12.0110           0
     39319 MEMB     316      PMPE     H13X     HAL2     0.900000E-01   1.00800           0
     39320 MEMB     316      PMPE     H13Y     HAL2     0.900000E-01   1.00800           0
     39321 MEMB     316      PMPE     C314     CTL2    -0.180000       12.0110           0
     39322 MEMB     316      PMPE     H14X     HAL2     0.900000E-01   1.00800           0
     39323 MEMB     316      PMPE     H14Y     HAL2     0.900000E-01   1.00800           0
     39324 MEMB     316      PMPE     C315     CTL2    -0.180000       12.0110           0
     39325 MEMB     316      PMPE     H15X     HAL2     0.900000E-01   1.00800           0
     39326 MEMB     316      PMPE     H15Y     HAL2     0.900000E-01   1.00800           0
     39327 MEMB     316      PMPE     C316     CTL3    -0.270000       12.0110           0
     39328 MEMB     316      PMPE     H16X     HAL3     0.900000E-01   1.00800           0
     39329 MEMB     316      PMPE     H16Y     HAL3     0.900000E-01   1.00800           0
     39330 MEMB     316      PMPE     H16Z     HAL3     0.900000E-01   1.00800           0
     39331 MEMB     317      PMPG     C13      CTL2     0.500000E-01   12.0110           0
     39332 MEMB     317      PMPG     H13A     HAL2     0.900000E-01   1.00800           0
     39333 MEMB     317      PMPG     H13B     HAL2     0.900000E-01   1.00800           0
     39334 MEMB     317      PMPG     OC3      OHL     -0.660000       15.9994           0
     39335 MEMB     317      PMPG     HO3      HOL      0.430000       1.00800           0
     39336 MEMB     317      PMPG     C12      CTL1     0.140000       12.0110           0
     39337 MEMB     317      PMPG     H12A     HAL1     0.900000E-01   1.00800           0
     39338 MEMB     317      PMPG     OC2      OHL     -0.660000       15.9994           0
     39339 MEMB     317      PMPG     HO2      HOL      0.430000       1.00800           0
     39340 MEMB     317      PMPG     C11      CTL2    -0.800000E-01   12.0110           0
     39341 MEMB     317      PMPG     H11A     HAL2     0.900000E-01   1.00800           0
     39342 MEMB     317      PMPG     H11B     HAL2     0.900000E-01   1.00800           0
     39343 MEMB     317      PMPG     P        PL        1.50000       30.9740           0
     39344 MEMB     317      PMPG     O13      O2L     -0.780000       15.9994           0
     39345 MEMB     317      PMPG     O14      O2L     -0.780000       15.9994           0
     39346 MEMB     317      PMPG     O11      OSLP    -0.570000       15.9994           0
     39347 MEMB     317      PMPG     O12      OSLP    -0.570000       15.9994           0
     39348 MEMB     317      PMPG     C1       CTL2    -0.800000E-01   12.0110           0
     39349 MEMB     317      PMPG     HA       HAL2     0.900000E-01   1.00800           0
     39350 MEMB     317      PMPG     HB       HAL2     0.900000E-01   1.00800           0
     39351 MEMB     317      PMPG     C2       CTL1     0.170000       12.0110           0
     39352 MEMB     317      PMPG     HS       HAL1     0.900000E-01   1.00800           0
     39353 MEMB     317      PMPG     O21      OSL     -0.490000       15.9994           0
     39354 MEMB     317      PMPG     C21      CL       0.900000       12.0110           0
     39355 MEMB     317      PMPG     O22      OBL     -0.630000       15.9994           0
     39356 MEMB     317      PMPG     C22      CTL2    -0.220000       12.0110           0
     39357 MEMB     317      PMPG     H2R      HAL2     0.900000E-01   1.00800           0
     39358 MEMB     317      PMPG     H2S      HAL2     0.900000E-01   1.00800           0
     39359 MEMB     317      PMPG     C3       CTL2     0.800000E-01   12.0110           0
     39360 MEMB     317      PMPG     HX       HAL2     0.900000E-01   1.00800           0
     39361 MEMB     317      PMPG     HY       HAL2     0.900000E-01   1.00800           0
     39362 MEMB     317      PMPG     O31      OSL     -0.490000       15.9994           0
     39363 MEMB     317      PMPG     C31      CL       0.900000       12.0110           0
     39364 MEMB     317      PMPG     O32      OBL     -0.630000       15.9994           0
     39365 MEMB     317      PMPG     C32      CTL2    -0.220000       12.0110           0
     39366 MEMB     317      PMPG     H2X      HAL2     0.900000E-01   1.00800           0
     39367 MEMB     317      PMPG     H2Y      HAL2     0.900000E-01   1.00800           0
     39368 MEMB     317      PMPG     C23      CTL2    -0.180000       12.0110           0
     39369 MEMB     317      PMPG     H3R      HAL2     0.900000E-01   1.00800           0
     39370 MEMB     317      PMPG     H3S      HAL2     0.900000E-01   1.00800           0
     39371 MEMB     317      PMPG     C24      CTL2    -0.180000       12.0110           0
     39372 MEMB     317      PMPG     H4R      HAL2     0.900000E-01   1.00800           0
     39373 MEMB     317      PMPG     H4S      HAL2     0.900000E-01   1.00800           0
     39374 MEMB     317      PMPG     C25      CTL2    -0.180000       12.0110           0
     39375 MEMB     317      PMPG     H5R      HAL2     0.900000E-01   1.00800           0
     39376 MEMB     317      PMPG     H5S      HAL2     0.900000E-01   1.00800           0
     39377 MEMB     317      PMPG     C26      CTL2    -0.180000       12.0110           0
     39378 MEMB     317      PMPG     H6R      HAL2     0.900000E-01   1.00800           0
     39379 MEMB     317      PMPG     H6S      HAL2     0.900000E-01   1.00800           0
     39380 MEMB     317      PMPG     C27      CTL2    -0.180000       12.0110           0
     39381 MEMB     317      PMPG     H7R      HAL2     0.900000E-01   1.00800           0
     39382 MEMB     317      PMPG     H7S      HAL2     0.900000E-01   1.00800           0
     39383 MEMB     317      PMPG     C28      CTL2    -0.180000       12.0110           0
     39384 MEMB     317      PMPG     H8R      HAL2     0.900000E-01   1.00800           0
     39385 MEMB     317      PMPG     H8S      HAL2     0.900000E-01   1.00800           0
     39386 MEMB     317      PMPG     C29      CG3RC1  -0.900000E-01   12.0110           0
     39387 MEMB     317      PMPG     H9R      HGA1     0.900000E-01   1.00800           0
     39388 MEMB     317      PMPG     C217     CG3C31  -0.180000       12.0110           0
     39389 MEMB     317      PMPG     H17R     HGA2     0.900000E-01   1.00800           0
     39390 MEMB     317      PMPG     H17S     HGA2     0.900000E-01   1.00800           0
     39391 MEMB     317      PMPG     C210     CG3RC1  -0.900000E-01   12.0110           0
     39392 MEMB     317      PMPG     H10R     HGA1     0.900000E-01   1.00800           0
     39393 MEMB     317      PMPG     C211     CTL2    -0.180000       12.0110           0
     39394 MEMB     317      PMPG     H11R     HAL2     0.900000E-01   1.00800           0
     39395 MEMB     317      PMPG     H11S     HAL2     0.900000E-01   1.00800           0
     39396 MEMB     317      PMPG     C212     CTL2    -0.180000       12.0110           0
     39397 MEMB     317      PMPG     H12R     HAL2     0.900000E-01   1.00800           0
     39398 MEMB     317      PMPG     H12S     HAL2     0.900000E-01   1.00800           0
     39399 MEMB     317      PMPG     C213     CTL2    -0.180000       12.0110           0
     39400 MEMB     317      PMPG     H13R     HAL2     0.900000E-01   1.00800           0
     39401 MEMB     317      PMPG     H13S     HAL2     0.900000E-01   1.00800           0
     39402 MEMB     317      PMPG     C214     CTL2    -0.180000       12.0110           0
     39403 MEMB     317      PMPG     H14R     HAL2     0.900000E-01   1.00800           0
     39404 MEMB     317      PMPG     H14S     HAL2     0.900000E-01   1.00800           0
     39405 MEMB     317      PMPG     C215     CTL2    -0.180000       12.0110           0
     39406 MEMB     317      PMPG     H15R     HAL2     0.900000E-01   1.00800           0
     39407 MEMB     317      PMPG     H15S     HAL2     0.900000E-01   1.00800           0
     39408 MEMB     317      PMPG     C216     CTL3    -0.270000       12.0110           0
     39409 MEMB     317      PMPG     H16R     HAL3     0.900000E-01   1.00800           0
     39410 MEMB     317      PMPG     H16S     HAL3     0.900000E-01   1.00800           0
     39411 MEMB     317      PMPG     H16T     HAL3     0.900000E-01   1.00800           0
     39412 MEMB     317      PMPG     C33      CTL2    -0.180000       12.0110           0
     39413 MEMB     317      PMPG     H3X      HAL2     0.900000E-01   1.00800           0
     39414 MEMB     317      PMPG     H3Y      HAL2     0.900000E-01   1.00800           0
     39415 MEMB     317      PMPG     C34      CTL2    -0.180000       12.0110           0
     39416 MEMB     317      PMPG     H4X      HAL2     0.900000E-01   1.00800           0
     39417 MEMB     317      PMPG     H4Y      HAL2     0.900000E-01   1.00800           0
     39418 MEMB     317      PMPG     C35      CTL2    -0.180000       12.0110           0
     39419 MEMB     317      PMPG     H5X      HAL2     0.900000E-01   1.00800           0
     39420 MEMB     317      PMPG     H5Y      HAL2     0.900000E-01   1.00800           0
     39421 MEMB     317      PMPG     C36      CTL2    -0.180000       12.0110           0
     39422 MEMB     317      PMPG     H6X      HAL2     0.900000E-01   1.00800           0
     39423 MEMB     317      PMPG     H6Y      HAL2     0.900000E-01   1.00800           0
     39424 MEMB     317      PMPG     C37      CTL2    -0.180000       12.0110           0
     39425 MEMB     317      PMPG     H7X      HAL2     0.900000E-01   1.00800           0
     39426 MEMB     317      PMPG     H7Y      HAL2     0.900000E-01   1.00800           0
     39427 MEMB     317      PMPG     C38      CTL2    -0.180000       12.0110           0
     39428 MEMB     317      PMPG     H8X      HAL2     0.900000E-01   1.00800           0
     39429 MEMB     317      PMPG     H8Y      HAL2     0.900000E-01   1.00800           0
     39430 MEMB     317      PMPG     C39      CTL2    -0.180000       12.0110           0
     39431 MEMB     317      PMPG     H9X      HAL2     0.900000E-01   1.00800           0
     39432 MEMB     317      PMPG     H9Y      HAL2     0.900000E-01   1.00800           0
     39433 MEMB     317      PMPG     C310     CTL2    -0.180000       12.0110           0
     39434 MEMB     317      PMPG     H10X     HAL2     0.900000E-01   1.00800           0
     39435 MEMB     317      PMPG     H10Y     HAL2     0.900000E-01   1.00800           0
     39436 MEMB     317      PMPG     C311     CTL2    -0.180000       12.0110           0
     39437 MEMB     317      PMPG     H11X     HAL2     0.900000E-01   1.00800           0
     39438 MEMB     317      PMPG     H11Y     HAL2     0.900000E-01   1.00800           0
     39439 MEMB     317      PMPG     C312     CTL2    -0.180000       12.0110           0
     39440 MEMB     317      PMPG     H12X     HAL2     0.900000E-01   1.00800           0
     39441 MEMB     317      PMPG     H12Y     HAL2     0.900000E-01   1.00800           0
     39442 MEMB     317      PMPG     C313     CTL2    -0.180000       12.0110           0
     39443 MEMB     317      PMPG     H13X     HAL2     0.900000E-01   1.00800           0
     39444 MEMB     317      PMPG     H13Y     HAL2     0.900000E-01   1.00800           0
     39445 MEMB     317      PMPG     C314     CTL2    -0.180000       12.0110           0
     39446 MEMB     317      PMPG     H14X     HAL2     0.900000E-01   1.00800           0
     39447 MEMB     317      PMPG     H14Y     HAL2     0.900000E-01   1.00800           0
     39448 MEMB     317      PMPG     C315     CTL2    -0.180000       12.0110           0
     39449 MEMB     317      PMPG     H15X     HAL2     0.900000E-01   1.00800           0
     39450 MEMB     317      PMPG     H15Y     HAL2     0.900000E-01   1.00800           0
     39451 MEMB     317      PMPG     C316     CTL3    -0.270000       12.0110           0
     39452 MEMB     317      PMPG     H16X     HAL3     0.900000E-01   1.00800           0
     39453 MEMB     317      PMPG     H16Y     HAL3     0.900000E-01   1.00800           0
     39454 MEMB     317      PMPG     H16Z     HAL3     0.900000E-01   1.00800           0
     39455 MEMB     318      PYPG     C13      CTL2     0.500000E-01   12.0110           0
     39456 MEMB     318      PYPG     H13A     HAL2     0.900000E-01   1.00800           0
     39457 MEMB     318      PYPG     H13B     HAL2     0.900000E-01   1.00800           0
     39458 MEMB     318      PYPG     OC3      OHL     -0.660000       15.9994           0
     39459 MEMB     318      PYPG     HO3      HOL      0.430000       1.00800           0
     39460 MEMB     318      PYPG     C12      CTL1     0.140000       12.0110           0
     39461 MEMB     318      PYPG     H12A     HAL1     0.900000E-01   1.00800           0
     39462 MEMB     318      PYPG     OC2      OHL     -0.660000       15.9994           0
     39463 MEMB     318      PYPG     HO2      HOL      0.430000       1.00800           0
     39464 MEMB     318      PYPG     C11      CTL2    -0.800000E-01   12.0110           0
     39465 MEMB     318      PYPG     H11A     HAL2     0.900000E-01   1.00800           0
     39466 MEMB     318      PYPG     H11B     HAL2     0.900000E-01   1.00800           0
     39467 MEMB     318      PYPG     P        PL        1.50000       30.9740           0
     39468 MEMB     318      PYPG     O13      O2L     -0.780000       15.9994           0
     39469 MEMB     318      PYPG     O14      O2L     -0.780000       15.9994           0
     39470 MEMB     318      PYPG     O11      OSLP    -0.570000       15.9994           0
     39471 MEMB     318      PYPG     O12      OSLP    -0.570000       15.9994           0
     39472 MEMB     318      PYPG     C1       CTL2    -0.800000E-01   12.0110           0
     39473 MEMB     318      PYPG     HA       HAL2     0.900000E-01   1.00800           0
     39474 MEMB     318      PYPG     HB       HAL2     0.900000E-01   1.00800           0
     39475 MEMB     318      PYPG     C2       CTL1     0.170000       12.0110           0
     39476 MEMB     318      PYPG     HS       HAL1     0.900000E-01   1.00800           0
     39477 MEMB     318      PYPG     O21      OSL     -0.490000       15.9994           0
     39478 MEMB     318      PYPG     C21      CL       0.900000       12.0110           0
     39479 MEMB     318      PYPG     O22      OBL     -0.630000       15.9994           0
     39480 MEMB     318      PYPG     C22      CTL2    -0.220000       12.0110           0
     39481 MEMB     318      PYPG     H2R      HAL2     0.900000E-01   1.00800           0
     39482 MEMB     318      PYPG     H2S      HAL2     0.900000E-01   1.00800           0
     39483 MEMB     318      PYPG     C3       CTL2     0.800000E-01   12.0110           0
     39484 MEMB     318      PYPG     HX       HAL2     0.900000E-01   1.00800           0
     39485 MEMB     318      PYPG     HY       HAL2     0.900000E-01   1.00800           0
     39486 MEMB     318      PYPG     O31      OSL     -0.490000       15.9994           0
     39487 MEMB     318      PYPG     C31      CL       0.900000       12.0110           0
     39488 MEMB     318      PYPG     O32      OBL     -0.630000       15.9994           0
     39489 MEMB     318      PYPG     C32      CTL2    -0.220000       12.0110           0
     39490 MEMB     318      PYPG     H2X      HAL2     0.900000E-01   1.00800           0
     39491 MEMB     318      PYPG     H2Y      HAL2     0.900000E-01   1.00800           0
     39492 MEMB     318      PYPG     C23      CTL2    -0.180000       12.0110           0
     39493 MEMB     318      PYPG     H3R      HAL2     0.900000E-01   1.00800           0
     39494 MEMB     318      PYPG     H3S      HAL2     0.900000E-01   1.00800           0
     39495 MEMB     318      PYPG     C24      CTL2    -0.180000       12.0110           0
     39496 MEMB     318      PYPG     H4R      HAL2     0.900000E-01   1.00800           0
     39497 MEMB     318      PYPG     H4S      HAL2     0.900000E-01   1.00800           0
     39498 MEMB     318      PYPG     C25      CTL2    -0.180000       12.0110           0
     39499 MEMB     318      PYPG     H5R      HAL2     0.900000E-01   1.00800           0
     39500 MEMB     318      PYPG     H5S      HAL2     0.900000E-01   1.00800           0
     39501 MEMB     318      PYPG     C26      CTL2    -0.180000       12.0110           0
     39502 MEMB     318      PYPG     H6R      HAL2     0.900000E-01   1.00800           0
     39503 MEMB     318      PYPG     H6S      HAL2     0.900000E-01   1.00800           0
     39504 MEMB     318      PYPG     C27      CTL2    -0.180000       12.0110           0
     39505 MEMB     318      PYPG     H7R      HAL2     0.900000E-01   1.00800           0
     39506 MEMB     318      PYPG     H7S      HAL2     0.900000E-01   1.00800           0
     39507 MEMB     318      PYPG     C28      CTL2    -0.180000       12.0110           0
     39508 MEMB     318      PYPG     H8R      HAL2     0.900000E-01   1.00800           0
     39509 MEMB     318      PYPG     H8S      HAL2     0.900000E-01   1.00800           0
     39510 MEMB     318      PYPG     C29      CEL1    -0.150000       12.0110           0
     39511 MEMB     318      PYPG     H9R      HEL1     0.150000       1.00800           0
     39512 MEMB     318      PYPG     C210     CEL1    -0.150000       12.0110           0
     39513 MEMB     318      PYPG     H10R     HEL1     0.150000       1.00800           0
     39514 MEMB     318      PYPG     C211     CTL2    -0.180000       12.0110           0
     39515 MEMB     318      PYPG     H11R     HAL2     0.900000E-01   1.00800           0
     39516 MEMB     318      PYPG     H11S     HAL2     0.900000E-01   1.00800           0
     39517 MEMB     318      PYPG     C212     CTL2    -0.180000       12.0110           0
     39518 MEMB     318      PYPG     H12R     HAL2     0.900000E-01   1.00800           0
     39519 MEMB     318      PYPG     H12S     HAL2     0.900000E-01   1.00800           0
     39520 MEMB     318      PYPG     C213     CTL2    -0.180000       12.0110           0
     39521 MEMB     318      PYPG     H13R     HAL2     0.900000E-01   1.00800           0
     39522 MEMB     318      PYPG     H13S     HAL2     0.900000E-01   1.00800           0
     39523 MEMB     318      PYPG     C214     CTL2    -0.180000       12.0110           0
     39524 MEMB     318      PYPG     H14R     HAL2     0.900000E-01   1.00800           0
     39525 MEMB     318      PYPG     H14S     HAL2     0.900000E-01   1.00800           0
     39526 MEMB     318      PYPG     C215     CTL2    -0.180000       12.0110           0
     39527 MEMB     318      PYPG     H15R     HAL2     0.900000E-01   1.00800           0
     39528 MEMB     318      PYPG     H15S     HAL2     0.900000E-01   1.00800           0
     39529 MEMB     318      PYPG     C216     CTL3    -0.270000       12.0110           0
     39530 MEMB     318      PYPG     H16R     HAL3     0.900000E-01   1.00800           0
     39531 MEMB     318      PYPG     H16S     HAL3     0.900000E-01   1.00800           0
     39532 MEMB     318      PYPG     H16T     HAL3     0.900000E-01   1.00800           0
     39533 MEMB     318      PYPG     C33      CTL2    -0.180000       12.0110           0
     39534 MEMB     318      PYPG     H3X      HAL2     0.900000E-01   1.00800           0
     39535 MEMB     318      PYPG     H3Y      HAL2     0.900000E-01   1.00800           0
     39536 MEMB     318      PYPG     C34      CTL2    -0.180000       12.0110           0
     39537 MEMB     318      PYPG     H4X      HAL2     0.900000E-01   1.00800           0
     39538 MEMB     318      PYPG     H4Y      HAL2     0.900000E-01   1.00800           0
     39539 MEMB     318      PYPG     C35      CTL2    -0.180000       12.0110           0
     39540 MEMB     318      PYPG     H5X      HAL2     0.900000E-01   1.00800           0
     39541 MEMB     318      PYPG     H5Y      HAL2     0.900000E-01   1.00800           0
     39542 MEMB     318      PYPG     C36      CTL2    -0.180000       12.0110           0
     39543 MEMB     318      PYPG     H6X      HAL2     0.900000E-01   1.00800           0
     39544 MEMB     318      PYPG     H6Y      HAL2     0.900000E-01   1.00800           0
     39545 MEMB     318      PYPG     C37      CTL2    -0.180000       12.0110           0
     39546 MEMB     318      PYPG     H7X      HAL2     0.900000E-01   1.00800           0
     39547 MEMB     318      PYPG     H7Y      HAL2     0.900000E-01   1.00800           0
     39548 MEMB     318      PYPG     C38      CTL2    -0.180000       12.0110           0
     39549 MEMB     318      PYPG     H8X      HAL2     0.900000E-01   1.00800           0
     39550 MEMB     318      PYPG     H8Y      HAL2     0.900000E-01   1.00800           0
     39551 MEMB     318      PYPG     C39      CTL2    -0.180000       12.0110           0
     39552 MEMB     318      PYPG     H9X      HAL2     0.900000E-01   1.00800           0
     39553 MEMB     318      PYPG     H9Y      HAL2     0.900000E-01   1.00800           0
     39554 MEMB     318      PYPG     C310     CTL2    -0.180000       12.0110           0
     39555 MEMB     318      PYPG     H10X     HAL2     0.900000E-01   1.00800           0
     39556 MEMB     318      PYPG     H10Y     HAL2     0.900000E-01   1.00800           0
     39557 MEMB     318      PYPG     C311     CTL2    -0.180000       12.0110           0
     39558 MEMB     318      PYPG     H11X     HAL2     0.900000E-01   1.00800           0
     39559 MEMB     318      PYPG     H11Y     HAL2     0.900000E-01   1.00800           0
     39560 MEMB     318      PYPG     C312     CTL2    -0.180000       12.0110           0
     39561 MEMB     318      PYPG     H12X     HAL2     0.900000E-01   1.00800           0
     39562 MEMB     318      PYPG     H12Y     HAL2     0.900000E-01   1.00800           0
     39563 MEMB     318      PYPG     C313     CTL2    -0.180000       12.0110           0
     39564 MEMB     318      PYPG     H13X     HAL2     0.900000E-01   1.00800           0
     39565 MEMB     318      PYPG     H13Y     HAL2     0.900000E-01   1.00800           0
     39566 MEMB     318      PYPG     C314     CTL2    -0.180000       12.0110           0
     39567 MEMB     318      PYPG     H14X     HAL2     0.900000E-01   1.00800           0
     39568 MEMB     318      PYPG     H14Y     HAL2     0.900000E-01   1.00800           0
     39569 MEMB     318      PYPG     C315     CTL2    -0.180000       12.0110           0
     39570 MEMB     318      PYPG     H15X     HAL2     0.900000E-01   1.00800           0
     39571 MEMB     318      PYPG     H15Y     HAL2     0.900000E-01   1.00800           0
     39572 MEMB     318      PYPG     C316     CTL3    -0.270000       12.0110           0
     39573 MEMB     318      PYPG     H16X     HAL3     0.900000E-01   1.00800           0
     39574 MEMB     318      PYPG     H16Y     HAL3     0.900000E-01   1.00800           0
     39575 MEMB     318      PYPG     H16Z     HAL3     0.900000E-01   1.00800           0
     39576 MEMB     319      PVCL2    C3       CTL2    -0.800000E-01   12.0110           0
     39577 MEMB     319      PVCL2    HG31     HAL2     0.900000E-01   1.00800           0
     39578 MEMB     319      PVCL2    HG32     HAL2     0.900000E-01   1.00800           0
     39579 MEMB     319      PVCL2    P3       PL        1.50000       30.9740           0
     39580 MEMB     319      PVCL2    OP33     O2L     -0.780000       15.9994           0
     39581 MEMB     319      PVCL2    OP34     O2L     -0.780000       15.9994           0
     39582 MEMB     319      PVCL2    OP31     OSLP    -0.570000       15.9994           0
     39583 MEMB     319      PVCL2    OP32     OSLP    -0.570000       15.9994           0
     39584 MEMB     319      PVCL2    C31      CTL2    -0.800000E-01   12.0110           0
     39585 MEMB     319      PVCL2    H31J     HAL2     0.900000E-01   1.00800           0
     39586 MEMB     319      PVCL2    H31K     HAL2     0.900000E-01   1.00800           0
     39587 MEMB     319      PVCL2    C2       CTL1     0.140000       12.0110           0
     39588 MEMB     319      PVCL2    HG22     HAL1     0.900000E-01   1.00800           0
     39589 MEMB     319      PVCL2    OG12     OHL     -0.650000       15.9994           0
     39590 MEMB     319      PVCL2    HO12     HOL      0.420000       1.00800           0
     39591 MEMB     319      PVCL2    C1       CTL2    -0.800000E-01   12.0110           0
     39592 MEMB     319      PVCL2    HG11     HAL2     0.900000E-01   1.00800           0
     39593 MEMB     319      PVCL2    HG12     HAL2     0.900000E-01   1.00800           0
     39594 MEMB     319      PVCL2    P1       PL        1.50000       30.9740           0
     39595 MEMB     319      PVCL2    OP13     O2L     -0.780000       15.9994           0
     39596 MEMB     319      PVCL2    OP14     O2L     -0.780000       15.9994           0
     39597 MEMB     319      PVCL2    OP11     OSLP    -0.570000       15.9994           0
     39598 MEMB     319      PVCL2    OP12     OSLP    -0.570000       15.9994           0
     39599 MEMB     319      PVCL2    C11      CTL2    -0.800000E-01   12.0110           0
     39600 MEMB     319      PVCL2    H11J     HAL2     0.900000E-01   1.00800           0
     39601 MEMB     319      PVCL2    H11K     HAL2     0.900000E-01   1.00800           0
     39602 MEMB     319      PVCL2    C12      CTL1     0.170000       12.0110           0
     39603 MEMB     319      PVCL2    H12J     HAL1     0.900000E-01   1.00800           0
     39604 MEMB     319      PVCL2    O12      OSL     -0.490000       15.9994           0
     39605 MEMB     319      PVCL2    CA1      CL       0.900000       12.0110           0
     39606 MEMB     319      PVCL2    OA1      OBL     -0.630000       15.9994           0
     39607 MEMB     319      PVCL2    CA2      CTL2    -0.220000       12.0110           0
     39608 MEMB     319      PVCL2    H2A      HAL2     0.900000E-01   1.00800           0
     39609 MEMB     319      PVCL2    H2B      HAL2     0.900000E-01   1.00800           0
     39610 MEMB     319      PVCL2    C13      CTL2     0.800000E-01   12.0110           0
     39611 MEMB     319      PVCL2    H13J     HAL2     0.900000E-01   1.00800           0
     39612 MEMB     319      PVCL2    H13K     HAL2     0.900000E-01   1.00800           0
     39613 MEMB     319      PVCL2    O13      OSL     -0.490000       15.9994           0
     39614 MEMB     319      PVCL2    CB1      CL       0.900000       12.0110           0
     39615 MEMB     319      PVCL2    OB1      OBL     -0.630000       15.9994           0
     39616 MEMB     319      PVCL2    CB2      CTL2    -0.220000       12.0110           0
     39617 MEMB     319      PVCL2    H2D      HAL2     0.900000E-01   1.00800           0
     39618 MEMB     319      PVCL2    H2E      HAL2     0.900000E-01   1.00800           0
     39619 MEMB     319      PVCL2    C32      CTL1     0.170000       12.0110           0
     39620 MEMB     319      PVCL2    H32J     HAL1     0.900000E-01   1.00800           0
     39621 MEMB     319      PVCL2    O32      OSL     -0.490000       15.9994           0
     39622 MEMB     319      PVCL2    CC1      CL       0.900000       12.0110           0
     39623 MEMB     319      PVCL2    OC1      OBL     -0.630000       15.9994           0
     39624 MEMB     319      PVCL2    CC2      CTL2    -0.220000       12.0110           0
     39625 MEMB     319      PVCL2    H2R      HAL2     0.900000E-01   1.00800           0
     39626 MEMB     319      PVCL2    H2S      HAL2     0.900000E-01   1.00800           0
     39627 MEMB     319      PVCL2    C33      CTL2     0.800000E-01   12.0110           0
     39628 MEMB     319      PVCL2    H33J     HAL2     0.900000E-01   1.00800           0
     39629 MEMB     319      PVCL2    H33K     HAL2     0.900000E-01   1.00800           0
     39630 MEMB     319      PVCL2    O33      OSL     -0.490000       15.9994           0
     39631 MEMB     319      PVCL2    CD1      CL       0.900000       12.0110           0
     39632 MEMB     319      PVCL2    OD1      OBL     -0.630000       15.9994           0
     39633 MEMB     319      PVCL2    CD2      CTL2    -0.220000       12.0110           0
     39634 MEMB     319      PVCL2    H2X      HAL2     0.900000E-01   1.00800           0
     39635 MEMB     319      PVCL2    H2Y      HAL2     0.900000E-01   1.00800           0
     39636 MEMB     319      PVCL2    CA3      CTL2    -0.180000       12.0110           0
     39637 MEMB     319      PVCL2    H3A      HAL2     0.900000E-01   1.00800           0
     39638 MEMB     319      PVCL2    H3B      HAL2     0.900000E-01   1.00800           0
     39639 MEMB     319      PVCL2    CA4      CTL2    -0.180000       12.0110           0
     39640 MEMB     319      PVCL2    H4A      HAL2     0.900000E-01   1.00800           0
     39641 MEMB     319      PVCL2    H4B      HAL2     0.900000E-01   1.00800           0
     39642 MEMB     319      PVCL2    CA5      CTL2    -0.180000       12.0110           0
     39643 MEMB     319      PVCL2    H5A      HAL2     0.900000E-01   1.00800           0
     39644 MEMB     319      PVCL2    H5B      HAL2     0.900000E-01   1.00800           0
     39645 MEMB     319      PVCL2    CA6      CTL2    -0.180000       12.0110           0
     39646 MEMB     319      PVCL2    H6A      HAL2     0.900000E-01   1.00800           0
     39647 MEMB     319      PVCL2    H6B      HAL2     0.900000E-01   1.00800           0
     39648 MEMB     319      PVCL2    CA7      CTL2    -0.180000       12.0110           0
     39649 MEMB     319      PVCL2    H7A      HAL2     0.900000E-01   1.00800           0
     39650 MEMB     319      PVCL2    H7B      HAL2     0.900000E-01   1.00800           0
     39651 MEMB     319      PVCL2    CA8      CTL2    -0.180000       12.0110           0
     39652 MEMB     319      PVCL2    H8A      HAL2     0.900000E-01   1.00800           0
     39653 MEMB     319      PVCL2    H8B      HAL2     0.900000E-01   1.00800           0
     39654 MEMB     319      PVCL2    CA9      CTL2    -0.180000       12.0110           0
     39655 MEMB     319      PVCL2    H9A      HAL2     0.900000E-01   1.00800           0
     39656 MEMB     319      PVCL2    H9B      HAL2     0.900000E-01   1.00800           0
     39657 MEMB     319      PVCL2    CA10     CTL2    -0.180000       12.0110           0
     39658 MEMB     319      PVCL2    H10A     HAL2     0.900000E-01   1.00800           0
     39659 MEMB     319      PVCL2    H10B     HAL2     0.900000E-01   1.00800           0
     39660 MEMB     319      PVCL2    CA11     CEL1    -0.150000       12.0110           0
     39661 MEMB     319      PVCL2    H11A     HEL1     0.150000       1.00800           0
     39662 MEMB     319      PVCL2    CA12     CEL1    -0.150000       12.0110           0
     39663 MEMB     319      PVCL2    H12A     HEL1     0.150000       1.00800           0
     39664 MEMB     319      PVCL2    CA13     CTL2    -0.180000       12.0110           0
     39665 MEMB     319      PVCL2    H13A     HAL2     0.900000E-01   1.00800           0
     39666 MEMB     319      PVCL2    H13B     HAL2     0.900000E-01   1.00800           0
     39667 MEMB     319      PVCL2    CA14     CTL2    -0.180000       12.0110           0
     39668 MEMB     319      PVCL2    H14A     HAL2     0.900000E-01   1.00800           0
     39669 MEMB     319      PVCL2    H14B     HAL2     0.900000E-01   1.00800           0
     39670 MEMB     319      PVCL2    CA15     CTL2    -0.180000       12.0110           0
     39671 MEMB     319      PVCL2    H15A     HAL2     0.900000E-01   1.00800           0
     39672 MEMB     319      PVCL2    H15B     HAL2     0.900000E-01   1.00800           0
     39673 MEMB     319      PVCL2    CA16     CTL2    -0.180000       12.0110           0
     39674 MEMB     319      PVCL2    H16A     HAL2     0.900000E-01   1.00800           0
     39675 MEMB     319      PVCL2    H16B     HAL2     0.900000E-01   1.00800           0
     39676 MEMB     319      PVCL2    CA17     CTL2    -0.180000       12.0110           0
     39677 MEMB     319      PVCL2    H17A     HAL2     0.900000E-01   1.00800           0
     39678 MEMB     319      PVCL2    H17B     HAL2     0.900000E-01   1.00800           0
     39679 MEMB     319      PVCL2    CA18     CTL3    -0.270000       12.0110           0
     39680 MEMB     319      PVCL2    H18A     HAL3     0.900000E-01   1.00800           0
     39681 MEMB     319      PVCL2    H18B     HAL3     0.900000E-01   1.00800           0
     39682 MEMB     319      PVCL2    H18C     HAL3     0.900000E-01   1.00800           0
     39683 MEMB     319      PVCL2    CB3      CTL2    -0.180000       12.0110           0
     39684 MEMB     319      PVCL2    H3D      HAL2     0.900000E-01   1.00800           0
     39685 MEMB     319      PVCL2    H3E      HAL2     0.900000E-01   1.00800           0
     39686 MEMB     319      PVCL2    CB4      CTL2    -0.180000       12.0110           0
     39687 MEMB     319      PVCL2    H4D      HAL2     0.900000E-01   1.00800           0
     39688 MEMB     319      PVCL2    H4E      HAL2     0.900000E-01   1.00800           0
     39689 MEMB     319      PVCL2    CB5      CTL2    -0.180000       12.0110           0
     39690 MEMB     319      PVCL2    H5D      HAL2     0.900000E-01   1.00800           0
     39691 MEMB     319      PVCL2    H5E      HAL2     0.900000E-01   1.00800           0
     39692 MEMB     319      PVCL2    CB6      CTL2    -0.180000       12.0110           0
     39693 MEMB     319      PVCL2    H6D      HAL2     0.900000E-01   1.00800           0
     39694 MEMB     319      PVCL2    H6E      HAL2     0.900000E-01   1.00800           0
     39695 MEMB     319      PVCL2    CB7      CTL2    -0.180000       12.0110           0
     39696 MEMB     319      PVCL2    H7D      HAL2     0.900000E-01   1.00800           0
     39697 MEMB     319      PVCL2    H7E      HAL2     0.900000E-01   1.00800           0
     39698 MEMB     319      PVCL2    CB8      CTL2    -0.180000       12.0110           0
     39699 MEMB     319      PVCL2    H8D      HAL2     0.900000E-01   1.00800           0
     39700 MEMB     319      PVCL2    H8E      HAL2     0.900000E-01   1.00800           0
     39701 MEMB     319      PVCL2    CB9      CTL2    -0.180000       12.0110           0
     39702 MEMB     319      PVCL2    H9D      HAL2     0.900000E-01   1.00800           0
     39703 MEMB     319      PVCL2    H9E      HAL2     0.900000E-01   1.00800           0
     39704 MEMB     319      PVCL2    CB10     CTL2    -0.180000       12.0110           0
     39705 MEMB     319      PVCL2    H10D     HAL2     0.900000E-01   1.00800           0
     39706 MEMB     319      PVCL2    H10E     HAL2     0.900000E-01   1.00800           0
     39707 MEMB     319      PVCL2    CB11     CTL2    -0.180000       12.0110           0
     39708 MEMB     319      PVCL2    H11D     HAL2     0.900000E-01   1.00800           0
     39709 MEMB     319      PVCL2    H11E     HAL2     0.900000E-01   1.00800           0
     39710 MEMB     319      PVCL2    CB12     CTL2    -0.180000       12.0110           0
     39711 MEMB     319      PVCL2    H12D     HAL2     0.900000E-01   1.00800           0
     39712 MEMB     319      PVCL2    H12E     HAL2     0.900000E-01   1.00800           0
     39713 MEMB     319      PVCL2    CB13     CTL2    -0.180000       12.0110           0
     39714 MEMB     319      PVCL2    H13D     HAL2     0.900000E-01   1.00800           0
     39715 MEMB     319      PVCL2    H13E     HAL2     0.900000E-01   1.00800           0
     39716 MEMB     319      PVCL2    CB14     CTL2    -0.180000       12.0110           0
     39717 MEMB     319      PVCL2    H14D     HAL2     0.900000E-01   1.00800           0
     39718 MEMB     319      PVCL2    H14E     HAL2     0.900000E-01   1.00800           0
     39719 MEMB     319      PVCL2    CB15     CTL2    -0.180000       12.0110           0
     39720 MEMB     319      PVCL2    H15D     HAL2     0.900000E-01   1.00800           0
     39721 MEMB     319      PVCL2    H15E     HAL2     0.900000E-01   1.00800           0
     39722 MEMB     319      PVCL2    CB16     CTL3    -0.270000       12.0110           0
     39723 MEMB     319      PVCL2    H16D     HAL3     0.900000E-01   1.00800           0
     39724 MEMB     319      PVCL2    H16E     HAL3     0.900000E-01   1.00800           0
     39725 MEMB     319      PVCL2    H16F     HAL3     0.900000E-01   1.00800           0
     39726 MEMB     319      PVCL2    CC3      CTL2    -0.180000       12.0110           0
     39727 MEMB     319      PVCL2    H3R      HAL2     0.900000E-01   1.00800           0
     39728 MEMB     319      PVCL2    H3S      HAL2     0.900000E-01   1.00800           0
     39729 MEMB     319      PVCL2    CC4      CTL2    -0.180000       12.0110           0
     39730 MEMB     319      PVCL2    H4R      HAL2     0.900000E-01   1.00800           0
     39731 MEMB     319      PVCL2    H4S      HAL2     0.900000E-01   1.00800           0
     39732 MEMB     319      PVCL2    CC5      CTL2    -0.180000       12.0110           0
     39733 MEMB     319      PVCL2    H5R      HAL2     0.900000E-01   1.00800           0
     39734 MEMB     319      PVCL2    H5S      HAL2     0.900000E-01   1.00800           0
     39735 MEMB     319      PVCL2    CC6      CTL2    -0.180000       12.0110           0
     39736 MEMB     319      PVCL2    H6R      HAL2     0.900000E-01   1.00800           0
     39737 MEMB     319      PVCL2    H6S      HAL2     0.900000E-01   1.00800           0
     39738 MEMB     319      PVCL2    CC7      CTL2    -0.180000       12.0110           0
     39739 MEMB     319      PVCL2    H7R      HAL2     0.900000E-01   1.00800           0
     39740 MEMB     319      PVCL2    H7S      HAL2     0.900000E-01   1.00800           0
     39741 MEMB     319      PVCL2    CC8      CTL2    -0.180000       12.0110           0
     39742 MEMB     319      PVCL2    H8R      HAL2     0.900000E-01   1.00800           0
     39743 MEMB     319      PVCL2    H8S      HAL2     0.900000E-01   1.00800           0
     39744 MEMB     319      PVCL2    CC9      CTL2    -0.180000       12.0110           0
     39745 MEMB     319      PVCL2    H9R      HAL2     0.900000E-01   1.00800           0
     39746 MEMB     319      PVCL2    H9S      HAL2     0.900000E-01   1.00800           0
     39747 MEMB     319      PVCL2    CC10     CTL2    -0.180000       12.0110           0
     39748 MEMB     319      PVCL2    H10R     HAL2     0.900000E-01   1.00800           0
     39749 MEMB     319      PVCL2    H10S     HAL2     0.900000E-01   1.00800           0
     39750 MEMB     319      PVCL2    CC11     CEL1    -0.150000       12.0110           0
     39751 MEMB     319      PVCL2    H11R     HEL1     0.150000       1.00800           0
     39752 MEMB     319      PVCL2    CC12     CEL1    -0.150000       12.0110           0
     39753 MEMB     319      PVCL2    H12R     HEL1     0.150000       1.00800           0
     39754 MEMB     319      PVCL2    CC13     CTL2    -0.180000       12.0110           0
     39755 MEMB     319      PVCL2    H13R     HAL2     0.900000E-01   1.00800           0
     39756 MEMB     319      PVCL2    H13S     HAL2     0.900000E-01   1.00800           0
     39757 MEMB     319      PVCL2    CC14     CTL2    -0.180000       12.0110           0
     39758 MEMB     319      PVCL2    H14R     HAL2     0.900000E-01   1.00800           0
     39759 MEMB     319      PVCL2    H14S     HAL2     0.900000E-01   1.00800           0
     39760 MEMB     319      PVCL2    CC15     CTL2    -0.180000       12.0110           0
     39761 MEMB     319      PVCL2    H15R     HAL2     0.900000E-01   1.00800           0
     39762 MEMB     319      PVCL2    H15S     HAL2     0.900000E-01   1.00800           0
     39763 MEMB     319      PVCL2    CC16     CTL2    -0.180000       12.0110           0
     39764 MEMB     319      PVCL2    H16R     HAL2     0.900000E-01   1.00800           0
     39765 MEMB     319      PVCL2    H16S     HAL2     0.900000E-01   1.00800           0
     39766 MEMB     319      PVCL2    CC17     CTL2    -0.180000       12.0110           0
     39767 MEMB     319      PVCL2    H17R     HAL2     0.900000E-01   1.00800           0
     39768 MEMB     319      PVCL2    H17S     HAL2     0.900000E-01   1.00800           0
     39769 MEMB     319      PVCL2    CC18     CTL3    -0.270000       12.0110           0
     39770 MEMB     319      PVCL2    H18R     HAL3     0.900000E-01   1.00800           0
     39771 MEMB     319      PVCL2    H18S     HAL3     0.900000E-01   1.00800           0
     39772 MEMB     319      PVCL2    H18T     HAL3     0.900000E-01   1.00800           0
     39773 MEMB     319      PVCL2    CD3      CTL2    -0.180000       12.0110           0
     39774 MEMB     319      PVCL2    H3X      HAL2     0.900000E-01   1.00800           0
     39775 MEMB     319      PVCL2    H3Y      HAL2     0.900000E-01   1.00800           0
     39776 MEMB     319      PVCL2    CD4      CTL2    -0.180000       12.0110           0
     39777 MEMB     319      PVCL2    H4X      HAL2     0.900000E-01   1.00800           0
     39778 MEMB     319      PVCL2    H4Y      HAL2     0.900000E-01   1.00800           0
     39779 MEMB     319      PVCL2    CD5      CTL2    -0.180000       12.0110           0
     39780 MEMB     319      PVCL2    H5X      HAL2     0.900000E-01   1.00800           0
     39781 MEMB     319      PVCL2    H5Y      HAL2     0.900000E-01   1.00800           0
     39782 MEMB     319      PVCL2    CD6      CTL2    -0.180000       12.0110           0
     39783 MEMB     319      PVCL2    H6X      HAL2     0.900000E-01   1.00800           0
     39784 MEMB     319      PVCL2    H6Y      HAL2     0.900000E-01   1.00800           0
     39785 MEMB     319      PVCL2    CD7      CTL2    -0.180000       12.0110           0
     39786 MEMB     319      PVCL2    H7X      HAL2     0.900000E-01   1.00800           0
     39787 MEMB     319      PVCL2    H7Y      HAL2     0.900000E-01   1.00800           0
     39788 MEMB     319      PVCL2    CD8      CTL2    -0.180000       12.0110           0
     39789 MEMB     319      PVCL2    H8X      HAL2     0.900000E-01   1.00800           0
     39790 MEMB     319      PVCL2    H8Y      HAL2     0.900000E-01   1.00800           0
     39791 MEMB     319      PVCL2    CD9      CTL2    -0.180000       12.0110           0
     39792 MEMB     319      PVCL2    H9X      HAL2     0.900000E-01   1.00800           0
     39793 MEMB     319      PVCL2    H9Y      HAL2     0.900000E-01   1.00800           0
     39794 MEMB     319      PVCL2    CD10     CTL2    -0.180000       12.0110           0
     39795 MEMB     319      PVCL2    H10X     HAL2     0.900000E-01   1.00800           0
     39796 MEMB     319      PVCL2    H10Y     HAL2     0.900000E-01   1.00800           0
     39797 MEMB     319      PVCL2    CD11     CTL2    -0.180000       12.0110           0
     39798 MEMB     319      PVCL2    H11X     HAL2     0.900000E-01   1.00800           0
     39799 MEMB     319      PVCL2    H11Y     HAL2     0.900000E-01   1.00800           0
     39800 MEMB     319      PVCL2    CD12     CTL2    -0.180000       12.0110           0
     39801 MEMB     319      PVCL2    H12X     HAL2     0.900000E-01   1.00800           0
     39802 MEMB     319      PVCL2    H12Y     HAL2     0.900000E-01   1.00800           0
     39803 MEMB     319      PVCL2    CD13     CTL2    -0.180000       12.0110           0
     39804 MEMB     319      PVCL2    H13X     HAL2     0.900000E-01   1.00800           0
     39805 MEMB     319      PVCL2    H13Y     HAL2     0.900000E-01   1.00800           0
     39806 MEMB     319      PVCL2    CD14     CTL2    -0.180000       12.0110           0
     39807 MEMB     319      PVCL2    H14X     HAL2     0.900000E-01   1.00800           0
     39808 MEMB     319      PVCL2    H14Y     HAL2     0.900000E-01   1.00800           0
     39809 MEMB     319      PVCL2    CD15     CTL2    -0.180000       12.0110           0
     39810 MEMB     319      PVCL2    H15X     HAL2     0.900000E-01   1.00800           0
     39811 MEMB     319      PVCL2    H15Y     HAL2     0.900000E-01   1.00800           0
     39812 MEMB     319      PVCL2    CD16     CTL3    -0.270000       12.0110           0
     39813 MEMB     319      PVCL2    H16X     HAL3     0.900000E-01   1.00800           0
     39814 MEMB     319      PVCL2    H16Y     HAL3     0.900000E-01   1.00800           0
     39815 MEMB     319      PVCL2    H16Z     HAL3     0.900000E-01   1.00800           0
     39816 MEMB     320      QMPE     N        NH3L    -0.300000       14.0070           0
     39817 MEMB     320      QMPE     HN1      HCL      0.330000       1.00800           0
     39818 MEMB     320      QMPE     HN2      HCL      0.330000       1.00800           0
     39819 MEMB     320      QMPE     HN3      HCL      0.330000       1.00800           0
     39820 MEMB     320      QMPE     C12      CTL2     0.130000       12.0110           0
     39821 MEMB     320      QMPE     H12A     HAL2     0.900000E-01   1.00800           0
     39822 MEMB     320      QMPE     H12B     HAL2     0.900000E-01   1.00800           0
     39823 MEMB     320      QMPE     C11      CTL2    -0.800000E-01   12.0110           0
     39824 MEMB     320      QMPE     H11A     HAL2     0.900000E-01   1.00800           0
     39825 MEMB     320      QMPE     H11B     HAL2     0.900000E-01   1.00800           0
     39826 MEMB     320      QMPE     P        PL        1.50000       30.9740           0
     39827 MEMB     320      QMPE     O13      O2L     -0.780000       15.9994           0
     39828 MEMB     320      QMPE     O14      O2L     -0.780000       15.9994           0
     39829 MEMB     320      QMPE     O11      OSLP    -0.570000       15.9994           0
     39830 MEMB     320      QMPE     O12      OSLP    -0.570000       15.9994           0
     39831 MEMB     320      QMPE     C1       CTL2    -0.800000E-01   12.0110           0
     39832 MEMB     320      QMPE     HA       HAL2     0.900000E-01   1.00800           0
     39833 MEMB     320      QMPE     HB       HAL2     0.900000E-01   1.00800           0
     39834 MEMB     320      QMPE     C2       CTL1     0.170000       12.0110           0
     39835 MEMB     320      QMPE     HS       HAL1     0.900000E-01   1.00800           0
     39836 MEMB     320      QMPE     O21      OSL     -0.490000       15.9994           0
     39837 MEMB     320      QMPE     C21      CL       0.900000       12.0110           0
     39838 MEMB     320      QMPE     O22      OBL     -0.630000       15.9994           0
     39839 MEMB     320      QMPE     C22      CTL2    -0.220000       12.0110           0
     39840 MEMB     320      QMPE     H2R      HAL2     0.900000E-01   1.00800           0
     39841 MEMB     320      QMPE     H2S      HAL2     0.900000E-01   1.00800           0
     39842 MEMB     320      QMPE     C3       CTL2     0.800000E-01   12.0110           0
     39843 MEMB     320      QMPE     HX       HAL2     0.900000E-01   1.00800           0
     39844 MEMB     320      QMPE     HY       HAL2     0.900000E-01   1.00800           0
     39845 MEMB     320      QMPE     O31      OSL     -0.490000       15.9994           0
     39846 MEMB     320      QMPE     C31      CL       0.900000       12.0110           0
     39847 MEMB     320      QMPE     O32      OBL     -0.630000       15.9994           0
     39848 MEMB     320      QMPE     C32      CTL2    -0.220000       12.0110           0
     39849 MEMB     320      QMPE     H2X      HAL2     0.900000E-01   1.00800           0
     39850 MEMB     320      QMPE     H2Y      HAL2     0.900000E-01   1.00800           0
     39851 MEMB     320      QMPE     C23      CTL2    -0.180000       12.0110           0
     39852 MEMB     320      QMPE     H3R      HAL2     0.900000E-01   1.00800           0
     39853 MEMB     320      QMPE     H3S      HAL2     0.900000E-01   1.00800           0
     39854 MEMB     320      QMPE     C24      CTL2    -0.180000       12.0110           0
     39855 MEMB     320      QMPE     H4R      HAL2     0.900000E-01   1.00800           0
     39856 MEMB     320      QMPE     H4S      HAL2     0.900000E-01   1.00800           0
     39857 MEMB     320      QMPE     C25      CTL2    -0.180000       12.0110           0
     39858 MEMB     320      QMPE     H5R      HAL2     0.900000E-01   1.00800           0
     39859 MEMB     320      QMPE     H5S      HAL2     0.900000E-01   1.00800           0
     39860 MEMB     320      QMPE     C26      CTL2    -0.180000       12.0110           0
     39861 MEMB     320      QMPE     H6R      HAL2     0.900000E-01   1.00800           0
     39862 MEMB     320      QMPE     H6S      HAL2     0.900000E-01   1.00800           0
     39863 MEMB     320      QMPE     C27      CTL2    -0.180000       12.0110           0
     39864 MEMB     320      QMPE     H7R      HAL2     0.900000E-01   1.00800           0
     39865 MEMB     320      QMPE     H7S      HAL2     0.900000E-01   1.00800           0
     39866 MEMB     320      QMPE     C28      CTL2    -0.180000       12.0110           0
     39867 MEMB     320      QMPE     H8R      HAL2     0.900000E-01   1.00800           0
     39868 MEMB     320      QMPE     H8S      HAL2     0.900000E-01   1.00800           0
     39869 MEMB     320      QMPE     C29      CG3RC1  -0.900000E-01   12.0110           0
     39870 MEMB     320      QMPE     H9R      HGA1     0.900000E-01   1.00800           0
     39871 MEMB     320      QMPE     C217     CG3C31  -0.180000       12.0110           0
     39872 MEMB     320      QMPE     H17R     HGA2     0.900000E-01   1.00800           0
     39873 MEMB     320      QMPE     H17S     HGA2     0.900000E-01   1.00800           0
     39874 MEMB     320      QMPE     C210     CG3RC1  -0.900000E-01   12.0110           0
     39875 MEMB     320      QMPE     H10R     HGA1     0.900000E-01   1.00800           0
     39876 MEMB     320      QMPE     C211     CTL2    -0.180000       12.0110           0
     39877 MEMB     320      QMPE     H11R     HAL2     0.900000E-01   1.00800           0
     39878 MEMB     320      QMPE     H11S     HAL2     0.900000E-01   1.00800           0
     39879 MEMB     320      QMPE     C212     CTL2    -0.180000       12.0110           0
     39880 MEMB     320      QMPE     H12R     HAL2     0.900000E-01   1.00800           0
     39881 MEMB     320      QMPE     H12S     HAL2     0.900000E-01   1.00800           0
     39882 MEMB     320      QMPE     C213     CTL2    -0.180000       12.0110           0
     39883 MEMB     320      QMPE     H13R     HAL2     0.900000E-01   1.00800           0
     39884 MEMB     320      QMPE     H13S     HAL2     0.900000E-01   1.00800           0
     39885 MEMB     320      QMPE     C214     CTL2    -0.180000       12.0110           0
     39886 MEMB     320      QMPE     H14R     HAL2     0.900000E-01   1.00800           0
     39887 MEMB     320      QMPE     H14S     HAL2     0.900000E-01   1.00800           0
     39888 MEMB     320      QMPE     C215     CTL2    -0.180000       12.0110           0
     39889 MEMB     320      QMPE     H15R     HAL2     0.900000E-01   1.00800           0
     39890 MEMB     320      QMPE     H15S     HAL2     0.900000E-01   1.00800           0
     39891 MEMB     320      QMPE     C216     CTL3    -0.270000       12.0110           0
     39892 MEMB     320      QMPE     H16R     HAL3     0.900000E-01   1.00800           0
     39893 MEMB     320      QMPE     H16S     HAL3     0.900000E-01   1.00800           0
     39894 MEMB     320      QMPE     H16T     HAL3     0.900000E-01   1.00800           0
     39895 MEMB     320      QMPE     C33      CTL2    -0.180000       12.0110           0
     39896 MEMB     320      QMPE     H3X      HAL2     0.900000E-01   1.00800           0
     39897 MEMB     320      QMPE     H3Y      HAL2     0.900000E-01   1.00800           0
     39898 MEMB     320      QMPE     C34      CTL2    -0.180000       12.0110           0
     39899 MEMB     320      QMPE     H4X      HAL2     0.900000E-01   1.00800           0
     39900 MEMB     320      QMPE     H4Y      HAL2     0.900000E-01   1.00800           0
     39901 MEMB     320      QMPE     C35      CTL2    -0.180000       12.0110           0
     39902 MEMB     320      QMPE     H5X      HAL2     0.900000E-01   1.00800           0
     39903 MEMB     320      QMPE     H5Y      HAL2     0.900000E-01   1.00800           0
     39904 MEMB     320      QMPE     C36      CTL2    -0.180000       12.0110           0
     39905 MEMB     320      QMPE     H6X      HAL2     0.900000E-01   1.00800           0
     39906 MEMB     320      QMPE     H6Y      HAL2     0.900000E-01   1.00800           0
     39907 MEMB     320      QMPE     C37      CTL2    -0.180000       12.0110           0
     39908 MEMB     320      QMPE     H7X      HAL2     0.900000E-01   1.00800           0
     39909 MEMB     320      QMPE     H7Y      HAL2     0.900000E-01   1.00800           0
     39910 MEMB     320      QMPE     C38      CTL2    -0.180000       12.0110           0
     39911 MEMB     320      QMPE     H8X      HAL2     0.900000E-01   1.00800           0
     39912 MEMB     320      QMPE     H8Y      HAL2     0.900000E-01   1.00800           0
     39913 MEMB     320      QMPE     C39      CTL2    -0.180000       12.0110           0
     39914 MEMB     320      QMPE     H9X      HAL2     0.900000E-01   1.00800           0
     39915 MEMB     320      QMPE     H9Y      HAL2     0.900000E-01   1.00800           0
     39916 MEMB     320      QMPE     C310     CTL2    -0.180000       12.0110           0
     39917 MEMB     320      QMPE     H10X     HAL2     0.900000E-01   1.00800           0
     39918 MEMB     320      QMPE     H10Y     HAL2     0.900000E-01   1.00800           0
     39919 MEMB     320      QMPE     C311     CTL2    -0.180000       12.0110           0
     39920 MEMB     320      QMPE     H11X     HAL2     0.900000E-01   1.00800           0
     39921 MEMB     320      QMPE     H11Y     HAL2     0.900000E-01   1.00800           0
     39922 MEMB     320      QMPE     C312     CTL2    -0.180000       12.0110           0
     39923 MEMB     320      QMPE     H12X     HAL2     0.900000E-01   1.00800           0
     39924 MEMB     320      QMPE     H12Y     HAL2     0.900000E-01   1.00800           0
     39925 MEMB     320      QMPE     C313     CTL2    -0.180000       12.0110           0
     39926 MEMB     320      QMPE     H13X     HAL2     0.900000E-01   1.00800           0
     39927 MEMB     320      QMPE     H13Y     HAL2     0.900000E-01   1.00800           0
     39928 MEMB     320      QMPE     C314     CTL2    -0.180000       12.0110           0
     39929 MEMB     320      QMPE     H14X     HAL2     0.900000E-01   1.00800           0
     39930 MEMB     320      QMPE     H14Y     HAL2     0.900000E-01   1.00800           0
     39931 MEMB     320      QMPE     C315     CTL3    -0.270000       12.0110           0
     39932 MEMB     320      QMPE     H15X     HAL3     0.900000E-01   1.00800           0
     39933 MEMB     320      QMPE     H15Y     HAL3     0.900000E-01   1.00800           0
     39934 MEMB     320      QMPE     H15Z     HAL3     0.900000E-01   1.00800           0
     39935 MEMB     321      PMPG     C13      CTL2     0.500000E-01   12.0110           0
     39936 MEMB     321      PMPG     H13A     HAL2     0.900000E-01   1.00800           0
     39937 MEMB     321      PMPG     H13B     HAL2     0.900000E-01   1.00800           0
     39938 MEMB     321      PMPG     OC3      OHL     -0.660000       15.9994           0
     39939 MEMB     321      PMPG     HO3      HOL      0.430000       1.00800           0
     39940 MEMB     321      PMPG     C12      CTL1     0.140000       12.0110           0
     39941 MEMB     321      PMPG     H12A     HAL1     0.900000E-01   1.00800           0
     39942 MEMB     321      PMPG     OC2      OHL     -0.660000       15.9994           0
     39943 MEMB     321      PMPG     HO2      HOL      0.430000       1.00800           0
     39944 MEMB     321      PMPG     C11      CTL2    -0.800000E-01   12.0110           0
     39945 MEMB     321      PMPG     H11A     HAL2     0.900000E-01   1.00800           0
     39946 MEMB     321      PMPG     H11B     HAL2     0.900000E-01   1.00800           0
     39947 MEMB     321      PMPG     P        PL        1.50000       30.9740           0
     39948 MEMB     321      PMPG     O13      O2L     -0.780000       15.9994           0
     39949 MEMB     321      PMPG     O14      O2L     -0.780000       15.9994           0
     39950 MEMB     321      PMPG     O11      OSLP    -0.570000       15.9994           0
     39951 MEMB     321      PMPG     O12      OSLP    -0.570000       15.9994           0
     39952 MEMB     321      PMPG     C1       CTL2    -0.800000E-01   12.0110           0
     39953 MEMB     321      PMPG     HA       HAL2     0.900000E-01   1.00800           0
     39954 MEMB     321      PMPG     HB       HAL2     0.900000E-01   1.00800           0
     39955 MEMB     321      PMPG     C2       CTL1     0.170000       12.0110           0
     39956 MEMB     321      PMPG     HS       HAL1     0.900000E-01   1.00800           0
     39957 MEMB     321      PMPG     O21      OSL     -0.490000       15.9994           0
     39958 MEMB     321      PMPG     C21      CL       0.900000       12.0110           0
     39959 MEMB     321      PMPG     O22      OBL     -0.630000       15.9994           0
     39960 MEMB     321      PMPG     C22      CTL2    -0.220000       12.0110           0
     39961 MEMB     321      PMPG     H2R      HAL2     0.900000E-01   1.00800           0
     39962 MEMB     321      PMPG     H2S      HAL2     0.900000E-01   1.00800           0
     39963 MEMB     321      PMPG     C3       CTL2     0.800000E-01   12.0110           0
     39964 MEMB     321      PMPG     HX       HAL2     0.900000E-01   1.00800           0
     39965 MEMB     321      PMPG     HY       HAL2     0.900000E-01   1.00800           0
     39966 MEMB     321      PMPG     O31      OSL     -0.490000       15.9994           0
     39967 MEMB     321      PMPG     C31      CL       0.900000       12.0110           0
     39968 MEMB     321      PMPG     O32      OBL     -0.630000       15.9994           0
     39969 MEMB     321      PMPG     C32      CTL2    -0.220000       12.0110           0
     39970 MEMB     321      PMPG     H2X      HAL2     0.900000E-01   1.00800           0
     39971 MEMB     321      PMPG     H2Y      HAL2     0.900000E-01   1.00800           0
     39972 MEMB     321      PMPG     C23      CTL2    -0.180000       12.0110           0
     39973 MEMB     321      PMPG     H3R      HAL2     0.900000E-01   1.00800           0
     39974 MEMB     321      PMPG     H3S      HAL2     0.900000E-01   1.00800           0
     39975 MEMB     321      PMPG     C24      CTL2    -0.180000       12.0110           0
     39976 MEMB     321      PMPG     H4R      HAL2     0.900000E-01   1.00800           0
     39977 MEMB     321      PMPG     H4S      HAL2     0.900000E-01   1.00800           0
     39978 MEMB     321      PMPG     C25      CTL2    -0.180000       12.0110           0
     39979 MEMB     321      PMPG     H5R      HAL2     0.900000E-01   1.00800           0
     39980 MEMB     321      PMPG     H5S      HAL2     0.900000E-01   1.00800           0
     39981 MEMB     321      PMPG     C26      CTL2    -0.180000       12.0110           0
     39982 MEMB     321      PMPG     H6R      HAL2     0.900000E-01   1.00800           0
     39983 MEMB     321      PMPG     H6S      HAL2     0.900000E-01   1.00800           0
     39984 MEMB     321      PMPG     C27      CTL2    -0.180000       12.0110           0
     39985 MEMB     321      PMPG     H7R      HAL2     0.900000E-01   1.00800           0
     39986 MEMB     321      PMPG     H7S      HAL2     0.900000E-01   1.00800           0
     39987 MEMB     321      PMPG     C28      CTL2    -0.180000       12.0110           0
     39988 MEMB     321      PMPG     H8R      HAL2     0.900000E-01   1.00800           0
     39989 MEMB     321      PMPG     H8S      HAL2     0.900000E-01   1.00800           0
     39990 MEMB     321      PMPG     C29      CG3RC1  -0.900000E-01   12.0110           0
     39991 MEMB     321      PMPG     H9R      HGA1     0.900000E-01   1.00800           0
     39992 MEMB     321      PMPG     C217     CG3C31  -0.180000       12.0110           0
     39993 MEMB     321      PMPG     H17R     HGA2     0.900000E-01   1.00800           0
     39994 MEMB     321      PMPG     H17S     HGA2     0.900000E-01   1.00800           0
     39995 MEMB     321      PMPG     C210     CG3RC1  -0.900000E-01   12.0110           0
     39996 MEMB     321      PMPG     H10R     HGA1     0.900000E-01   1.00800           0
     39997 MEMB     321      PMPG     C211     CTL2    -0.180000       12.0110           0
     39998 MEMB     321      PMPG     H11R     HAL2     0.900000E-01   1.00800           0
     39999 MEMB     321      PMPG     H11S     HAL2     0.900000E-01   1.00800           0
     40000 MEMB     321      PMPG     C212     CTL2    -0.180000       12.0110           0
     40001 MEMB     321      PMPG     H12R     HAL2     0.900000E-01   1.00800           0
     40002 MEMB     321      PMPG     H12S     HAL2     0.900000E-01   1.00800           0
     40003 MEMB     321      PMPG     C213     CTL2    -0.180000       12.0110           0
     40004 MEMB     321      PMPG     H13R     HAL2     0.900000E-01   1.00800           0
     40005 MEMB     321      PMPG     H13S     HAL2     0.900000E-01   1.00800           0
     40006 MEMB     321      PMPG     C214     CTL2    -0.180000       12.0110           0
     40007 MEMB     321      PMPG     H14R     HAL2     0.900000E-01   1.00800           0
     40008 MEMB     321      PMPG     H14S     HAL2     0.900000E-01   1.00800           0
     40009 MEMB     321      PMPG     C215     CTL2    -0.180000       12.0110           0
     40010 MEMB     321      PMPG     H15R     HAL2     0.900000E-01   1.00800           0
     40011 MEMB     321      PMPG     H15S     HAL2     0.900000E-01   1.00800           0
     40012 MEMB     321      PMPG     C216     CTL3    -0.270000       12.0110           0
     40013 MEMB     321      PMPG     H16R     HAL3     0.900000E-01   1.00800           0
     40014 MEMB     321      PMPG     H16S     HAL3     0.900000E-01   1.00800           0
     40015 MEMB     321      PMPG     H16T     HAL3     0.900000E-01   1.00800           0
     40016 MEMB     321      PMPG     C33      CTL2    -0.180000       12.0110           0
     40017 MEMB     321      PMPG     H3X      HAL2     0.900000E-01   1.00800           0
     40018 MEMB     321      PMPG     H3Y      HAL2     0.900000E-01   1.00800           0
     40019 MEMB     321      PMPG     C34      CTL2    -0.180000       12.0110           0
     40020 MEMB     321      PMPG     H4X      HAL2     0.900000E-01   1.00800           0
     40021 MEMB     321      PMPG     H4Y      HAL2     0.900000E-01   1.00800           0
     40022 MEMB     321      PMPG     C35      CTL2    -0.180000       12.0110           0
     40023 MEMB     321      PMPG     H5X      HAL2     0.900000E-01   1.00800           0
     40024 MEMB     321      PMPG     H5Y      HAL2     0.900000E-01   1.00800           0
     40025 MEMB     321      PMPG     C36      CTL2    -0.180000       12.0110           0
     40026 MEMB     321      PMPG     H6X      HAL2     0.900000E-01   1.00800           0
     40027 MEMB     321      PMPG     H6Y      HAL2     0.900000E-01   1.00800           0
     40028 MEMB     321      PMPG     C37      CTL2    -0.180000       12.0110           0
     40029 MEMB     321      PMPG     H7X      HAL2     0.900000E-01   1.00800           0
     40030 MEMB     321      PMPG     H7Y      HAL2     0.900000E-01   1.00800           0
     40031 MEMB     321      PMPG     C38      CTL2    -0.180000       12.0110           0
     40032 MEMB     321      PMPG     H8X      HAL2     0.900000E-01   1.00800           0
     40033 MEMB     321      PMPG     H8Y      HAL2     0.900000E-01   1.00800           0
     40034 MEMB     321      PMPG     C39      CTL2    -0.180000       12.0110           0
     40035 MEMB     321      PMPG     H9X      HAL2     0.900000E-01   1.00800           0
     40036 MEMB     321      PMPG     H9Y      HAL2     0.900000E-01   1.00800           0
     40037 MEMB     321      PMPG     C310     CTL2    -0.180000       12.0110           0
     40038 MEMB     321      PMPG     H10X     HAL2     0.900000E-01   1.00800           0
     40039 MEMB     321      PMPG     H10Y     HAL2     0.900000E-01   1.00800           0
     40040 MEMB     321      PMPG     C311     CTL2    -0.180000       12.0110           0
     40041 MEMB     321      PMPG     H11X     HAL2     0.900000E-01   1.00800           0
     40042 MEMB     321      PMPG     H11Y     HAL2     0.900000E-01   1.00800           0
     40043 MEMB     321      PMPG     C312     CTL2    -0.180000       12.0110           0
     40044 MEMB     321      PMPG     H12X     HAL2     0.900000E-01   1.00800           0
     40045 MEMB     321      PMPG     H12Y     HAL2     0.900000E-01   1.00800           0
     40046 MEMB     321      PMPG     C313     CTL2    -0.180000       12.0110           0
     40047 MEMB     321      PMPG     H13X     HAL2     0.900000E-01   1.00800           0
     40048 MEMB     321      PMPG     H13Y     HAL2     0.900000E-01   1.00800           0
     40049 MEMB     321      PMPG     C314     CTL2    -0.180000       12.0110           0
     40050 MEMB     321      PMPG     H14X     HAL2     0.900000E-01   1.00800           0
     40051 MEMB     321      PMPG     H14Y     HAL2     0.900000E-01   1.00800           0
     40052 MEMB     321      PMPG     C315     CTL2    -0.180000       12.0110           0
     40053 MEMB     321      PMPG     H15X     HAL2     0.900000E-01   1.00800           0
     40054 MEMB     321      PMPG     H15Y     HAL2     0.900000E-01   1.00800           0
     40055 MEMB     321      PMPG     C316     CTL3    -0.270000       12.0110           0
     40056 MEMB     321      PMPG     H16X     HAL3     0.900000E-01   1.00800           0
     40057 MEMB     321      PMPG     H16Y     HAL3     0.900000E-01   1.00800           0
     40058 MEMB     321      PMPG     H16Z     HAL3     0.900000E-01   1.00800           0
     40059 MEMB     322      PMPE     N        NH3L    -0.300000       14.0070           0
     40060 MEMB     322      PMPE     HN1      HCL      0.330000       1.00800           0
     40061 MEMB     322      PMPE     HN2      HCL      0.330000       1.00800           0
     40062 MEMB     322      PMPE     HN3      HCL      0.330000       1.00800           0
     40063 MEMB     322      PMPE     C12      CTL2     0.130000       12.0110           0
     40064 MEMB     322      PMPE     H12A     HAL2     0.900000E-01   1.00800           0
     40065 MEMB     322      PMPE     H12B     HAL2     0.900000E-01   1.00800           0
     40066 MEMB     322      PMPE     C11      CTL2    -0.800000E-01   12.0110           0
     40067 MEMB     322      PMPE     H11A     HAL2     0.900000E-01   1.00800           0
     40068 MEMB     322      PMPE     H11B     HAL2     0.900000E-01   1.00800           0
     40069 MEMB     322      PMPE     P        PL        1.50000       30.9740           0
     40070 MEMB     322      PMPE     O13      O2L     -0.780000       15.9994           0
     40071 MEMB     322      PMPE     O14      O2L     -0.780000       15.9994           0
     40072 MEMB     322      PMPE     O11      OSLP    -0.570000       15.9994           0
     40073 MEMB     322      PMPE     O12      OSLP    -0.570000       15.9994           0
     40074 MEMB     322      PMPE     C1       CTL2    -0.800000E-01   12.0110           0
     40075 MEMB     322      PMPE     HA       HAL2     0.900000E-01   1.00800           0
     40076 MEMB     322      PMPE     HB       HAL2     0.900000E-01   1.00800           0
     40077 MEMB     322      PMPE     C2       CTL1     0.170000       12.0110           0
     40078 MEMB     322      PMPE     HS       HAL1     0.900000E-01   1.00800           0
     40079 MEMB     322      PMPE     O21      OSL     -0.490000       15.9994           0
     40080 MEMB     322      PMPE     C21      CL       0.900000       12.0110           0
     40081 MEMB     322      PMPE     O22      OBL     -0.630000       15.9994           0
     40082 MEMB     322      PMPE     C22      CTL2    -0.220000       12.0110           0
     40083 MEMB     322      PMPE     H2R      HAL2     0.900000E-01   1.00800           0
     40084 MEMB     322      PMPE     H2S      HAL2     0.900000E-01   1.00800           0
     40085 MEMB     322      PMPE     C3       CTL2     0.800000E-01   12.0110           0
     40086 MEMB     322      PMPE     HX       HAL2     0.900000E-01   1.00800           0
     40087 MEMB     322      PMPE     HY       HAL2     0.900000E-01   1.00800           0
     40088 MEMB     322      PMPE     O31      OSL     -0.490000       15.9994           0
     40089 MEMB     322      PMPE     C31      CL       0.900000       12.0110           0
     40090 MEMB     322      PMPE     O32      OBL     -0.630000       15.9994           0
     40091 MEMB     322      PMPE     C32      CTL2    -0.220000       12.0110           0
     40092 MEMB     322      PMPE     H2X      HAL2     0.900000E-01   1.00800           0
     40093 MEMB     322      PMPE     H2Y      HAL2     0.900000E-01   1.00800           0
     40094 MEMB     322      PMPE     C23      CTL2    -0.180000       12.0110           0
     40095 MEMB     322      PMPE     H3R      HAL2     0.900000E-01   1.00800           0
     40096 MEMB     322      PMPE     H3S      HAL2     0.900000E-01   1.00800           0
     40097 MEMB     322      PMPE     C24      CTL2    -0.180000       12.0110           0
     40098 MEMB     322      PMPE     H4R      HAL2     0.900000E-01   1.00800           0
     40099 MEMB     322      PMPE     H4S      HAL2     0.900000E-01   1.00800           0
     40100 MEMB     322      PMPE     C25      CTL2    -0.180000       12.0110           0
     40101 MEMB     322      PMPE     H5R      HAL2     0.900000E-01   1.00800           0
     40102 MEMB     322      PMPE     H5S      HAL2     0.900000E-01   1.00800           0
     40103 MEMB     322      PMPE     C26      CTL2    -0.180000       12.0110           0
     40104 MEMB     322      PMPE     H6R      HAL2     0.900000E-01   1.00800           0
     40105 MEMB     322      PMPE     H6S      HAL2     0.900000E-01   1.00800           0
     40106 MEMB     322      PMPE     C27      CTL2    -0.180000       12.0110           0
     40107 MEMB     322      PMPE     H7R      HAL2     0.900000E-01   1.00800           0
     40108 MEMB     322      PMPE     H7S      HAL2     0.900000E-01   1.00800           0
     40109 MEMB     322      PMPE     C28      CTL2    -0.180000       12.0110           0
     40110 MEMB     322      PMPE     H8R      HAL2     0.900000E-01   1.00800           0
     40111 MEMB     322      PMPE     H8S      HAL2     0.900000E-01   1.00800           0
     40112 MEMB     322      PMPE     C29      CG3RC1  -0.900000E-01   12.0110           0
     40113 MEMB     322      PMPE     H9R      HGA1     0.900000E-01   1.00800           0
     40114 MEMB     322      PMPE     C217     CG3C31  -0.180000       12.0110           0
     40115 MEMB     322      PMPE     H17R     HGA2     0.900000E-01   1.00800           0
     40116 MEMB     322      PMPE     H17S     HGA2     0.900000E-01   1.00800           0
     40117 MEMB     322      PMPE     C210     CG3RC1  -0.900000E-01   12.0110           0
     40118 MEMB     322      PMPE     H10R     HGA1     0.900000E-01   1.00800           0
     40119 MEMB     322      PMPE     C211     CTL2    -0.180000       12.0110           0
     40120 MEMB     322      PMPE     H11R     HAL2     0.900000E-01   1.00800           0
     40121 MEMB     322      PMPE     H11S     HAL2     0.900000E-01   1.00800           0
     40122 MEMB     322      PMPE     C212     CTL2    -0.180000       12.0110           0
     40123 MEMB     322      PMPE     H12R     HAL2     0.900000E-01   1.00800           0
     40124 MEMB     322      PMPE     H12S     HAL2     0.900000E-01   1.00800           0
     40125 MEMB     322      PMPE     C213     CTL2    -0.180000       12.0110           0
     40126 MEMB     322      PMPE     H13R     HAL2     0.900000E-01   1.00800           0
     40127 MEMB     322      PMPE     H13S     HAL2     0.900000E-01   1.00800           0
     40128 MEMB     322      PMPE     C214     CTL2    -0.180000       12.0110           0
     40129 MEMB     322      PMPE     H14R     HAL2     0.900000E-01   1.00800           0
     40130 MEMB     322      PMPE     H14S     HAL2     0.900000E-01   1.00800           0
     40131 MEMB     322      PMPE     C215     CTL2    -0.180000       12.0110           0
     40132 MEMB     322      PMPE     H15R     HAL2     0.900000E-01   1.00800           0
     40133 MEMB     322      PMPE     H15S     HAL2     0.900000E-01   1.00800           0
     40134 MEMB     322      PMPE     C216     CTL3    -0.270000       12.0110           0
     40135 MEMB     322      PMPE     H16R     HAL3     0.900000E-01   1.00800           0
     40136 MEMB     322      PMPE     H16S     HAL3     0.900000E-01   1.00800           0
     40137 MEMB     322      PMPE     H16T     HAL3     0.900000E-01   1.00800           0
     40138 MEMB     322      PMPE     C33      CTL2    -0.180000       12.0110           0
     40139 MEMB     322      PMPE     H3X      HAL2     0.900000E-01   1.00800           0
     40140 MEMB     322      PMPE     H3Y      HAL2     0.900000E-01   1.00800           0
     40141 MEMB     322      PMPE     C34      CTL2    -0.180000       12.0110           0
     40142 MEMB     322      PMPE     H4X      HAL2     0.900000E-01   1.00800           0
     40143 MEMB     322      PMPE     H4Y      HAL2     0.900000E-01   1.00800           0
     40144 MEMB     322      PMPE     C35      CTL2    -0.180000       12.0110           0
     40145 MEMB     322      PMPE     H5X      HAL2     0.900000E-01   1.00800           0
     40146 MEMB     322      PMPE     H5Y      HAL2     0.900000E-01   1.00800           0
     40147 MEMB     322      PMPE     C36      CTL2    -0.180000       12.0110           0
     40148 MEMB     322      PMPE     H6X      HAL2     0.900000E-01   1.00800           0
     40149 MEMB     322      PMPE     H6Y      HAL2     0.900000E-01   1.00800           0
     40150 MEMB     322      PMPE     C37      CTL2    -0.180000       12.0110           0
     40151 MEMB     322      PMPE     H7X      HAL2     0.900000E-01   1.00800           0
     40152 MEMB     322      PMPE     H7Y      HAL2     0.900000E-01   1.00800           0
     40153 MEMB     322      PMPE     C38      CTL2    -0.180000       12.0110           0
     40154 MEMB     322      PMPE     H8X      HAL2     0.900000E-01   1.00800           0
     40155 MEMB     322      PMPE     H8Y      HAL2     0.900000E-01   1.00800           0
     40156 MEMB     322      PMPE     C39      CTL2    -0.180000       12.0110           0
     40157 MEMB     322      PMPE     H9X      HAL2     0.900000E-01   1.00800           0
     40158 MEMB     322      PMPE     H9Y      HAL2     0.900000E-01   1.00800           0
     40159 MEMB     322      PMPE     C310     CTL2    -0.180000       12.0110           0
     40160 MEMB     322      PMPE     H10X     HAL2     0.900000E-01   1.00800           0
     40161 MEMB     322      PMPE     H10Y     HAL2     0.900000E-01   1.00800           0
     40162 MEMB     322      PMPE     C311     CTL2    -0.180000       12.0110           0
     40163 MEMB     322      PMPE     H11X     HAL2     0.900000E-01   1.00800           0
     40164 MEMB     322      PMPE     H11Y     HAL2     0.900000E-01   1.00800           0
     40165 MEMB     322      PMPE     C312     CTL2    -0.180000       12.0110           0
     40166 MEMB     322      PMPE     H12X     HAL2     0.900000E-01   1.00800           0
     40167 MEMB     322      PMPE     H12Y     HAL2     0.900000E-01   1.00800           0
     40168 MEMB     322      PMPE     C313     CTL2    -0.180000       12.0110           0
     40169 MEMB     322      PMPE     H13X     HAL2     0.900000E-01   1.00800           0
     40170 MEMB     322      PMPE     H13Y     HAL2     0.900000E-01   1.00800           0
     40171 MEMB     322      PMPE     C314     CTL2    -0.180000       12.0110           0
     40172 MEMB     322      PMPE     H14X     HAL2     0.900000E-01   1.00800           0
     40173 MEMB     322      PMPE     H14Y     HAL2     0.900000E-01   1.00800           0
     40174 MEMB     322      PMPE     C315     CTL2    -0.180000       12.0110           0
     40175 MEMB     322      PMPE     H15X     HAL2     0.900000E-01   1.00800           0
     40176 MEMB     322      PMPE     H15Y     HAL2     0.900000E-01   1.00800           0
     40177 MEMB     322      PMPE     C316     CTL3    -0.270000       12.0110           0
     40178 MEMB     322      PMPE     H16X     HAL3     0.900000E-01   1.00800           0
     40179 MEMB     322      PMPE     H16Y     HAL3     0.900000E-01   1.00800           0
     40180 MEMB     322      PMPE     H16Z     HAL3     0.900000E-01   1.00800           0
     40181 MEMB     323      PMPE     N        NH3L    -0.300000       14.0070           0
     40182 MEMB     323      PMPE     HN1      HCL      0.330000       1.00800           0
     40183 MEMB     323      PMPE     HN2      HCL      0.330000       1.00800           0
     40184 MEMB     323      PMPE     HN3      HCL      0.330000       1.00800           0
     40185 MEMB     323      PMPE     C12      CTL2     0.130000       12.0110           0
     40186 MEMB     323      PMPE     H12A     HAL2     0.900000E-01   1.00800           0
     40187 MEMB     323      PMPE     H12B     HAL2     0.900000E-01   1.00800           0
     40188 MEMB     323      PMPE     C11      CTL2    -0.800000E-01   12.0110           0
     40189 MEMB     323      PMPE     H11A     HAL2     0.900000E-01   1.00800           0
     40190 MEMB     323      PMPE     H11B     HAL2     0.900000E-01   1.00800           0
     40191 MEMB     323      PMPE     P        PL        1.50000       30.9740           0
     40192 MEMB     323      PMPE     O13      O2L     -0.780000       15.9994           0
     40193 MEMB     323      PMPE     O14      O2L     -0.780000       15.9994           0
     40194 MEMB     323      PMPE     O11      OSLP    -0.570000       15.9994           0
     40195 MEMB     323      PMPE     O12      OSLP    -0.570000       15.9994           0
     40196 MEMB     323      PMPE     C1       CTL2    -0.800000E-01   12.0110           0
     40197 MEMB     323      PMPE     HA       HAL2     0.900000E-01   1.00800           0
     40198 MEMB     323      PMPE     HB       HAL2     0.900000E-01   1.00800           0
     40199 MEMB     323      PMPE     C2       CTL1     0.170000       12.0110           0
     40200 MEMB     323      PMPE     HS       HAL1     0.900000E-01   1.00800           0
     40201 MEMB     323      PMPE     O21      OSL     -0.490000       15.9994           0
     40202 MEMB     323      PMPE     C21      CL       0.900000       12.0110           0
     40203 MEMB     323      PMPE     O22      OBL     -0.630000       15.9994           0
     40204 MEMB     323      PMPE     C22      CTL2    -0.220000       12.0110           0
     40205 MEMB     323      PMPE     H2R      HAL2     0.900000E-01   1.00800           0
     40206 MEMB     323      PMPE     H2S      HAL2     0.900000E-01   1.00800           0
     40207 MEMB     323      PMPE     C3       CTL2     0.800000E-01   12.0110           0
     40208 MEMB     323      PMPE     HX       HAL2     0.900000E-01   1.00800           0
     40209 MEMB     323      PMPE     HY       HAL2     0.900000E-01   1.00800           0
     40210 MEMB     323      PMPE     O31      OSL     -0.490000       15.9994           0
     40211 MEMB     323      PMPE     C31      CL       0.900000       12.0110           0
     40212 MEMB     323      PMPE     O32      OBL     -0.630000       15.9994           0
     40213 MEMB     323      PMPE     C32      CTL2    -0.220000       12.0110           0
     40214 MEMB     323      PMPE     H2X      HAL2     0.900000E-01   1.00800           0
     40215 MEMB     323      PMPE     H2Y      HAL2     0.900000E-01   1.00800           0
     40216 MEMB     323      PMPE     C23      CTL2    -0.180000       12.0110           0
     40217 MEMB     323      PMPE     H3R      HAL2     0.900000E-01   1.00800           0
     40218 MEMB     323      PMPE     H3S      HAL2     0.900000E-01   1.00800           0
     40219 MEMB     323      PMPE     C24      CTL2    -0.180000       12.0110           0
     40220 MEMB     323      PMPE     H4R      HAL2     0.900000E-01   1.00800           0
     40221 MEMB     323      PMPE     H4S      HAL2     0.900000E-01   1.00800           0
     40222 MEMB     323      PMPE     C25      CTL2    -0.180000       12.0110           0
     40223 MEMB     323      PMPE     H5R      HAL2     0.900000E-01   1.00800           0
     40224 MEMB     323      PMPE     H5S      HAL2     0.900000E-01   1.00800           0
     40225 MEMB     323      PMPE     C26      CTL2    -0.180000       12.0110           0
     40226 MEMB     323      PMPE     H6R      HAL2     0.900000E-01   1.00800           0
     40227 MEMB     323      PMPE     H6S      HAL2     0.900000E-01   1.00800           0
     40228 MEMB     323      PMPE     C27      CTL2    -0.180000       12.0110           0
     40229 MEMB     323      PMPE     H7R      HAL2     0.900000E-01   1.00800           0
     40230 MEMB     323      PMPE     H7S      HAL2     0.900000E-01   1.00800           0
     40231 MEMB     323      PMPE     C28      CTL2    -0.180000       12.0110           0
     40232 MEMB     323      PMPE     H8R      HAL2     0.900000E-01   1.00800           0
     40233 MEMB     323      PMPE     H8S      HAL2     0.900000E-01   1.00800           0
     40234 MEMB     323      PMPE     C29      CG3RC1  -0.900000E-01   12.0110           0
     40235 MEMB     323      PMPE     H9R      HGA1     0.900000E-01   1.00800           0
     40236 MEMB     323      PMPE     C217     CG3C31  -0.180000       12.0110           0
     40237 MEMB     323      PMPE     H17R     HGA2     0.900000E-01   1.00800           0
     40238 MEMB     323      PMPE     H17S     HGA2     0.900000E-01   1.00800           0
     40239 MEMB     323      PMPE     C210     CG3RC1  -0.900000E-01   12.0110           0
     40240 MEMB     323      PMPE     H10R     HGA1     0.900000E-01   1.00800           0
     40241 MEMB     323      PMPE     C211     CTL2    -0.180000       12.0110           0
     40242 MEMB     323      PMPE     H11R     HAL2     0.900000E-01   1.00800           0
     40243 MEMB     323      PMPE     H11S     HAL2     0.900000E-01   1.00800           0
     40244 MEMB     323      PMPE     C212     CTL2    -0.180000       12.0110           0
     40245 MEMB     323      PMPE     H12R     HAL2     0.900000E-01   1.00800           0
     40246 MEMB     323      PMPE     H12S     HAL2     0.900000E-01   1.00800           0
     40247 MEMB     323      PMPE     C213     CTL2    -0.180000       12.0110           0
     40248 MEMB     323      PMPE     H13R     HAL2     0.900000E-01   1.00800           0
     40249 MEMB     323      PMPE     H13S     HAL2     0.900000E-01   1.00800           0
     40250 MEMB     323      PMPE     C214     CTL2    -0.180000       12.0110           0
     40251 MEMB     323      PMPE     H14R     HAL2     0.900000E-01   1.00800           0
     40252 MEMB     323      PMPE     H14S     HAL2     0.900000E-01   1.00800           0
     40253 MEMB     323      PMPE     C215     CTL2    -0.180000       12.0110           0
     40254 MEMB     323      PMPE     H15R     HAL2     0.900000E-01   1.00800           0
     40255 MEMB     323      PMPE     H15S     HAL2     0.900000E-01   1.00800           0
     40256 MEMB     323      PMPE     C216     CTL3    -0.270000       12.0110           0
     40257 MEMB     323      PMPE     H16R     HAL3     0.900000E-01   1.00800           0
     40258 MEMB     323      PMPE     H16S     HAL3     0.900000E-01   1.00800           0
     40259 MEMB     323      PMPE     H16T     HAL3     0.900000E-01   1.00800           0
     40260 MEMB     323      PMPE     C33      CTL2    -0.180000       12.0110           0
     40261 MEMB     323      PMPE     H3X      HAL2     0.900000E-01   1.00800           0
     40262 MEMB     323      PMPE     H3Y      HAL2     0.900000E-01   1.00800           0
     40263 MEMB     323      PMPE     C34      CTL2    -0.180000       12.0110           0
     40264 MEMB     323      PMPE     H4X      HAL2     0.900000E-01   1.00800           0
     40265 MEMB     323      PMPE     H4Y      HAL2     0.900000E-01   1.00800           0
     40266 MEMB     323      PMPE     C35      CTL2    -0.180000       12.0110           0
     40267 MEMB     323      PMPE     H5X      HAL2     0.900000E-01   1.00800           0
     40268 MEMB     323      PMPE     H5Y      HAL2     0.900000E-01   1.00800           0
     40269 MEMB     323      PMPE     C36      CTL2    -0.180000       12.0110           0
     40270 MEMB     323      PMPE     H6X      HAL2     0.900000E-01   1.00800           0
     40271 MEMB     323      PMPE     H6Y      HAL2     0.900000E-01   1.00800           0
     40272 MEMB     323      PMPE     C37      CTL2    -0.180000       12.0110           0
     40273 MEMB     323      PMPE     H7X      HAL2     0.900000E-01   1.00800           0
     40274 MEMB     323      PMPE     H7Y      HAL2     0.900000E-01   1.00800           0
     40275 MEMB     323      PMPE     C38      CTL2    -0.180000       12.0110           0
     40276 MEMB     323      PMPE     H8X      HAL2     0.900000E-01   1.00800           0
     40277 MEMB     323      PMPE     H8Y      HAL2     0.900000E-01   1.00800           0
     40278 MEMB     323      PMPE     C39      CTL2    -0.180000       12.0110           0
     40279 MEMB     323      PMPE     H9X      HAL2     0.900000E-01   1.00800           0
     40280 MEMB     323      PMPE     H9Y      HAL2     0.900000E-01   1.00800           0
     40281 MEMB     323      PMPE     C310     CTL2    -0.180000       12.0110           0
     40282 MEMB     323      PMPE     H10X     HAL2     0.900000E-01   1.00800           0
     40283 MEMB     323      PMPE     H10Y     HAL2     0.900000E-01   1.00800           0
     40284 MEMB     323      PMPE     C311     CTL2    -0.180000       12.0110           0
     40285 MEMB     323      PMPE     H11X     HAL2     0.900000E-01   1.00800           0
     40286 MEMB     323      PMPE     H11Y     HAL2     0.900000E-01   1.00800           0
     40287 MEMB     323      PMPE     C312     CTL2    -0.180000       12.0110           0
     40288 MEMB     323      PMPE     H12X     HAL2     0.900000E-01   1.00800           0
     40289 MEMB     323      PMPE     H12Y     HAL2     0.900000E-01   1.00800           0
     40290 MEMB     323      PMPE     C313     CTL2    -0.180000       12.0110           0
     40291 MEMB     323      PMPE     H13X     HAL2     0.900000E-01   1.00800           0
     40292 MEMB     323      PMPE     H13Y     HAL2     0.900000E-01   1.00800           0
     40293 MEMB     323      PMPE     C314     CTL2    -0.180000       12.0110           0
     40294 MEMB     323      PMPE     H14X     HAL2     0.900000E-01   1.00800           0
     40295 MEMB     323      PMPE     H14Y     HAL2     0.900000E-01   1.00800           0
     40296 MEMB     323      PMPE     C315     CTL2    -0.180000       12.0110           0
     40297 MEMB     323      PMPE     H15X     HAL2     0.900000E-01   1.00800           0
     40298 MEMB     323      PMPE     H15Y     HAL2     0.900000E-01   1.00800           0
     40299 MEMB     323      PMPE     C316     CTL3    -0.270000       12.0110           0
     40300 MEMB     323      PMPE     H16X     HAL3     0.900000E-01   1.00800           0
     40301 MEMB     323      PMPE     H16Y     HAL3     0.900000E-01   1.00800           0
     40302 MEMB     323      PMPE     H16Z     HAL3     0.900000E-01   1.00800           0
     40303 MEMB     324      QMPE     N        NH3L    -0.300000       14.0070           0
     40304 MEMB     324      QMPE     HN1      HCL      0.330000       1.00800           0
     40305 MEMB     324      QMPE     HN2      HCL      0.330000       1.00800           0
     40306 MEMB     324      QMPE     HN3      HCL      0.330000       1.00800           0
     40307 MEMB     324      QMPE     C12      CTL2     0.130000       12.0110           0
     40308 MEMB     324      QMPE     H12A     HAL2     0.900000E-01   1.00800           0
     40309 MEMB     324      QMPE     H12B     HAL2     0.900000E-01   1.00800           0
     40310 MEMB     324      QMPE     C11      CTL2    -0.800000E-01   12.0110           0
     40311 MEMB     324      QMPE     H11A     HAL2     0.900000E-01   1.00800           0
     40312 MEMB     324      QMPE     H11B     HAL2     0.900000E-01   1.00800           0
     40313 MEMB     324      QMPE     P        PL        1.50000       30.9740           0
     40314 MEMB     324      QMPE     O13      O2L     -0.780000       15.9994           0
     40315 MEMB     324      QMPE     O14      O2L     -0.780000       15.9994           0
     40316 MEMB     324      QMPE     O11      OSLP    -0.570000       15.9994           0
     40317 MEMB     324      QMPE     O12      OSLP    -0.570000       15.9994           0
     40318 MEMB     324      QMPE     C1       CTL2    -0.800000E-01   12.0110           0
     40319 MEMB     324      QMPE     HA       HAL2     0.900000E-01   1.00800           0
     40320 MEMB     324      QMPE     HB       HAL2     0.900000E-01   1.00800           0
     40321 MEMB     324      QMPE     C2       CTL1     0.170000       12.0110           0
     40322 MEMB     324      QMPE     HS       HAL1     0.900000E-01   1.00800           0
     40323 MEMB     324      QMPE     O21      OSL     -0.490000       15.9994           0
     40324 MEMB     324      QMPE     C21      CL       0.900000       12.0110           0
     40325 MEMB     324      QMPE     O22      OBL     -0.630000       15.9994           0
     40326 MEMB     324      QMPE     C22      CTL2    -0.220000       12.0110           0
     40327 MEMB     324      QMPE     H2R      HAL2     0.900000E-01   1.00800           0
     40328 MEMB     324      QMPE     H2S      HAL2     0.900000E-01   1.00800           0
     40329 MEMB     324      QMPE     C3       CTL2     0.800000E-01   12.0110           0
     40330 MEMB     324      QMPE     HX       HAL2     0.900000E-01   1.00800           0
     40331 MEMB     324      QMPE     HY       HAL2     0.900000E-01   1.00800           0
     40332 MEMB     324      QMPE     O31      OSL     -0.490000       15.9994           0
     40333 MEMB     324      QMPE     C31      CL       0.900000       12.0110           0
     40334 MEMB     324      QMPE     O32      OBL     -0.630000       15.9994           0
     40335 MEMB     324      QMPE     C32      CTL2    -0.220000       12.0110           0
     40336 MEMB     324      QMPE     H2X      HAL2     0.900000E-01   1.00800           0
     40337 MEMB     324      QMPE     H2Y      HAL2     0.900000E-01   1.00800           0
     40338 MEMB     324      QMPE     C23      CTL2    -0.180000       12.0110           0
     40339 MEMB     324      QMPE     H3R      HAL2     0.900000E-01   1.00800           0
     40340 MEMB     324      QMPE     H3S      HAL2     0.900000E-01   1.00800           0
     40341 MEMB     324      QMPE     C24      CTL2    -0.180000       12.0110           0
     40342 MEMB     324      QMPE     H4R      HAL2     0.900000E-01   1.00800           0
     40343 MEMB     324      QMPE     H4S      HAL2     0.900000E-01   1.00800           0
     40344 MEMB     324      QMPE     C25      CTL2    -0.180000       12.0110           0
     40345 MEMB     324      QMPE     H5R      HAL2     0.900000E-01   1.00800           0
     40346 MEMB     324      QMPE     H5S      HAL2     0.900000E-01   1.00800           0
     40347 MEMB     324      QMPE     C26      CTL2    -0.180000       12.0110           0
     40348 MEMB     324      QMPE     H6R      HAL2     0.900000E-01   1.00800           0
     40349 MEMB     324      QMPE     H6S      HAL2     0.900000E-01   1.00800           0
     40350 MEMB     324      QMPE     C27      CTL2    -0.180000       12.0110           0
     40351 MEMB     324      QMPE     H7R      HAL2     0.900000E-01   1.00800           0
     40352 MEMB     324      QMPE     H7S      HAL2     0.900000E-01   1.00800           0
     40353 MEMB     324      QMPE     C28      CTL2    -0.180000       12.0110           0
     40354 MEMB     324      QMPE     H8R      HAL2     0.900000E-01   1.00800           0
     40355 MEMB     324      QMPE     H8S      HAL2     0.900000E-01   1.00800           0
     40356 MEMB     324      QMPE     C29      CG3RC1  -0.900000E-01   12.0110           0
     40357 MEMB     324      QMPE     H9R      HGA1     0.900000E-01   1.00800           0
     40358 MEMB     324      QMPE     C217     CG3C31  -0.180000       12.0110           0
     40359 MEMB     324      QMPE     H17R     HGA2     0.900000E-01   1.00800           0
     40360 MEMB     324      QMPE     H17S     HGA2     0.900000E-01   1.00800           0
     40361 MEMB     324      QMPE     C210     CG3RC1  -0.900000E-01   12.0110           0
     40362 MEMB     324      QMPE     H10R     HGA1     0.900000E-01   1.00800           0
     40363 MEMB     324      QMPE     C211     CTL2    -0.180000       12.0110           0
     40364 MEMB     324      QMPE     H11R     HAL2     0.900000E-01   1.00800           0
     40365 MEMB     324      QMPE     H11S     HAL2     0.900000E-01   1.00800           0
     40366 MEMB     324      QMPE     C212     CTL2    -0.180000       12.0110           0
     40367 MEMB     324      QMPE     H12R     HAL2     0.900000E-01   1.00800           0
     40368 MEMB     324      QMPE     H12S     HAL2     0.900000E-01   1.00800           0
     40369 MEMB     324      QMPE     C213     CTL2    -0.180000       12.0110           0
     40370 MEMB     324      QMPE     H13R     HAL2     0.900000E-01   1.00800           0
     40371 MEMB     324      QMPE     H13S     HAL2     0.900000E-01   1.00800           0
     40372 MEMB     324      QMPE     C214     CTL2    -0.180000       12.0110           0
     40373 MEMB     324      QMPE     H14R     HAL2     0.900000E-01   1.00800           0
     40374 MEMB     324      QMPE     H14S     HAL2     0.900000E-01   1.00800           0
     40375 MEMB     324      QMPE     C215     CTL2    -0.180000       12.0110           0
     40376 MEMB     324      QMPE     H15R     HAL2     0.900000E-01   1.00800           0
     40377 MEMB     324      QMPE     H15S     HAL2     0.900000E-01   1.00800           0
     40378 MEMB     324      QMPE     C216     CTL3    -0.270000       12.0110           0
     40379 MEMB     324      QMPE     H16R     HAL3     0.900000E-01   1.00800           0
     40380 MEMB     324      QMPE     H16S     HAL3     0.900000E-01   1.00800           0
     40381 MEMB     324      QMPE     H16T     HAL3     0.900000E-01   1.00800           0
     40382 MEMB     324      QMPE     C33      CTL2    -0.180000       12.0110           0
     40383 MEMB     324      QMPE     H3X      HAL2     0.900000E-01   1.00800           0
     40384 MEMB     324      QMPE     H3Y      HAL2     0.900000E-01   1.00800           0
     40385 MEMB     324      QMPE     C34      CTL2    -0.180000       12.0110           0
     40386 MEMB     324      QMPE     H4X      HAL2     0.900000E-01   1.00800           0
     40387 MEMB     324      QMPE     H4Y      HAL2     0.900000E-01   1.00800           0
     40388 MEMB     324      QMPE     C35      CTL2    -0.180000       12.0110           0
     40389 MEMB     324      QMPE     H5X      HAL2     0.900000E-01   1.00800           0
     40390 MEMB     324      QMPE     H5Y      HAL2     0.900000E-01   1.00800           0
     40391 MEMB     324      QMPE     C36      CTL2    -0.180000       12.0110           0
     40392 MEMB     324      QMPE     H6X      HAL2     0.900000E-01   1.00800           0
     40393 MEMB     324      QMPE     H6Y      HAL2     0.900000E-01   1.00800           0
     40394 MEMB     324      QMPE     C37      CTL2    -0.180000       12.0110           0
     40395 MEMB     324      QMPE     H7X      HAL2     0.900000E-01   1.00800           0
     40396 MEMB     324      QMPE     H7Y      HAL2     0.900000E-01   1.00800           0
     40397 MEMB     324      QMPE     C38      CTL2    -0.180000       12.0110           0
     40398 MEMB     324      QMPE     H8X      HAL2     0.900000E-01   1.00800           0
     40399 MEMB     324      QMPE     H8Y      HAL2     0.900000E-01   1.00800           0
     40400 MEMB     324      QMPE     C39      CTL2    -0.180000       12.0110           0
     40401 MEMB     324      QMPE     H9X      HAL2     0.900000E-01   1.00800           0
     40402 MEMB     324      QMPE     H9Y      HAL2     0.900000E-01   1.00800           0
     40403 MEMB     324      QMPE     C310     CTL2    -0.180000       12.0110           0
     40404 MEMB     324      QMPE     H10X     HAL2     0.900000E-01   1.00800           0
     40405 MEMB     324      QMPE     H10Y     HAL2     0.900000E-01   1.00800           0
     40406 MEMB     324      QMPE     C311     CTL2    -0.180000       12.0110           0
     40407 MEMB     324      QMPE     H11X     HAL2     0.900000E-01   1.00800           0
     40408 MEMB     324      QMPE     H11Y     HAL2     0.900000E-01   1.00800           0
     40409 MEMB     324      QMPE     C312     CTL2    -0.180000       12.0110           0
     40410 MEMB     324      QMPE     H12X     HAL2     0.900000E-01   1.00800           0
     40411 MEMB     324      QMPE     H12Y     HAL2     0.900000E-01   1.00800           0
     40412 MEMB     324      QMPE     C313     CTL2    -0.180000       12.0110           0
     40413 MEMB     324      QMPE     H13X     HAL2     0.900000E-01   1.00800           0
     40414 MEMB     324      QMPE     H13Y     HAL2     0.900000E-01   1.00800           0
     40415 MEMB     324      QMPE     C314     CTL2    -0.180000       12.0110           0
     40416 MEMB     324      QMPE     H14X     HAL2     0.900000E-01   1.00800           0
     40417 MEMB     324      QMPE     H14Y     HAL2     0.900000E-01   1.00800           0
     40418 MEMB     324      QMPE     C315     CTL3    -0.270000       12.0110           0
     40419 MEMB     324      QMPE     H15X     HAL3     0.900000E-01   1.00800           0
     40420 MEMB     324      QMPE     H15Y     HAL3     0.900000E-01   1.00800           0
     40421 MEMB     324      QMPE     H15Z     HAL3     0.900000E-01   1.00800           0
     40422 MEMB     325      PYPG     C13      CTL2     0.500000E-01   12.0110           0
     40423 MEMB     325      PYPG     H13A     HAL2     0.900000E-01   1.00800           0
     40424 MEMB     325      PYPG     H13B     HAL2     0.900000E-01   1.00800           0
     40425 MEMB     325      PYPG     OC3      OHL     -0.660000       15.9994           0
     40426 MEMB     325      PYPG     HO3      HOL      0.430000       1.00800           0
     40427 MEMB     325      PYPG     C12      CTL1     0.140000       12.0110           0
     40428 MEMB     325      PYPG     H12A     HAL1     0.900000E-01   1.00800           0
     40429 MEMB     325      PYPG     OC2      OHL     -0.660000       15.9994           0
     40430 MEMB     325      PYPG     HO2      HOL      0.430000       1.00800           0
     40431 MEMB     325      PYPG     C11      CTL2    -0.800000E-01   12.0110           0
     40432 MEMB     325      PYPG     H11A     HAL2     0.900000E-01   1.00800           0
     40433 MEMB     325      PYPG     H11B     HAL2     0.900000E-01   1.00800           0
     40434 MEMB     325      PYPG     P        PL        1.50000       30.9740           0
     40435 MEMB     325      PYPG     O13      O2L     -0.780000       15.9994           0
     40436 MEMB     325      PYPG     O14      O2L     -0.780000       15.9994           0
     40437 MEMB     325      PYPG     O11      OSLP    -0.570000       15.9994           0
     40438 MEMB     325      PYPG     O12      OSLP    -0.570000       15.9994           0
     40439 MEMB     325      PYPG     C1       CTL2    -0.800000E-01   12.0110           0
     40440 MEMB     325      PYPG     HA       HAL2     0.900000E-01   1.00800           0
     40441 MEMB     325      PYPG     HB       HAL2     0.900000E-01   1.00800           0
     40442 MEMB     325      PYPG     C2       CTL1     0.170000       12.0110           0
     40443 MEMB     325      PYPG     HS       HAL1     0.900000E-01   1.00800           0
     40444 MEMB     325      PYPG     O21      OSL     -0.490000       15.9994           0
     40445 MEMB     325      PYPG     C21      CL       0.900000       12.0110           0
     40446 MEMB     325      PYPG     O22      OBL     -0.630000       15.9994           0
     40447 MEMB     325      PYPG     C22      CTL2    -0.220000       12.0110           0
     40448 MEMB     325      PYPG     H2R      HAL2     0.900000E-01   1.00800           0
     40449 MEMB     325      PYPG     H2S      HAL2     0.900000E-01   1.00800           0
     40450 MEMB     325      PYPG     C3       CTL2     0.800000E-01   12.0110           0
     40451 MEMB     325      PYPG     HX       HAL2     0.900000E-01   1.00800           0
     40452 MEMB     325      PYPG     HY       HAL2     0.900000E-01   1.00800           0
     40453 MEMB     325      PYPG     O31      OSL     -0.490000       15.9994           0
     40454 MEMB     325      PYPG     C31      CL       0.900000       12.0110           0
     40455 MEMB     325      PYPG     O32      OBL     -0.630000       15.9994           0
     40456 MEMB     325      PYPG     C32      CTL2    -0.220000       12.0110           0
     40457 MEMB     325      PYPG     H2X      HAL2     0.900000E-01   1.00800           0
     40458 MEMB     325      PYPG     H2Y      HAL2     0.900000E-01   1.00800           0
     40459 MEMB     325      PYPG     C23      CTL2    -0.180000       12.0110           0
     40460 MEMB     325      PYPG     H3R      HAL2     0.900000E-01   1.00800           0
     40461 MEMB     325      PYPG     H3S      HAL2     0.900000E-01   1.00800           0
     40462 MEMB     325      PYPG     C24      CTL2    -0.180000       12.0110           0
     40463 MEMB     325      PYPG     H4R      HAL2     0.900000E-01   1.00800           0
     40464 MEMB     325      PYPG     H4S      HAL2     0.900000E-01   1.00800           0
     40465 MEMB     325      PYPG     C25      CTL2    -0.180000       12.0110           0
     40466 MEMB     325      PYPG     H5R      HAL2     0.900000E-01   1.00800           0
     40467 MEMB     325      PYPG     H5S      HAL2     0.900000E-01   1.00800           0
     40468 MEMB     325      PYPG     C26      CTL2    -0.180000       12.0110           0
     40469 MEMB     325      PYPG     H6R      HAL2     0.900000E-01   1.00800           0
     40470 MEMB     325      PYPG     H6S      HAL2     0.900000E-01   1.00800           0
     40471 MEMB     325      PYPG     C27      CTL2    -0.180000       12.0110           0
     40472 MEMB     325      PYPG     H7R      HAL2     0.900000E-01   1.00800           0
     40473 MEMB     325      PYPG     H7S      HAL2     0.900000E-01   1.00800           0
     40474 MEMB     325      PYPG     C28      CTL2    -0.180000       12.0110           0
     40475 MEMB     325      PYPG     H8R      HAL2     0.900000E-01   1.00800           0
     40476 MEMB     325      PYPG     H8S      HAL2     0.900000E-01   1.00800           0
     40477 MEMB     325      PYPG     C29      CEL1    -0.150000       12.0110           0
     40478 MEMB     325      PYPG     H9R      HEL1     0.150000       1.00800           0
     40479 MEMB     325      PYPG     C210     CEL1    -0.150000       12.0110           0
     40480 MEMB     325      PYPG     H10R     HEL1     0.150000       1.00800           0
     40481 MEMB     325      PYPG     C211     CTL2    -0.180000       12.0110           0
     40482 MEMB     325      PYPG     H11R     HAL2     0.900000E-01   1.00800           0
     40483 MEMB     325      PYPG     H11S     HAL2     0.900000E-01   1.00800           0
     40484 MEMB     325      PYPG     C212     CTL2    -0.180000       12.0110           0
     40485 MEMB     325      PYPG     H12R     HAL2     0.900000E-01   1.00800           0
     40486 MEMB     325      PYPG     H12S     HAL2     0.900000E-01   1.00800           0
     40487 MEMB     325      PYPG     C213     CTL2    -0.180000       12.0110           0
     40488 MEMB     325      PYPG     H13R     HAL2     0.900000E-01   1.00800           0
     40489 MEMB     325      PYPG     H13S     HAL2     0.900000E-01   1.00800           0
     40490 MEMB     325      PYPG     C214     CTL2    -0.180000       12.0110           0
     40491 MEMB     325      PYPG     H14R     HAL2     0.900000E-01   1.00800           0
     40492 MEMB     325      PYPG     H14S     HAL2     0.900000E-01   1.00800           0
     40493 MEMB     325      PYPG     C215     CTL2    -0.180000       12.0110           0
     40494 MEMB     325      PYPG     H15R     HAL2     0.900000E-01   1.00800           0
     40495 MEMB     325      PYPG     H15S     HAL2     0.900000E-01   1.00800           0
     40496 MEMB     325      PYPG     C216     CTL3    -0.270000       12.0110           0
     40497 MEMB     325      PYPG     H16R     HAL3     0.900000E-01   1.00800           0
     40498 MEMB     325      PYPG     H16S     HAL3     0.900000E-01   1.00800           0
     40499 MEMB     325      PYPG     H16T     HAL3     0.900000E-01   1.00800           0
     40500 MEMB     325      PYPG     C33      CTL2    -0.180000       12.0110           0
     40501 MEMB     325      PYPG     H3X      HAL2     0.900000E-01   1.00800           0
     40502 MEMB     325      PYPG     H3Y      HAL2     0.900000E-01   1.00800           0
     40503 MEMB     325      PYPG     C34      CTL2    -0.180000       12.0110           0
     40504 MEMB     325      PYPG     H4X      HAL2     0.900000E-01   1.00800           0
     40505 MEMB     325      PYPG     H4Y      HAL2     0.900000E-01   1.00800           0
     40506 MEMB     325      PYPG     C35      CTL2    -0.180000       12.0110           0
     40507 MEMB     325      PYPG     H5X      HAL2     0.900000E-01   1.00800           0
     40508 MEMB     325      PYPG     H5Y      HAL2     0.900000E-01   1.00800           0
     40509 MEMB     325      PYPG     C36      CTL2    -0.180000       12.0110           0
     40510 MEMB     325      PYPG     H6X      HAL2     0.900000E-01   1.00800           0
     40511 MEMB     325      PYPG     H6Y      HAL2     0.900000E-01   1.00800           0
     40512 MEMB     325      PYPG     C37      CTL2    -0.180000       12.0110           0
     40513 MEMB     325      PYPG     H7X      HAL2     0.900000E-01   1.00800           0
     40514 MEMB     325      PYPG     H7Y      HAL2     0.900000E-01   1.00800           0
     40515 MEMB     325      PYPG     C38      CTL2    -0.180000       12.0110           0
     40516 MEMB     325      PYPG     H8X      HAL2     0.900000E-01   1.00800           0
     40517 MEMB     325      PYPG     H8Y      HAL2     0.900000E-01   1.00800           0
     40518 MEMB     325      PYPG     C39      CTL2    -0.180000       12.0110           0
     40519 MEMB     325      PYPG     H9X      HAL2     0.900000E-01   1.00800           0
     40520 MEMB     325      PYPG     H9Y      HAL2     0.900000E-01   1.00800           0
     40521 MEMB     325      PYPG     C310     CTL2    -0.180000       12.0110           0
     40522 MEMB     325      PYPG     H10X     HAL2     0.900000E-01   1.00800           0
     40523 MEMB     325      PYPG     H10Y     HAL2     0.900000E-01   1.00800           0
     40524 MEMB     325      PYPG     C311     CTL2    -0.180000       12.0110           0
     40525 MEMB     325      PYPG     H11X     HAL2     0.900000E-01   1.00800           0
     40526 MEMB     325      PYPG     H11Y     HAL2     0.900000E-01   1.00800           0
     40527 MEMB     325      PYPG     C312     CTL2    -0.180000       12.0110           0
     40528 MEMB     325      PYPG     H12X     HAL2     0.900000E-01   1.00800           0
     40529 MEMB     325      PYPG     H12Y     HAL2     0.900000E-01   1.00800           0
     40530 MEMB     325      PYPG     C313     CTL2    -0.180000       12.0110           0
     40531 MEMB     325      PYPG     H13X     HAL2     0.900000E-01   1.00800           0
     40532 MEMB     325      PYPG     H13Y     HAL2     0.900000E-01   1.00800           0
     40533 MEMB     325      PYPG     C314     CTL2    -0.180000       12.0110           0
     40534 MEMB     325      PYPG     H14X     HAL2     0.900000E-01   1.00800           0
     40535 MEMB     325      PYPG     H14Y     HAL2     0.900000E-01   1.00800           0
     40536 MEMB     325      PYPG     C315     CTL2    -0.180000       12.0110           0
     40537 MEMB     325      PYPG     H15X     HAL2     0.900000E-01   1.00800           0
     40538 MEMB     325      PYPG     H15Y     HAL2     0.900000E-01   1.00800           0
     40539 MEMB     325      PYPG     C316     CTL3    -0.270000       12.0110           0
     40540 MEMB     325      PYPG     H16X     HAL3     0.900000E-01   1.00800           0
     40541 MEMB     325      PYPG     H16Y     HAL3     0.900000E-01   1.00800           0
     40542 MEMB     325      PYPG     H16Z     HAL3     0.900000E-01   1.00800           0
     40543 MEMB     326      QMPE     N        NH3L    -0.300000       14.0070           0
     40544 MEMB     326      QMPE     HN1      HCL      0.330000       1.00800           0
     40545 MEMB     326      QMPE     HN2      HCL      0.330000       1.00800           0
     40546 MEMB     326      QMPE     HN3      HCL      0.330000       1.00800           0
     40547 MEMB     326      QMPE     C12      CTL2     0.130000       12.0110           0
     40548 MEMB     326      QMPE     H12A     HAL2     0.900000E-01   1.00800           0
     40549 MEMB     326      QMPE     H12B     HAL2     0.900000E-01   1.00800           0
     40550 MEMB     326      QMPE     C11      CTL2    -0.800000E-01   12.0110           0
     40551 MEMB     326      QMPE     H11A     HAL2     0.900000E-01   1.00800           0
     40552 MEMB     326      QMPE     H11B     HAL2     0.900000E-01   1.00800           0
     40553 MEMB     326      QMPE     P        PL        1.50000       30.9740           0
     40554 MEMB     326      QMPE     O13      O2L     -0.780000       15.9994           0
     40555 MEMB     326      QMPE     O14      O2L     -0.780000       15.9994           0
     40556 MEMB     326      QMPE     O11      OSLP    -0.570000       15.9994           0
     40557 MEMB     326      QMPE     O12      OSLP    -0.570000       15.9994           0
     40558 MEMB     326      QMPE     C1       CTL2    -0.800000E-01   12.0110           0
     40559 MEMB     326      QMPE     HA       HAL2     0.900000E-01   1.00800           0
     40560 MEMB     326      QMPE     HB       HAL2     0.900000E-01   1.00800           0
     40561 MEMB     326      QMPE     C2       CTL1     0.170000       12.0110           0
     40562 MEMB     326      QMPE     HS       HAL1     0.900000E-01   1.00800           0
     40563 MEMB     326      QMPE     O21      OSL     -0.490000       15.9994           0
     40564 MEMB     326      QMPE     C21      CL       0.900000       12.0110           0
     40565 MEMB     326      QMPE     O22      OBL     -0.630000       15.9994           0
     40566 MEMB     326      QMPE     C22      CTL2    -0.220000       12.0110           0
     40567 MEMB     326      QMPE     H2R      HAL2     0.900000E-01   1.00800           0
     40568 MEMB     326      QMPE     H2S      HAL2     0.900000E-01   1.00800           0
     40569 MEMB     326      QMPE     C3       CTL2     0.800000E-01   12.0110           0
     40570 MEMB     326      QMPE     HX       HAL2     0.900000E-01   1.00800           0
     40571 MEMB     326      QMPE     HY       HAL2     0.900000E-01   1.00800           0
     40572 MEMB     326      QMPE     O31      OSL     -0.490000       15.9994           0
     40573 MEMB     326      QMPE     C31      CL       0.900000       12.0110           0
     40574 MEMB     326      QMPE     O32      OBL     -0.630000       15.9994           0
     40575 MEMB     326      QMPE     C32      CTL2    -0.220000       12.0110           0
     40576 MEMB     326      QMPE     H2X      HAL2     0.900000E-01   1.00800           0
     40577 MEMB     326      QMPE     H2Y      HAL2     0.900000E-01   1.00800           0
     40578 MEMB     326      QMPE     C23      CTL2    -0.180000       12.0110           0
     40579 MEMB     326      QMPE     H3R      HAL2     0.900000E-01   1.00800           0
     40580 MEMB     326      QMPE     H3S      HAL2     0.900000E-01   1.00800           0
     40581 MEMB     326      QMPE     C24      CTL2    -0.180000       12.0110           0
     40582 MEMB     326      QMPE     H4R      HAL2     0.900000E-01   1.00800           0
     40583 MEMB     326      QMPE     H4S      HAL2     0.900000E-01   1.00800           0
     40584 MEMB     326      QMPE     C25      CTL2    -0.180000       12.0110           0
     40585 MEMB     326      QMPE     H5R      HAL2     0.900000E-01   1.00800           0
     40586 MEMB     326      QMPE     H5S      HAL2     0.900000E-01   1.00800           0
     40587 MEMB     326      QMPE     C26      CTL2    -0.180000       12.0110           0
     40588 MEMB     326      QMPE     H6R      HAL2     0.900000E-01   1.00800           0
     40589 MEMB     326      QMPE     H6S      HAL2     0.900000E-01   1.00800           0
     40590 MEMB     326      QMPE     C27      CTL2    -0.180000       12.0110           0
     40591 MEMB     326      QMPE     H7R      HAL2     0.900000E-01   1.00800           0
     40592 MEMB     326      QMPE     H7S      HAL2     0.900000E-01   1.00800           0
     40593 MEMB     326      QMPE     C28      CTL2    -0.180000       12.0110           0
     40594 MEMB     326      QMPE     H8R      HAL2     0.900000E-01   1.00800           0
     40595 MEMB     326      QMPE     H8S      HAL2     0.900000E-01   1.00800           0
     40596 MEMB     326      QMPE     C29      CG3RC1  -0.900000E-01   12.0110           0
     40597 MEMB     326      QMPE     H9R      HGA1     0.900000E-01   1.00800           0
     40598 MEMB     326      QMPE     C217     CG3C31  -0.180000       12.0110           0
     40599 MEMB     326      QMPE     H17R     HGA2     0.900000E-01   1.00800           0
     40600 MEMB     326      QMPE     H17S     HGA2     0.900000E-01   1.00800           0
     40601 MEMB     326      QMPE     C210     CG3RC1  -0.900000E-01   12.0110           0
     40602 MEMB     326      QMPE     H10R     HGA1     0.900000E-01   1.00800           0
     40603 MEMB     326      QMPE     C211     CTL2    -0.180000       12.0110           0
     40604 MEMB     326      QMPE     H11R     HAL2     0.900000E-01   1.00800           0
     40605 MEMB     326      QMPE     H11S     HAL2     0.900000E-01   1.00800           0
     40606 MEMB     326      QMPE     C212     CTL2    -0.180000       12.0110           0
     40607 MEMB     326      QMPE     H12R     HAL2     0.900000E-01   1.00800           0
     40608 MEMB     326      QMPE     H12S     HAL2     0.900000E-01   1.00800           0
     40609 MEMB     326      QMPE     C213     CTL2    -0.180000       12.0110           0
     40610 MEMB     326      QMPE     H13R     HAL2     0.900000E-01   1.00800           0
     40611 MEMB     326      QMPE     H13S     HAL2     0.900000E-01   1.00800           0
     40612 MEMB     326      QMPE     C214     CTL2    -0.180000       12.0110           0
     40613 MEMB     326      QMPE     H14R     HAL2     0.900000E-01   1.00800           0
     40614 MEMB     326      QMPE     H14S     HAL2     0.900000E-01   1.00800           0
     40615 MEMB     326      QMPE     C215     CTL2    -0.180000       12.0110           0
     40616 MEMB     326      QMPE     H15R     HAL2     0.900000E-01   1.00800           0
     40617 MEMB     326      QMPE     H15S     HAL2     0.900000E-01   1.00800           0
     40618 MEMB     326      QMPE     C216     CTL3    -0.270000       12.0110           0
     40619 MEMB     326      QMPE     H16R     HAL3     0.900000E-01   1.00800           0
     40620 MEMB     326      QMPE     H16S     HAL3     0.900000E-01   1.00800           0
     40621 MEMB     326      QMPE     H16T     HAL3     0.900000E-01   1.00800           0
     40622 MEMB     326      QMPE     C33      CTL2    -0.180000       12.0110           0
     40623 MEMB     326      QMPE     H3X      HAL2     0.900000E-01   1.00800           0
     40624 MEMB     326      QMPE     H3Y      HAL2     0.900000E-01   1.00800           0
     40625 MEMB     326      QMPE     C34      CTL2    -0.180000       12.0110           0
     40626 MEMB     326      QMPE     H4X      HAL2     0.900000E-01   1.00800           0
     40627 MEMB     326      QMPE     H4Y      HAL2     0.900000E-01   1.00800           0
     40628 MEMB     326      QMPE     C35      CTL2    -0.180000       12.0110           0
     40629 MEMB     326      QMPE     H5X      HAL2     0.900000E-01   1.00800           0
     40630 MEMB     326      QMPE     H5Y      HAL2     0.900000E-01   1.00800           0
     40631 MEMB     326      QMPE     C36      CTL2    -0.180000       12.0110           0
     40632 MEMB     326      QMPE     H6X      HAL2     0.900000E-01   1.00800           0
     40633 MEMB     326      QMPE     H6Y      HAL2     0.900000E-01   1.00800           0
     40634 MEMB     326      QMPE     C37      CTL2    -0.180000       12.0110           0
     40635 MEMB     326      QMPE     H7X      HAL2     0.900000E-01   1.00800           0
     40636 MEMB     326      QMPE     H7Y      HAL2     0.900000E-01   1.00800           0
     40637 MEMB     326      QMPE     C38      CTL2    -0.180000       12.0110           0
     40638 MEMB     326      QMPE     H8X      HAL2     0.900000E-01   1.00800           0
     40639 MEMB     326      QMPE     H8Y      HAL2     0.900000E-01   1.00800           0
     40640 MEMB     326      QMPE     C39      CTL2    -0.180000       12.0110           0
     40641 MEMB     326      QMPE     H9X      HAL2     0.900000E-01   1.00800           0
     40642 MEMB     326      QMPE     H9Y      HAL2     0.900000E-01   1.00800           0
     40643 MEMB     326      QMPE     C310     CTL2    -0.180000       12.0110           0
     40644 MEMB     326      QMPE     H10X     HAL2     0.900000E-01   1.00800           0
     40645 MEMB     326      QMPE     H10Y     HAL2     0.900000E-01   1.00800           0
     40646 MEMB     326      QMPE     C311     CTL2    -0.180000       12.0110           0
     40647 MEMB     326      QMPE     H11X     HAL2     0.900000E-01   1.00800           0
     40648 MEMB     326      QMPE     H11Y     HAL2     0.900000E-01   1.00800           0
     40649 MEMB     326      QMPE     C312     CTL2    -0.180000       12.0110           0
     40650 MEMB     326      QMPE     H12X     HAL2     0.900000E-01   1.00800           0
     40651 MEMB     326      QMPE     H12Y     HAL2     0.900000E-01   1.00800           0
     40652 MEMB     326      QMPE     C313     CTL2    -0.180000       12.0110           0
     40653 MEMB     326      QMPE     H13X     HAL2     0.900000E-01   1.00800           0
     40654 MEMB     326      QMPE     H13Y     HAL2     0.900000E-01   1.00800           0
     40655 MEMB     326      QMPE     C314     CTL2    -0.180000       12.0110           0
     40656 MEMB     326      QMPE     H14X     HAL2     0.900000E-01   1.00800           0
     40657 MEMB     326      QMPE     H14Y     HAL2     0.900000E-01   1.00800           0
     40658 MEMB     326      QMPE     C315     CTL3    -0.270000       12.0110           0
     40659 MEMB     326      QMPE     H15X     HAL3     0.900000E-01   1.00800           0
     40660 MEMB     326      QMPE     H15Y     HAL3     0.900000E-01   1.00800           0
     40661 MEMB     326      QMPE     H15Z     HAL3     0.900000E-01   1.00800           0
     40662 MEMB     327      PYPG     C13      CTL2     0.500000E-01   12.0110           0
     40663 MEMB     327      PYPG     H13A     HAL2     0.900000E-01   1.00800           0
     40664 MEMB     327      PYPG     H13B     HAL2     0.900000E-01   1.00800           0
     40665 MEMB     327      PYPG     OC3      OHL     -0.660000       15.9994           0
     40666 MEMB     327      PYPG     HO3      HOL      0.430000       1.00800           0
     40667 MEMB     327      PYPG     C12      CTL1     0.140000       12.0110           0
     40668 MEMB     327      PYPG     H12A     HAL1     0.900000E-01   1.00800           0
     40669 MEMB     327      PYPG     OC2      OHL     -0.660000       15.9994           0
     40670 MEMB     327      PYPG     HO2      HOL      0.430000       1.00800           0
     40671 MEMB     327      PYPG     C11      CTL2    -0.800000E-01   12.0110           0
     40672 MEMB     327      PYPG     H11A     HAL2     0.900000E-01   1.00800           0
     40673 MEMB     327      PYPG     H11B     HAL2     0.900000E-01   1.00800           0
     40674 MEMB     327      PYPG     P        PL        1.50000       30.9740           0
     40675 MEMB     327      PYPG     O13      O2L     -0.780000       15.9994           0
     40676 MEMB     327      PYPG     O14      O2L     -0.780000       15.9994           0
     40677 MEMB     327      PYPG     O11      OSLP    -0.570000       15.9994           0
     40678 MEMB     327      PYPG     O12      OSLP    -0.570000       15.9994           0
     40679 MEMB     327      PYPG     C1       CTL2    -0.800000E-01   12.0110           0
     40680 MEMB     327      PYPG     HA       HAL2     0.900000E-01   1.00800           0
     40681 MEMB     327      PYPG     HB       HAL2     0.900000E-01   1.00800           0
     40682 MEMB     327      PYPG     C2       CTL1     0.170000       12.0110           0
     40683 MEMB     327      PYPG     HS       HAL1     0.900000E-01   1.00800           0
     40684 MEMB     327      PYPG     O21      OSL     -0.490000       15.9994           0
     40685 MEMB     327      PYPG     C21      CL       0.900000       12.0110           0
     40686 MEMB     327      PYPG     O22      OBL     -0.630000       15.9994           0
     40687 MEMB     327      PYPG     C22      CTL2    -0.220000       12.0110           0
     40688 MEMB     327      PYPG     H2R      HAL2     0.900000E-01   1.00800           0
     40689 MEMB     327      PYPG     H2S      HAL2     0.900000E-01   1.00800           0
     40690 MEMB     327      PYPG     C3       CTL2     0.800000E-01   12.0110           0
     40691 MEMB     327      PYPG     HX       HAL2     0.900000E-01   1.00800           0
     40692 MEMB     327      PYPG     HY       HAL2     0.900000E-01   1.00800           0
     40693 MEMB     327      PYPG     O31      OSL     -0.490000       15.9994           0
     40694 MEMB     327      PYPG     C31      CL       0.900000       12.0110           0
     40695 MEMB     327      PYPG     O32      OBL     -0.630000       15.9994           0
     40696 MEMB     327      PYPG     C32      CTL2    -0.220000       12.0110           0
     40697 MEMB     327      PYPG     H2X      HAL2     0.900000E-01   1.00800           0
     40698 MEMB     327      PYPG     H2Y      HAL2     0.900000E-01   1.00800           0
     40699 MEMB     327      PYPG     C23      CTL2    -0.180000       12.0110           0
     40700 MEMB     327      PYPG     H3R      HAL2     0.900000E-01   1.00800           0
     40701 MEMB     327      PYPG     H3S      HAL2     0.900000E-01   1.00800           0
     40702 MEMB     327      PYPG     C24      CTL2    -0.180000       12.0110           0
     40703 MEMB     327      PYPG     H4R      HAL2     0.900000E-01   1.00800           0
     40704 MEMB     327      PYPG     H4S      HAL2     0.900000E-01   1.00800           0
     40705 MEMB     327      PYPG     C25      CTL2    -0.180000       12.0110           0
     40706 MEMB     327      PYPG     H5R      HAL2     0.900000E-01   1.00800           0
     40707 MEMB     327      PYPG     H5S      HAL2     0.900000E-01   1.00800           0
     40708 MEMB     327      PYPG     C26      CTL2    -0.180000       12.0110           0
     40709 MEMB     327      PYPG     H6R      HAL2     0.900000E-01   1.00800           0
     40710 MEMB     327      PYPG     H6S      HAL2     0.900000E-01   1.00800           0
     40711 MEMB     327      PYPG     C27      CTL2    -0.180000       12.0110           0
     40712 MEMB     327      PYPG     H7R      HAL2     0.900000E-01   1.00800           0
     40713 MEMB     327      PYPG     H7S      HAL2     0.900000E-01   1.00800           0
     40714 MEMB     327      PYPG     C28      CTL2    -0.180000       12.0110           0
     40715 MEMB     327      PYPG     H8R      HAL2     0.900000E-01   1.00800           0
     40716 MEMB     327      PYPG     H8S      HAL2     0.900000E-01   1.00800           0
     40717 MEMB     327      PYPG     C29      CEL1    -0.150000       12.0110           0
     40718 MEMB     327      PYPG     H9R      HEL1     0.150000       1.00800           0
     40719 MEMB     327      PYPG     C210     CEL1    -0.150000       12.0110           0
     40720 MEMB     327      PYPG     H10R     HEL1     0.150000       1.00800           0
     40721 MEMB     327      PYPG     C211     CTL2    -0.180000       12.0110           0
     40722 MEMB     327      PYPG     H11R     HAL2     0.900000E-01   1.00800           0
     40723 MEMB     327      PYPG     H11S     HAL2     0.900000E-01   1.00800           0
     40724 MEMB     327      PYPG     C212     CTL2    -0.180000       12.0110           0
     40725 MEMB     327      PYPG     H12R     HAL2     0.900000E-01   1.00800           0
     40726 MEMB     327      PYPG     H12S     HAL2     0.900000E-01   1.00800           0
     40727 MEMB     327      PYPG     C213     CTL2    -0.180000       12.0110           0
     40728 MEMB     327      PYPG     H13R     HAL2     0.900000E-01   1.00800           0
     40729 MEMB     327      PYPG     H13S     HAL2     0.900000E-01   1.00800           0
     40730 MEMB     327      PYPG     C214     CTL2    -0.180000       12.0110           0
     40731 MEMB     327      PYPG     H14R     HAL2     0.900000E-01   1.00800           0
     40732 MEMB     327      PYPG     H14S     HAL2     0.900000E-01   1.00800           0
     40733 MEMB     327      PYPG     C215     CTL2    -0.180000       12.0110           0
     40734 MEMB     327      PYPG     H15R     HAL2     0.900000E-01   1.00800           0
     40735 MEMB     327      PYPG     H15S     HAL2     0.900000E-01   1.00800           0
     40736 MEMB     327      PYPG     C216     CTL3    -0.270000       12.0110           0
     40737 MEMB     327      PYPG     H16R     HAL3     0.900000E-01   1.00800           0
     40738 MEMB     327      PYPG     H16S     HAL3     0.900000E-01   1.00800           0
     40739 MEMB     327      PYPG     H16T     HAL3     0.900000E-01   1.00800           0
     40740 MEMB     327      PYPG     C33      CTL2    -0.180000       12.0110           0
     40741 MEMB     327      PYPG     H3X      HAL2     0.900000E-01   1.00800           0
     40742 MEMB     327      PYPG     H3Y      HAL2     0.900000E-01   1.00800           0
     40743 MEMB     327      PYPG     C34      CTL2    -0.180000       12.0110           0
     40744 MEMB     327      PYPG     H4X      HAL2     0.900000E-01   1.00800           0
     40745 MEMB     327      PYPG     H4Y      HAL2     0.900000E-01   1.00800           0
     40746 MEMB     327      PYPG     C35      CTL2    -0.180000       12.0110           0
     40747 MEMB     327      PYPG     H5X      HAL2     0.900000E-01   1.00800           0
     40748 MEMB     327      PYPG     H5Y      HAL2     0.900000E-01   1.00800           0
     40749 MEMB     327      PYPG     C36      CTL2    -0.180000       12.0110           0
     40750 MEMB     327      PYPG     H6X      HAL2     0.900000E-01   1.00800           0
     40751 MEMB     327      PYPG     H6Y      HAL2     0.900000E-01   1.00800           0
     40752 MEMB     327      PYPG     C37      CTL2    -0.180000       12.0110           0
     40753 MEMB     327      PYPG     H7X      HAL2     0.900000E-01   1.00800           0
     40754 MEMB     327      PYPG     H7Y      HAL2     0.900000E-01   1.00800           0
     40755 MEMB     327      PYPG     C38      CTL2    -0.180000       12.0110           0
     40756 MEMB     327      PYPG     H8X      HAL2     0.900000E-01   1.00800           0
     40757 MEMB     327      PYPG     H8Y      HAL2     0.900000E-01   1.00800           0
     40758 MEMB     327      PYPG     C39      CTL2    -0.180000       12.0110           0
     40759 MEMB     327      PYPG     H9X      HAL2     0.900000E-01   1.00800           0
     40760 MEMB     327      PYPG     H9Y      HAL2     0.900000E-01   1.00800           0
     40761 MEMB     327      PYPG     C310     CTL2    -0.180000       12.0110           0
     40762 MEMB     327      PYPG     H10X     HAL2     0.900000E-01   1.00800           0
     40763 MEMB     327      PYPG     H10Y     HAL2     0.900000E-01   1.00800           0
     40764 MEMB     327      PYPG     C311     CTL2    -0.180000       12.0110           0
     40765 MEMB     327      PYPG     H11X     HAL2     0.900000E-01   1.00800           0
     40766 MEMB     327      PYPG     H11Y     HAL2     0.900000E-01   1.00800           0
     40767 MEMB     327      PYPG     C312     CTL2    -0.180000       12.0110           0
     40768 MEMB     327      PYPG     H12X     HAL2     0.900000E-01   1.00800           0
     40769 MEMB     327      PYPG     H12Y     HAL2     0.900000E-01   1.00800           0
     40770 MEMB     327      PYPG     C313     CTL2    -0.180000       12.0110           0
     40771 MEMB     327      PYPG     H13X     HAL2     0.900000E-01   1.00800           0
     40772 MEMB     327      PYPG     H13Y     HAL2     0.900000E-01   1.00800           0
     40773 MEMB     327      PYPG     C314     CTL2    -0.180000       12.0110           0
     40774 MEMB     327      PYPG     H14X     HAL2     0.900000E-01   1.00800           0
     40775 MEMB     327      PYPG     H14Y     HAL2     0.900000E-01   1.00800           0
     40776 MEMB     327      PYPG     C315     CTL2    -0.180000       12.0110           0
     40777 MEMB     327      PYPG     H15X     HAL2     0.900000E-01   1.00800           0
     40778 MEMB     327      PYPG     H15Y     HAL2     0.900000E-01   1.00800           0
     40779 MEMB     327      PYPG     C316     CTL3    -0.270000       12.0110           0
     40780 MEMB     327      PYPG     H16X     HAL3     0.900000E-01   1.00800           0
     40781 MEMB     327      PYPG     H16Y     HAL3     0.900000E-01   1.00800           0
     40782 MEMB     327      PYPG     H16Z     HAL3     0.900000E-01   1.00800           0
     40783 MEMB     328      PMPG     C13      CTL2     0.500000E-01   12.0110           0
     40784 MEMB     328      PMPG     H13A     HAL2     0.900000E-01   1.00800           0
     40785 MEMB     328      PMPG     H13B     HAL2     0.900000E-01   1.00800           0
     40786 MEMB     328      PMPG     OC3      OHL     -0.660000       15.9994           0
     40787 MEMB     328      PMPG     HO3      HOL      0.430000       1.00800           0
     40788 MEMB     328      PMPG     C12      CTL1     0.140000       12.0110           0
     40789 MEMB     328      PMPG     H12A     HAL1     0.900000E-01   1.00800           0
     40790 MEMB     328      PMPG     OC2      OHL     -0.660000       15.9994           0
     40791 MEMB     328      PMPG     HO2      HOL      0.430000       1.00800           0
     40792 MEMB     328      PMPG     C11      CTL2    -0.800000E-01   12.0110           0
     40793 MEMB     328      PMPG     H11A     HAL2     0.900000E-01   1.00800           0
     40794 MEMB     328      PMPG     H11B     HAL2     0.900000E-01   1.00800           0
     40795 MEMB     328      PMPG     P        PL        1.50000       30.9740           0
     40796 MEMB     328      PMPG     O13      O2L     -0.780000       15.9994           0
     40797 MEMB     328      PMPG     O14      O2L     -0.780000       15.9994           0
     40798 MEMB     328      PMPG     O11      OSLP    -0.570000       15.9994           0
     40799 MEMB     328      PMPG     O12      OSLP    -0.570000       15.9994           0
     40800 MEMB     328      PMPG     C1       CTL2    -0.800000E-01   12.0110           0
     40801 MEMB     328      PMPG     HA       HAL2     0.900000E-01   1.00800           0
     40802 MEMB     328      PMPG     HB       HAL2     0.900000E-01   1.00800           0
     40803 MEMB     328      PMPG     C2       CTL1     0.170000       12.0110           0
     40804 MEMB     328      PMPG     HS       HAL1     0.900000E-01   1.00800           0
     40805 MEMB     328      PMPG     O21      OSL     -0.490000       15.9994           0
     40806 MEMB     328      PMPG     C21      CL       0.900000       12.0110           0
     40807 MEMB     328      PMPG     O22      OBL     -0.630000       15.9994           0
     40808 MEMB     328      PMPG     C22      CTL2    -0.220000       12.0110           0
     40809 MEMB     328      PMPG     H2R      HAL2     0.900000E-01   1.00800           0
     40810 MEMB     328      PMPG     H2S      HAL2     0.900000E-01   1.00800           0
     40811 MEMB     328      PMPG     C3       CTL2     0.800000E-01   12.0110           0
     40812 MEMB     328      PMPG     HX       HAL2     0.900000E-01   1.00800           0
     40813 MEMB     328      PMPG     HY       HAL2     0.900000E-01   1.00800           0
     40814 MEMB     328      PMPG     O31      OSL     -0.490000       15.9994           0
     40815 MEMB     328      PMPG     C31      CL       0.900000       12.0110           0
     40816 MEMB     328      PMPG     O32      OBL     -0.630000       15.9994           0
     40817 MEMB     328      PMPG     C32      CTL2    -0.220000       12.0110           0
     40818 MEMB     328      PMPG     H2X      HAL2     0.900000E-01   1.00800           0
     40819 MEMB     328      PMPG     H2Y      HAL2     0.900000E-01   1.00800           0
     40820 MEMB     328      PMPG     C23      CTL2    -0.180000       12.0110           0
     40821 MEMB     328      PMPG     H3R      HAL2     0.900000E-01   1.00800           0
     40822 MEMB     328      PMPG     H3S      HAL2     0.900000E-01   1.00800           0
     40823 MEMB     328      PMPG     C24      CTL2    -0.180000       12.0110           0
     40824 MEMB     328      PMPG     H4R      HAL2     0.900000E-01   1.00800           0
     40825 MEMB     328      PMPG     H4S      HAL2     0.900000E-01   1.00800           0
     40826 MEMB     328      PMPG     C25      CTL2    -0.180000       12.0110           0
     40827 MEMB     328      PMPG     H5R      HAL2     0.900000E-01   1.00800           0
     40828 MEMB     328      PMPG     H5S      HAL2     0.900000E-01   1.00800           0
     40829 MEMB     328      PMPG     C26      CTL2    -0.180000       12.0110           0
     40830 MEMB     328      PMPG     H6R      HAL2     0.900000E-01   1.00800           0
     40831 MEMB     328      PMPG     H6S      HAL2     0.900000E-01   1.00800           0
     40832 MEMB     328      PMPG     C27      CTL2    -0.180000       12.0110           0
     40833 MEMB     328      PMPG     H7R      HAL2     0.900000E-01   1.00800           0
     40834 MEMB     328      PMPG     H7S      HAL2     0.900000E-01   1.00800           0
     40835 MEMB     328      PMPG     C28      CTL2    -0.180000       12.0110           0
     40836 MEMB     328      PMPG     H8R      HAL2     0.900000E-01   1.00800           0
     40837 MEMB     328      PMPG     H8S      HAL2     0.900000E-01   1.00800           0
     40838 MEMB     328      PMPG     C29      CG3RC1  -0.900000E-01   12.0110           0
     40839 MEMB     328      PMPG     H9R      HGA1     0.900000E-01   1.00800           0
     40840 MEMB     328      PMPG     C217     CG3C31  -0.180000       12.0110           0
     40841 MEMB     328      PMPG     H17R     HGA2     0.900000E-01   1.00800           0
     40842 MEMB     328      PMPG     H17S     HGA2     0.900000E-01   1.00800           0
     40843 MEMB     328      PMPG     C210     CG3RC1  -0.900000E-01   12.0110           0
     40844 MEMB     328      PMPG     H10R     HGA1     0.900000E-01   1.00800           0
     40845 MEMB     328      PMPG     C211     CTL2    -0.180000       12.0110           0
     40846 MEMB     328      PMPG     H11R     HAL2     0.900000E-01   1.00800           0
     40847 MEMB     328      PMPG     H11S     HAL2     0.900000E-01   1.00800           0
     40848 MEMB     328      PMPG     C212     CTL2    -0.180000       12.0110           0
     40849 MEMB     328      PMPG     H12R     HAL2     0.900000E-01   1.00800           0
     40850 MEMB     328      PMPG     H12S     HAL2     0.900000E-01   1.00800           0
     40851 MEMB     328      PMPG     C213     CTL2    -0.180000       12.0110           0
     40852 MEMB     328      PMPG     H13R     HAL2     0.900000E-01   1.00800           0
     40853 MEMB     328      PMPG     H13S     HAL2     0.900000E-01   1.00800           0
     40854 MEMB     328      PMPG     C214     CTL2    -0.180000       12.0110           0
     40855 MEMB     328      PMPG     H14R     HAL2     0.900000E-01   1.00800           0
     40856 MEMB     328      PMPG     H14S     HAL2     0.900000E-01   1.00800           0
     40857 MEMB     328      PMPG     C215     CTL2    -0.180000       12.0110           0
     40858 MEMB     328      PMPG     H15R     HAL2     0.900000E-01   1.00800           0
     40859 MEMB     328      PMPG     H15S     HAL2     0.900000E-01   1.00800           0
     40860 MEMB     328      PMPG     C216     CTL3    -0.270000       12.0110           0
     40861 MEMB     328      PMPG     H16R     HAL3     0.900000E-01   1.00800           0
     40862 MEMB     328      PMPG     H16S     HAL3     0.900000E-01   1.00800           0
     40863 MEMB     328      PMPG     H16T     HAL3     0.900000E-01   1.00800           0
     40864 MEMB     328      PMPG     C33      CTL2    -0.180000       12.0110           0
     40865 MEMB     328      PMPG     H3X      HAL2     0.900000E-01   1.00800           0
     40866 MEMB     328      PMPG     H3Y      HAL2     0.900000E-01   1.00800           0
     40867 MEMB     328      PMPG     C34      CTL2    -0.180000       12.0110           0
     40868 MEMB     328      PMPG     H4X      HAL2     0.900000E-01   1.00800           0
     40869 MEMB     328      PMPG     H4Y      HAL2     0.900000E-01   1.00800           0
     40870 MEMB     328      PMPG     C35      CTL2    -0.180000       12.0110           0
     40871 MEMB     328      PMPG     H5X      HAL2     0.900000E-01   1.00800           0
     40872 MEMB     328      PMPG     H5Y      HAL2     0.900000E-01   1.00800           0
     40873 MEMB     328      PMPG     C36      CTL2    -0.180000       12.0110           0
     40874 MEMB     328      PMPG     H6X      HAL2     0.900000E-01   1.00800           0
     40875 MEMB     328      PMPG     H6Y      HAL2     0.900000E-01   1.00800           0
     40876 MEMB     328      PMPG     C37      CTL2    -0.180000       12.0110           0
     40877 MEMB     328      PMPG     H7X      HAL2     0.900000E-01   1.00800           0
     40878 MEMB     328      PMPG     H7Y      HAL2     0.900000E-01   1.00800           0
     40879 MEMB     328      PMPG     C38      CTL2    -0.180000       12.0110           0
     40880 MEMB     328      PMPG     H8X      HAL2     0.900000E-01   1.00800           0
     40881 MEMB     328      PMPG     H8Y      HAL2     0.900000E-01   1.00800           0
     40882 MEMB     328      PMPG     C39      CTL2    -0.180000       12.0110           0
     40883 MEMB     328      PMPG     H9X      HAL2     0.900000E-01   1.00800           0
     40884 MEMB     328      PMPG     H9Y      HAL2     0.900000E-01   1.00800           0
     40885 MEMB     328      PMPG     C310     CTL2    -0.180000       12.0110           0
     40886 MEMB     328      PMPG     H10X     HAL2     0.900000E-01   1.00800           0
     40887 MEMB     328      PMPG     H10Y     HAL2     0.900000E-01   1.00800           0
     40888 MEMB     328      PMPG     C311     CTL2    -0.180000       12.0110           0
     40889 MEMB     328      PMPG     H11X     HAL2     0.900000E-01   1.00800           0
     40890 MEMB     328      PMPG     H11Y     HAL2     0.900000E-01   1.00800           0
     40891 MEMB     328      PMPG     C312     CTL2    -0.180000       12.0110           0
     40892 MEMB     328      PMPG     H12X     HAL2     0.900000E-01   1.00800           0
     40893 MEMB     328      PMPG     H12Y     HAL2     0.900000E-01   1.00800           0
     40894 MEMB     328      PMPG     C313     CTL2    -0.180000       12.0110           0
     40895 MEMB     328      PMPG     H13X     HAL2     0.900000E-01   1.00800           0
     40896 MEMB     328      PMPG     H13Y     HAL2     0.900000E-01   1.00800           0
     40897 MEMB     328      PMPG     C314     CTL2    -0.180000       12.0110           0
     40898 MEMB     328      PMPG     H14X     HAL2     0.900000E-01   1.00800           0
     40899 MEMB     328      PMPG     H14Y     HAL2     0.900000E-01   1.00800           0
     40900 MEMB     328      PMPG     C315     CTL2    -0.180000       12.0110           0
     40901 MEMB     328      PMPG     H15X     HAL2     0.900000E-01   1.00800           0
     40902 MEMB     328      PMPG     H15Y     HAL2     0.900000E-01   1.00800           0
     40903 MEMB     328      PMPG     C316     CTL3    -0.270000       12.0110           0
     40904 MEMB     328      PMPG     H16X     HAL3     0.900000E-01   1.00800           0
     40905 MEMB     328      PMPG     H16Y     HAL3     0.900000E-01   1.00800           0
     40906 MEMB     328      PMPG     H16Z     HAL3     0.900000E-01   1.00800           0
     40907 MEMB     329      PMPE     N        NH3L    -0.300000       14.0070           0
     40908 MEMB     329      PMPE     HN1      HCL      0.330000       1.00800           0
     40909 MEMB     329      PMPE     HN2      HCL      0.330000       1.00800           0
     40910 MEMB     329      PMPE     HN3      HCL      0.330000       1.00800           0
     40911 MEMB     329      PMPE     C12      CTL2     0.130000       12.0110           0
     40912 MEMB     329      PMPE     H12A     HAL2     0.900000E-01   1.00800           0
     40913 MEMB     329      PMPE     H12B     HAL2     0.900000E-01   1.00800           0
     40914 MEMB     329      PMPE     C11      CTL2    -0.800000E-01   12.0110           0
     40915 MEMB     329      PMPE     H11A     HAL2     0.900000E-01   1.00800           0
     40916 MEMB     329      PMPE     H11B     HAL2     0.900000E-01   1.00800           0
     40917 MEMB     329      PMPE     P        PL        1.50000       30.9740           0
     40918 MEMB     329      PMPE     O13      O2L     -0.780000       15.9994           0
     40919 MEMB     329      PMPE     O14      O2L     -0.780000       15.9994           0
     40920 MEMB     329      PMPE     O11      OSLP    -0.570000       15.9994           0
     40921 MEMB     329      PMPE     O12      OSLP    -0.570000       15.9994           0
     40922 MEMB     329      PMPE     C1       CTL2    -0.800000E-01   12.0110           0
     40923 MEMB     329      PMPE     HA       HAL2     0.900000E-01   1.00800           0
     40924 MEMB     329      PMPE     HB       HAL2     0.900000E-01   1.00800           0
     40925 MEMB     329      PMPE     C2       CTL1     0.170000       12.0110           0
     40926 MEMB     329      PMPE     HS       HAL1     0.900000E-01   1.00800           0
     40927 MEMB     329      PMPE     O21      OSL     -0.490000       15.9994           0
     40928 MEMB     329      PMPE     C21      CL       0.900000       12.0110           0
     40929 MEMB     329      PMPE     O22      OBL     -0.630000       15.9994           0
     40930 MEMB     329      PMPE     C22      CTL2    -0.220000       12.0110           0
     40931 MEMB     329      PMPE     H2R      HAL2     0.900000E-01   1.00800           0
     40932 MEMB     329      PMPE     H2S      HAL2     0.900000E-01   1.00800           0
     40933 MEMB     329      PMPE     C3       CTL2     0.800000E-01   12.0110           0
     40934 MEMB     329      PMPE     HX       HAL2     0.900000E-01   1.00800           0
     40935 MEMB     329      PMPE     HY       HAL2     0.900000E-01   1.00800           0
     40936 MEMB     329      PMPE     O31      OSL     -0.490000       15.9994           0
     40937 MEMB     329      PMPE     C31      CL       0.900000       12.0110           0
     40938 MEMB     329      PMPE     O32      OBL     -0.630000       15.9994           0
     40939 MEMB     329      PMPE     C32      CTL2    -0.220000       12.0110           0
     40940 MEMB     329      PMPE     H2X      HAL2     0.900000E-01   1.00800           0
     40941 MEMB     329      PMPE     H2Y      HAL2     0.900000E-01   1.00800           0
     40942 MEMB     329      PMPE     C23      CTL2    -0.180000       12.0110           0
     40943 MEMB     329      PMPE     H3R      HAL2     0.900000E-01   1.00800           0
     40944 MEMB     329      PMPE     H3S      HAL2     0.900000E-01   1.00800           0
     40945 MEMB     329      PMPE     C24      CTL2    -0.180000       12.0110           0
     40946 MEMB     329      PMPE     H4R      HAL2     0.900000E-01   1.00800           0
     40947 MEMB     329      PMPE     H4S      HAL2     0.900000E-01   1.00800           0
     40948 MEMB     329      PMPE     C25      CTL2    -0.180000       12.0110           0
     40949 MEMB     329      PMPE     H5R      HAL2     0.900000E-01   1.00800           0
     40950 MEMB     329      PMPE     H5S      HAL2     0.900000E-01   1.00800           0
     40951 MEMB     329      PMPE     C26      CTL2    -0.180000       12.0110           0
     40952 MEMB     329      PMPE     H6R      HAL2     0.900000E-01   1.00800           0
     40953 MEMB     329      PMPE     H6S      HAL2     0.900000E-01   1.00800           0
     40954 MEMB     329      PMPE     C27      CTL2    -0.180000       12.0110           0
     40955 MEMB     329      PMPE     H7R      HAL2     0.900000E-01   1.00800           0
     40956 MEMB     329      PMPE     H7S      HAL2     0.900000E-01   1.00800           0
     40957 MEMB     329      PMPE     C28      CTL2    -0.180000       12.0110           0
     40958 MEMB     329      PMPE     H8R      HAL2     0.900000E-01   1.00800           0
     40959 MEMB     329      PMPE     H8S      HAL2     0.900000E-01   1.00800           0
     40960 MEMB     329      PMPE     C29      CG3RC1  -0.900000E-01   12.0110           0
     40961 MEMB     329      PMPE     H9R      HGA1     0.900000E-01   1.00800           0
     40962 MEMB     329      PMPE     C217     CG3C31  -0.180000       12.0110           0
     40963 MEMB     329      PMPE     H17R     HGA2     0.900000E-01   1.00800           0
     40964 MEMB     329      PMPE     H17S     HGA2     0.900000E-01   1.00800           0
     40965 MEMB     329      PMPE     C210     CG3RC1  -0.900000E-01   12.0110           0
     40966 MEMB     329      PMPE     H10R     HGA1     0.900000E-01   1.00800           0
     40967 MEMB     329      PMPE     C211     CTL2    -0.180000       12.0110           0
     40968 MEMB     329      PMPE     H11R     HAL2     0.900000E-01   1.00800           0
     40969 MEMB     329      PMPE     H11S     HAL2     0.900000E-01   1.00800           0
     40970 MEMB     329      PMPE     C212     CTL2    -0.180000       12.0110           0
     40971 MEMB     329      PMPE     H12R     HAL2     0.900000E-01   1.00800           0
     40972 MEMB     329      PMPE     H12S     HAL2     0.900000E-01   1.00800           0
     40973 MEMB     329      PMPE     C213     CTL2    -0.180000       12.0110           0
     40974 MEMB     329      PMPE     H13R     HAL2     0.900000E-01   1.00800           0
     40975 MEMB     329      PMPE     H13S     HAL2     0.900000E-01   1.00800           0
     40976 MEMB     329      PMPE     C214     CTL2    -0.180000       12.0110           0
     40977 MEMB     329      PMPE     H14R     HAL2     0.900000E-01   1.00800           0
     40978 MEMB     329      PMPE     H14S     HAL2     0.900000E-01   1.00800           0
     40979 MEMB     329      PMPE     C215     CTL2    -0.180000       12.0110           0
     40980 MEMB     329      PMPE     H15R     HAL2     0.900000E-01   1.00800           0
     40981 MEMB     329      PMPE     H15S     HAL2     0.900000E-01   1.00800           0
     40982 MEMB     329      PMPE     C216     CTL3    -0.270000       12.0110           0
     40983 MEMB     329      PMPE     H16R     HAL3     0.900000E-01   1.00800           0
     40984 MEMB     329      PMPE     H16S     HAL3     0.900000E-01   1.00800           0
     40985 MEMB     329      PMPE     H16T     HAL3     0.900000E-01   1.00800           0
     40986 MEMB     329      PMPE     C33      CTL2    -0.180000       12.0110           0
     40987 MEMB     329      PMPE     H3X      HAL2     0.900000E-01   1.00800           0
     40988 MEMB     329      PMPE     H3Y      HAL2     0.900000E-01   1.00800           0
     40989 MEMB     329      PMPE     C34      CTL2    -0.180000       12.0110           0
     40990 MEMB     329      PMPE     H4X      HAL2     0.900000E-01   1.00800           0
     40991 MEMB     329      PMPE     H4Y      HAL2     0.900000E-01   1.00800           0
     40992 MEMB     329      PMPE     C35      CTL2    -0.180000       12.0110           0
     40993 MEMB     329      PMPE     H5X      HAL2     0.900000E-01   1.00800           0
     40994 MEMB     329      PMPE     H5Y      HAL2     0.900000E-01   1.00800           0
     40995 MEMB     329      PMPE     C36      CTL2    -0.180000       12.0110           0
     40996 MEMB     329      PMPE     H6X      HAL2     0.900000E-01   1.00800           0
     40997 MEMB     329      PMPE     H6Y      HAL2     0.900000E-01   1.00800           0
     40998 MEMB     329      PMPE     C37      CTL2    -0.180000       12.0110           0
     40999 MEMB     329      PMPE     H7X      HAL2     0.900000E-01   1.00800           0
     41000 MEMB     329      PMPE     H7Y      HAL2     0.900000E-01   1.00800           0
     41001 MEMB     329      PMPE     C38      CTL2    -0.180000       12.0110           0
     41002 MEMB     329      PMPE     H8X      HAL2     0.900000E-01   1.00800           0
     41003 MEMB     329      PMPE     H8Y      HAL2     0.900000E-01   1.00800           0
     41004 MEMB     329      PMPE     C39      CTL2    -0.180000       12.0110           0
     41005 MEMB     329      PMPE     H9X      HAL2     0.900000E-01   1.00800           0
     41006 MEMB     329      PMPE     H9Y      HAL2     0.900000E-01   1.00800           0
     41007 MEMB     329      PMPE     C310     CTL2    -0.180000       12.0110           0
     41008 MEMB     329      PMPE     H10X     HAL2     0.900000E-01   1.00800           0
     41009 MEMB     329      PMPE     H10Y     HAL2     0.900000E-01   1.00800           0
     41010 MEMB     329      PMPE     C311     CTL2    -0.180000       12.0110           0
     41011 MEMB     329      PMPE     H11X     HAL2     0.900000E-01   1.00800           0
     41012 MEMB     329      PMPE     H11Y     HAL2     0.900000E-01   1.00800           0
     41013 MEMB     329      PMPE     C312     CTL2    -0.180000       12.0110           0
     41014 MEMB     329      PMPE     H12X     HAL2     0.900000E-01   1.00800           0
     41015 MEMB     329      PMPE     H12Y     HAL2     0.900000E-01   1.00800           0
     41016 MEMB     329      PMPE     C313     CTL2    -0.180000       12.0110           0
     41017 MEMB     329      PMPE     H13X     HAL2     0.900000E-01   1.00800           0
     41018 MEMB     329      PMPE     H13Y     HAL2     0.900000E-01   1.00800           0
     41019 MEMB     329      PMPE     C314     CTL2    -0.180000       12.0110           0
     41020 MEMB     329      PMPE     H14X     HAL2     0.900000E-01   1.00800           0
     41021 MEMB     329      PMPE     H14Y     HAL2     0.900000E-01   1.00800           0
     41022 MEMB     329      PMPE     C315     CTL2    -0.180000       12.0110           0
     41023 MEMB     329      PMPE     H15X     HAL2     0.900000E-01   1.00800           0
     41024 MEMB     329      PMPE     H15Y     HAL2     0.900000E-01   1.00800           0
     41025 MEMB     329      PMPE     C316     CTL3    -0.270000       12.0110           0
     41026 MEMB     329      PMPE     H16X     HAL3     0.900000E-01   1.00800           0
     41027 MEMB     329      PMPE     H16Y     HAL3     0.900000E-01   1.00800           0
     41028 MEMB     329      PMPE     H16Z     HAL3     0.900000E-01   1.00800           0
     41029 MEMB     330      OYPE     N        NH3L    -0.300000       14.0070           0
     41030 MEMB     330      OYPE     HN1      HCL      0.330000       1.00800           0
     41031 MEMB     330      OYPE     HN2      HCL      0.330000       1.00800           0
     41032 MEMB     330      OYPE     HN3      HCL      0.330000       1.00800           0
     41033 MEMB     330      OYPE     C12      CTL2     0.130000       12.0110           0
     41034 MEMB     330      OYPE     H12A     HAL2     0.900000E-01   1.00800           0
     41035 MEMB     330      OYPE     H12B     HAL2     0.900000E-01   1.00800           0
     41036 MEMB     330      OYPE     C11      CTL2    -0.800000E-01   12.0110           0
     41037 MEMB     330      OYPE     H11A     HAL2     0.900000E-01   1.00800           0
     41038 MEMB     330      OYPE     H11B     HAL2     0.900000E-01   1.00800           0
     41039 MEMB     330      OYPE     P        PL        1.50000       30.9740           0
     41040 MEMB     330      OYPE     O13      O2L     -0.780000       15.9994           0
     41041 MEMB     330      OYPE     O14      O2L     -0.780000       15.9994           0
     41042 MEMB     330      OYPE     O11      OSLP    -0.570000       15.9994           0
     41043 MEMB     330      OYPE     O12      OSLP    -0.570000       15.9994           0
     41044 MEMB     330      OYPE     C1       CTL2    -0.800000E-01   12.0110           0
     41045 MEMB     330      OYPE     HA       HAL2     0.900000E-01   1.00800           0
     41046 MEMB     330      OYPE     HB       HAL2     0.900000E-01   1.00800           0
     41047 MEMB     330      OYPE     C2       CTL1     0.170000       12.0110           0
     41048 MEMB     330      OYPE     HS       HAL1     0.900000E-01   1.00800           0
     41049 MEMB     330      OYPE     O21      OSL     -0.490000       15.9994           0
     41050 MEMB     330      OYPE     C21      CL       0.900000       12.0110           0
     41051 MEMB     330      OYPE     O22      OBL     -0.630000       15.9994           0
     41052 MEMB     330      OYPE     C22      CTL2    -0.220000       12.0110           0
     41053 MEMB     330      OYPE     H2R      HAL2     0.900000E-01   1.00800           0
     41054 MEMB     330      OYPE     H2S      HAL2     0.900000E-01   1.00800           0
     41055 MEMB     330      OYPE     C3       CTL2     0.800000E-01   12.0110           0
     41056 MEMB     330      OYPE     HX       HAL2     0.900000E-01   1.00800           0
     41057 MEMB     330      OYPE     HY       HAL2     0.900000E-01   1.00800           0
     41058 MEMB     330      OYPE     O31      OSL     -0.490000       15.9994           0
     41059 MEMB     330      OYPE     C31      CL       0.900000       12.0110           0
     41060 MEMB     330      OYPE     O32      OBL     -0.630000       15.9994           0
     41061 MEMB     330      OYPE     C32      CTL2    -0.220000       12.0110           0
     41062 MEMB     330      OYPE     H2X      HAL2     0.900000E-01   1.00800           0
     41063 MEMB     330      OYPE     H2Y      HAL2     0.900000E-01   1.00800           0
     41064 MEMB     330      OYPE     C23      CTL2    -0.180000       12.0110           0
     41065 MEMB     330      OYPE     H3R      HAL2     0.900000E-01   1.00800           0
     41066 MEMB     330      OYPE     H3S      HAL2     0.900000E-01   1.00800           0
     41067 MEMB     330      OYPE     C24      CTL2    -0.180000       12.0110           0
     41068 MEMB     330      OYPE     H4R      HAL2     0.900000E-01   1.00800           0
     41069 MEMB     330      OYPE     H4S      HAL2     0.900000E-01   1.00800           0
     41070 MEMB     330      OYPE     C25      CTL2    -0.180000       12.0110           0
     41071 MEMB     330      OYPE     H5R      HAL2     0.900000E-01   1.00800           0
     41072 MEMB     330      OYPE     H5S      HAL2     0.900000E-01   1.00800           0
     41073 MEMB     330      OYPE     C26      CTL2    -0.180000       12.0110           0
     41074 MEMB     330      OYPE     H6R      HAL2     0.900000E-01   1.00800           0
     41075 MEMB     330      OYPE     H6S      HAL2     0.900000E-01   1.00800           0
     41076 MEMB     330      OYPE     C27      CTL2    -0.180000       12.0110           0
     41077 MEMB     330      OYPE     H7R      HAL2     0.900000E-01   1.00800           0
     41078 MEMB     330      OYPE     H7S      HAL2     0.900000E-01   1.00800           0
     41079 MEMB     330      OYPE     C28      CTL2    -0.180000       12.0110           0
     41080 MEMB     330      OYPE     H8R      HAL2     0.900000E-01   1.00800           0
     41081 MEMB     330      OYPE     H8S      HAL2     0.900000E-01   1.00800           0
     41082 MEMB     330      OYPE     C29      CEL1    -0.150000       12.0110           0
     41083 MEMB     330      OYPE     H9R      HEL1     0.150000       1.00800           0
     41084 MEMB     330      OYPE     C210     CEL1    -0.150000       12.0110           0
     41085 MEMB     330      OYPE     H10R     HEL1     0.150000       1.00800           0
     41086 MEMB     330      OYPE     C211     CTL2    -0.180000       12.0110           0
     41087 MEMB     330      OYPE     H11R     HAL2     0.900000E-01   1.00800           0
     41088 MEMB     330      OYPE     H11S     HAL2     0.900000E-01   1.00800           0
     41089 MEMB     330      OYPE     C212     CTL2    -0.180000       12.0110           0
     41090 MEMB     330      OYPE     H12R     HAL2     0.900000E-01   1.00800           0
     41091 MEMB     330      OYPE     H12S     HAL2     0.900000E-01   1.00800           0
     41092 MEMB     330      OYPE     C213     CTL2    -0.180000       12.0110           0
     41093 MEMB     330      OYPE     H13R     HAL2     0.900000E-01   1.00800           0
     41094 MEMB     330      OYPE     H13S     HAL2     0.900000E-01   1.00800           0
     41095 MEMB     330      OYPE     C214     CTL2    -0.180000       12.0110           0
     41096 MEMB     330      OYPE     H14R     HAL2     0.900000E-01   1.00800           0
     41097 MEMB     330      OYPE     H14S     HAL2     0.900000E-01   1.00800           0
     41098 MEMB     330      OYPE     C215     CTL2    -0.180000       12.0110           0
     41099 MEMB     330      OYPE     H15R     HAL2     0.900000E-01   1.00800           0
     41100 MEMB     330      OYPE     H15S     HAL2     0.900000E-01   1.00800           0
     41101 MEMB     330      OYPE     C216     CTL3    -0.270000       12.0110           0
     41102 MEMB     330      OYPE     H16R     HAL3     0.900000E-01   1.00800           0
     41103 MEMB     330      OYPE     H16S     HAL3     0.900000E-01   1.00800           0
     41104 MEMB     330      OYPE     H16T     HAL3     0.900000E-01   1.00800           0
     41105 MEMB     330      OYPE     C33      CTL2    -0.180000       12.0110           0
     41106 MEMB     330      OYPE     H3X      HAL2     0.900000E-01   1.00800           0
     41107 MEMB     330      OYPE     H3Y      HAL2     0.900000E-01   1.00800           0
     41108 MEMB     330      OYPE     C34      CTL2    -0.180000       12.0110           0
     41109 MEMB     330      OYPE     H4X      HAL2     0.900000E-01   1.00800           0
     41110 MEMB     330      OYPE     H4Y      HAL2     0.900000E-01   1.00800           0
     41111 MEMB     330      OYPE     C35      CTL2    -0.180000       12.0110           0
     41112 MEMB     330      OYPE     H5X      HAL2     0.900000E-01   1.00800           0
     41113 MEMB     330      OYPE     H5Y      HAL2     0.900000E-01   1.00800           0
     41114 MEMB     330      OYPE     C36      CTL2    -0.180000       12.0110           0
     41115 MEMB     330      OYPE     H6X      HAL2     0.900000E-01   1.00800           0
     41116 MEMB     330      OYPE     H6Y      HAL2     0.900000E-01   1.00800           0
     41117 MEMB     330      OYPE     C37      CTL2    -0.180000       12.0110           0
     41118 MEMB     330      OYPE     H7X      HAL2     0.900000E-01   1.00800           0
     41119 MEMB     330      OYPE     H7Y      HAL2     0.900000E-01   1.00800           0
     41120 MEMB     330      OYPE     C38      CTL2    -0.180000       12.0110           0
     41121 MEMB     330      OYPE     H8X      HAL2     0.900000E-01   1.00800           0
     41122 MEMB     330      OYPE     H8Y      HAL2     0.900000E-01   1.00800           0
     41123 MEMB     330      OYPE     C39      CEL1    -0.150000       12.0110           0
     41124 MEMB     330      OYPE     H9X      HEL1     0.150000       1.00800           0
     41125 MEMB     330      OYPE     C310     CEL1    -0.150000       12.0110           0
     41126 MEMB     330      OYPE     H10X     HEL1     0.150000       1.00800           0
     41127 MEMB     330      OYPE     C311     CTL2    -0.180000       12.0110           0
     41128 MEMB     330      OYPE     H11X     HAL2     0.900000E-01   1.00800           0
     41129 MEMB     330      OYPE     H11Y     HAL2     0.900000E-01   1.00800           0
     41130 MEMB     330      OYPE     C312     CTL2    -0.180000       12.0110           0
     41131 MEMB     330      OYPE     H12X     HAL2     0.900000E-01   1.00800           0
     41132 MEMB     330      OYPE     H12Y     HAL2     0.900000E-01   1.00800           0
     41133 MEMB     330      OYPE     C313     CTL2    -0.180000       12.0110           0
     41134 MEMB     330      OYPE     H13X     HAL2     0.900000E-01   1.00800           0
     41135 MEMB     330      OYPE     H13Y     HAL2     0.900000E-01   1.00800           0
     41136 MEMB     330      OYPE     C314     CTL2    -0.180000       12.0110           0
     41137 MEMB     330      OYPE     H14X     HAL2     0.900000E-01   1.00800           0
     41138 MEMB     330      OYPE     H14Y     HAL2     0.900000E-01   1.00800           0
     41139 MEMB     330      OYPE     C315     CTL2    -0.180000       12.0110           0
     41140 MEMB     330      OYPE     H15X     HAL2     0.900000E-01   1.00800           0
     41141 MEMB     330      OYPE     H15Y     HAL2     0.900000E-01   1.00800           0
     41142 MEMB     330      OYPE     C316     CTL2    -0.180000       12.0110           0
     41143 MEMB     330      OYPE     H16X     HAL2     0.900000E-01   1.00800           0
     41144 MEMB     330      OYPE     H16Y     HAL2     0.900000E-01   1.00800           0
     41145 MEMB     330      OYPE     C317     CTL2    -0.180000       12.0110           0
     41146 MEMB     330      OYPE     H17X     HAL2     0.900000E-01   1.00800           0
     41147 MEMB     330      OYPE     H17Y     HAL2     0.900000E-01   1.00800           0
     41148 MEMB     330      OYPE     C318     CTL3    -0.270000       12.0110           0
     41149 MEMB     330      OYPE     H18X     HAL3     0.900000E-01   1.00800           0
     41150 MEMB     330      OYPE     H18Y     HAL3     0.900000E-01   1.00800           0
     41151 MEMB     330      OYPE     H18Z     HAL3     0.900000E-01   1.00800           0
     41152 MEMB     331      OYPE     N        NH3L    -0.300000       14.0070           0
     41153 MEMB     331      OYPE     HN1      HCL      0.330000       1.00800           0
     41154 MEMB     331      OYPE     HN2      HCL      0.330000       1.00800           0
     41155 MEMB     331      OYPE     HN3      HCL      0.330000       1.00800           0
     41156 MEMB     331      OYPE     C12      CTL2     0.130000       12.0110           0
     41157 MEMB     331      OYPE     H12A     HAL2     0.900000E-01   1.00800           0
     41158 MEMB     331      OYPE     H12B     HAL2     0.900000E-01   1.00800           0
     41159 MEMB     331      OYPE     C11      CTL2    -0.800000E-01   12.0110           0
     41160 MEMB     331      OYPE     H11A     HAL2     0.900000E-01   1.00800           0
     41161 MEMB     331      OYPE     H11B     HAL2     0.900000E-01   1.00800           0
     41162 MEMB     331      OYPE     P        PL        1.50000       30.9740           0
     41163 MEMB     331      OYPE     O13      O2L     -0.780000       15.9994           0
     41164 MEMB     331      OYPE     O14      O2L     -0.780000       15.9994           0
     41165 MEMB     331      OYPE     O11      OSLP    -0.570000       15.9994           0
     41166 MEMB     331      OYPE     O12      OSLP    -0.570000       15.9994           0
     41167 MEMB     331      OYPE     C1       CTL2    -0.800000E-01   12.0110           0
     41168 MEMB     331      OYPE     HA       HAL2     0.900000E-01   1.00800           0
     41169 MEMB     331      OYPE     HB       HAL2     0.900000E-01   1.00800           0
     41170 MEMB     331      OYPE     C2       CTL1     0.170000       12.0110           0
     41171 MEMB     331      OYPE     HS       HAL1     0.900000E-01   1.00800           0
     41172 MEMB     331      OYPE     O21      OSL     -0.490000       15.9994           0
     41173 MEMB     331      OYPE     C21      CL       0.900000       12.0110           0
     41174 MEMB     331      OYPE     O22      OBL     -0.630000       15.9994           0
     41175 MEMB     331      OYPE     C22      CTL2    -0.220000       12.0110           0
     41176 MEMB     331      OYPE     H2R      HAL2     0.900000E-01   1.00800           0
     41177 MEMB     331      OYPE     H2S      HAL2     0.900000E-01   1.00800           0
     41178 MEMB     331      OYPE     C3       CTL2     0.800000E-01   12.0110           0
     41179 MEMB     331      OYPE     HX       HAL2     0.900000E-01   1.00800           0
     41180 MEMB     331      OYPE     HY       HAL2     0.900000E-01   1.00800           0
     41181 MEMB     331      OYPE     O31      OSL     -0.490000       15.9994           0
     41182 MEMB     331      OYPE     C31      CL       0.900000       12.0110           0
     41183 MEMB     331      OYPE     O32      OBL     -0.630000       15.9994           0
     41184 MEMB     331      OYPE     C32      CTL2    -0.220000       12.0110           0
     41185 MEMB     331      OYPE     H2X      HAL2     0.900000E-01   1.00800           0
     41186 MEMB     331      OYPE     H2Y      HAL2     0.900000E-01   1.00800           0
     41187 MEMB     331      OYPE     C23      CTL2    -0.180000       12.0110           0
     41188 MEMB     331      OYPE     H3R      HAL2     0.900000E-01   1.00800           0
     41189 MEMB     331      OYPE     H3S      HAL2     0.900000E-01   1.00800           0
     41190 MEMB     331      OYPE     C24      CTL2    -0.180000       12.0110           0
     41191 MEMB     331      OYPE     H4R      HAL2     0.900000E-01   1.00800           0
     41192 MEMB     331      OYPE     H4S      HAL2     0.900000E-01   1.00800           0
     41193 MEMB     331      OYPE     C25      CTL2    -0.180000       12.0110           0
     41194 MEMB     331      OYPE     H5R      HAL2     0.900000E-01   1.00800           0
     41195 MEMB     331      OYPE     H5S      HAL2     0.900000E-01   1.00800           0
     41196 MEMB     331      OYPE     C26      CTL2    -0.180000       12.0110           0
     41197 MEMB     331      OYPE     H6R      HAL2     0.900000E-01   1.00800           0
     41198 MEMB     331      OYPE     H6S      HAL2     0.900000E-01   1.00800           0
     41199 MEMB     331      OYPE     C27      CTL2    -0.180000       12.0110           0
     41200 MEMB     331      OYPE     H7R      HAL2     0.900000E-01   1.00800           0
     41201 MEMB     331      OYPE     H7S      HAL2     0.900000E-01   1.00800           0
     41202 MEMB     331      OYPE     C28      CTL2    -0.180000       12.0110           0
     41203 MEMB     331      OYPE     H8R      HAL2     0.900000E-01   1.00800           0
     41204 MEMB     331      OYPE     H8S      HAL2     0.900000E-01   1.00800           0
     41205 MEMB     331      OYPE     C29      CEL1    -0.150000       12.0110           0
     41206 MEMB     331      OYPE     H9R      HEL1     0.150000       1.00800           0
     41207 MEMB     331      OYPE     C210     CEL1    -0.150000       12.0110           0
     41208 MEMB     331      OYPE     H10R     HEL1     0.150000       1.00800           0
     41209 MEMB     331      OYPE     C211     CTL2    -0.180000       12.0110           0
     41210 MEMB     331      OYPE     H11R     HAL2     0.900000E-01   1.00800           0
     41211 MEMB     331      OYPE     H11S     HAL2     0.900000E-01   1.00800           0
     41212 MEMB     331      OYPE     C212     CTL2    -0.180000       12.0110           0
     41213 MEMB     331      OYPE     H12R     HAL2     0.900000E-01   1.00800           0
     41214 MEMB     331      OYPE     H12S     HAL2     0.900000E-01   1.00800           0
     41215 MEMB     331      OYPE     C213     CTL2    -0.180000       12.0110           0
     41216 MEMB     331      OYPE     H13R     HAL2     0.900000E-01   1.00800           0
     41217 MEMB     331      OYPE     H13S     HAL2     0.900000E-01   1.00800           0
     41218 MEMB     331      OYPE     C214     CTL2    -0.180000       12.0110           0
     41219 MEMB     331      OYPE     H14R     HAL2     0.900000E-01   1.00800           0
     41220 MEMB     331      OYPE     H14S     HAL2     0.900000E-01   1.00800           0
     41221 MEMB     331      OYPE     C215     CTL2    -0.180000       12.0110           0
     41222 MEMB     331      OYPE     H15R     HAL2     0.900000E-01   1.00800           0
     41223 MEMB     331      OYPE     H15S     HAL2     0.900000E-01   1.00800           0
     41224 MEMB     331      OYPE     C216     CTL3    -0.270000       12.0110           0
     41225 MEMB     331      OYPE     H16R     HAL3     0.900000E-01   1.00800           0
     41226 MEMB     331      OYPE     H16S     HAL3     0.900000E-01   1.00800           0
     41227 MEMB     331      OYPE     H16T     HAL3     0.900000E-01   1.00800           0
     41228 MEMB     331      OYPE     C33      CTL2    -0.180000       12.0110           0
     41229 MEMB     331      OYPE     H3X      HAL2     0.900000E-01   1.00800           0
     41230 MEMB     331      OYPE     H3Y      HAL2     0.900000E-01   1.00800           0
     41231 MEMB     331      OYPE     C34      CTL2    -0.180000       12.0110           0
     41232 MEMB     331      OYPE     H4X      HAL2     0.900000E-01   1.00800           0
     41233 MEMB     331      OYPE     H4Y      HAL2     0.900000E-01   1.00800           0
     41234 MEMB     331      OYPE     C35      CTL2    -0.180000       12.0110           0
     41235 MEMB     331      OYPE     H5X      HAL2     0.900000E-01   1.00800           0
     41236 MEMB     331      OYPE     H5Y      HAL2     0.900000E-01   1.00800           0
     41237 MEMB     331      OYPE     C36      CTL2    -0.180000       12.0110           0
     41238 MEMB     331      OYPE     H6X      HAL2     0.900000E-01   1.00800           0
     41239 MEMB     331      OYPE     H6Y      HAL2     0.900000E-01   1.00800           0
     41240 MEMB     331      OYPE     C37      CTL2    -0.180000       12.0110           0
     41241 MEMB     331      OYPE     H7X      HAL2     0.900000E-01   1.00800           0
     41242 MEMB     331      OYPE     H7Y      HAL2     0.900000E-01   1.00800           0
     41243 MEMB     331      OYPE     C38      CTL2    -0.180000       12.0110           0
     41244 MEMB     331      OYPE     H8X      HAL2     0.900000E-01   1.00800           0
     41245 MEMB     331      OYPE     H8Y      HAL2     0.900000E-01   1.00800           0
     41246 MEMB     331      OYPE     C39      CEL1    -0.150000       12.0110           0
     41247 MEMB     331      OYPE     H9X      HEL1     0.150000       1.00800           0
     41248 MEMB     331      OYPE     C310     CEL1    -0.150000       12.0110           0
     41249 MEMB     331      OYPE     H10X     HEL1     0.150000       1.00800           0
     41250 MEMB     331      OYPE     C311     CTL2    -0.180000       12.0110           0
     41251 MEMB     331      OYPE     H11X     HAL2     0.900000E-01   1.00800           0
     41252 MEMB     331      OYPE     H11Y     HAL2     0.900000E-01   1.00800           0
     41253 MEMB     331      OYPE     C312     CTL2    -0.180000       12.0110           0
     41254 MEMB     331      OYPE     H12X     HAL2     0.900000E-01   1.00800           0
     41255 MEMB     331      OYPE     H12Y     HAL2     0.900000E-01   1.00800           0
     41256 MEMB     331      OYPE     C313     CTL2    -0.180000       12.0110           0
     41257 MEMB     331      OYPE     H13X     HAL2     0.900000E-01   1.00800           0
     41258 MEMB     331      OYPE     H13Y     HAL2     0.900000E-01   1.00800           0
     41259 MEMB     331      OYPE     C314     CTL2    -0.180000       12.0110           0
     41260 MEMB     331      OYPE     H14X     HAL2     0.900000E-01   1.00800           0
     41261 MEMB     331      OYPE     H14Y     HAL2     0.900000E-01   1.00800           0
     41262 MEMB     331      OYPE     C315     CTL2    -0.180000       12.0110           0
     41263 MEMB     331      OYPE     H15X     HAL2     0.900000E-01   1.00800           0
     41264 MEMB     331      OYPE     H15Y     HAL2     0.900000E-01   1.00800           0
     41265 MEMB     331      OYPE     C316     CTL2    -0.180000       12.0110           0
     41266 MEMB     331      OYPE     H16X     HAL2     0.900000E-01   1.00800           0
     41267 MEMB     331      OYPE     H16Y     HAL2     0.900000E-01   1.00800           0
     41268 MEMB     331      OYPE     C317     CTL2    -0.180000       12.0110           0
     41269 MEMB     331      OYPE     H17X     HAL2     0.900000E-01   1.00800           0
     41270 MEMB     331      OYPE     H17Y     HAL2     0.900000E-01   1.00800           0
     41271 MEMB     331      OYPE     C318     CTL3    -0.270000       12.0110           0
     41272 MEMB     331      OYPE     H18X     HAL3     0.900000E-01   1.00800           0
     41273 MEMB     331      OYPE     H18Y     HAL3     0.900000E-01   1.00800           0
     41274 MEMB     331      OYPE     H18Z     HAL3     0.900000E-01   1.00800           0
     41275 MEMB     332      QMPE     N        NH3L    -0.300000       14.0070           0
     41276 MEMB     332      QMPE     HN1      HCL      0.330000       1.00800           0
     41277 MEMB     332      QMPE     HN2      HCL      0.330000       1.00800           0
     41278 MEMB     332      QMPE     HN3      HCL      0.330000       1.00800           0
     41279 MEMB     332      QMPE     C12      CTL2     0.130000       12.0110           0
     41280 MEMB     332      QMPE     H12A     HAL2     0.900000E-01   1.00800           0
     41281 MEMB     332      QMPE     H12B     HAL2     0.900000E-01   1.00800           0
     41282 MEMB     332      QMPE     C11      CTL2    -0.800000E-01   12.0110           0
     41283 MEMB     332      QMPE     H11A     HAL2     0.900000E-01   1.00800           0
     41284 MEMB     332      QMPE     H11B     HAL2     0.900000E-01   1.00800           0
     41285 MEMB     332      QMPE     P        PL        1.50000       30.9740           0
     41286 MEMB     332      QMPE     O13      O2L     -0.780000       15.9994           0
     41287 MEMB     332      QMPE     O14      O2L     -0.780000       15.9994           0
     41288 MEMB     332      QMPE     O11      OSLP    -0.570000       15.9994           0
     41289 MEMB     332      QMPE     O12      OSLP    -0.570000       15.9994           0
     41290 MEMB     332      QMPE     C1       CTL2    -0.800000E-01   12.0110           0
     41291 MEMB     332      QMPE     HA       HAL2     0.900000E-01   1.00800           0
     41292 MEMB     332      QMPE     HB       HAL2     0.900000E-01   1.00800           0
     41293 MEMB     332      QMPE     C2       CTL1     0.170000       12.0110           0
     41294 MEMB     332      QMPE     HS       HAL1     0.900000E-01   1.00800           0
     41295 MEMB     332      QMPE     O21      OSL     -0.490000       15.9994           0
     41296 MEMB     332      QMPE     C21      CL       0.900000       12.0110           0
     41297 MEMB     332      QMPE     O22      OBL     -0.630000       15.9994           0
     41298 MEMB     332      QMPE     C22      CTL2    -0.220000       12.0110           0
     41299 MEMB     332      QMPE     H2R      HAL2     0.900000E-01   1.00800           0
     41300 MEMB     332      QMPE     H2S      HAL2     0.900000E-01   1.00800           0
     41301 MEMB     332      QMPE     C3       CTL2     0.800000E-01   12.0110           0
     41302 MEMB     332      QMPE     HX       HAL2     0.900000E-01   1.00800           0
     41303 MEMB     332      QMPE     HY       HAL2     0.900000E-01   1.00800           0
     41304 MEMB     332      QMPE     O31      OSL     -0.490000       15.9994           0
     41305 MEMB     332      QMPE     C31      CL       0.900000       12.0110           0
     41306 MEMB     332      QMPE     O32      OBL     -0.630000       15.9994           0
     41307 MEMB     332      QMPE     C32      CTL2    -0.220000       12.0110           0
     41308 MEMB     332      QMPE     H2X      HAL2     0.900000E-01   1.00800           0
     41309 MEMB     332      QMPE     H2Y      HAL2     0.900000E-01   1.00800           0
     41310 MEMB     332      QMPE     C23      CTL2    -0.180000       12.0110           0
     41311 MEMB     332      QMPE     H3R      HAL2     0.900000E-01   1.00800           0
     41312 MEMB     332      QMPE     H3S      HAL2     0.900000E-01   1.00800           0
     41313 MEMB     332      QMPE     C24      CTL2    -0.180000       12.0110           0
     41314 MEMB     332      QMPE     H4R      HAL2     0.900000E-01   1.00800           0
     41315 MEMB     332      QMPE     H4S      HAL2     0.900000E-01   1.00800           0
     41316 MEMB     332      QMPE     C25      CTL2    -0.180000       12.0110           0
     41317 MEMB     332      QMPE     H5R      HAL2     0.900000E-01   1.00800           0
     41318 MEMB     332      QMPE     H5S      HAL2     0.900000E-01   1.00800           0
     41319 MEMB     332      QMPE     C26      CTL2    -0.180000       12.0110           0
     41320 MEMB     332      QMPE     H6R      HAL2     0.900000E-01   1.00800           0
     41321 MEMB     332      QMPE     H6S      HAL2     0.900000E-01   1.00800           0
     41322 MEMB     332      QMPE     C27      CTL2    -0.180000       12.0110           0
     41323 MEMB     332      QMPE     H7R      HAL2     0.900000E-01   1.00800           0
     41324 MEMB     332      QMPE     H7S      HAL2     0.900000E-01   1.00800           0
     41325 MEMB     332      QMPE     C28      CTL2    -0.180000       12.0110           0
     41326 MEMB     332      QMPE     H8R      HAL2     0.900000E-01   1.00800           0
     41327 MEMB     332      QMPE     H8S      HAL2     0.900000E-01   1.00800           0
     41328 MEMB     332      QMPE     C29      CG3RC1  -0.900000E-01   12.0110           0
     41329 MEMB     332      QMPE     H9R      HGA1     0.900000E-01   1.00800           0
     41330 MEMB     332      QMPE     C217     CG3C31  -0.180000       12.0110           0
     41331 MEMB     332      QMPE     H17R     HGA2     0.900000E-01   1.00800           0
     41332 MEMB     332      QMPE     H17S     HGA2     0.900000E-01   1.00800           0
     41333 MEMB     332      QMPE     C210     CG3RC1  -0.900000E-01   12.0110           0
     41334 MEMB     332      QMPE     H10R     HGA1     0.900000E-01   1.00800           0
     41335 MEMB     332      QMPE     C211     CTL2    -0.180000       12.0110           0
     41336 MEMB     332      QMPE     H11R     HAL2     0.900000E-01   1.00800           0
     41337 MEMB     332      QMPE     H11S     HAL2     0.900000E-01   1.00800           0
     41338 MEMB     332      QMPE     C212     CTL2    -0.180000       12.0110           0
     41339 MEMB     332      QMPE     H12R     HAL2     0.900000E-01   1.00800           0
     41340 MEMB     332      QMPE     H12S     HAL2     0.900000E-01   1.00800           0
     41341 MEMB     332      QMPE     C213     CTL2    -0.180000       12.0110           0
     41342 MEMB     332      QMPE     H13R     HAL2     0.900000E-01   1.00800           0
     41343 MEMB     332      QMPE     H13S     HAL2     0.900000E-01   1.00800           0
     41344 MEMB     332      QMPE     C214     CTL2    -0.180000       12.0110           0
     41345 MEMB     332      QMPE     H14R     HAL2     0.900000E-01   1.00800           0
     41346 MEMB     332      QMPE     H14S     HAL2     0.900000E-01   1.00800           0
     41347 MEMB     332      QMPE     C215     CTL2    -0.180000       12.0110           0
     41348 MEMB     332      QMPE     H15R     HAL2     0.900000E-01   1.00800           0
     41349 MEMB     332      QMPE     H15S     HAL2     0.900000E-01   1.00800           0
     41350 MEMB     332      QMPE     C216     CTL3    -0.270000       12.0110           0
     41351 MEMB     332      QMPE     H16R     HAL3     0.900000E-01   1.00800           0
     41352 MEMB     332      QMPE     H16S     HAL3     0.900000E-01   1.00800           0
     41353 MEMB     332      QMPE     H16T     HAL3     0.900000E-01   1.00800           0
     41354 MEMB     332      QMPE     C33      CTL2    -0.180000       12.0110           0
     41355 MEMB     332      QMPE     H3X      HAL2     0.900000E-01   1.00800           0
     41356 MEMB     332      QMPE     H3Y      HAL2     0.900000E-01   1.00800           0
     41357 MEMB     332      QMPE     C34      CTL2    -0.180000       12.0110           0
     41358 MEMB     332      QMPE     H4X      HAL2     0.900000E-01   1.00800           0
     41359 MEMB     332      QMPE     H4Y      HAL2     0.900000E-01   1.00800           0
     41360 MEMB     332      QMPE     C35      CTL2    -0.180000       12.0110           0
     41361 MEMB     332      QMPE     H5X      HAL2     0.900000E-01   1.00800           0
     41362 MEMB     332      QMPE     H5Y      HAL2     0.900000E-01   1.00800           0
     41363 MEMB     332      QMPE     C36      CTL2    -0.180000       12.0110           0
     41364 MEMB     332      QMPE     H6X      HAL2     0.900000E-01   1.00800           0
     41365 MEMB     332      QMPE     H6Y      HAL2     0.900000E-01   1.00800           0
     41366 MEMB     332      QMPE     C37      CTL2    -0.180000       12.0110           0
     41367 MEMB     332      QMPE     H7X      HAL2     0.900000E-01   1.00800           0
     41368 MEMB     332      QMPE     H7Y      HAL2     0.900000E-01   1.00800           0
     41369 MEMB     332      QMPE     C38      CTL2    -0.180000       12.0110           0
     41370 MEMB     332      QMPE     H8X      HAL2     0.900000E-01   1.00800           0
     41371 MEMB     332      QMPE     H8Y      HAL2     0.900000E-01   1.00800           0
     41372 MEMB     332      QMPE     C39      CTL2    -0.180000       12.0110           0
     41373 MEMB     332      QMPE     H9X      HAL2     0.900000E-01   1.00800           0
     41374 MEMB     332      QMPE     H9Y      HAL2     0.900000E-01   1.00800           0
     41375 MEMB     332      QMPE     C310     CTL2    -0.180000       12.0110           0
     41376 MEMB     332      QMPE     H10X     HAL2     0.900000E-01   1.00800           0
     41377 MEMB     332      QMPE     H10Y     HAL2     0.900000E-01   1.00800           0
     41378 MEMB     332      QMPE     C311     CTL2    -0.180000       12.0110           0
     41379 MEMB     332      QMPE     H11X     HAL2     0.900000E-01   1.00800           0
     41380 MEMB     332      QMPE     H11Y     HAL2     0.900000E-01   1.00800           0
     41381 MEMB     332      QMPE     C312     CTL2    -0.180000       12.0110           0
     41382 MEMB     332      QMPE     H12X     HAL2     0.900000E-01   1.00800           0
     41383 MEMB     332      QMPE     H12Y     HAL2     0.900000E-01   1.00800           0
     41384 MEMB     332      QMPE     C313     CTL2    -0.180000       12.0110           0
     41385 MEMB     332      QMPE     H13X     HAL2     0.900000E-01   1.00800           0
     41386 MEMB     332      QMPE     H13Y     HAL2     0.900000E-01   1.00800           0
     41387 MEMB     332      QMPE     C314     CTL2    -0.180000       12.0110           0
     41388 MEMB     332      QMPE     H14X     HAL2     0.900000E-01   1.00800           0
     41389 MEMB     332      QMPE     H14Y     HAL2     0.900000E-01   1.00800           0
     41390 MEMB     332      QMPE     C315     CTL3    -0.270000       12.0110           0
     41391 MEMB     332      QMPE     H15X     HAL3     0.900000E-01   1.00800           0
     41392 MEMB     332      QMPE     H15Y     HAL3     0.900000E-01   1.00800           0
     41393 MEMB     332      QMPE     H15Z     HAL3     0.900000E-01   1.00800           0
     41394 MEMB     333      OYPE     N        NH3L    -0.300000       14.0070           0
     41395 MEMB     333      OYPE     HN1      HCL      0.330000       1.00800           0
     41396 MEMB     333      OYPE     HN2      HCL      0.330000       1.00800           0
     41397 MEMB     333      OYPE     HN3      HCL      0.330000       1.00800           0
     41398 MEMB     333      OYPE     C12      CTL2     0.130000       12.0110           0
     41399 MEMB     333      OYPE     H12A     HAL2     0.900000E-01   1.00800           0
     41400 MEMB     333      OYPE     H12B     HAL2     0.900000E-01   1.00800           0
     41401 MEMB     333      OYPE     C11      CTL2    -0.800000E-01   12.0110           0
     41402 MEMB     333      OYPE     H11A     HAL2     0.900000E-01   1.00800           0
     41403 MEMB     333      OYPE     H11B     HAL2     0.900000E-01   1.00800           0
     41404 MEMB     333      OYPE     P        PL        1.50000       30.9740           0
     41405 MEMB     333      OYPE     O13      O2L     -0.780000       15.9994           0
     41406 MEMB     333      OYPE     O14      O2L     -0.780000       15.9994           0
     41407 MEMB     333      OYPE     O11      OSLP    -0.570000       15.9994           0
     41408 MEMB     333      OYPE     O12      OSLP    -0.570000       15.9994           0
     41409 MEMB     333      OYPE     C1       CTL2    -0.800000E-01   12.0110           0
     41410 MEMB     333      OYPE     HA       HAL2     0.900000E-01   1.00800           0
     41411 MEMB     333      OYPE     HB       HAL2     0.900000E-01   1.00800           0
     41412 MEMB     333      OYPE     C2       CTL1     0.170000       12.0110           0
     41413 MEMB     333      OYPE     HS       HAL1     0.900000E-01   1.00800           0
     41414 MEMB     333      OYPE     O21      OSL     -0.490000       15.9994           0
     41415 MEMB     333      OYPE     C21      CL       0.900000       12.0110           0
     41416 MEMB     333      OYPE     O22      OBL     -0.630000       15.9994           0
     41417 MEMB     333      OYPE     C22      CTL2    -0.220000       12.0110           0
     41418 MEMB     333      OYPE     H2R      HAL2     0.900000E-01   1.00800           0
     41419 MEMB     333      OYPE     H2S      HAL2     0.900000E-01   1.00800           0
     41420 MEMB     333      OYPE     C3       CTL2     0.800000E-01   12.0110           0
     41421 MEMB     333      OYPE     HX       HAL2     0.900000E-01   1.00800           0
     41422 MEMB     333      OYPE     HY       HAL2     0.900000E-01   1.00800           0
     41423 MEMB     333      OYPE     O31      OSL     -0.490000       15.9994           0
     41424 MEMB     333      OYPE     C31      CL       0.900000       12.0110           0
     41425 MEMB     333      OYPE     O32      OBL     -0.630000       15.9994           0
     41426 MEMB     333      OYPE     C32      CTL2    -0.220000       12.0110           0
     41427 MEMB     333      OYPE     H2X      HAL2     0.900000E-01   1.00800           0
     41428 MEMB     333      OYPE     H2Y      HAL2     0.900000E-01   1.00800           0
     41429 MEMB     333      OYPE     C23      CTL2    -0.180000       12.0110           0
     41430 MEMB     333      OYPE     H3R      HAL2     0.900000E-01   1.00800           0
     41431 MEMB     333      OYPE     H3S      HAL2     0.900000E-01   1.00800           0
     41432 MEMB     333      OYPE     C24      CTL2    -0.180000       12.0110           0
     41433 MEMB     333      OYPE     H4R      HAL2     0.900000E-01   1.00800           0
     41434 MEMB     333      OYPE     H4S      HAL2     0.900000E-01   1.00800           0
     41435 MEMB     333      OYPE     C25      CTL2    -0.180000       12.0110           0
     41436 MEMB     333      OYPE     H5R      HAL2     0.900000E-01   1.00800           0
     41437 MEMB     333      OYPE     H5S      HAL2     0.900000E-01   1.00800           0
     41438 MEMB     333      OYPE     C26      CTL2    -0.180000       12.0110           0
     41439 MEMB     333      OYPE     H6R      HAL2     0.900000E-01   1.00800           0
     41440 MEMB     333      OYPE     H6S      HAL2     0.900000E-01   1.00800           0
     41441 MEMB     333      OYPE     C27      CTL2    -0.180000       12.0110           0
     41442 MEMB     333      OYPE     H7R      HAL2     0.900000E-01   1.00800           0
     41443 MEMB     333      OYPE     H7S      HAL2     0.900000E-01   1.00800           0
     41444 MEMB     333      OYPE     C28      CTL2    -0.180000       12.0110           0
     41445 MEMB     333      OYPE     H8R      HAL2     0.900000E-01   1.00800           0
     41446 MEMB     333      OYPE     H8S      HAL2     0.900000E-01   1.00800           0
     41447 MEMB     333      OYPE     C29      CEL1    -0.150000       12.0110           0
     41448 MEMB     333      OYPE     H9R      HEL1     0.150000       1.00800           0
     41449 MEMB     333      OYPE     C210     CEL1    -0.150000       12.0110           0
     41450 MEMB     333      OYPE     H10R     HEL1     0.150000       1.00800           0
     41451 MEMB     333      OYPE     C211     CTL2    -0.180000       12.0110           0
     41452 MEMB     333      OYPE     H11R     HAL2     0.900000E-01   1.00800           0
     41453 MEMB     333      OYPE     H11S     HAL2     0.900000E-01   1.00800           0
     41454 MEMB     333      OYPE     C212     CTL2    -0.180000       12.0110           0
     41455 MEMB     333      OYPE     H12R     HAL2     0.900000E-01   1.00800           0
     41456 MEMB     333      OYPE     H12S     HAL2     0.900000E-01   1.00800           0
     41457 MEMB     333      OYPE     C213     CTL2    -0.180000       12.0110           0
     41458 MEMB     333      OYPE     H13R     HAL2     0.900000E-01   1.00800           0
     41459 MEMB     333      OYPE     H13S     HAL2     0.900000E-01   1.00800           0
     41460 MEMB     333      OYPE     C214     CTL2    -0.180000       12.0110           0
     41461 MEMB     333      OYPE     H14R     HAL2     0.900000E-01   1.00800           0
     41462 MEMB     333      OYPE     H14S     HAL2     0.900000E-01   1.00800           0
     41463 MEMB     333      OYPE     C215     CTL2    -0.180000       12.0110           0
     41464 MEMB     333      OYPE     H15R     HAL2     0.900000E-01   1.00800           0
     41465 MEMB     333      OYPE     H15S     HAL2     0.900000E-01   1.00800           0
     41466 MEMB     333      OYPE     C216     CTL3    -0.270000       12.0110           0
     41467 MEMB     333      OYPE     H16R     HAL3     0.900000E-01   1.00800           0
     41468 MEMB     333      OYPE     H16S     HAL3     0.900000E-01   1.00800           0
     41469 MEMB     333      OYPE     H16T     HAL3     0.900000E-01   1.00800           0
     41470 MEMB     333      OYPE     C33      CTL2    -0.180000       12.0110           0
     41471 MEMB     333      OYPE     H3X      HAL2     0.900000E-01   1.00800           0
     41472 MEMB     333      OYPE     H3Y      HAL2     0.900000E-01   1.00800           0
     41473 MEMB     333      OYPE     C34      CTL2    -0.180000       12.0110           0
     41474 MEMB     333      OYPE     H4X      HAL2     0.900000E-01   1.00800           0
     41475 MEMB     333      OYPE     H4Y      HAL2     0.900000E-01   1.00800           0
     41476 MEMB     333      OYPE     C35      CTL2    -0.180000       12.0110           0
     41477 MEMB     333      OYPE     H5X      HAL2     0.900000E-01   1.00800           0
     41478 MEMB     333      OYPE     H5Y      HAL2     0.900000E-01   1.00800           0
     41479 MEMB     333      OYPE     C36      CTL2    -0.180000       12.0110           0
     41480 MEMB     333      OYPE     H6X      HAL2     0.900000E-01   1.00800           0
     41481 MEMB     333      OYPE     H6Y      HAL2     0.900000E-01   1.00800           0
     41482 MEMB     333      OYPE     C37      CTL2    -0.180000       12.0110           0
     41483 MEMB     333      OYPE     H7X      HAL2     0.900000E-01   1.00800           0
     41484 MEMB     333      OYPE     H7Y      HAL2     0.900000E-01   1.00800           0
     41485 MEMB     333      OYPE     C38      CTL2    -0.180000       12.0110           0
     41486 MEMB     333      OYPE     H8X      HAL2     0.900000E-01   1.00800           0
     41487 MEMB     333      OYPE     H8Y      HAL2     0.900000E-01   1.00800           0
     41488 MEMB     333      OYPE     C39      CEL1    -0.150000       12.0110           0
     41489 MEMB     333      OYPE     H9X      HEL1     0.150000       1.00800           0
     41490 MEMB     333      OYPE     C310     CEL1    -0.150000       12.0110           0
     41491 MEMB     333      OYPE     H10X     HEL1     0.150000       1.00800           0
     41492 MEMB     333      OYPE     C311     CTL2    -0.180000       12.0110           0
     41493 MEMB     333      OYPE     H11X     HAL2     0.900000E-01   1.00800           0
     41494 MEMB     333      OYPE     H11Y     HAL2     0.900000E-01   1.00800           0
     41495 MEMB     333      OYPE     C312     CTL2    -0.180000       12.0110           0
     41496 MEMB     333      OYPE     H12X     HAL2     0.900000E-01   1.00800           0
     41497 MEMB     333      OYPE     H12Y     HAL2     0.900000E-01   1.00800           0
     41498 MEMB     333      OYPE     C313     CTL2    -0.180000       12.0110           0
     41499 MEMB     333      OYPE     H13X     HAL2     0.900000E-01   1.00800           0
     41500 MEMB     333      OYPE     H13Y     HAL2     0.900000E-01   1.00800           0
     41501 MEMB     333      OYPE     C314     CTL2    -0.180000       12.0110           0
     41502 MEMB     333      OYPE     H14X     HAL2     0.900000E-01   1.00800           0
     41503 MEMB     333      OYPE     H14Y     HAL2     0.900000E-01   1.00800           0
     41504 MEMB     333      OYPE     C315     CTL2    -0.180000       12.0110           0
     41505 MEMB     333      OYPE     H15X     HAL2     0.900000E-01   1.00800           0
     41506 MEMB     333      OYPE     H15Y     HAL2     0.900000E-01   1.00800           0
     41507 MEMB     333      OYPE     C316     CTL2    -0.180000       12.0110           0
     41508 MEMB     333      OYPE     H16X     HAL2     0.900000E-01   1.00800           0
     41509 MEMB     333      OYPE     H16Y     HAL2     0.900000E-01   1.00800           0
     41510 MEMB     333      OYPE     C317     CTL2    -0.180000       12.0110           0
     41511 MEMB     333      OYPE     H17X     HAL2     0.900000E-01   1.00800           0
     41512 MEMB     333      OYPE     H17Y     HAL2     0.900000E-01   1.00800           0
     41513 MEMB     333      OYPE     C318     CTL3    -0.270000       12.0110           0
     41514 MEMB     333      OYPE     H18X     HAL3     0.900000E-01   1.00800           0
     41515 MEMB     333      OYPE     H18Y     HAL3     0.900000E-01   1.00800           0
     41516 MEMB     333      OYPE     H18Z     HAL3     0.900000E-01   1.00800           0
     41517 MEMB     334      PMPG     C13      CTL2     0.500000E-01   12.0110           0
     41518 MEMB     334      PMPG     H13A     HAL2     0.900000E-01   1.00800           0
     41519 MEMB     334      PMPG     H13B     HAL2     0.900000E-01   1.00800           0
     41520 MEMB     334      PMPG     OC3      OHL     -0.660000       15.9994           0
     41521 MEMB     334      PMPG     HO3      HOL      0.430000       1.00800           0
     41522 MEMB     334      PMPG     C12      CTL1     0.140000       12.0110           0
     41523 MEMB     334      PMPG     H12A     HAL1     0.900000E-01   1.00800           0
     41524 MEMB     334      PMPG     OC2      OHL     -0.660000       15.9994           0
     41525 MEMB     334      PMPG     HO2      HOL      0.430000       1.00800           0
     41526 MEMB     334      PMPG     C11      CTL2    -0.800000E-01   12.0110           0
     41527 MEMB     334      PMPG     H11A     HAL2     0.900000E-01   1.00800           0
     41528 MEMB     334      PMPG     H11B     HAL2     0.900000E-01   1.00800           0
     41529 MEMB     334      PMPG     P        PL        1.50000       30.9740           0
     41530 MEMB     334      PMPG     O13      O2L     -0.780000       15.9994           0
     41531 MEMB     334      PMPG     O14      O2L     -0.780000       15.9994           0
     41532 MEMB     334      PMPG     O11      OSLP    -0.570000       15.9994           0
     41533 MEMB     334      PMPG     O12      OSLP    -0.570000       15.9994           0
     41534 MEMB     334      PMPG     C1       CTL2    -0.800000E-01   12.0110           0
     41535 MEMB     334      PMPG     HA       HAL2     0.900000E-01   1.00800           0
     41536 MEMB     334      PMPG     HB       HAL2     0.900000E-01   1.00800           0
     41537 MEMB     334      PMPG     C2       CTL1     0.170000       12.0110           0
     41538 MEMB     334      PMPG     HS       HAL1     0.900000E-01   1.00800           0
     41539 MEMB     334      PMPG     O21      OSL     -0.490000       15.9994           0
     41540 MEMB     334      PMPG     C21      CL       0.900000       12.0110           0
     41541 MEMB     334      PMPG     O22      OBL     -0.630000       15.9994           0
     41542 MEMB     334      PMPG     C22      CTL2    -0.220000       12.0110           0
     41543 MEMB     334      PMPG     H2R      HAL2     0.900000E-01   1.00800           0
     41544 MEMB     334      PMPG     H2S      HAL2     0.900000E-01   1.00800           0
     41545 MEMB     334      PMPG     C3       CTL2     0.800000E-01   12.0110           0
     41546 MEMB     334      PMPG     HX       HAL2     0.900000E-01   1.00800           0
     41547 MEMB     334      PMPG     HY       HAL2     0.900000E-01   1.00800           0
     41548 MEMB     334      PMPG     O31      OSL     -0.490000       15.9994           0
     41549 MEMB     334      PMPG     C31      CL       0.900000       12.0110           0
     41550 MEMB     334      PMPG     O32      OBL     -0.630000       15.9994           0
     41551 MEMB     334      PMPG     C32      CTL2    -0.220000       12.0110           0
     41552 MEMB     334      PMPG     H2X      HAL2     0.900000E-01   1.00800           0
     41553 MEMB     334      PMPG     H2Y      HAL2     0.900000E-01   1.00800           0
     41554 MEMB     334      PMPG     C23      CTL2    -0.180000       12.0110           0
     41555 MEMB     334      PMPG     H3R      HAL2     0.900000E-01   1.00800           0
     41556 MEMB     334      PMPG     H3S      HAL2     0.900000E-01   1.00800           0
     41557 MEMB     334      PMPG     C24      CTL2    -0.180000       12.0110           0
     41558 MEMB     334      PMPG     H4R      HAL2     0.900000E-01   1.00800           0
     41559 MEMB     334      PMPG     H4S      HAL2     0.900000E-01   1.00800           0
     41560 MEMB     334      PMPG     C25      CTL2    -0.180000       12.0110           0
     41561 MEMB     334      PMPG     H5R      HAL2     0.900000E-01   1.00800           0
     41562 MEMB     334      PMPG     H5S      HAL2     0.900000E-01   1.00800           0
     41563 MEMB     334      PMPG     C26      CTL2    -0.180000       12.0110           0
     41564 MEMB     334      PMPG     H6R      HAL2     0.900000E-01   1.00800           0
     41565 MEMB     334      PMPG     H6S      HAL2     0.900000E-01   1.00800           0
     41566 MEMB     334      PMPG     C27      CTL2    -0.180000       12.0110           0
     41567 MEMB     334      PMPG     H7R      HAL2     0.900000E-01   1.00800           0
     41568 MEMB     334      PMPG     H7S      HAL2     0.900000E-01   1.00800           0
     41569 MEMB     334      PMPG     C28      CTL2    -0.180000       12.0110           0
     41570 MEMB     334      PMPG     H8R      HAL2     0.900000E-01   1.00800           0
     41571 MEMB     334      PMPG     H8S      HAL2     0.900000E-01   1.00800           0
     41572 MEMB     334      PMPG     C29      CG3RC1  -0.900000E-01   12.0110           0
     41573 MEMB     334      PMPG     H9R      HGA1     0.900000E-01   1.00800           0
     41574 MEMB     334      PMPG     C217     CG3C31  -0.180000       12.0110           0
     41575 MEMB     334      PMPG     H17R     HGA2     0.900000E-01   1.00800           0
     41576 MEMB     334      PMPG     H17S     HGA2     0.900000E-01   1.00800           0
     41577 MEMB     334      PMPG     C210     CG3RC1  -0.900000E-01   12.0110           0
     41578 MEMB     334      PMPG     H10R     HGA1     0.900000E-01   1.00800           0
     41579 MEMB     334      PMPG     C211     CTL2    -0.180000       12.0110           0
     41580 MEMB     334      PMPG     H11R     HAL2     0.900000E-01   1.00800           0
     41581 MEMB     334      PMPG     H11S     HAL2     0.900000E-01   1.00800           0
     41582 MEMB     334      PMPG     C212     CTL2    -0.180000       12.0110           0
     41583 MEMB     334      PMPG     H12R     HAL2     0.900000E-01   1.00800           0
     41584 MEMB     334      PMPG     H12S     HAL2     0.900000E-01   1.00800           0
     41585 MEMB     334      PMPG     C213     CTL2    -0.180000       12.0110           0
     41586 MEMB     334      PMPG     H13R     HAL2     0.900000E-01   1.00800           0
     41587 MEMB     334      PMPG     H13S     HAL2     0.900000E-01   1.00800           0
     41588 MEMB     334      PMPG     C214     CTL2    -0.180000       12.0110           0
     41589 MEMB     334      PMPG     H14R     HAL2     0.900000E-01   1.00800           0
     41590 MEMB     334      PMPG     H14S     HAL2     0.900000E-01   1.00800           0
     41591 MEMB     334      PMPG     C215     CTL2    -0.180000       12.0110           0
     41592 MEMB     334      PMPG     H15R     HAL2     0.900000E-01   1.00800           0
     41593 MEMB     334      PMPG     H15S     HAL2     0.900000E-01   1.00800           0
     41594 MEMB     334      PMPG     C216     CTL3    -0.270000       12.0110           0
     41595 MEMB     334      PMPG     H16R     HAL3     0.900000E-01   1.00800           0
     41596 MEMB     334      PMPG     H16S     HAL3     0.900000E-01   1.00800           0
     41597 MEMB     334      PMPG     H16T     HAL3     0.900000E-01   1.00800           0
     41598 MEMB     334      PMPG     C33      CTL2    -0.180000       12.0110           0
     41599 MEMB     334      PMPG     H3X      HAL2     0.900000E-01   1.00800           0
     41600 MEMB     334      PMPG     H3Y      HAL2     0.900000E-01   1.00800           0
     41601 MEMB     334      PMPG     C34      CTL2    -0.180000       12.0110           0
     41602 MEMB     334      PMPG     H4X      HAL2     0.900000E-01   1.00800           0
     41603 MEMB     334      PMPG     H4Y      HAL2     0.900000E-01   1.00800           0
     41604 MEMB     334      PMPG     C35      CTL2    -0.180000       12.0110           0
     41605 MEMB     334      PMPG     H5X      HAL2     0.900000E-01   1.00800           0
     41606 MEMB     334      PMPG     H5Y      HAL2     0.900000E-01   1.00800           0
     41607 MEMB     334      PMPG     C36      CTL2    -0.180000       12.0110           0
     41608 MEMB     334      PMPG     H6X      HAL2     0.900000E-01   1.00800           0
     41609 MEMB     334      PMPG     H6Y      HAL2     0.900000E-01   1.00800           0
     41610 MEMB     334      PMPG     C37      CTL2    -0.180000       12.0110           0
     41611 MEMB     334      PMPG     H7X      HAL2     0.900000E-01   1.00800           0
     41612 MEMB     334      PMPG     H7Y      HAL2     0.900000E-01   1.00800           0
     41613 MEMB     334      PMPG     C38      CTL2    -0.180000       12.0110           0
     41614 MEMB     334      PMPG     H8X      HAL2     0.900000E-01   1.00800           0
     41615 MEMB     334      PMPG     H8Y      HAL2     0.900000E-01   1.00800           0
     41616 MEMB     334      PMPG     C39      CTL2    -0.180000       12.0110           0
     41617 MEMB     334      PMPG     H9X      HAL2     0.900000E-01   1.00800           0
     41618 MEMB     334      PMPG     H9Y      HAL2     0.900000E-01   1.00800           0
     41619 MEMB     334      PMPG     C310     CTL2    -0.180000       12.0110           0
     41620 MEMB     334      PMPG     H10X     HAL2     0.900000E-01   1.00800           0
     41621 MEMB     334      PMPG     H10Y     HAL2     0.900000E-01   1.00800           0
     41622 MEMB     334      PMPG     C311     CTL2    -0.180000       12.0110           0
     41623 MEMB     334      PMPG     H11X     HAL2     0.900000E-01   1.00800           0
     41624 MEMB     334      PMPG     H11Y     HAL2     0.900000E-01   1.00800           0
     41625 MEMB     334      PMPG     C312     CTL2    -0.180000       12.0110           0
     41626 MEMB     334      PMPG     H12X     HAL2     0.900000E-01   1.00800           0
     41627 MEMB     334      PMPG     H12Y     HAL2     0.900000E-01   1.00800           0
     41628 MEMB     334      PMPG     C313     CTL2    -0.180000       12.0110           0
     41629 MEMB     334      PMPG     H13X     HAL2     0.900000E-01   1.00800           0
     41630 MEMB     334      PMPG     H13Y     HAL2     0.900000E-01   1.00800           0
     41631 MEMB     334      PMPG     C314     CTL2    -0.180000       12.0110           0
     41632 MEMB     334      PMPG     H14X     HAL2     0.900000E-01   1.00800           0
     41633 MEMB     334      PMPG     H14Y     HAL2     0.900000E-01   1.00800           0
     41634 MEMB     334      PMPG     C315     CTL2    -0.180000       12.0110           0
     41635 MEMB     334      PMPG     H15X     HAL2     0.900000E-01   1.00800           0
     41636 MEMB     334      PMPG     H15Y     HAL2     0.900000E-01   1.00800           0
     41637 MEMB     334      PMPG     C316     CTL3    -0.270000       12.0110           0
     41638 MEMB     334      PMPG     H16X     HAL3     0.900000E-01   1.00800           0
     41639 MEMB     334      PMPG     H16Y     HAL3     0.900000E-01   1.00800           0
     41640 MEMB     334      PMPG     H16Z     HAL3     0.900000E-01   1.00800           0
     41641 MEMB     335      QMPE     N        NH3L    -0.300000       14.0070           0
     41642 MEMB     335      QMPE     HN1      HCL      0.330000       1.00800           0
     41643 MEMB     335      QMPE     HN2      HCL      0.330000       1.00800           0
     41644 MEMB     335      QMPE     HN3      HCL      0.330000       1.00800           0
     41645 MEMB     335      QMPE     C12      CTL2     0.130000       12.0110           0
     41646 MEMB     335      QMPE     H12A     HAL2     0.900000E-01   1.00800           0
     41647 MEMB     335      QMPE     H12B     HAL2     0.900000E-01   1.00800           0
     41648 MEMB     335      QMPE     C11      CTL2    -0.800000E-01   12.0110           0
     41649 MEMB     335      QMPE     H11A     HAL2     0.900000E-01   1.00800           0
     41650 MEMB     335      QMPE     H11B     HAL2     0.900000E-01   1.00800           0
     41651 MEMB     335      QMPE     P        PL        1.50000       30.9740           0
     41652 MEMB     335      QMPE     O13      O2L     -0.780000       15.9994           0
     41653 MEMB     335      QMPE     O14      O2L     -0.780000       15.9994           0
     41654 MEMB     335      QMPE     O11      OSLP    -0.570000       15.9994           0
     41655 MEMB     335      QMPE     O12      OSLP    -0.570000       15.9994           0
     41656 MEMB     335      QMPE     C1       CTL2    -0.800000E-01   12.0110           0
     41657 MEMB     335      QMPE     HA       HAL2     0.900000E-01   1.00800           0
     41658 MEMB     335      QMPE     HB       HAL2     0.900000E-01   1.00800           0
     41659 MEMB     335      QMPE     C2       CTL1     0.170000       12.0110           0
     41660 MEMB     335      QMPE     HS       HAL1     0.900000E-01   1.00800           0
     41661 MEMB     335      QMPE     O21      OSL     -0.490000       15.9994           0
     41662 MEMB     335      QMPE     C21      CL       0.900000       12.0110           0
     41663 MEMB     335      QMPE     O22      OBL     -0.630000       15.9994           0
     41664 MEMB     335      QMPE     C22      CTL2    -0.220000       12.0110           0
     41665 MEMB     335      QMPE     H2R      HAL2     0.900000E-01   1.00800           0
     41666 MEMB     335      QMPE     H2S      HAL2     0.900000E-01   1.00800           0
     41667 MEMB     335      QMPE     C3       CTL2     0.800000E-01   12.0110           0
     41668 MEMB     335      QMPE     HX       HAL2     0.900000E-01   1.00800           0
     41669 MEMB     335      QMPE     HY       HAL2     0.900000E-01   1.00800           0
     41670 MEMB     335      QMPE     O31      OSL     -0.490000       15.9994           0
     41671 MEMB     335      QMPE     C31      CL       0.900000       12.0110           0
     41672 MEMB     335      QMPE     O32      OBL     -0.630000       15.9994           0
     41673 MEMB     335      QMPE     C32      CTL2    -0.220000       12.0110           0
     41674 MEMB     335      QMPE     H2X      HAL2     0.900000E-01   1.00800           0
     41675 MEMB     335      QMPE     H2Y      HAL2     0.900000E-01   1.00800           0
     41676 MEMB     335      QMPE     C23      CTL2    -0.180000       12.0110           0
     41677 MEMB     335      QMPE     H3R      HAL2     0.900000E-01   1.00800           0
     41678 MEMB     335      QMPE     H3S      HAL2     0.900000E-01   1.00800           0
     41679 MEMB     335      QMPE     C24      CTL2    -0.180000       12.0110           0
     41680 MEMB     335      QMPE     H4R      HAL2     0.900000E-01   1.00800           0
     41681 MEMB     335      QMPE     H4S      HAL2     0.900000E-01   1.00800           0
     41682 MEMB     335      QMPE     C25      CTL2    -0.180000       12.0110           0
     41683 MEMB     335      QMPE     H5R      HAL2     0.900000E-01   1.00800           0
     41684 MEMB     335      QMPE     H5S      HAL2     0.900000E-01   1.00800           0
     41685 MEMB     335      QMPE     C26      CTL2    -0.180000       12.0110           0
     41686 MEMB     335      QMPE     H6R      HAL2     0.900000E-01   1.00800           0
     41687 MEMB     335      QMPE     H6S      HAL2     0.900000E-01   1.00800           0
     41688 MEMB     335      QMPE     C27      CTL2    -0.180000       12.0110           0
     41689 MEMB     335      QMPE     H7R      HAL2     0.900000E-01   1.00800           0
     41690 MEMB     335      QMPE     H7S      HAL2     0.900000E-01   1.00800           0
     41691 MEMB     335      QMPE     C28      CTL2    -0.180000       12.0110           0
     41692 MEMB     335      QMPE     H8R      HAL2     0.900000E-01   1.00800           0
     41693 MEMB     335      QMPE     H8S      HAL2     0.900000E-01   1.00800           0
     41694 MEMB     335      QMPE     C29      CG3RC1  -0.900000E-01   12.0110           0
     41695 MEMB     335      QMPE     H9R      HGA1     0.900000E-01   1.00800           0
     41696 MEMB     335      QMPE     C217     CG3C31  -0.180000       12.0110           0
     41697 MEMB     335      QMPE     H17R     HGA2     0.900000E-01   1.00800           0
     41698 MEMB     335      QMPE     H17S     HGA2     0.900000E-01   1.00800           0
     41699 MEMB     335      QMPE     C210     CG3RC1  -0.900000E-01   12.0110           0
     41700 MEMB     335      QMPE     H10R     HGA1     0.900000E-01   1.00800           0
     41701 MEMB     335      QMPE     C211     CTL2    -0.180000       12.0110           0
     41702 MEMB     335      QMPE     H11R     HAL2     0.900000E-01   1.00800           0
     41703 MEMB     335      QMPE     H11S     HAL2     0.900000E-01   1.00800           0
     41704 MEMB     335      QMPE     C212     CTL2    -0.180000       12.0110           0
     41705 MEMB     335      QMPE     H12R     HAL2     0.900000E-01   1.00800           0
     41706 MEMB     335      QMPE     H12S     HAL2     0.900000E-01   1.00800           0
     41707 MEMB     335      QMPE     C213     CTL2    -0.180000       12.0110           0
     41708 MEMB     335      QMPE     H13R     HAL2     0.900000E-01   1.00800           0
     41709 MEMB     335      QMPE     H13S     HAL2     0.900000E-01   1.00800           0
     41710 MEMB     335      QMPE     C214     CTL2    -0.180000       12.0110           0
     41711 MEMB     335      QMPE     H14R     HAL2     0.900000E-01   1.00800           0
     41712 MEMB     335      QMPE     H14S     HAL2     0.900000E-01   1.00800           0
     41713 MEMB     335      QMPE     C215     CTL2    -0.180000       12.0110           0
     41714 MEMB     335      QMPE     H15R     HAL2     0.900000E-01   1.00800           0
     41715 MEMB     335      QMPE     H15S     HAL2     0.900000E-01   1.00800           0
     41716 MEMB     335      QMPE     C216     CTL3    -0.270000       12.0110           0
     41717 MEMB     335      QMPE     H16R     HAL3     0.900000E-01   1.00800           0
     41718 MEMB     335      QMPE     H16S     HAL3     0.900000E-01   1.00800           0
     41719 MEMB     335      QMPE     H16T     HAL3     0.900000E-01   1.00800           0
     41720 MEMB     335      QMPE     C33      CTL2    -0.180000       12.0110           0
     41721 MEMB     335      QMPE     H3X      HAL2     0.900000E-01   1.00800           0
     41722 MEMB     335      QMPE     H3Y      HAL2     0.900000E-01   1.00800           0
     41723 MEMB     335      QMPE     C34      CTL2    -0.180000       12.0110           0
     41724 MEMB     335      QMPE     H4X      HAL2     0.900000E-01   1.00800           0
     41725 MEMB     335      QMPE     H4Y      HAL2     0.900000E-01   1.00800           0
     41726 MEMB     335      QMPE     C35      CTL2    -0.180000       12.0110           0
     41727 MEMB     335      QMPE     H5X      HAL2     0.900000E-01   1.00800           0
     41728 MEMB     335      QMPE     H5Y      HAL2     0.900000E-01   1.00800           0
     41729 MEMB     335      QMPE     C36      CTL2    -0.180000       12.0110           0
     41730 MEMB     335      QMPE     H6X      HAL2     0.900000E-01   1.00800           0
     41731 MEMB     335      QMPE     H6Y      HAL2     0.900000E-01   1.00800           0
     41732 MEMB     335      QMPE     C37      CTL2    -0.180000       12.0110           0
     41733 MEMB     335      QMPE     H7X      HAL2     0.900000E-01   1.00800           0
     41734 MEMB     335      QMPE     H7Y      HAL2     0.900000E-01   1.00800           0
     41735 MEMB     335      QMPE     C38      CTL2    -0.180000       12.0110           0
     41736 MEMB     335      QMPE     H8X      HAL2     0.900000E-01   1.00800           0
     41737 MEMB     335      QMPE     H8Y      HAL2     0.900000E-01   1.00800           0
     41738 MEMB     335      QMPE     C39      CTL2    -0.180000       12.0110           0
     41739 MEMB     335      QMPE     H9X      HAL2     0.900000E-01   1.00800           0
     41740 MEMB     335      QMPE     H9Y      HAL2     0.900000E-01   1.00800           0
     41741 MEMB     335      QMPE     C310     CTL2    -0.180000       12.0110           0
     41742 MEMB     335      QMPE     H10X     HAL2     0.900000E-01   1.00800           0
     41743 MEMB     335      QMPE     H10Y     HAL2     0.900000E-01   1.00800           0
     41744 MEMB     335      QMPE     C311     CTL2    -0.180000       12.0110           0
     41745 MEMB     335      QMPE     H11X     HAL2     0.900000E-01   1.00800           0
     41746 MEMB     335      QMPE     H11Y     HAL2     0.900000E-01   1.00800           0
     41747 MEMB     335      QMPE     C312     CTL2    -0.180000       12.0110           0
     41748 MEMB     335      QMPE     H12X     HAL2     0.900000E-01   1.00800           0
     41749 MEMB     335      QMPE     H12Y     HAL2     0.900000E-01   1.00800           0
     41750 MEMB     335      QMPE     C313     CTL2    -0.180000       12.0110           0
     41751 MEMB     335      QMPE     H13X     HAL2     0.900000E-01   1.00800           0
     41752 MEMB     335      QMPE     H13Y     HAL2     0.900000E-01   1.00800           0
     41753 MEMB     335      QMPE     C314     CTL2    -0.180000       12.0110           0
     41754 MEMB     335      QMPE     H14X     HAL2     0.900000E-01   1.00800           0
     41755 MEMB     335      QMPE     H14Y     HAL2     0.900000E-01   1.00800           0
     41756 MEMB     335      QMPE     C315     CTL3    -0.270000       12.0110           0
     41757 MEMB     335      QMPE     H15X     HAL3     0.900000E-01   1.00800           0
     41758 MEMB     335      QMPE     H15Y     HAL3     0.900000E-01   1.00800           0
     41759 MEMB     335      QMPE     H15Z     HAL3     0.900000E-01   1.00800           0
     41760 MEMB     336      PMPE     N        NH3L    -0.300000       14.0070           0
     41761 MEMB     336      PMPE     HN1      HCL      0.330000       1.00800           0
     41762 MEMB     336      PMPE     HN2      HCL      0.330000       1.00800           0
     41763 MEMB     336      PMPE     HN3      HCL      0.330000       1.00800           0
     41764 MEMB     336      PMPE     C12      CTL2     0.130000       12.0110           0
     41765 MEMB     336      PMPE     H12A     HAL2     0.900000E-01   1.00800           0
     41766 MEMB     336      PMPE     H12B     HAL2     0.900000E-01   1.00800           0
     41767 MEMB     336      PMPE     C11      CTL2    -0.800000E-01   12.0110           0
     41768 MEMB     336      PMPE     H11A     HAL2     0.900000E-01   1.00800           0
     41769 MEMB     336      PMPE     H11B     HAL2     0.900000E-01   1.00800           0
     41770 MEMB     336      PMPE     P        PL        1.50000       30.9740           0
     41771 MEMB     336      PMPE     O13      O2L     -0.780000       15.9994           0
     41772 MEMB     336      PMPE     O14      O2L     -0.780000       15.9994           0
     41773 MEMB     336      PMPE     O11      OSLP    -0.570000       15.9994           0
     41774 MEMB     336      PMPE     O12      OSLP    -0.570000       15.9994           0
     41775 MEMB     336      PMPE     C1       CTL2    -0.800000E-01   12.0110           0
     41776 MEMB     336      PMPE     HA       HAL2     0.900000E-01   1.00800           0
     41777 MEMB     336      PMPE     HB       HAL2     0.900000E-01   1.00800           0
     41778 MEMB     336      PMPE     C2       CTL1     0.170000       12.0110           0
     41779 MEMB     336      PMPE     HS       HAL1     0.900000E-01   1.00800           0
     41780 MEMB     336      PMPE     O21      OSL     -0.490000       15.9994           0
     41781 MEMB     336      PMPE     C21      CL       0.900000       12.0110           0
     41782 MEMB     336      PMPE     O22      OBL     -0.630000       15.9994           0
     41783 MEMB     336      PMPE     C22      CTL2    -0.220000       12.0110           0
     41784 MEMB     336      PMPE     H2R      HAL2     0.900000E-01   1.00800           0
     41785 MEMB     336      PMPE     H2S      HAL2     0.900000E-01   1.00800           0
     41786 MEMB     336      PMPE     C3       CTL2     0.800000E-01   12.0110           0
     41787 MEMB     336      PMPE     HX       HAL2     0.900000E-01   1.00800           0
     41788 MEMB     336      PMPE     HY       HAL2     0.900000E-01   1.00800           0
     41789 MEMB     336      PMPE     O31      OSL     -0.490000       15.9994           0
     41790 MEMB     336      PMPE     C31      CL       0.900000       12.0110           0
     41791 MEMB     336      PMPE     O32      OBL     -0.630000       15.9994           0
     41792 MEMB     336      PMPE     C32      CTL2    -0.220000       12.0110           0
     41793 MEMB     336      PMPE     H2X      HAL2     0.900000E-01   1.00800           0
     41794 MEMB     336      PMPE     H2Y      HAL2     0.900000E-01   1.00800           0
     41795 MEMB     336      PMPE     C23      CTL2    -0.180000       12.0110           0
     41796 MEMB     336      PMPE     H3R      HAL2     0.900000E-01   1.00800           0
     41797 MEMB     336      PMPE     H3S      HAL2     0.900000E-01   1.00800           0
     41798 MEMB     336      PMPE     C24      CTL2    -0.180000       12.0110           0
     41799 MEMB     336      PMPE     H4R      HAL2     0.900000E-01   1.00800           0
     41800 MEMB     336      PMPE     H4S      HAL2     0.900000E-01   1.00800           0
     41801 MEMB     336      PMPE     C25      CTL2    -0.180000       12.0110           0
     41802 MEMB     336      PMPE     H5R      HAL2     0.900000E-01   1.00800           0
     41803 MEMB     336      PMPE     H5S      HAL2     0.900000E-01   1.00800           0
     41804 MEMB     336      PMPE     C26      CTL2    -0.180000       12.0110           0
     41805 MEMB     336      PMPE     H6R      HAL2     0.900000E-01   1.00800           0
     41806 MEMB     336      PMPE     H6S      HAL2     0.900000E-01   1.00800           0
     41807 MEMB     336      PMPE     C27      CTL2    -0.180000       12.0110           0
     41808 MEMB     336      PMPE     H7R      HAL2     0.900000E-01   1.00800           0
     41809 MEMB     336      PMPE     H7S      HAL2     0.900000E-01   1.00800           0
     41810 MEMB     336      PMPE     C28      CTL2    -0.180000       12.0110           0
     41811 MEMB     336      PMPE     H8R      HAL2     0.900000E-01   1.00800           0
     41812 MEMB     336      PMPE     H8S      HAL2     0.900000E-01   1.00800           0
     41813 MEMB     336      PMPE     C29      CG3RC1  -0.900000E-01   12.0110           0
     41814 MEMB     336      PMPE     H9R      HGA1     0.900000E-01   1.00800           0
     41815 MEMB     336      PMPE     C217     CG3C31  -0.180000       12.0110           0
     41816 MEMB     336      PMPE     H17R     HGA2     0.900000E-01   1.00800           0
     41817 MEMB     336      PMPE     H17S     HGA2     0.900000E-01   1.00800           0
     41818 MEMB     336      PMPE     C210     CG3RC1  -0.900000E-01   12.0110           0
     41819 MEMB     336      PMPE     H10R     HGA1     0.900000E-01   1.00800           0
     41820 MEMB     336      PMPE     C211     CTL2    -0.180000       12.0110           0
     41821 MEMB     336      PMPE     H11R     HAL2     0.900000E-01   1.00800           0
     41822 MEMB     336      PMPE     H11S     HAL2     0.900000E-01   1.00800           0
     41823 MEMB     336      PMPE     C212     CTL2    -0.180000       12.0110           0
     41824 MEMB     336      PMPE     H12R     HAL2     0.900000E-01   1.00800           0
     41825 MEMB     336      PMPE     H12S     HAL2     0.900000E-01   1.00800           0
     41826 MEMB     336      PMPE     C213     CTL2    -0.180000       12.0110           0
     41827 MEMB     336      PMPE     H13R     HAL2     0.900000E-01   1.00800           0
     41828 MEMB     336      PMPE     H13S     HAL2     0.900000E-01   1.00800           0
     41829 MEMB     336      PMPE     C214     CTL2    -0.180000       12.0110           0
     41830 MEMB     336      PMPE     H14R     HAL2     0.900000E-01   1.00800           0
     41831 MEMB     336      PMPE     H14S     HAL2     0.900000E-01   1.00800           0
     41832 MEMB     336      PMPE     C215     CTL2    -0.180000       12.0110           0
     41833 MEMB     336      PMPE     H15R     HAL2     0.900000E-01   1.00800           0
     41834 MEMB     336      PMPE     H15S     HAL2     0.900000E-01   1.00800           0
     41835 MEMB     336      PMPE     C216     CTL3    -0.270000       12.0110           0
     41836 MEMB     336      PMPE     H16R     HAL3     0.900000E-01   1.00800           0
     41837 MEMB     336      PMPE     H16S     HAL3     0.900000E-01   1.00800           0
     41838 MEMB     336      PMPE     H16T     HAL3     0.900000E-01   1.00800           0
     41839 MEMB     336      PMPE     C33      CTL2    -0.180000       12.0110           0
     41840 MEMB     336      PMPE     H3X      HAL2     0.900000E-01   1.00800           0
     41841 MEMB     336      PMPE     H3Y      HAL2     0.900000E-01   1.00800           0
     41842 MEMB     336      PMPE     C34      CTL2    -0.180000       12.0110           0
     41843 MEMB     336      PMPE     H4X      HAL2     0.900000E-01   1.00800           0
     41844 MEMB     336      PMPE     H4Y      HAL2     0.900000E-01   1.00800           0
     41845 MEMB     336      PMPE     C35      CTL2    -0.180000       12.0110           0
     41846 MEMB     336      PMPE     H5X      HAL2     0.900000E-01   1.00800           0
     41847 MEMB     336      PMPE     H5Y      HAL2     0.900000E-01   1.00800           0
     41848 MEMB     336      PMPE     C36      CTL2    -0.180000       12.0110           0
     41849 MEMB     336      PMPE     H6X      HAL2     0.900000E-01   1.00800           0
     41850 MEMB     336      PMPE     H6Y      HAL2     0.900000E-01   1.00800           0
     41851 MEMB     336      PMPE     C37      CTL2    -0.180000       12.0110           0
     41852 MEMB     336      PMPE     H7X      HAL2     0.900000E-01   1.00800           0
     41853 MEMB     336      PMPE     H7Y      HAL2     0.900000E-01   1.00800           0
     41854 MEMB     336      PMPE     C38      CTL2    -0.180000       12.0110           0
     41855 MEMB     336      PMPE     H8X      HAL2     0.900000E-01   1.00800           0
     41856 MEMB     336      PMPE     H8Y      HAL2     0.900000E-01   1.00800           0
     41857 MEMB     336      PMPE     C39      CTL2    -0.180000       12.0110           0
     41858 MEMB     336      PMPE     H9X      HAL2     0.900000E-01   1.00800           0
     41859 MEMB     336      PMPE     H9Y      HAL2     0.900000E-01   1.00800           0
     41860 MEMB     336      PMPE     C310     CTL2    -0.180000       12.0110           0
     41861 MEMB     336      PMPE     H10X     HAL2     0.900000E-01   1.00800           0
     41862 MEMB     336      PMPE     H10Y     HAL2     0.900000E-01   1.00800           0
     41863 MEMB     336      PMPE     C311     CTL2    -0.180000       12.0110           0
     41864 MEMB     336      PMPE     H11X     HAL2     0.900000E-01   1.00800           0
     41865 MEMB     336      PMPE     H11Y     HAL2     0.900000E-01   1.00800           0
     41866 MEMB     336      PMPE     C312     CTL2    -0.180000       12.0110           0
     41867 MEMB     336      PMPE     H12X     HAL2     0.900000E-01   1.00800           0
     41868 MEMB     336      PMPE     H12Y     HAL2     0.900000E-01   1.00800           0
     41869 MEMB     336      PMPE     C313     CTL2    -0.180000       12.0110           0
     41870 MEMB     336      PMPE     H13X     HAL2     0.900000E-01   1.00800           0
     41871 MEMB     336      PMPE     H13Y     HAL2     0.900000E-01   1.00800           0
     41872 MEMB     336      PMPE     C314     CTL2    -0.180000       12.0110           0
     41873 MEMB     336      PMPE     H14X     HAL2     0.900000E-01   1.00800           0
     41874 MEMB     336      PMPE     H14Y     HAL2     0.900000E-01   1.00800           0
     41875 MEMB     336      PMPE     C315     CTL2    -0.180000       12.0110           0
     41876 MEMB     336      PMPE     H15X     HAL2     0.900000E-01   1.00800           0
     41877 MEMB     336      PMPE     H15Y     HAL2     0.900000E-01   1.00800           0
     41878 MEMB     336      PMPE     C316     CTL3    -0.270000       12.0110           0
     41879 MEMB     336      PMPE     H16X     HAL3     0.900000E-01   1.00800           0
     41880 MEMB     336      PMPE     H16Y     HAL3     0.900000E-01   1.00800           0
     41881 MEMB     336      PMPE     H16Z     HAL3     0.900000E-01   1.00800           0
     41882 MEMB     337      POPE     N        NH3L    -0.300000       14.0070           0
     41883 MEMB     337      POPE     HN1      HCL      0.330000       1.00800           0
     41884 MEMB     337      POPE     HN2      HCL      0.330000       1.00800           0
     41885 MEMB     337      POPE     HN3      HCL      0.330000       1.00800           0
     41886 MEMB     337      POPE     C12      CTL2     0.130000       12.0110           0
     41887 MEMB     337      POPE     H12A     HAL2     0.900000E-01   1.00800           0
     41888 MEMB     337      POPE     H12B     HAL2     0.900000E-01   1.00800           0
     41889 MEMB     337      POPE     C11      CTL2    -0.800000E-01   12.0110           0
     41890 MEMB     337      POPE     H11A     HAL2     0.900000E-01   1.00800           0
     41891 MEMB     337      POPE     H11B     HAL2     0.900000E-01   1.00800           0
     41892 MEMB     337      POPE     P        PL        1.50000       30.9740           0
     41893 MEMB     337      POPE     O13      O2L     -0.780000       15.9994           0
     41894 MEMB     337      POPE     O14      O2L     -0.780000       15.9994           0
     41895 MEMB     337      POPE     O11      OSLP    -0.570000       15.9994           0
     41896 MEMB     337      POPE     O12      OSLP    -0.570000       15.9994           0
     41897 MEMB     337      POPE     C1       CTL2    -0.800000E-01   12.0110           0
     41898 MEMB     337      POPE     HA       HAL2     0.900000E-01   1.00800           0
     41899 MEMB     337      POPE     HB       HAL2     0.900000E-01   1.00800           0
     41900 MEMB     337      POPE     C2       CTL1     0.170000       12.0110           0
     41901 MEMB     337      POPE     HS       HAL1     0.900000E-01   1.00800           0
     41902 MEMB     337      POPE     O21      OSL     -0.490000       15.9994           0
     41903 MEMB     337      POPE     C21      CL       0.900000       12.0110           0
     41904 MEMB     337      POPE     O22      OBL     -0.630000       15.9994           0
     41905 MEMB     337      POPE     C22      CTL2    -0.220000       12.0110           0
     41906 MEMB     337      POPE     H2R      HAL2     0.900000E-01   1.00800           0
     41907 MEMB     337      POPE     H2S      HAL2     0.900000E-01   1.00800           0
     41908 MEMB     337      POPE     C3       CTL2     0.800000E-01   12.0110           0
     41909 MEMB     337      POPE     HX       HAL2     0.900000E-01   1.00800           0
     41910 MEMB     337      POPE     HY       HAL2     0.900000E-01   1.00800           0
     41911 MEMB     337      POPE     O31      OSL     -0.490000       15.9994           0
     41912 MEMB     337      POPE     C31      CL       0.900000       12.0110           0
     41913 MEMB     337      POPE     O32      OBL     -0.630000       15.9994           0
     41914 MEMB     337      POPE     C32      CTL2    -0.220000       12.0110           0
     41915 MEMB     337      POPE     H2X      HAL2     0.900000E-01   1.00800           0
     41916 MEMB     337      POPE     H2Y      HAL2     0.900000E-01   1.00800           0
     41917 MEMB     337      POPE     C23      CTL2    -0.180000       12.0110           0
     41918 MEMB     337      POPE     H3R      HAL2     0.900000E-01   1.00800           0
     41919 MEMB     337      POPE     H3S      HAL2     0.900000E-01   1.00800           0
     41920 MEMB     337      POPE     C24      CTL2    -0.180000       12.0110           0
     41921 MEMB     337      POPE     H4R      HAL2     0.900000E-01   1.00800           0
     41922 MEMB     337      POPE     H4S      HAL2     0.900000E-01   1.00800           0
     41923 MEMB     337      POPE     C25      CTL2    -0.180000       12.0110           0
     41924 MEMB     337      POPE     H5R      HAL2     0.900000E-01   1.00800           0
     41925 MEMB     337      POPE     H5S      HAL2     0.900000E-01   1.00800           0
     41926 MEMB     337      POPE     C26      CTL2    -0.180000       12.0110           0
     41927 MEMB     337      POPE     H6R      HAL2     0.900000E-01   1.00800           0
     41928 MEMB     337      POPE     H6S      HAL2     0.900000E-01   1.00800           0
     41929 MEMB     337      POPE     C27      CTL2    -0.180000       12.0110           0
     41930 MEMB     337      POPE     H7R      HAL2     0.900000E-01   1.00800           0
     41931 MEMB     337      POPE     H7S      HAL2     0.900000E-01   1.00800           0
     41932 MEMB     337      POPE     C28      CTL2    -0.180000       12.0110           0
     41933 MEMB     337      POPE     H8R      HAL2     0.900000E-01   1.00800           0
     41934 MEMB     337      POPE     H8S      HAL2     0.900000E-01   1.00800           0
     41935 MEMB     337      POPE     C29      CEL1    -0.150000       12.0110           0
     41936 MEMB     337      POPE     H91      HEL1     0.150000       1.00800           0
     41937 MEMB     337      POPE     C210     CEL1    -0.150000       12.0110           0
     41938 MEMB     337      POPE     H101     HEL1     0.150000       1.00800           0
     41939 MEMB     337      POPE     C211     CTL2    -0.180000       12.0110           0
     41940 MEMB     337      POPE     H11R     HAL2     0.900000E-01   1.00800           0
     41941 MEMB     337      POPE     H11S     HAL2     0.900000E-01   1.00800           0
     41942 MEMB     337      POPE     C212     CTL2    -0.180000       12.0110           0
     41943 MEMB     337      POPE     H12R     HAL2     0.900000E-01   1.00800           0
     41944 MEMB     337      POPE     H12S     HAL2     0.900000E-01   1.00800           0
     41945 MEMB     337      POPE     C213     CTL2    -0.180000       12.0110           0
     41946 MEMB     337      POPE     H13R     HAL2     0.900000E-01   1.00800           0
     41947 MEMB     337      POPE     H13S     HAL2     0.900000E-01   1.00800           0
     41948 MEMB     337      POPE     C214     CTL2    -0.180000       12.0110           0
     41949 MEMB     337      POPE     H14R     HAL2     0.900000E-01   1.00800           0
     41950 MEMB     337      POPE     H14S     HAL2     0.900000E-01   1.00800           0
     41951 MEMB     337      POPE     C215     CTL2    -0.180000       12.0110           0
     41952 MEMB     337      POPE     H15R     HAL2     0.900000E-01   1.00800           0
     41953 MEMB     337      POPE     H15S     HAL2     0.900000E-01   1.00800           0
     41954 MEMB     337      POPE     C216     CTL2    -0.180000       12.0110           0
     41955 MEMB     337      POPE     H16R     HAL2     0.900000E-01   1.00800           0
     41956 MEMB     337      POPE     H16S     HAL2     0.900000E-01   1.00800           0
     41957 MEMB     337      POPE     C217     CTL2    -0.180000       12.0110           0
     41958 MEMB     337      POPE     H17R     HAL2     0.900000E-01   1.00800           0
     41959 MEMB     337      POPE     H17S     HAL2     0.900000E-01   1.00800           0
     41960 MEMB     337      POPE     C218     CTL3    -0.270000       12.0110           0
     41961 MEMB     337      POPE     H18R     HAL3     0.900000E-01   1.00800           0
     41962 MEMB     337      POPE     H18S     HAL3     0.900000E-01   1.00800           0
     41963 MEMB     337      POPE     H18T     HAL3     0.900000E-01   1.00800           0
     41964 MEMB     337      POPE     C33      CTL2    -0.180000       12.0110           0
     41965 MEMB     337      POPE     H3X      HAL2     0.900000E-01   1.00800           0
     41966 MEMB     337      POPE     H3Y      HAL2     0.900000E-01   1.00800           0
     41967 MEMB     337      POPE     C34      CTL2    -0.180000       12.0110           0
     41968 MEMB     337      POPE     H4X      HAL2     0.900000E-01   1.00800           0
     41969 MEMB     337      POPE     H4Y      HAL2     0.900000E-01   1.00800           0
     41970 MEMB     337      POPE     C35      CTL2    -0.180000       12.0110           0
     41971 MEMB     337      POPE     H5X      HAL2     0.900000E-01   1.00800           0
     41972 MEMB     337      POPE     H5Y      HAL2     0.900000E-01   1.00800           0
     41973 MEMB     337      POPE     C36      CTL2    -0.180000       12.0110           0
     41974 MEMB     337      POPE     H6X      HAL2     0.900000E-01   1.00800           0
     41975 MEMB     337      POPE     H6Y      HAL2     0.900000E-01   1.00800           0
     41976 MEMB     337      POPE     C37      CTL2    -0.180000       12.0110           0
     41977 MEMB     337      POPE     H7X      HAL2     0.900000E-01   1.00800           0
     41978 MEMB     337      POPE     H7Y      HAL2     0.900000E-01   1.00800           0
     41979 MEMB     337      POPE     C38      CTL2    -0.180000       12.0110           0
     41980 MEMB     337      POPE     H8X      HAL2     0.900000E-01   1.00800           0
     41981 MEMB     337      POPE     H8Y      HAL2     0.900000E-01   1.00800           0
     41982 MEMB     337      POPE     C39      CTL2    -0.180000       12.0110           0
     41983 MEMB     337      POPE     H9X      HAL2     0.900000E-01   1.00800           0
     41984 MEMB     337      POPE     H9Y      HAL2     0.900000E-01   1.00800           0
     41985 MEMB     337      POPE     C310     CTL2    -0.180000       12.0110           0
     41986 MEMB     337      POPE     H10X     HAL2     0.900000E-01   1.00800           0
     41987 MEMB     337      POPE     H10Y     HAL2     0.900000E-01   1.00800           0
     41988 MEMB     337      POPE     C311     CTL2    -0.180000       12.0110           0
     41989 MEMB     337      POPE     H11X     HAL2     0.900000E-01   1.00800           0
     41990 MEMB     337      POPE     H11Y     HAL2     0.900000E-01   1.00800           0
     41991 MEMB     337      POPE     C312     CTL2    -0.180000       12.0110           0
     41992 MEMB     337      POPE     H12X     HAL2     0.900000E-01   1.00800           0
     41993 MEMB     337      POPE     H12Y     HAL2     0.900000E-01   1.00800           0
     41994 MEMB     337      POPE     C313     CTL2    -0.180000       12.0110           0
     41995 MEMB     337      POPE     H13X     HAL2     0.900000E-01   1.00800           0
     41996 MEMB     337      POPE     H13Y     HAL2     0.900000E-01   1.00800           0
     41997 MEMB     337      POPE     C314     CTL2    -0.180000       12.0110           0
     41998 MEMB     337      POPE     H14X     HAL2     0.900000E-01   1.00800           0
     41999 MEMB     337      POPE     H14Y     HAL2     0.900000E-01   1.00800           0
     42000 MEMB     337      POPE     C315     CTL2    -0.180000       12.0110           0
     42001 MEMB     337      POPE     H15X     HAL2     0.900000E-01   1.00800           0
     42002 MEMB     337      POPE     H15Y     HAL2     0.900000E-01   1.00800           0
     42003 MEMB     337      POPE     C316     CTL3    -0.270000       12.0110           0
     42004 MEMB     337      POPE     H16X     HAL3     0.900000E-01   1.00800           0
     42005 MEMB     337      POPE     H16Y     HAL3     0.900000E-01   1.00800           0
     42006 MEMB     337      POPE     H16Z     HAL3     0.900000E-01   1.00800           0
     42007 MEMB     338      POPE     N        NH3L    -0.300000       14.0070           0
     42008 MEMB     338      POPE     HN1      HCL      0.330000       1.00800           0
     42009 MEMB     338      POPE     HN2      HCL      0.330000       1.00800           0
     42010 MEMB     338      POPE     HN3      HCL      0.330000       1.00800           0
     42011 MEMB     338      POPE     C12      CTL2     0.130000       12.0110           0
     42012 MEMB     338      POPE     H12A     HAL2     0.900000E-01   1.00800           0
     42013 MEMB     338      POPE     H12B     HAL2     0.900000E-01   1.00800           0
     42014 MEMB     338      POPE     C11      CTL2    -0.800000E-01   12.0110           0
     42015 MEMB     338      POPE     H11A     HAL2     0.900000E-01   1.00800           0
     42016 MEMB     338      POPE     H11B     HAL2     0.900000E-01   1.00800           0
     42017 MEMB     338      POPE     P        PL        1.50000       30.9740           0
     42018 MEMB     338      POPE     O13      O2L     -0.780000       15.9994           0
     42019 MEMB     338      POPE     O14      O2L     -0.780000       15.9994           0
     42020 MEMB     338      POPE     O11      OSLP    -0.570000       15.9994           0
     42021 MEMB     338      POPE     O12      OSLP    -0.570000       15.9994           0
     42022 MEMB     338      POPE     C1       CTL2    -0.800000E-01   12.0110           0
     42023 MEMB     338      POPE     HA       HAL2     0.900000E-01   1.00800           0
     42024 MEMB     338      POPE     HB       HAL2     0.900000E-01   1.00800           0
     42025 MEMB     338      POPE     C2       CTL1     0.170000       12.0110           0
     42026 MEMB     338      POPE     HS       HAL1     0.900000E-01   1.00800           0
     42027 MEMB     338      POPE     O21      OSL     -0.490000       15.9994           0
     42028 MEMB     338      POPE     C21      CL       0.900000       12.0110           0
     42029 MEMB     338      POPE     O22      OBL     -0.630000       15.9994           0
     42030 MEMB     338      POPE     C22      CTL2    -0.220000       12.0110           0
     42031 MEMB     338      POPE     H2R      HAL2     0.900000E-01   1.00800           0
     42032 MEMB     338      POPE     H2S      HAL2     0.900000E-01   1.00800           0
     42033 MEMB     338      POPE     C3       CTL2     0.800000E-01   12.0110           0
     42034 MEMB     338      POPE     HX       HAL2     0.900000E-01   1.00800           0
     42035 MEMB     338      POPE     HY       HAL2     0.900000E-01   1.00800           0
     42036 MEMB     338      POPE     O31      OSL     -0.490000       15.9994           0
     42037 MEMB     338      POPE     C31      CL       0.900000       12.0110           0
     42038 MEMB     338      POPE     O32      OBL     -0.630000       15.9994           0
     42039 MEMB     338      POPE     C32      CTL2    -0.220000       12.0110           0
     42040 MEMB     338      POPE     H2X      HAL2     0.900000E-01   1.00800           0
     42041 MEMB     338      POPE     H2Y      HAL2     0.900000E-01   1.00800           0
     42042 MEMB     338      POPE     C23      CTL2    -0.180000       12.0110           0
     42043 MEMB     338      POPE     H3R      HAL2     0.900000E-01   1.00800           0
     42044 MEMB     338      POPE     H3S      HAL2     0.900000E-01   1.00800           0
     42045 MEMB     338      POPE     C24      CTL2    -0.180000       12.0110           0
     42046 MEMB     338      POPE     H4R      HAL2     0.900000E-01   1.00800           0
     42047 MEMB     338      POPE     H4S      HAL2     0.900000E-01   1.00800           0
     42048 MEMB     338      POPE     C25      CTL2    -0.180000       12.0110           0
     42049 MEMB     338      POPE     H5R      HAL2     0.900000E-01   1.00800           0
     42050 MEMB     338      POPE     H5S      HAL2     0.900000E-01   1.00800           0
     42051 MEMB     338      POPE     C26      CTL2    -0.180000       12.0110           0
     42052 MEMB     338      POPE     H6R      HAL2     0.900000E-01   1.00800           0
     42053 MEMB     338      POPE     H6S      HAL2     0.900000E-01   1.00800           0
     42054 MEMB     338      POPE     C27      CTL2    -0.180000       12.0110           0
     42055 MEMB     338      POPE     H7R      HAL2     0.900000E-01   1.00800           0
     42056 MEMB     338      POPE     H7S      HAL2     0.900000E-01   1.00800           0
     42057 MEMB     338      POPE     C28      CTL2    -0.180000       12.0110           0
     42058 MEMB     338      POPE     H8R      HAL2     0.900000E-01   1.00800           0
     42059 MEMB     338      POPE     H8S      HAL2     0.900000E-01   1.00800           0
     42060 MEMB     338      POPE     C29      CEL1    -0.150000       12.0110           0
     42061 MEMB     338      POPE     H91      HEL1     0.150000       1.00800           0
     42062 MEMB     338      POPE     C210     CEL1    -0.150000       12.0110           0
     42063 MEMB     338      POPE     H101     HEL1     0.150000       1.00800           0
     42064 MEMB     338      POPE     C211     CTL2    -0.180000       12.0110           0
     42065 MEMB     338      POPE     H11R     HAL2     0.900000E-01   1.00800           0
     42066 MEMB     338      POPE     H11S     HAL2     0.900000E-01   1.00800           0
     42067 MEMB     338      POPE     C212     CTL2    -0.180000       12.0110           0
     42068 MEMB     338      POPE     H12R     HAL2     0.900000E-01   1.00800           0
     42069 MEMB     338      POPE     H12S     HAL2     0.900000E-01   1.00800           0
     42070 MEMB     338      POPE     C213     CTL2    -0.180000       12.0110           0
     42071 MEMB     338      POPE     H13R     HAL2     0.900000E-01   1.00800           0
     42072 MEMB     338      POPE     H13S     HAL2     0.900000E-01   1.00800           0
     42073 MEMB     338      POPE     C214     CTL2    -0.180000       12.0110           0
     42074 MEMB     338      POPE     H14R     HAL2     0.900000E-01   1.00800           0
     42075 MEMB     338      POPE     H14S     HAL2     0.900000E-01   1.00800           0
     42076 MEMB     338      POPE     C215     CTL2    -0.180000       12.0110           0
     42077 MEMB     338      POPE     H15R     HAL2     0.900000E-01   1.00800           0
     42078 MEMB     338      POPE     H15S     HAL2     0.900000E-01   1.00800           0
     42079 MEMB     338      POPE     C216     CTL2    -0.180000       12.0110           0
     42080 MEMB     338      POPE     H16R     HAL2     0.900000E-01   1.00800           0
     42081 MEMB     338      POPE     H16S     HAL2     0.900000E-01   1.00800           0
     42082 MEMB     338      POPE     C217     CTL2    -0.180000       12.0110           0
     42083 MEMB     338      POPE     H17R     HAL2     0.900000E-01   1.00800           0
     42084 MEMB     338      POPE     H17S     HAL2     0.900000E-01   1.00800           0
     42085 MEMB     338      POPE     C218     CTL3    -0.270000       12.0110           0
     42086 MEMB     338      POPE     H18R     HAL3     0.900000E-01   1.00800           0
     42087 MEMB     338      POPE     H18S     HAL3     0.900000E-01   1.00800           0
     42088 MEMB     338      POPE     H18T     HAL3     0.900000E-01   1.00800           0
     42089 MEMB     338      POPE     C33      CTL2    -0.180000       12.0110           0
     42090 MEMB     338      POPE     H3X      HAL2     0.900000E-01   1.00800           0
     42091 MEMB     338      POPE     H3Y      HAL2     0.900000E-01   1.00800           0
     42092 MEMB     338      POPE     C34      CTL2    -0.180000       12.0110           0
     42093 MEMB     338      POPE     H4X      HAL2     0.900000E-01   1.00800           0
     42094 MEMB     338      POPE     H4Y      HAL2     0.900000E-01   1.00800           0
     42095 MEMB     338      POPE     C35      CTL2    -0.180000       12.0110           0
     42096 MEMB     338      POPE     H5X      HAL2     0.900000E-01   1.00800           0
     42097 MEMB     338      POPE     H5Y      HAL2     0.900000E-01   1.00800           0
     42098 MEMB     338      POPE     C36      CTL2    -0.180000       12.0110           0
     42099 MEMB     338      POPE     H6X      HAL2     0.900000E-01   1.00800           0
     42100 MEMB     338      POPE     H6Y      HAL2     0.900000E-01   1.00800           0
     42101 MEMB     338      POPE     C37      CTL2    -0.180000       12.0110           0
     42102 MEMB     338      POPE     H7X      HAL2     0.900000E-01   1.00800           0
     42103 MEMB     338      POPE     H7Y      HAL2     0.900000E-01   1.00800           0
     42104 MEMB     338      POPE     C38      CTL2    -0.180000       12.0110           0
     42105 MEMB     338      POPE     H8X      HAL2     0.900000E-01   1.00800           0
     42106 MEMB     338      POPE     H8Y      HAL2     0.900000E-01   1.00800           0
     42107 MEMB     338      POPE     C39      CTL2    -0.180000       12.0110           0
     42108 MEMB     338      POPE     H9X      HAL2     0.900000E-01   1.00800           0
     42109 MEMB     338      POPE     H9Y      HAL2     0.900000E-01   1.00800           0
     42110 MEMB     338      POPE     C310     CTL2    -0.180000       12.0110           0
     42111 MEMB     338      POPE     H10X     HAL2     0.900000E-01   1.00800           0
     42112 MEMB     338      POPE     H10Y     HAL2     0.900000E-01   1.00800           0
     42113 MEMB     338      POPE     C311     CTL2    -0.180000       12.0110           0
     42114 MEMB     338      POPE     H11X     HAL2     0.900000E-01   1.00800           0
     42115 MEMB     338      POPE     H11Y     HAL2     0.900000E-01   1.00800           0
     42116 MEMB     338      POPE     C312     CTL2    -0.180000       12.0110           0
     42117 MEMB     338      POPE     H12X     HAL2     0.900000E-01   1.00800           0
     42118 MEMB     338      POPE     H12Y     HAL2     0.900000E-01   1.00800           0
     42119 MEMB     338      POPE     C313     CTL2    -0.180000       12.0110           0
     42120 MEMB     338      POPE     H13X     HAL2     0.900000E-01   1.00800           0
     42121 MEMB     338      POPE     H13Y     HAL2     0.900000E-01   1.00800           0
     42122 MEMB     338      POPE     C314     CTL2    -0.180000       12.0110           0
     42123 MEMB     338      POPE     H14X     HAL2     0.900000E-01   1.00800           0
     42124 MEMB     338      POPE     H14Y     HAL2     0.900000E-01   1.00800           0
     42125 MEMB     338      POPE     C315     CTL2    -0.180000       12.0110           0
     42126 MEMB     338      POPE     H15X     HAL2     0.900000E-01   1.00800           0
     42127 MEMB     338      POPE     H15Y     HAL2     0.900000E-01   1.00800           0
     42128 MEMB     338      POPE     C316     CTL3    -0.270000       12.0110           0
     42129 MEMB     338      POPE     H16X     HAL3     0.900000E-01   1.00800           0
     42130 MEMB     338      POPE     H16Y     HAL3     0.900000E-01   1.00800           0
     42131 MEMB     338      POPE     H16Z     HAL3     0.900000E-01   1.00800           0
     42132 MEMB     339      PMPE     N        NH3L    -0.300000       14.0070           0
     42133 MEMB     339      PMPE     HN1      HCL      0.330000       1.00800           0
     42134 MEMB     339      PMPE     HN2      HCL      0.330000       1.00800           0
     42135 MEMB     339      PMPE     HN3      HCL      0.330000       1.00800           0
     42136 MEMB     339      PMPE     C12      CTL2     0.130000       12.0110           0
     42137 MEMB     339      PMPE     H12A     HAL2     0.900000E-01   1.00800           0
     42138 MEMB     339      PMPE     H12B     HAL2     0.900000E-01   1.00800           0
     42139 MEMB     339      PMPE     C11      CTL2    -0.800000E-01   12.0110           0
     42140 MEMB     339      PMPE     H11A     HAL2     0.900000E-01   1.00800           0
     42141 MEMB     339      PMPE     H11B     HAL2     0.900000E-01   1.00800           0
     42142 MEMB     339      PMPE     P        PL        1.50000       30.9740           0
     42143 MEMB     339      PMPE     O13      O2L     -0.780000       15.9994           0
     42144 MEMB     339      PMPE     O14      O2L     -0.780000       15.9994           0
     42145 MEMB     339      PMPE     O11      OSLP    -0.570000       15.9994           0
     42146 MEMB     339      PMPE     O12      OSLP    -0.570000       15.9994           0
     42147 MEMB     339      PMPE     C1       CTL2    -0.800000E-01   12.0110           0
     42148 MEMB     339      PMPE     HA       HAL2     0.900000E-01   1.00800           0
     42149 MEMB     339      PMPE     HB       HAL2     0.900000E-01   1.00800           0
     42150 MEMB     339      PMPE     C2       CTL1     0.170000       12.0110           0
     42151 MEMB     339      PMPE     HS       HAL1     0.900000E-01   1.00800           0
     42152 MEMB     339      PMPE     O21      OSL     -0.490000       15.9994           0
     42153 MEMB     339      PMPE     C21      CL       0.900000       12.0110           0
     42154 MEMB     339      PMPE     O22      OBL     -0.630000       15.9994           0
     42155 MEMB     339      PMPE     C22      CTL2    -0.220000       12.0110           0
     42156 MEMB     339      PMPE     H2R      HAL2     0.900000E-01   1.00800           0
     42157 MEMB     339      PMPE     H2S      HAL2     0.900000E-01   1.00800           0
     42158 MEMB     339      PMPE     C3       CTL2     0.800000E-01   12.0110           0
     42159 MEMB     339      PMPE     HX       HAL2     0.900000E-01   1.00800           0
     42160 MEMB     339      PMPE     HY       HAL2     0.900000E-01   1.00800           0
     42161 MEMB     339      PMPE     O31      OSL     -0.490000       15.9994           0
     42162 MEMB     339      PMPE     C31      CL       0.900000       12.0110           0
     42163 MEMB     339      PMPE     O32      OBL     -0.630000       15.9994           0
     42164 MEMB     339      PMPE     C32      CTL2    -0.220000       12.0110           0
     42165 MEMB     339      PMPE     H2X      HAL2     0.900000E-01   1.00800           0
     42166 MEMB     339      PMPE     H2Y      HAL2     0.900000E-01   1.00800           0
     42167 MEMB     339      PMPE     C23      CTL2    -0.180000       12.0110           0
     42168 MEMB     339      PMPE     H3R      HAL2     0.900000E-01   1.00800           0
     42169 MEMB     339      PMPE     H3S      HAL2     0.900000E-01   1.00800           0
     42170 MEMB     339      PMPE     C24      CTL2    -0.180000       12.0110           0
     42171 MEMB     339      PMPE     H4R      HAL2     0.900000E-01   1.00800           0
     42172 MEMB     339      PMPE     H4S      HAL2     0.900000E-01   1.00800           0
     42173 MEMB     339      PMPE     C25      CTL2    -0.180000       12.0110           0
     42174 MEMB     339      PMPE     H5R      HAL2     0.900000E-01   1.00800           0
     42175 MEMB     339      PMPE     H5S      HAL2     0.900000E-01   1.00800           0
     42176 MEMB     339      PMPE     C26      CTL2    -0.180000       12.0110           0
     42177 MEMB     339      PMPE     H6R      HAL2     0.900000E-01   1.00800           0
     42178 MEMB     339      PMPE     H6S      HAL2     0.900000E-01   1.00800           0
     42179 MEMB     339      PMPE     C27      CTL2    -0.180000       12.0110           0
     42180 MEMB     339      PMPE     H7R      HAL2     0.900000E-01   1.00800           0
     42181 MEMB     339      PMPE     H7S      HAL2     0.900000E-01   1.00800           0
     42182 MEMB     339      PMPE     C28      CTL2    -0.180000       12.0110           0
     42183 MEMB     339      PMPE     H8R      HAL2     0.900000E-01   1.00800           0
     42184 MEMB     339      PMPE     H8S      HAL2     0.900000E-01   1.00800           0
     42185 MEMB     339      PMPE     C29      CG3RC1  -0.900000E-01   12.0110           0
     42186 MEMB     339      PMPE     H9R      HGA1     0.900000E-01   1.00800           0
     42187 MEMB     339      PMPE     C217     CG3C31  -0.180000       12.0110           0
     42188 MEMB     339      PMPE     H17R     HGA2     0.900000E-01   1.00800           0
     42189 MEMB     339      PMPE     H17S     HGA2     0.900000E-01   1.00800           0
     42190 MEMB     339      PMPE     C210     CG3RC1  -0.900000E-01   12.0110           0
     42191 MEMB     339      PMPE     H10R     HGA1     0.900000E-01   1.00800           0
     42192 MEMB     339      PMPE     C211     CTL2    -0.180000       12.0110           0
     42193 MEMB     339      PMPE     H11R     HAL2     0.900000E-01   1.00800           0
     42194 MEMB     339      PMPE     H11S     HAL2     0.900000E-01   1.00800           0
     42195 MEMB     339      PMPE     C212     CTL2    -0.180000       12.0110           0
     42196 MEMB     339      PMPE     H12R     HAL2     0.900000E-01   1.00800           0
     42197 MEMB     339      PMPE     H12S     HAL2     0.900000E-01   1.00800           0
     42198 MEMB     339      PMPE     C213     CTL2    -0.180000       12.0110           0
     42199 MEMB     339      PMPE     H13R     HAL2     0.900000E-01   1.00800           0
     42200 MEMB     339      PMPE     H13S     HAL2     0.900000E-01   1.00800           0
     42201 MEMB     339      PMPE     C214     CTL2    -0.180000       12.0110           0
     42202 MEMB     339      PMPE     H14R     HAL2     0.900000E-01   1.00800           0
     42203 MEMB     339      PMPE     H14S     HAL2     0.900000E-01   1.00800           0
     42204 MEMB     339      PMPE     C215     CTL2    -0.180000       12.0110           0
     42205 MEMB     339      PMPE     H15R     HAL2     0.900000E-01   1.00800           0
     42206 MEMB     339      PMPE     H15S     HAL2     0.900000E-01   1.00800           0
     42207 MEMB     339      PMPE     C216     CTL3    -0.270000       12.0110           0
     42208 MEMB     339      PMPE     H16R     HAL3     0.900000E-01   1.00800           0
     42209 MEMB     339      PMPE     H16S     HAL3     0.900000E-01   1.00800           0
     42210 MEMB     339      PMPE     H16T     HAL3     0.900000E-01   1.00800           0
     42211 MEMB     339      PMPE     C33      CTL2    -0.180000       12.0110           0
     42212 MEMB     339      PMPE     H3X      HAL2     0.900000E-01   1.00800           0
     42213 MEMB     339      PMPE     H3Y      HAL2     0.900000E-01   1.00800           0
     42214 MEMB     339      PMPE     C34      CTL2    -0.180000       12.0110           0
     42215 MEMB     339      PMPE     H4X      HAL2     0.900000E-01   1.00800           0
     42216 MEMB     339      PMPE     H4Y      HAL2     0.900000E-01   1.00800           0
     42217 MEMB     339      PMPE     C35      CTL2    -0.180000       12.0110           0
     42218 MEMB     339      PMPE     H5X      HAL2     0.900000E-01   1.00800           0
     42219 MEMB     339      PMPE     H5Y      HAL2     0.900000E-01   1.00800           0
     42220 MEMB     339      PMPE     C36      CTL2    -0.180000       12.0110           0
     42221 MEMB     339      PMPE     H6X      HAL2     0.900000E-01   1.00800           0
     42222 MEMB     339      PMPE     H6Y      HAL2     0.900000E-01   1.00800           0
     42223 MEMB     339      PMPE     C37      CTL2    -0.180000       12.0110           0
     42224 MEMB     339      PMPE     H7X      HAL2     0.900000E-01   1.00800           0
     42225 MEMB     339      PMPE     H7Y      HAL2     0.900000E-01   1.00800           0
     42226 MEMB     339      PMPE     C38      CTL2    -0.180000       12.0110           0
     42227 MEMB     339      PMPE     H8X      HAL2     0.900000E-01   1.00800           0
     42228 MEMB     339      PMPE     H8Y      HAL2     0.900000E-01   1.00800           0
     42229 MEMB     339      PMPE     C39      CTL2    -0.180000       12.0110           0
     42230 MEMB     339      PMPE     H9X      HAL2     0.900000E-01   1.00800           0
     42231 MEMB     339      PMPE     H9Y      HAL2     0.900000E-01   1.00800           0
     42232 MEMB     339      PMPE     C310     CTL2    -0.180000       12.0110           0
     42233 MEMB     339      PMPE     H10X     HAL2     0.900000E-01   1.00800           0
     42234 MEMB     339      PMPE     H10Y     HAL2     0.900000E-01   1.00800           0
     42235 MEMB     339      PMPE     C311     CTL2    -0.180000       12.0110           0
     42236 MEMB     339      PMPE     H11X     HAL2     0.900000E-01   1.00800           0
     42237 MEMB     339      PMPE     H11Y     HAL2     0.900000E-01   1.00800           0
     42238 MEMB     339      PMPE     C312     CTL2    -0.180000       12.0110           0
     42239 MEMB     339      PMPE     H12X     HAL2     0.900000E-01   1.00800           0
     42240 MEMB     339      PMPE     H12Y     HAL2     0.900000E-01   1.00800           0
     42241 MEMB     339      PMPE     C313     CTL2    -0.180000       12.0110           0
     42242 MEMB     339      PMPE     H13X     HAL2     0.900000E-01   1.00800           0
     42243 MEMB     339      PMPE     H13Y     HAL2     0.900000E-01   1.00800           0
     42244 MEMB     339      PMPE     C314     CTL2    -0.180000       12.0110           0
     42245 MEMB     339      PMPE     H14X     HAL2     0.900000E-01   1.00800           0
     42246 MEMB     339      PMPE     H14Y     HAL2     0.900000E-01   1.00800           0
     42247 MEMB     339      PMPE     C315     CTL2    -0.180000       12.0110           0
     42248 MEMB     339      PMPE     H15X     HAL2     0.900000E-01   1.00800           0
     42249 MEMB     339      PMPE     H15Y     HAL2     0.900000E-01   1.00800           0
     42250 MEMB     339      PMPE     C316     CTL3    -0.270000       12.0110           0
     42251 MEMB     339      PMPE     H16X     HAL3     0.900000E-01   1.00800           0
     42252 MEMB     339      PMPE     H16Y     HAL3     0.900000E-01   1.00800           0
     42253 MEMB     339      PMPE     H16Z     HAL3     0.900000E-01   1.00800           0
     42254 MEMB     340      PMPE     N        NH3L    -0.300000       14.0070           0
     42255 MEMB     340      PMPE     HN1      HCL      0.330000       1.00800           0
     42256 MEMB     340      PMPE     HN2      HCL      0.330000       1.00800           0
     42257 MEMB     340      PMPE     HN3      HCL      0.330000       1.00800           0
     42258 MEMB     340      PMPE     C12      CTL2     0.130000       12.0110           0
     42259 MEMB     340      PMPE     H12A     HAL2     0.900000E-01   1.00800           0
     42260 MEMB     340      PMPE     H12B     HAL2     0.900000E-01   1.00800           0
     42261 MEMB     340      PMPE     C11      CTL2    -0.800000E-01   12.0110           0
     42262 MEMB     340      PMPE     H11A     HAL2     0.900000E-01   1.00800           0
     42263 MEMB     340      PMPE     H11B     HAL2     0.900000E-01   1.00800           0
     42264 MEMB     340      PMPE     P        PL        1.50000       30.9740           0
     42265 MEMB     340      PMPE     O13      O2L     -0.780000       15.9994           0
     42266 MEMB     340      PMPE     O14      O2L     -0.780000       15.9994           0
     42267 MEMB     340      PMPE     O11      OSLP    -0.570000       15.9994           0
     42268 MEMB     340      PMPE     O12      OSLP    -0.570000       15.9994           0
     42269 MEMB     340      PMPE     C1       CTL2    -0.800000E-01   12.0110           0
     42270 MEMB     340      PMPE     HA       HAL2     0.900000E-01   1.00800           0
     42271 MEMB     340      PMPE     HB       HAL2     0.900000E-01   1.00800           0
     42272 MEMB     340      PMPE     C2       CTL1     0.170000       12.0110           0
     42273 MEMB     340      PMPE     HS       HAL1     0.900000E-01   1.00800           0
     42274 MEMB     340      PMPE     O21      OSL     -0.490000       15.9994           0
     42275 MEMB     340      PMPE     C21      CL       0.900000       12.0110           0
     42276 MEMB     340      PMPE     O22      OBL     -0.630000       15.9994           0
     42277 MEMB     340      PMPE     C22      CTL2    -0.220000       12.0110           0
     42278 MEMB     340      PMPE     H2R      HAL2     0.900000E-01   1.00800           0
     42279 MEMB     340      PMPE     H2S      HAL2     0.900000E-01   1.00800           0
     42280 MEMB     340      PMPE     C3       CTL2     0.800000E-01   12.0110           0
     42281 MEMB     340      PMPE     HX       HAL2     0.900000E-01   1.00800           0
     42282 MEMB     340      PMPE     HY       HAL2     0.900000E-01   1.00800           0
     42283 MEMB     340      PMPE     O31      OSL     -0.490000       15.9994           0
     42284 MEMB     340      PMPE     C31      CL       0.900000       12.0110           0
     42285 MEMB     340      PMPE     O32      OBL     -0.630000       15.9994           0
     42286 MEMB     340      PMPE     C32      CTL2    -0.220000       12.0110           0
     42287 MEMB     340      PMPE     H2X      HAL2     0.900000E-01   1.00800           0
     42288 MEMB     340      PMPE     H2Y      HAL2     0.900000E-01   1.00800           0
     42289 MEMB     340      PMPE     C23      CTL2    -0.180000       12.0110           0
     42290 MEMB     340      PMPE     H3R      HAL2     0.900000E-01   1.00800           0
     42291 MEMB     340      PMPE     H3S      HAL2     0.900000E-01   1.00800           0
     42292 MEMB     340      PMPE     C24      CTL2    -0.180000       12.0110           0
     42293 MEMB     340      PMPE     H4R      HAL2     0.900000E-01   1.00800           0
     42294 MEMB     340      PMPE     H4S      HAL2     0.900000E-01   1.00800           0
     42295 MEMB     340      PMPE     C25      CTL2    -0.180000       12.0110           0
     42296 MEMB     340      PMPE     H5R      HAL2     0.900000E-01   1.00800           0
     42297 MEMB     340      PMPE     H5S      HAL2     0.900000E-01   1.00800           0
     42298 MEMB     340      PMPE     C26      CTL2    -0.180000       12.0110           0
     42299 MEMB     340      PMPE     H6R      HAL2     0.900000E-01   1.00800           0
     42300 MEMB     340      PMPE     H6S      HAL2     0.900000E-01   1.00800           0
     42301 MEMB     340      PMPE     C27      CTL2    -0.180000       12.0110           0
     42302 MEMB     340      PMPE     H7R      HAL2     0.900000E-01   1.00800           0
     42303 MEMB     340      PMPE     H7S      HAL2     0.900000E-01   1.00800           0
     42304 MEMB     340      PMPE     C28      CTL2    -0.180000       12.0110           0
     42305 MEMB     340      PMPE     H8R      HAL2     0.900000E-01   1.00800           0
     42306 MEMB     340      PMPE     H8S      HAL2     0.900000E-01   1.00800           0
     42307 MEMB     340      PMPE     C29      CG3RC1  -0.900000E-01   12.0110           0
     42308 MEMB     340      PMPE     H9R      HGA1     0.900000E-01   1.00800           0
     42309 MEMB     340      PMPE     C217     CG3C31  -0.180000       12.0110           0
     42310 MEMB     340      PMPE     H17R     HGA2     0.900000E-01   1.00800           0
     42311 MEMB     340      PMPE     H17S     HGA2     0.900000E-01   1.00800           0
     42312 MEMB     340      PMPE     C210     CG3RC1  -0.900000E-01   12.0110           0
     42313 MEMB     340      PMPE     H10R     HGA1     0.900000E-01   1.00800           0
     42314 MEMB     340      PMPE     C211     CTL2    -0.180000       12.0110           0
     42315 MEMB     340      PMPE     H11R     HAL2     0.900000E-01   1.00800           0
     42316 MEMB     340      PMPE     H11S     HAL2     0.900000E-01   1.00800           0
     42317 MEMB     340      PMPE     C212     CTL2    -0.180000       12.0110           0
     42318 MEMB     340      PMPE     H12R     HAL2     0.900000E-01   1.00800           0
     42319 MEMB     340      PMPE     H12S     HAL2     0.900000E-01   1.00800           0
     42320 MEMB     340      PMPE     C213     CTL2    -0.180000       12.0110           0
     42321 MEMB     340      PMPE     H13R     HAL2     0.900000E-01   1.00800           0
     42322 MEMB     340      PMPE     H13S     HAL2     0.900000E-01   1.00800           0
     42323 MEMB     340      PMPE     C214     CTL2    -0.180000       12.0110           0
     42324 MEMB     340      PMPE     H14R     HAL2     0.900000E-01   1.00800           0
     42325 MEMB     340      PMPE     H14S     HAL2     0.900000E-01   1.00800           0
     42326 MEMB     340      PMPE     C215     CTL2    -0.180000       12.0110           0
     42327 MEMB     340      PMPE     H15R     HAL2     0.900000E-01   1.00800           0
     42328 MEMB     340      PMPE     H15S     HAL2     0.900000E-01   1.00800           0
     42329 MEMB     340      PMPE     C216     CTL3    -0.270000       12.0110           0
     42330 MEMB     340      PMPE     H16R     HAL3     0.900000E-01   1.00800           0
     42331 MEMB     340      PMPE     H16S     HAL3     0.900000E-01   1.00800           0
     42332 MEMB     340      PMPE     H16T     HAL3     0.900000E-01   1.00800           0
     42333 MEMB     340      PMPE     C33      CTL2    -0.180000       12.0110           0
     42334 MEMB     340      PMPE     H3X      HAL2     0.900000E-01   1.00800           0
     42335 MEMB     340      PMPE     H3Y      HAL2     0.900000E-01   1.00800           0
     42336 MEMB     340      PMPE     C34      CTL2    -0.180000       12.0110           0
     42337 MEMB     340      PMPE     H4X      HAL2     0.900000E-01   1.00800           0
     42338 MEMB     340      PMPE     H4Y      HAL2     0.900000E-01   1.00800           0
     42339 MEMB     340      PMPE     C35      CTL2    -0.180000       12.0110           0
     42340 MEMB     340      PMPE     H5X      HAL2     0.900000E-01   1.00800           0
     42341 MEMB     340      PMPE     H5Y      HAL2     0.900000E-01   1.00800           0
     42342 MEMB     340      PMPE     C36      CTL2    -0.180000       12.0110           0
     42343 MEMB     340      PMPE     H6X      HAL2     0.900000E-01   1.00800           0
     42344 MEMB     340      PMPE     H6Y      HAL2     0.900000E-01   1.00800           0
     42345 MEMB     340      PMPE     C37      CTL2    -0.180000       12.0110           0
     42346 MEMB     340      PMPE     H7X      HAL2     0.900000E-01   1.00800           0
     42347 MEMB     340      PMPE     H7Y      HAL2     0.900000E-01   1.00800           0
     42348 MEMB     340      PMPE     C38      CTL2    -0.180000       12.0110           0
     42349 MEMB     340      PMPE     H8X      HAL2     0.900000E-01   1.00800           0
     42350 MEMB     340      PMPE     H8Y      HAL2     0.900000E-01   1.00800           0
     42351 MEMB     340      PMPE     C39      CTL2    -0.180000       12.0110           0
     42352 MEMB     340      PMPE     H9X      HAL2     0.900000E-01   1.00800           0
     42353 MEMB     340      PMPE     H9Y      HAL2     0.900000E-01   1.00800           0
     42354 MEMB     340      PMPE     C310     CTL2    -0.180000       12.0110           0
     42355 MEMB     340      PMPE     H10X     HAL2     0.900000E-01   1.00800           0
     42356 MEMB     340      PMPE     H10Y     HAL2     0.900000E-01   1.00800           0
     42357 MEMB     340      PMPE     C311     CTL2    -0.180000       12.0110           0
     42358 MEMB     340      PMPE     H11X     HAL2     0.900000E-01   1.00800           0
     42359 MEMB     340      PMPE     H11Y     HAL2     0.900000E-01   1.00800           0
     42360 MEMB     340      PMPE     C312     CTL2    -0.180000       12.0110           0
     42361 MEMB     340      PMPE     H12X     HAL2     0.900000E-01   1.00800           0
     42362 MEMB     340      PMPE     H12Y     HAL2     0.900000E-01   1.00800           0
     42363 MEMB     340      PMPE     C313     CTL2    -0.180000       12.0110           0
     42364 MEMB     340      PMPE     H13X     HAL2     0.900000E-01   1.00800           0
     42365 MEMB     340      PMPE     H13Y     HAL2     0.900000E-01   1.00800           0
     42366 MEMB     340      PMPE     C314     CTL2    -0.180000       12.0110           0
     42367 MEMB     340      PMPE     H14X     HAL2     0.900000E-01   1.00800           0
     42368 MEMB     340      PMPE     H14Y     HAL2     0.900000E-01   1.00800           0
     42369 MEMB     340      PMPE     C315     CTL2    -0.180000       12.0110           0
     42370 MEMB     340      PMPE     H15X     HAL2     0.900000E-01   1.00800           0
     42371 MEMB     340      PMPE     H15Y     HAL2     0.900000E-01   1.00800           0
     42372 MEMB     340      PMPE     C316     CTL3    -0.270000       12.0110           0
     42373 MEMB     340      PMPE     H16X     HAL3     0.900000E-01   1.00800           0
     42374 MEMB     340      PMPE     H16Y     HAL3     0.900000E-01   1.00800           0
     42375 MEMB     340      PMPE     H16Z     HAL3     0.900000E-01   1.00800           0
     42376 MEMB     341      PMPE     N        NH3L    -0.300000       14.0070           0
     42377 MEMB     341      PMPE     HN1      HCL      0.330000       1.00800           0
     42378 MEMB     341      PMPE     HN2      HCL      0.330000       1.00800           0
     42379 MEMB     341      PMPE     HN3      HCL      0.330000       1.00800           0
     42380 MEMB     341      PMPE     C12      CTL2     0.130000       12.0110           0
     42381 MEMB     341      PMPE     H12A     HAL2     0.900000E-01   1.00800           0
     42382 MEMB     341      PMPE     H12B     HAL2     0.900000E-01   1.00800           0
     42383 MEMB     341      PMPE     C11      CTL2    -0.800000E-01   12.0110           0
     42384 MEMB     341      PMPE     H11A     HAL2     0.900000E-01   1.00800           0
     42385 MEMB     341      PMPE     H11B     HAL2     0.900000E-01   1.00800           0
     42386 MEMB     341      PMPE     P        PL        1.50000       30.9740           0
     42387 MEMB     341      PMPE     O13      O2L     -0.780000       15.9994           0
     42388 MEMB     341      PMPE     O14      O2L     -0.780000       15.9994           0
     42389 MEMB     341      PMPE     O11      OSLP    -0.570000       15.9994           0
     42390 MEMB     341      PMPE     O12      OSLP    -0.570000       15.9994           0
     42391 MEMB     341      PMPE     C1       CTL2    -0.800000E-01   12.0110           0
     42392 MEMB     341      PMPE     HA       HAL2     0.900000E-01   1.00800           0
     42393 MEMB     341      PMPE     HB       HAL2     0.900000E-01   1.00800           0
     42394 MEMB     341      PMPE     C2       CTL1     0.170000       12.0110           0
     42395 MEMB     341      PMPE     HS       HAL1     0.900000E-01   1.00800           0
     42396 MEMB     341      PMPE     O21      OSL     -0.490000       15.9994           0
     42397 MEMB     341      PMPE     C21      CL       0.900000       12.0110           0
     42398 MEMB     341      PMPE     O22      OBL     -0.630000       15.9994           0
     42399 MEMB     341      PMPE     C22      CTL2    -0.220000       12.0110           0
     42400 MEMB     341      PMPE     H2R      HAL2     0.900000E-01   1.00800           0
     42401 MEMB     341      PMPE     H2S      HAL2     0.900000E-01   1.00800           0
     42402 MEMB     341      PMPE     C3       CTL2     0.800000E-01   12.0110           0
     42403 MEMB     341      PMPE     HX       HAL2     0.900000E-01   1.00800           0
     42404 MEMB     341      PMPE     HY       HAL2     0.900000E-01   1.00800           0
     42405 MEMB     341      PMPE     O31      OSL     -0.490000       15.9994           0
     42406 MEMB     341      PMPE     C31      CL       0.900000       12.0110           0
     42407 MEMB     341      PMPE     O32      OBL     -0.630000       15.9994           0
     42408 MEMB     341      PMPE     C32      CTL2    -0.220000       12.0110           0
     42409 MEMB     341      PMPE     H2X      HAL2     0.900000E-01   1.00800           0
     42410 MEMB     341      PMPE     H2Y      HAL2     0.900000E-01   1.00800           0
     42411 MEMB     341      PMPE     C23      CTL2    -0.180000       12.0110           0
     42412 MEMB     341      PMPE     H3R      HAL2     0.900000E-01   1.00800           0
     42413 MEMB     341      PMPE     H3S      HAL2     0.900000E-01   1.00800           0
     42414 MEMB     341      PMPE     C24      CTL2    -0.180000       12.0110           0
     42415 MEMB     341      PMPE     H4R      HAL2     0.900000E-01   1.00800           0
     42416 MEMB     341      PMPE     H4S      HAL2     0.900000E-01   1.00800           0
     42417 MEMB     341      PMPE     C25      CTL2    -0.180000       12.0110           0
     42418 MEMB     341      PMPE     H5R      HAL2     0.900000E-01   1.00800           0
     42419 MEMB     341      PMPE     H5S      HAL2     0.900000E-01   1.00800           0
     42420 MEMB     341      PMPE     C26      CTL2    -0.180000       12.0110           0
     42421 MEMB     341      PMPE     H6R      HAL2     0.900000E-01   1.00800           0
     42422 MEMB     341      PMPE     H6S      HAL2     0.900000E-01   1.00800           0
     42423 MEMB     341      PMPE     C27      CTL2    -0.180000       12.0110           0
     42424 MEMB     341      PMPE     H7R      HAL2     0.900000E-01   1.00800           0
     42425 MEMB     341      PMPE     H7S      HAL2     0.900000E-01   1.00800           0
     42426 MEMB     341      PMPE     C28      CTL2    -0.180000       12.0110           0
     42427 MEMB     341      PMPE     H8R      HAL2     0.900000E-01   1.00800           0
     42428 MEMB     341      PMPE     H8S      HAL2     0.900000E-01   1.00800           0
     42429 MEMB     341      PMPE     C29      CG3RC1  -0.900000E-01   12.0110           0
     42430 MEMB     341      PMPE     H9R      HGA1     0.900000E-01   1.00800           0
     42431 MEMB     341      PMPE     C217     CG3C31  -0.180000       12.0110           0
     42432 MEMB     341      PMPE     H17R     HGA2     0.900000E-01   1.00800           0
     42433 MEMB     341      PMPE     H17S     HGA2     0.900000E-01   1.00800           0
     42434 MEMB     341      PMPE     C210     CG3RC1  -0.900000E-01   12.0110           0
     42435 MEMB     341      PMPE     H10R     HGA1     0.900000E-01   1.00800           0
     42436 MEMB     341      PMPE     C211     CTL2    -0.180000       12.0110           0
     42437 MEMB     341      PMPE     H11R     HAL2     0.900000E-01   1.00800           0
     42438 MEMB     341      PMPE     H11S     HAL2     0.900000E-01   1.00800           0
     42439 MEMB     341      PMPE     C212     CTL2    -0.180000       12.0110           0
     42440 MEMB     341      PMPE     H12R     HAL2     0.900000E-01   1.00800           0
     42441 MEMB     341      PMPE     H12S     HAL2     0.900000E-01   1.00800           0
     42442 MEMB     341      PMPE     C213     CTL2    -0.180000       12.0110           0
     42443 MEMB     341      PMPE     H13R     HAL2     0.900000E-01   1.00800           0
     42444 MEMB     341      PMPE     H13S     HAL2     0.900000E-01   1.00800           0
     42445 MEMB     341      PMPE     C214     CTL2    -0.180000       12.0110           0
     42446 MEMB     341      PMPE     H14R     HAL2     0.900000E-01   1.00800           0
     42447 MEMB     341      PMPE     H14S     HAL2     0.900000E-01   1.00800           0
     42448 MEMB     341      PMPE     C215     CTL2    -0.180000       12.0110           0
     42449 MEMB     341      PMPE     H15R     HAL2     0.900000E-01   1.00800           0
     42450 MEMB     341      PMPE     H15S     HAL2     0.900000E-01   1.00800           0
     42451 MEMB     341      PMPE     C216     CTL3    -0.270000       12.0110           0
     42452 MEMB     341      PMPE     H16R     HAL3     0.900000E-01   1.00800           0
     42453 MEMB     341      PMPE     H16S     HAL3     0.900000E-01   1.00800           0
     42454 MEMB     341      PMPE     H16T     HAL3     0.900000E-01   1.00800           0
     42455 MEMB     341      PMPE     C33      CTL2    -0.180000       12.0110           0
     42456 MEMB     341      PMPE     H3X      HAL2     0.900000E-01   1.00800           0
     42457 MEMB     341      PMPE     H3Y      HAL2     0.900000E-01   1.00800           0
     42458 MEMB     341      PMPE     C34      CTL2    -0.180000       12.0110           0
     42459 MEMB     341      PMPE     H4X      HAL2     0.900000E-01   1.00800           0
     42460 MEMB     341      PMPE     H4Y      HAL2     0.900000E-01   1.00800           0
     42461 MEMB     341      PMPE     C35      CTL2    -0.180000       12.0110           0
     42462 MEMB     341      PMPE     H5X      HAL2     0.900000E-01   1.00800           0
     42463 MEMB     341      PMPE     H5Y      HAL2     0.900000E-01   1.00800           0
     42464 MEMB     341      PMPE     C36      CTL2    -0.180000       12.0110           0
     42465 MEMB     341      PMPE     H6X      HAL2     0.900000E-01   1.00800           0
     42466 MEMB     341      PMPE     H6Y      HAL2     0.900000E-01   1.00800           0
     42467 MEMB     341      PMPE     C37      CTL2    -0.180000       12.0110           0
     42468 MEMB     341      PMPE     H7X      HAL2     0.900000E-01   1.00800           0
     42469 MEMB     341      PMPE     H7Y      HAL2     0.900000E-01   1.00800           0
     42470 MEMB     341      PMPE     C38      CTL2    -0.180000       12.0110           0
     42471 MEMB     341      PMPE     H8X      HAL2     0.900000E-01   1.00800           0
     42472 MEMB     341      PMPE     H8Y      HAL2     0.900000E-01   1.00800           0
     42473 MEMB     341      PMPE     C39      CTL2    -0.180000       12.0110           0
     42474 MEMB     341      PMPE     H9X      HAL2     0.900000E-01   1.00800           0
     42475 MEMB     341      PMPE     H9Y      HAL2     0.900000E-01   1.00800           0
     42476 MEMB     341      PMPE     C310     CTL2    -0.180000       12.0110           0
     42477 MEMB     341      PMPE     H10X     HAL2     0.900000E-01   1.00800           0
     42478 MEMB     341      PMPE     H10Y     HAL2     0.900000E-01   1.00800           0
     42479 MEMB     341      PMPE     C311     CTL2    -0.180000       12.0110           0
     42480 MEMB     341      PMPE     H11X     HAL2     0.900000E-01   1.00800           0
     42481 MEMB     341      PMPE     H11Y     HAL2     0.900000E-01   1.00800           0
     42482 MEMB     341      PMPE     C312     CTL2    -0.180000       12.0110           0
     42483 MEMB     341      PMPE     H12X     HAL2     0.900000E-01   1.00800           0
     42484 MEMB     341      PMPE     H12Y     HAL2     0.900000E-01   1.00800           0
     42485 MEMB     341      PMPE     C313     CTL2    -0.180000       12.0110           0
     42486 MEMB     341      PMPE     H13X     HAL2     0.900000E-01   1.00800           0
     42487 MEMB     341      PMPE     H13Y     HAL2     0.900000E-01   1.00800           0
     42488 MEMB     341      PMPE     C314     CTL2    -0.180000       12.0110           0
     42489 MEMB     341      PMPE     H14X     HAL2     0.900000E-01   1.00800           0
     42490 MEMB     341      PMPE     H14Y     HAL2     0.900000E-01   1.00800           0
     42491 MEMB     341      PMPE     C315     CTL2    -0.180000       12.0110           0
     42492 MEMB     341      PMPE     H15X     HAL2     0.900000E-01   1.00800           0
     42493 MEMB     341      PMPE     H15Y     HAL2     0.900000E-01   1.00800           0
     42494 MEMB     341      PMPE     C316     CTL3    -0.270000       12.0110           0
     42495 MEMB     341      PMPE     H16X     HAL3     0.900000E-01   1.00800           0
     42496 MEMB     341      PMPE     H16Y     HAL3     0.900000E-01   1.00800           0
     42497 MEMB     341      PMPE     H16Z     HAL3     0.900000E-01   1.00800           0
     42498 MEMB     342      PMPE     N        NH3L    -0.300000       14.0070           0
     42499 MEMB     342      PMPE     HN1      HCL      0.330000       1.00800           0
     42500 MEMB     342      PMPE     HN2      HCL      0.330000       1.00800           0
     42501 MEMB     342      PMPE     HN3      HCL      0.330000       1.00800           0
     42502 MEMB     342      PMPE     C12      CTL2     0.130000       12.0110           0
     42503 MEMB     342      PMPE     H12A     HAL2     0.900000E-01   1.00800           0
     42504 MEMB     342      PMPE     H12B     HAL2     0.900000E-01   1.00800           0
     42505 MEMB     342      PMPE     C11      CTL2    -0.800000E-01   12.0110           0
     42506 MEMB     342      PMPE     H11A     HAL2     0.900000E-01   1.00800           0
     42507 MEMB     342      PMPE     H11B     HAL2     0.900000E-01   1.00800           0
     42508 MEMB     342      PMPE     P        PL        1.50000       30.9740           0
     42509 MEMB     342      PMPE     O13      O2L     -0.780000       15.9994           0
     42510 MEMB     342      PMPE     O14      O2L     -0.780000       15.9994           0
     42511 MEMB     342      PMPE     O11      OSLP    -0.570000       15.9994           0
     42512 MEMB     342      PMPE     O12      OSLP    -0.570000       15.9994           0
     42513 MEMB     342      PMPE     C1       CTL2    -0.800000E-01   12.0110           0
     42514 MEMB     342      PMPE     HA       HAL2     0.900000E-01   1.00800           0
     42515 MEMB     342      PMPE     HB       HAL2     0.900000E-01   1.00800           0
     42516 MEMB     342      PMPE     C2       CTL1     0.170000       12.0110           0
     42517 MEMB     342      PMPE     HS       HAL1     0.900000E-01   1.00800           0
     42518 MEMB     342      PMPE     O21      OSL     -0.490000       15.9994           0
     42519 MEMB     342      PMPE     C21      CL       0.900000       12.0110           0
     42520 MEMB     342      PMPE     O22      OBL     -0.630000       15.9994           0
     42521 MEMB     342      PMPE     C22      CTL2    -0.220000       12.0110           0
     42522 MEMB     342      PMPE     H2R      HAL2     0.900000E-01   1.00800           0
     42523 MEMB     342      PMPE     H2S      HAL2     0.900000E-01   1.00800           0
     42524 MEMB     342      PMPE     C3       CTL2     0.800000E-01   12.0110           0
     42525 MEMB     342      PMPE     HX       HAL2     0.900000E-01   1.00800           0
     42526 MEMB     342      PMPE     HY       HAL2     0.900000E-01   1.00800           0
     42527 MEMB     342      PMPE     O31      OSL     -0.490000       15.9994           0
     42528 MEMB     342      PMPE     C31      CL       0.900000       12.0110           0
     42529 MEMB     342      PMPE     O32      OBL     -0.630000       15.9994           0
     42530 MEMB     342      PMPE     C32      CTL2    -0.220000       12.0110           0
     42531 MEMB     342      PMPE     H2X      HAL2     0.900000E-01   1.00800           0
     42532 MEMB     342      PMPE     H2Y      HAL2     0.900000E-01   1.00800           0
     42533 MEMB     342      PMPE     C23      CTL2    -0.180000       12.0110           0
     42534 MEMB     342      PMPE     H3R      HAL2     0.900000E-01   1.00800           0
     42535 MEMB     342      PMPE     H3S      HAL2     0.900000E-01   1.00800           0
     42536 MEMB     342      PMPE     C24      CTL2    -0.180000       12.0110           0
     42537 MEMB     342      PMPE     H4R      HAL2     0.900000E-01   1.00800           0
     42538 MEMB     342      PMPE     H4S      HAL2     0.900000E-01   1.00800           0
     42539 MEMB     342      PMPE     C25      CTL2    -0.180000       12.0110           0
     42540 MEMB     342      PMPE     H5R      HAL2     0.900000E-01   1.00800           0
     42541 MEMB     342      PMPE     H5S      HAL2     0.900000E-01   1.00800           0
     42542 MEMB     342      PMPE     C26      CTL2    -0.180000       12.0110           0
     42543 MEMB     342      PMPE     H6R      HAL2     0.900000E-01   1.00800           0
     42544 MEMB     342      PMPE     H6S      HAL2     0.900000E-01   1.00800           0
     42545 MEMB     342      PMPE     C27      CTL2    -0.180000       12.0110           0
     42546 MEMB     342      PMPE     H7R      HAL2     0.900000E-01   1.00800           0
     42547 MEMB     342      PMPE     H7S      HAL2     0.900000E-01   1.00800           0
     42548 MEMB     342      PMPE     C28      CTL2    -0.180000       12.0110           0
     42549 MEMB     342      PMPE     H8R      HAL2     0.900000E-01   1.00800           0
     42550 MEMB     342      PMPE     H8S      HAL2     0.900000E-01   1.00800           0
     42551 MEMB     342      PMPE     C29      CG3RC1  -0.900000E-01   12.0110           0
     42552 MEMB     342      PMPE     H9R      HGA1     0.900000E-01   1.00800           0
     42553 MEMB     342      PMPE     C217     CG3C31  -0.180000       12.0110           0
     42554 MEMB     342      PMPE     H17R     HGA2     0.900000E-01   1.00800           0
     42555 MEMB     342      PMPE     H17S     HGA2     0.900000E-01   1.00800           0
     42556 MEMB     342      PMPE     C210     CG3RC1  -0.900000E-01   12.0110           0
     42557 MEMB     342      PMPE     H10R     HGA1     0.900000E-01   1.00800           0
     42558 MEMB     342      PMPE     C211     CTL2    -0.180000       12.0110           0
     42559 MEMB     342      PMPE     H11R     HAL2     0.900000E-01   1.00800           0
     42560 MEMB     342      PMPE     H11S     HAL2     0.900000E-01   1.00800           0
     42561 MEMB     342      PMPE     C212     CTL2    -0.180000       12.0110           0
     42562 MEMB     342      PMPE     H12R     HAL2     0.900000E-01   1.00800           0
     42563 MEMB     342      PMPE     H12S     HAL2     0.900000E-01   1.00800           0
     42564 MEMB     342      PMPE     C213     CTL2    -0.180000       12.0110           0
     42565 MEMB     342      PMPE     H13R     HAL2     0.900000E-01   1.00800           0
     42566 MEMB     342      PMPE     H13S     HAL2     0.900000E-01   1.00800           0
     42567 MEMB     342      PMPE     C214     CTL2    -0.180000       12.0110           0
     42568 MEMB     342      PMPE     H14R     HAL2     0.900000E-01   1.00800           0
     42569 MEMB     342      PMPE     H14S     HAL2     0.900000E-01   1.00800           0
     42570 MEMB     342      PMPE     C215     CTL2    -0.180000       12.0110           0
     42571 MEMB     342      PMPE     H15R     HAL2     0.900000E-01   1.00800           0
     42572 MEMB     342      PMPE     H15S     HAL2     0.900000E-01   1.00800           0
     42573 MEMB     342      PMPE     C216     CTL3    -0.270000       12.0110           0
     42574 MEMB     342      PMPE     H16R     HAL3     0.900000E-01   1.00800           0
     42575 MEMB     342      PMPE     H16S     HAL3     0.900000E-01   1.00800           0
     42576 MEMB     342      PMPE     H16T     HAL3     0.900000E-01   1.00800           0
     42577 MEMB     342      PMPE     C33      CTL2    -0.180000       12.0110           0
     42578 MEMB     342      PMPE     H3X      HAL2     0.900000E-01   1.00800           0
     42579 MEMB     342      PMPE     H3Y      HAL2     0.900000E-01   1.00800           0
     42580 MEMB     342      PMPE     C34      CTL2    -0.180000       12.0110           0
     42581 MEMB     342      PMPE     H4X      HAL2     0.900000E-01   1.00800           0
     42582 MEMB     342      PMPE     H4Y      HAL2     0.900000E-01   1.00800           0
     42583 MEMB     342      PMPE     C35      CTL2    -0.180000       12.0110           0
     42584 MEMB     342      PMPE     H5X      HAL2     0.900000E-01   1.00800           0
     42585 MEMB     342      PMPE     H5Y      HAL2     0.900000E-01   1.00800           0
     42586 MEMB     342      PMPE     C36      CTL2    -0.180000       12.0110           0
     42587 MEMB     342      PMPE     H6X      HAL2     0.900000E-01   1.00800           0
     42588 MEMB     342      PMPE     H6Y      HAL2     0.900000E-01   1.00800           0
     42589 MEMB     342      PMPE     C37      CTL2    -0.180000       12.0110           0
     42590 MEMB     342      PMPE     H7X      HAL2     0.900000E-01   1.00800           0
     42591 MEMB     342      PMPE     H7Y      HAL2     0.900000E-01   1.00800           0
     42592 MEMB     342      PMPE     C38      CTL2    -0.180000       12.0110           0
     42593 MEMB     342      PMPE     H8X      HAL2     0.900000E-01   1.00800           0
     42594 MEMB     342      PMPE     H8Y      HAL2     0.900000E-01   1.00800           0
     42595 MEMB     342      PMPE     C39      CTL2    -0.180000       12.0110           0
     42596 MEMB     342      PMPE     H9X      HAL2     0.900000E-01   1.00800           0
     42597 MEMB     342      PMPE     H9Y      HAL2     0.900000E-01   1.00800           0
     42598 MEMB     342      PMPE     C310     CTL2    -0.180000       12.0110           0
     42599 MEMB     342      PMPE     H10X     HAL2     0.900000E-01   1.00800           0
     42600 MEMB     342      PMPE     H10Y     HAL2     0.900000E-01   1.00800           0
     42601 MEMB     342      PMPE     C311     CTL2    -0.180000       12.0110           0
     42602 MEMB     342      PMPE     H11X     HAL2     0.900000E-01   1.00800           0
     42603 MEMB     342      PMPE     H11Y     HAL2     0.900000E-01   1.00800           0
     42604 MEMB     342      PMPE     C312     CTL2    -0.180000       12.0110           0
     42605 MEMB     342      PMPE     H12X     HAL2     0.900000E-01   1.00800           0
     42606 MEMB     342      PMPE     H12Y     HAL2     0.900000E-01   1.00800           0
     42607 MEMB     342      PMPE     C313     CTL2    -0.180000       12.0110           0
     42608 MEMB     342      PMPE     H13X     HAL2     0.900000E-01   1.00800           0
     42609 MEMB     342      PMPE     H13Y     HAL2     0.900000E-01   1.00800           0
     42610 MEMB     342      PMPE     C314     CTL2    -0.180000       12.0110           0
     42611 MEMB     342      PMPE     H14X     HAL2     0.900000E-01   1.00800           0
     42612 MEMB     342      PMPE     H14Y     HAL2     0.900000E-01   1.00800           0
     42613 MEMB     342      PMPE     C315     CTL2    -0.180000       12.0110           0
     42614 MEMB     342      PMPE     H15X     HAL2     0.900000E-01   1.00800           0
     42615 MEMB     342      PMPE     H15Y     HAL2     0.900000E-01   1.00800           0
     42616 MEMB     342      PMPE     C316     CTL3    -0.270000       12.0110           0
     42617 MEMB     342      PMPE     H16X     HAL3     0.900000E-01   1.00800           0
     42618 MEMB     342      PMPE     H16Y     HAL3     0.900000E-01   1.00800           0
     42619 MEMB     342      PMPE     H16Z     HAL3     0.900000E-01   1.00800           0
     42620 MEMB     343      QMPE     N        NH3L    -0.300000       14.0070           0
     42621 MEMB     343      QMPE     HN1      HCL      0.330000       1.00800           0
     42622 MEMB     343      QMPE     HN2      HCL      0.330000       1.00800           0
     42623 MEMB     343      QMPE     HN3      HCL      0.330000       1.00800           0
     42624 MEMB     343      QMPE     C12      CTL2     0.130000       12.0110           0
     42625 MEMB     343      QMPE     H12A     HAL2     0.900000E-01   1.00800           0
     42626 MEMB     343      QMPE     H12B     HAL2     0.900000E-01   1.00800           0
     42627 MEMB     343      QMPE     C11      CTL2    -0.800000E-01   12.0110           0
     42628 MEMB     343      QMPE     H11A     HAL2     0.900000E-01   1.00800           0
     42629 MEMB     343      QMPE     H11B     HAL2     0.900000E-01   1.00800           0
     42630 MEMB     343      QMPE     P        PL        1.50000       30.9740           0
     42631 MEMB     343      QMPE     O13      O2L     -0.780000       15.9994           0
     42632 MEMB     343      QMPE     O14      O2L     -0.780000       15.9994           0
     42633 MEMB     343      QMPE     O11      OSLP    -0.570000       15.9994           0
     42634 MEMB     343      QMPE     O12      OSLP    -0.570000       15.9994           0
     42635 MEMB     343      QMPE     C1       CTL2    -0.800000E-01   12.0110           0
     42636 MEMB     343      QMPE     HA       HAL2     0.900000E-01   1.00800           0
     42637 MEMB     343      QMPE     HB       HAL2     0.900000E-01   1.00800           0
     42638 MEMB     343      QMPE     C2       CTL1     0.170000       12.0110           0
     42639 MEMB     343      QMPE     HS       HAL1     0.900000E-01   1.00800           0
     42640 MEMB     343      QMPE     O21      OSL     -0.490000       15.9994           0
     42641 MEMB     343      QMPE     C21      CL       0.900000       12.0110           0
     42642 MEMB     343      QMPE     O22      OBL     -0.630000       15.9994           0
     42643 MEMB     343      QMPE     C22      CTL2    -0.220000       12.0110           0
     42644 MEMB     343      QMPE     H2R      HAL2     0.900000E-01   1.00800           0
     42645 MEMB     343      QMPE     H2S      HAL2     0.900000E-01   1.00800           0
     42646 MEMB     343      QMPE     C3       CTL2     0.800000E-01   12.0110           0
     42647 MEMB     343      QMPE     HX       HAL2     0.900000E-01   1.00800           0
     42648 MEMB     343      QMPE     HY       HAL2     0.900000E-01   1.00800           0
     42649 MEMB     343      QMPE     O31      OSL     -0.490000       15.9994           0
     42650 MEMB     343      QMPE     C31      CL       0.900000       12.0110           0
     42651 MEMB     343      QMPE     O32      OBL     -0.630000       15.9994           0
     42652 MEMB     343      QMPE     C32      CTL2    -0.220000       12.0110           0
     42653 MEMB     343      QMPE     H2X      HAL2     0.900000E-01   1.00800           0
     42654 MEMB     343      QMPE     H2Y      HAL2     0.900000E-01   1.00800           0
     42655 MEMB     343      QMPE     C23      CTL2    -0.180000       12.0110           0
     42656 MEMB     343      QMPE     H3R      HAL2     0.900000E-01   1.00800           0
     42657 MEMB     343      QMPE     H3S      HAL2     0.900000E-01   1.00800           0
     42658 MEMB     343      QMPE     C24      CTL2    -0.180000       12.0110           0
     42659 MEMB     343      QMPE     H4R      HAL2     0.900000E-01   1.00800           0
     42660 MEMB     343      QMPE     H4S      HAL2     0.900000E-01   1.00800           0
     42661 MEMB     343      QMPE     C25      CTL2    -0.180000       12.0110           0
     42662 MEMB     343      QMPE     H5R      HAL2     0.900000E-01   1.00800           0
     42663 MEMB     343      QMPE     H5S      HAL2     0.900000E-01   1.00800           0
     42664 MEMB     343      QMPE     C26      CTL2    -0.180000       12.0110           0
     42665 MEMB     343      QMPE     H6R      HAL2     0.900000E-01   1.00800           0
     42666 MEMB     343      QMPE     H6S      HAL2     0.900000E-01   1.00800           0
     42667 MEMB     343      QMPE     C27      CTL2    -0.180000       12.0110           0
     42668 MEMB     343      QMPE     H7R      HAL2     0.900000E-01   1.00800           0
     42669 MEMB     343      QMPE     H7S      HAL2     0.900000E-01   1.00800           0
     42670 MEMB     343      QMPE     C28      CTL2    -0.180000       12.0110           0
     42671 MEMB     343      QMPE     H8R      HAL2     0.900000E-01   1.00800           0
     42672 MEMB     343      QMPE     H8S      HAL2     0.900000E-01   1.00800           0
     42673 MEMB     343      QMPE     C29      CG3RC1  -0.900000E-01   12.0110           0
     42674 MEMB     343      QMPE     H9R      HGA1     0.900000E-01   1.00800           0
     42675 MEMB     343      QMPE     C217     CG3C31  -0.180000       12.0110           0
     42676 MEMB     343      QMPE     H17R     HGA2     0.900000E-01   1.00800           0
     42677 MEMB     343      QMPE     H17S     HGA2     0.900000E-01   1.00800           0
     42678 MEMB     343      QMPE     C210     CG3RC1  -0.900000E-01   12.0110           0
     42679 MEMB     343      QMPE     H10R     HGA1     0.900000E-01   1.00800           0
     42680 MEMB     343      QMPE     C211     CTL2    -0.180000       12.0110           0
     42681 MEMB     343      QMPE     H11R     HAL2     0.900000E-01   1.00800           0
     42682 MEMB     343      QMPE     H11S     HAL2     0.900000E-01   1.00800           0
     42683 MEMB     343      QMPE     C212     CTL2    -0.180000       12.0110           0
     42684 MEMB     343      QMPE     H12R     HAL2     0.900000E-01   1.00800           0
     42685 MEMB     343      QMPE     H12S     HAL2     0.900000E-01   1.00800           0
     42686 MEMB     343      QMPE     C213     CTL2    -0.180000       12.0110           0
     42687 MEMB     343      QMPE     H13R     HAL2     0.900000E-01   1.00800           0
     42688 MEMB     343      QMPE     H13S     HAL2     0.900000E-01   1.00800           0
     42689 MEMB     343      QMPE     C214     CTL2    -0.180000       12.0110           0
     42690 MEMB     343      QMPE     H14R     HAL2     0.900000E-01   1.00800           0
     42691 MEMB     343      QMPE     H14S     HAL2     0.900000E-01   1.00800           0
     42692 MEMB     343      QMPE     C215     CTL2    -0.180000       12.0110           0
     42693 MEMB     343      QMPE     H15R     HAL2     0.900000E-01   1.00800           0
     42694 MEMB     343      QMPE     H15S     HAL2     0.900000E-01   1.00800           0
     42695 MEMB     343      QMPE     C216     CTL3    -0.270000       12.0110           0
     42696 MEMB     343      QMPE     H16R     HAL3     0.900000E-01   1.00800           0
     42697 MEMB     343      QMPE     H16S     HAL3     0.900000E-01   1.00800           0
     42698 MEMB     343      QMPE     H16T     HAL3     0.900000E-01   1.00800           0
     42699 MEMB     343      QMPE     C33      CTL2    -0.180000       12.0110           0
     42700 MEMB     343      QMPE     H3X      HAL2     0.900000E-01   1.00800           0
     42701 MEMB     343      QMPE     H3Y      HAL2     0.900000E-01   1.00800           0
     42702 MEMB     343      QMPE     C34      CTL2    -0.180000       12.0110           0
     42703 MEMB     343      QMPE     H4X      HAL2     0.900000E-01   1.00800           0
     42704 MEMB     343      QMPE     H4Y      HAL2     0.900000E-01   1.00800           0
     42705 MEMB     343      QMPE     C35      CTL2    -0.180000       12.0110           0
     42706 MEMB     343      QMPE     H5X      HAL2     0.900000E-01   1.00800           0
     42707 MEMB     343      QMPE     H5Y      HAL2     0.900000E-01   1.00800           0
     42708 MEMB     343      QMPE     C36      CTL2    -0.180000       12.0110           0
     42709 MEMB     343      QMPE     H6X      HAL2     0.900000E-01   1.00800           0
     42710 MEMB     343      QMPE     H6Y      HAL2     0.900000E-01   1.00800           0
     42711 MEMB     343      QMPE     C37      CTL2    -0.180000       12.0110           0
     42712 MEMB     343      QMPE     H7X      HAL2     0.900000E-01   1.00800           0
     42713 MEMB     343      QMPE     H7Y      HAL2     0.900000E-01   1.00800           0
     42714 MEMB     343      QMPE     C38      CTL2    -0.180000       12.0110           0
     42715 MEMB     343      QMPE     H8X      HAL2     0.900000E-01   1.00800           0
     42716 MEMB     343      QMPE     H8Y      HAL2     0.900000E-01   1.00800           0
     42717 MEMB     343      QMPE     C39      CTL2    -0.180000       12.0110           0
     42718 MEMB     343      QMPE     H9X      HAL2     0.900000E-01   1.00800           0
     42719 MEMB     343      QMPE     H9Y      HAL2     0.900000E-01   1.00800           0
     42720 MEMB     343      QMPE     C310     CTL2    -0.180000       12.0110           0
     42721 MEMB     343      QMPE     H10X     HAL2     0.900000E-01   1.00800           0
     42722 MEMB     343      QMPE     H10Y     HAL2     0.900000E-01   1.00800           0
     42723 MEMB     343      QMPE     C311     CTL2    -0.180000       12.0110           0
     42724 MEMB     343      QMPE     H11X     HAL2     0.900000E-01   1.00800           0
     42725 MEMB     343      QMPE     H11Y     HAL2     0.900000E-01   1.00800           0
     42726 MEMB     343      QMPE     C312     CTL2    -0.180000       12.0110           0
     42727 MEMB     343      QMPE     H12X     HAL2     0.900000E-01   1.00800           0
     42728 MEMB     343      QMPE     H12Y     HAL2     0.900000E-01   1.00800           0
     42729 MEMB     343      QMPE     C313     CTL2    -0.180000       12.0110           0
     42730 MEMB     343      QMPE     H13X     HAL2     0.900000E-01   1.00800           0
     42731 MEMB     343      QMPE     H13Y     HAL2     0.900000E-01   1.00800           0
     42732 MEMB     343      QMPE     C314     CTL2    -0.180000       12.0110           0
     42733 MEMB     343      QMPE     H14X     HAL2     0.900000E-01   1.00800           0
     42734 MEMB     343      QMPE     H14Y     HAL2     0.900000E-01   1.00800           0
     42735 MEMB     343      QMPE     C315     CTL3    -0.270000       12.0110           0
     42736 MEMB     343      QMPE     H15X     HAL3     0.900000E-01   1.00800           0
     42737 MEMB     343      QMPE     H15Y     HAL3     0.900000E-01   1.00800           0
     42738 MEMB     343      QMPE     H15Z     HAL3     0.900000E-01   1.00800           0
     42739 MEMB     344      OYPE     N        NH3L    -0.300000       14.0070           0
     42740 MEMB     344      OYPE     HN1      HCL      0.330000       1.00800           0
     42741 MEMB     344      OYPE     HN2      HCL      0.330000       1.00800           0
     42742 MEMB     344      OYPE     HN3      HCL      0.330000       1.00800           0
     42743 MEMB     344      OYPE     C12      CTL2     0.130000       12.0110           0
     42744 MEMB     344      OYPE     H12A     HAL2     0.900000E-01   1.00800           0
     42745 MEMB     344      OYPE     H12B     HAL2     0.900000E-01   1.00800           0
     42746 MEMB     344      OYPE     C11      CTL2    -0.800000E-01   12.0110           0
     42747 MEMB     344      OYPE     H11A     HAL2     0.900000E-01   1.00800           0
     42748 MEMB     344      OYPE     H11B     HAL2     0.900000E-01   1.00800           0
     42749 MEMB     344      OYPE     P        PL        1.50000       30.9740           0
     42750 MEMB     344      OYPE     O13      O2L     -0.780000       15.9994           0
     42751 MEMB     344      OYPE     O14      O2L     -0.780000       15.9994           0
     42752 MEMB     344      OYPE     O11      OSLP    -0.570000       15.9994           0
     42753 MEMB     344      OYPE     O12      OSLP    -0.570000       15.9994           0
     42754 MEMB     344      OYPE     C1       CTL2    -0.800000E-01   12.0110           0
     42755 MEMB     344      OYPE     HA       HAL2     0.900000E-01   1.00800           0
     42756 MEMB     344      OYPE     HB       HAL2     0.900000E-01   1.00800           0
     42757 MEMB     344      OYPE     C2       CTL1     0.170000       12.0110           0
     42758 MEMB     344      OYPE     HS       HAL1     0.900000E-01   1.00800           0
     42759 MEMB     344      OYPE     O21      OSL     -0.490000       15.9994           0
     42760 MEMB     344      OYPE     C21      CL       0.900000       12.0110           0
     42761 MEMB     344      OYPE     O22      OBL     -0.630000       15.9994           0
     42762 MEMB     344      OYPE     C22      CTL2    -0.220000       12.0110           0
     42763 MEMB     344      OYPE     H2R      HAL2     0.900000E-01   1.00800           0
     42764 MEMB     344      OYPE     H2S      HAL2     0.900000E-01   1.00800           0
     42765 MEMB     344      OYPE     C3       CTL2     0.800000E-01   12.0110           0
     42766 MEMB     344      OYPE     HX       HAL2     0.900000E-01   1.00800           0
     42767 MEMB     344      OYPE     HY       HAL2     0.900000E-01   1.00800           0
     42768 MEMB     344      OYPE     O31      OSL     -0.490000       15.9994           0
     42769 MEMB     344      OYPE     C31      CL       0.900000       12.0110           0
     42770 MEMB     344      OYPE     O32      OBL     -0.630000       15.9994           0
     42771 MEMB     344      OYPE     C32      CTL2    -0.220000       12.0110           0
     42772 MEMB     344      OYPE     H2X      HAL2     0.900000E-01   1.00800           0
     42773 MEMB     344      OYPE     H2Y      HAL2     0.900000E-01   1.00800           0
     42774 MEMB     344      OYPE     C23      CTL2    -0.180000       12.0110           0
     42775 MEMB     344      OYPE     H3R      HAL2     0.900000E-01   1.00800           0
     42776 MEMB     344      OYPE     H3S      HAL2     0.900000E-01   1.00800           0
     42777 MEMB     344      OYPE     C24      CTL2    -0.180000       12.0110           0
     42778 MEMB     344      OYPE     H4R      HAL2     0.900000E-01   1.00800           0
     42779 MEMB     344      OYPE     H4S      HAL2     0.900000E-01   1.00800           0
     42780 MEMB     344      OYPE     C25      CTL2    -0.180000       12.0110           0
     42781 MEMB     344      OYPE     H5R      HAL2     0.900000E-01   1.00800           0
     42782 MEMB     344      OYPE     H5S      HAL2     0.900000E-01   1.00800           0
     42783 MEMB     344      OYPE     C26      CTL2    -0.180000       12.0110           0
     42784 MEMB     344      OYPE     H6R      HAL2     0.900000E-01   1.00800           0
     42785 MEMB     344      OYPE     H6S      HAL2     0.900000E-01   1.00800           0
     42786 MEMB     344      OYPE     C27      CTL2    -0.180000       12.0110           0
     42787 MEMB     344      OYPE     H7R      HAL2     0.900000E-01   1.00800           0
     42788 MEMB     344      OYPE     H7S      HAL2     0.900000E-01   1.00800           0
     42789 MEMB     344      OYPE     C28      CTL2    -0.180000       12.0110           0
     42790 MEMB     344      OYPE     H8R      HAL2     0.900000E-01   1.00800           0
     42791 MEMB     344      OYPE     H8S      HAL2     0.900000E-01   1.00800           0
     42792 MEMB     344      OYPE     C29      CEL1    -0.150000       12.0110           0
     42793 MEMB     344      OYPE     H9R      HEL1     0.150000       1.00800           0
     42794 MEMB     344      OYPE     C210     CEL1    -0.150000       12.0110           0
     42795 MEMB     344      OYPE     H10R     HEL1     0.150000       1.00800           0
     42796 MEMB     344      OYPE     C211     CTL2    -0.180000       12.0110           0
     42797 MEMB     344      OYPE     H11R     HAL2     0.900000E-01   1.00800           0
     42798 MEMB     344      OYPE     H11S     HAL2     0.900000E-01   1.00800           0
     42799 MEMB     344      OYPE     C212     CTL2    -0.180000       12.0110           0
     42800 MEMB     344      OYPE     H12R     HAL2     0.900000E-01   1.00800           0
     42801 MEMB     344      OYPE     H12S     HAL2     0.900000E-01   1.00800           0
     42802 MEMB     344      OYPE     C213     CTL2    -0.180000       12.0110           0
     42803 MEMB     344      OYPE     H13R     HAL2     0.900000E-01   1.00800           0
     42804 MEMB     344      OYPE     H13S     HAL2     0.900000E-01   1.00800           0
     42805 MEMB     344      OYPE     C214     CTL2    -0.180000       12.0110           0
     42806 MEMB     344      OYPE     H14R     HAL2     0.900000E-01   1.00800           0
     42807 MEMB     344      OYPE     H14S     HAL2     0.900000E-01   1.00800           0
     42808 MEMB     344      OYPE     C215     CTL2    -0.180000       12.0110           0
     42809 MEMB     344      OYPE     H15R     HAL2     0.900000E-01   1.00800           0
     42810 MEMB     344      OYPE     H15S     HAL2     0.900000E-01   1.00800           0
     42811 MEMB     344      OYPE     C216     CTL3    -0.270000       12.0110           0
     42812 MEMB     344      OYPE     H16R     HAL3     0.900000E-01   1.00800           0
     42813 MEMB     344      OYPE     H16S     HAL3     0.900000E-01   1.00800           0
     42814 MEMB     344      OYPE     H16T     HAL3     0.900000E-01   1.00800           0
     42815 MEMB     344      OYPE     C33      CTL2    -0.180000       12.0110           0
     42816 MEMB     344      OYPE     H3X      HAL2     0.900000E-01   1.00800           0
     42817 MEMB     344      OYPE     H3Y      HAL2     0.900000E-01   1.00800           0
     42818 MEMB     344      OYPE     C34      CTL2    -0.180000       12.0110           0
     42819 MEMB     344      OYPE     H4X      HAL2     0.900000E-01   1.00800           0
     42820 MEMB     344      OYPE     H4Y      HAL2     0.900000E-01   1.00800           0
     42821 MEMB     344      OYPE     C35      CTL2    -0.180000       12.0110           0
     42822 MEMB     344      OYPE     H5X      HAL2     0.900000E-01   1.00800           0
     42823 MEMB     344      OYPE     H5Y      HAL2     0.900000E-01   1.00800           0
     42824 MEMB     344      OYPE     C36      CTL2    -0.180000       12.0110           0
     42825 MEMB     344      OYPE     H6X      HAL2     0.900000E-01   1.00800           0
     42826 MEMB     344      OYPE     H6Y      HAL2     0.900000E-01   1.00800           0
     42827 MEMB     344      OYPE     C37      CTL2    -0.180000       12.0110           0
     42828 MEMB     344      OYPE     H7X      HAL2     0.900000E-01   1.00800           0
     42829 MEMB     344      OYPE     H7Y      HAL2     0.900000E-01   1.00800           0
     42830 MEMB     344      OYPE     C38      CTL2    -0.180000       12.0110           0
     42831 MEMB     344      OYPE     H8X      HAL2     0.900000E-01   1.00800           0
     42832 MEMB     344      OYPE     H8Y      HAL2     0.900000E-01   1.00800           0
     42833 MEMB     344      OYPE     C39      CEL1    -0.150000       12.0110           0
     42834 MEMB     344      OYPE     H9X      HEL1     0.150000       1.00800           0
     42835 MEMB     344      OYPE     C310     CEL1    -0.150000       12.0110           0
     42836 MEMB     344      OYPE     H10X     HEL1     0.150000       1.00800           0
     42837 MEMB     344      OYPE     C311     CTL2    -0.180000       12.0110           0
     42838 MEMB     344      OYPE     H11X     HAL2     0.900000E-01   1.00800           0
     42839 MEMB     344      OYPE     H11Y     HAL2     0.900000E-01   1.00800           0
     42840 MEMB     344      OYPE     C312     CTL2    -0.180000       12.0110           0
     42841 MEMB     344      OYPE     H12X     HAL2     0.900000E-01   1.00800           0
     42842 MEMB     344      OYPE     H12Y     HAL2     0.900000E-01   1.00800           0
     42843 MEMB     344      OYPE     C313     CTL2    -0.180000       12.0110           0
     42844 MEMB     344      OYPE     H13X     HAL2     0.900000E-01   1.00800           0
     42845 MEMB     344      OYPE     H13Y     HAL2     0.900000E-01   1.00800           0
     42846 MEMB     344      OYPE     C314     CTL2    -0.180000       12.0110           0
     42847 MEMB     344      OYPE     H14X     HAL2     0.900000E-01   1.00800           0
     42848 MEMB     344      OYPE     H14Y     HAL2     0.900000E-01   1.00800           0
     42849 MEMB     344      OYPE     C315     CTL2    -0.180000       12.0110           0
     42850 MEMB     344      OYPE     H15X     HAL2     0.900000E-01   1.00800           0
     42851 MEMB     344      OYPE     H15Y     HAL2     0.900000E-01   1.00800           0
     42852 MEMB     344      OYPE     C316     CTL2    -0.180000       12.0110           0
     42853 MEMB     344      OYPE     H16X     HAL2     0.900000E-01   1.00800           0
     42854 MEMB     344      OYPE     H16Y     HAL2     0.900000E-01   1.00800           0
     42855 MEMB     344      OYPE     C317     CTL2    -0.180000       12.0110           0
     42856 MEMB     344      OYPE     H17X     HAL2     0.900000E-01   1.00800           0
     42857 MEMB     344      OYPE     H17Y     HAL2     0.900000E-01   1.00800           0
     42858 MEMB     344      OYPE     C318     CTL3    -0.270000       12.0110           0
     42859 MEMB     344      OYPE     H18X     HAL3     0.900000E-01   1.00800           0
     42860 MEMB     344      OYPE     H18Y     HAL3     0.900000E-01   1.00800           0
     42861 MEMB     344      OYPE     H18Z     HAL3     0.900000E-01   1.00800           0
     42862 MEMB     345      POPE     N        NH3L    -0.300000       14.0070           0
     42863 MEMB     345      POPE     HN1      HCL      0.330000       1.00800           0
     42864 MEMB     345      POPE     HN2      HCL      0.330000       1.00800           0
     42865 MEMB     345      POPE     HN3      HCL      0.330000       1.00800           0
     42866 MEMB     345      POPE     C12      CTL2     0.130000       12.0110           0
     42867 MEMB     345      POPE     H12A     HAL2     0.900000E-01   1.00800           0
     42868 MEMB     345      POPE     H12B     HAL2     0.900000E-01   1.00800           0
     42869 MEMB     345      POPE     C11      CTL2    -0.800000E-01   12.0110           0
     42870 MEMB     345      POPE     H11A     HAL2     0.900000E-01   1.00800           0
     42871 MEMB     345      POPE     H11B     HAL2     0.900000E-01   1.00800           0
     42872 MEMB     345      POPE     P        PL        1.50000       30.9740           0
     42873 MEMB     345      POPE     O13      O2L     -0.780000       15.9994           0
     42874 MEMB     345      POPE     O14      O2L     -0.780000       15.9994           0
     42875 MEMB     345      POPE     O11      OSLP    -0.570000       15.9994           0
     42876 MEMB     345      POPE     O12      OSLP    -0.570000       15.9994           0
     42877 MEMB     345      POPE     C1       CTL2    -0.800000E-01   12.0110           0
     42878 MEMB     345      POPE     HA       HAL2     0.900000E-01   1.00800           0
     42879 MEMB     345      POPE     HB       HAL2     0.900000E-01   1.00800           0
     42880 MEMB     345      POPE     C2       CTL1     0.170000       12.0110           0
     42881 MEMB     345      POPE     HS       HAL1     0.900000E-01   1.00800           0
     42882 MEMB     345      POPE     O21      OSL     -0.490000       15.9994           0
     42883 MEMB     345      POPE     C21      CL       0.900000       12.0110           0
     42884 MEMB     345      POPE     O22      OBL     -0.630000       15.9994           0
     42885 MEMB     345      POPE     C22      CTL2    -0.220000       12.0110           0
     42886 MEMB     345      POPE     H2R      HAL2     0.900000E-01   1.00800           0
     42887 MEMB     345      POPE     H2S      HAL2     0.900000E-01   1.00800           0
     42888 MEMB     345      POPE     C3       CTL2     0.800000E-01   12.0110           0
     42889 MEMB     345      POPE     HX       HAL2     0.900000E-01   1.00800           0
     42890 MEMB     345      POPE     HY       HAL2     0.900000E-01   1.00800           0
     42891 MEMB     345      POPE     O31      OSL     -0.490000       15.9994           0
     42892 MEMB     345      POPE     C31      CL       0.900000       12.0110           0
     42893 MEMB     345      POPE     O32      OBL     -0.630000       15.9994           0
     42894 MEMB     345      POPE     C32      CTL2    -0.220000       12.0110           0
     42895 MEMB     345      POPE     H2X      HAL2     0.900000E-01   1.00800           0
     42896 MEMB     345      POPE     H2Y      HAL2     0.900000E-01   1.00800           0
     42897 MEMB     345      POPE     C23      CTL2    -0.180000       12.0110           0
     42898 MEMB     345      POPE     H3R      HAL2     0.900000E-01   1.00800           0
     42899 MEMB     345      POPE     H3S      HAL2     0.900000E-01   1.00800           0
     42900 MEMB     345      POPE     C24      CTL2    -0.180000       12.0110           0
     42901 MEMB     345      POPE     H4R      HAL2     0.900000E-01   1.00800           0
     42902 MEMB     345      POPE     H4S      HAL2     0.900000E-01   1.00800           0
     42903 MEMB     345      POPE     C25      CTL2    -0.180000       12.0110           0
     42904 MEMB     345      POPE     H5R      HAL2     0.900000E-01   1.00800           0
     42905 MEMB     345      POPE     H5S      HAL2     0.900000E-01   1.00800           0
     42906 MEMB     345      POPE     C26      CTL2    -0.180000       12.0110           0
     42907 MEMB     345      POPE     H6R      HAL2     0.900000E-01   1.00800           0
     42908 MEMB     345      POPE     H6S      HAL2     0.900000E-01   1.00800           0
     42909 MEMB     345      POPE     C27      CTL2    -0.180000       12.0110           0
     42910 MEMB     345      POPE     H7R      HAL2     0.900000E-01   1.00800           0
     42911 MEMB     345      POPE     H7S      HAL2     0.900000E-01   1.00800           0
     42912 MEMB     345      POPE     C28      CTL2    -0.180000       12.0110           0
     42913 MEMB     345      POPE     H8R      HAL2     0.900000E-01   1.00800           0
     42914 MEMB     345      POPE     H8S      HAL2     0.900000E-01   1.00800           0
     42915 MEMB     345      POPE     C29      CEL1    -0.150000       12.0110           0
     42916 MEMB     345      POPE     H91      HEL1     0.150000       1.00800           0
     42917 MEMB     345      POPE     C210     CEL1    -0.150000       12.0110           0
     42918 MEMB     345      POPE     H101     HEL1     0.150000       1.00800           0
     42919 MEMB     345      POPE     C211     CTL2    -0.180000       12.0110           0
     42920 MEMB     345      POPE     H11R     HAL2     0.900000E-01   1.00800           0
     42921 MEMB     345      POPE     H11S     HAL2     0.900000E-01   1.00800           0
     42922 MEMB     345      POPE     C212     CTL2    -0.180000       12.0110           0
     42923 MEMB     345      POPE     H12R     HAL2     0.900000E-01   1.00800           0
     42924 MEMB     345      POPE     H12S     HAL2     0.900000E-01   1.00800           0
     42925 MEMB     345      POPE     C213     CTL2    -0.180000       12.0110           0
     42926 MEMB     345      POPE     H13R     HAL2     0.900000E-01   1.00800           0
     42927 MEMB     345      POPE     H13S     HAL2     0.900000E-01   1.00800           0
     42928 MEMB     345      POPE     C214     CTL2    -0.180000       12.0110           0
     42929 MEMB     345      POPE     H14R     HAL2     0.900000E-01   1.00800           0
     42930 MEMB     345      POPE     H14S     HAL2     0.900000E-01   1.00800           0
     42931 MEMB     345      POPE     C215     CTL2    -0.180000       12.0110           0
     42932 MEMB     345      POPE     H15R     HAL2     0.900000E-01   1.00800           0
     42933 MEMB     345      POPE     H15S     HAL2     0.900000E-01   1.00800           0
     42934 MEMB     345      POPE     C216     CTL2    -0.180000       12.0110           0
     42935 MEMB     345      POPE     H16R     HAL2     0.900000E-01   1.00800           0
     42936 MEMB     345      POPE     H16S     HAL2     0.900000E-01   1.00800           0
     42937 MEMB     345      POPE     C217     CTL2    -0.180000       12.0110           0
     42938 MEMB     345      POPE     H17R     HAL2     0.900000E-01   1.00800           0
     42939 MEMB     345      POPE     H17S     HAL2     0.900000E-01   1.00800           0
     42940 MEMB     345      POPE     C218     CTL3    -0.270000       12.0110           0
     42941 MEMB     345      POPE     H18R     HAL3     0.900000E-01   1.00800           0
     42942 MEMB     345      POPE     H18S     HAL3     0.900000E-01   1.00800           0
     42943 MEMB     345      POPE     H18T     HAL3     0.900000E-01   1.00800           0
     42944 MEMB     345      POPE     C33      CTL2    -0.180000       12.0110           0
     42945 MEMB     345      POPE     H3X      HAL2     0.900000E-01   1.00800           0
     42946 MEMB     345      POPE     H3Y      HAL2     0.900000E-01   1.00800           0
     42947 MEMB     345      POPE     C34      CTL2    -0.180000       12.0110           0
     42948 MEMB     345      POPE     H4X      HAL2     0.900000E-01   1.00800           0
     42949 MEMB     345      POPE     H4Y      HAL2     0.900000E-01   1.00800           0
     42950 MEMB     345      POPE     C35      CTL2    -0.180000       12.0110           0
     42951 MEMB     345      POPE     H5X      HAL2     0.900000E-01   1.00800           0
     42952 MEMB     345      POPE     H5Y      HAL2     0.900000E-01   1.00800           0
     42953 MEMB     345      POPE     C36      CTL2    -0.180000       12.0110           0
     42954 MEMB     345      POPE     H6X      HAL2     0.900000E-01   1.00800           0
     42955 MEMB     345      POPE     H6Y      HAL2     0.900000E-01   1.00800           0
     42956 MEMB     345      POPE     C37      CTL2    -0.180000       12.0110           0
     42957 MEMB     345      POPE     H7X      HAL2     0.900000E-01   1.00800           0
     42958 MEMB     345      POPE     H7Y      HAL2     0.900000E-01   1.00800           0
     42959 MEMB     345      POPE     C38      CTL2    -0.180000       12.0110           0
     42960 MEMB     345      POPE     H8X      HAL2     0.900000E-01   1.00800           0
     42961 MEMB     345      POPE     H8Y      HAL2     0.900000E-01   1.00800           0
     42962 MEMB     345      POPE     C39      CTL2    -0.180000       12.0110           0
     42963 MEMB     345      POPE     H9X      HAL2     0.900000E-01   1.00800           0
     42964 MEMB     345      POPE     H9Y      HAL2     0.900000E-01   1.00800           0
     42965 MEMB     345      POPE     C310     CTL2    -0.180000       12.0110           0
     42966 MEMB     345      POPE     H10X     HAL2     0.900000E-01   1.00800           0
     42967 MEMB     345      POPE     H10Y     HAL2     0.900000E-01   1.00800           0
     42968 MEMB     345      POPE     C311     CTL2    -0.180000       12.0110           0
     42969 MEMB     345      POPE     H11X     HAL2     0.900000E-01   1.00800           0
     42970 MEMB     345      POPE     H11Y     HAL2     0.900000E-01   1.00800           0
     42971 MEMB     345      POPE     C312     CTL2    -0.180000       12.0110           0
     42972 MEMB     345      POPE     H12X     HAL2     0.900000E-01   1.00800           0
     42973 MEMB     345      POPE     H12Y     HAL2     0.900000E-01   1.00800           0
     42974 MEMB     345      POPE     C313     CTL2    -0.180000       12.0110           0
     42975 MEMB     345      POPE     H13X     HAL2     0.900000E-01   1.00800           0
     42976 MEMB     345      POPE     H13Y     HAL2     0.900000E-01   1.00800           0
     42977 MEMB     345      POPE     C314     CTL2    -0.180000       12.0110           0
     42978 MEMB     345      POPE     H14X     HAL2     0.900000E-01   1.00800           0
     42979 MEMB     345      POPE     H14Y     HAL2     0.900000E-01   1.00800           0
     42980 MEMB     345      POPE     C315     CTL2    -0.180000       12.0110           0
     42981 MEMB     345      POPE     H15X     HAL2     0.900000E-01   1.00800           0
     42982 MEMB     345      POPE     H15Y     HAL2     0.900000E-01   1.00800           0
     42983 MEMB     345      POPE     C316     CTL3    -0.270000       12.0110           0
     42984 MEMB     345      POPE     H16X     HAL3     0.900000E-01   1.00800           0
     42985 MEMB     345      POPE     H16Y     HAL3     0.900000E-01   1.00800           0
     42986 MEMB     345      POPE     H16Z     HAL3     0.900000E-01   1.00800           0
     42987 MEMB     346      POPE     N        NH3L    -0.300000       14.0070           0
     42988 MEMB     346      POPE     HN1      HCL      0.330000       1.00800           0
     42989 MEMB     346      POPE     HN2      HCL      0.330000       1.00800           0
     42990 MEMB     346      POPE     HN3      HCL      0.330000       1.00800           0
     42991 MEMB     346      POPE     C12      CTL2     0.130000       12.0110           0
     42992 MEMB     346      POPE     H12A     HAL2     0.900000E-01   1.00800           0
     42993 MEMB     346      POPE     H12B     HAL2     0.900000E-01   1.00800           0
     42994 MEMB     346      POPE     C11      CTL2    -0.800000E-01   12.0110           0
     42995 MEMB     346      POPE     H11A     HAL2     0.900000E-01   1.00800           0
     42996 MEMB     346      POPE     H11B     HAL2     0.900000E-01   1.00800           0
     42997 MEMB     346      POPE     P        PL        1.50000       30.9740           0
     42998 MEMB     346      POPE     O13      O2L     -0.780000       15.9994           0
     42999 MEMB     346      POPE     O14      O2L     -0.780000       15.9994           0
     43000 MEMB     346      POPE     O11      OSLP    -0.570000       15.9994           0
     43001 MEMB     346      POPE     O12      OSLP    -0.570000       15.9994           0
     43002 MEMB     346      POPE     C1       CTL2    -0.800000E-01   12.0110           0
     43003 MEMB     346      POPE     HA       HAL2     0.900000E-01   1.00800           0
     43004 MEMB     346      POPE     HB       HAL2     0.900000E-01   1.00800           0
     43005 MEMB     346      POPE     C2       CTL1     0.170000       12.0110           0
     43006 MEMB     346      POPE     HS       HAL1     0.900000E-01   1.00800           0
     43007 MEMB     346      POPE     O21      OSL     -0.490000       15.9994           0
     43008 MEMB     346      POPE     C21      CL       0.900000       12.0110           0
     43009 MEMB     346      POPE     O22      OBL     -0.630000       15.9994           0
     43010 MEMB     346      POPE     C22      CTL2    -0.220000       12.0110           0
     43011 MEMB     346      POPE     H2R      HAL2     0.900000E-01   1.00800           0
     43012 MEMB     346      POPE     H2S      HAL2     0.900000E-01   1.00800           0
     43013 MEMB     346      POPE     C3       CTL2     0.800000E-01   12.0110           0
     43014 MEMB     346      POPE     HX       HAL2     0.900000E-01   1.00800           0
     43015 MEMB     346      POPE     HY       HAL2     0.900000E-01   1.00800           0
     43016 MEMB     346      POPE     O31      OSL     -0.490000       15.9994           0
     43017 MEMB     346      POPE     C31      CL       0.900000       12.0110           0
     43018 MEMB     346      POPE     O32      OBL     -0.630000       15.9994           0
     43019 MEMB     346      POPE     C32      CTL2    -0.220000       12.0110           0
     43020 MEMB     346      POPE     H2X      HAL2     0.900000E-01   1.00800           0
     43021 MEMB     346      POPE     H2Y      HAL2     0.900000E-01   1.00800           0
     43022 MEMB     346      POPE     C23      CTL2    -0.180000       12.0110           0
     43023 MEMB     346      POPE     H3R      HAL2     0.900000E-01   1.00800           0
     43024 MEMB     346      POPE     H3S      HAL2     0.900000E-01   1.00800           0
     43025 MEMB     346      POPE     C24      CTL2    -0.180000       12.0110           0
     43026 MEMB     346      POPE     H4R      HAL2     0.900000E-01   1.00800           0
     43027 MEMB     346      POPE     H4S      HAL2     0.900000E-01   1.00800           0
     43028 MEMB     346      POPE     C25      CTL2    -0.180000       12.0110           0
     43029 MEMB     346      POPE     H5R      HAL2     0.900000E-01   1.00800           0
     43030 MEMB     346      POPE     H5S      HAL2     0.900000E-01   1.00800           0
     43031 MEMB     346      POPE     C26      CTL2    -0.180000       12.0110           0
     43032 MEMB     346      POPE     H6R      HAL2     0.900000E-01   1.00800           0
     43033 MEMB     346      POPE     H6S      HAL2     0.900000E-01   1.00800           0
     43034 MEMB     346      POPE     C27      CTL2    -0.180000       12.0110           0
     43035 MEMB     346      POPE     H7R      HAL2     0.900000E-01   1.00800           0
     43036 MEMB     346      POPE     H7S      HAL2     0.900000E-01   1.00800           0
     43037 MEMB     346      POPE     C28      CTL2    -0.180000       12.0110           0
     43038 MEMB     346      POPE     H8R      HAL2     0.900000E-01   1.00800           0
     43039 MEMB     346      POPE     H8S      HAL2     0.900000E-01   1.00800           0
     43040 MEMB     346      POPE     C29      CEL1    -0.150000       12.0110           0
     43041 MEMB     346      POPE     H91      HEL1     0.150000       1.00800           0
     43042 MEMB     346      POPE     C210     CEL1    -0.150000       12.0110           0
     43043 MEMB     346      POPE     H101     HEL1     0.150000       1.00800           0
     43044 MEMB     346      POPE     C211     CTL2    -0.180000       12.0110           0
     43045 MEMB     346      POPE     H11R     HAL2     0.900000E-01   1.00800           0
     43046 MEMB     346      POPE     H11S     HAL2     0.900000E-01   1.00800           0
     43047 MEMB     346      POPE     C212     CTL2    -0.180000       12.0110           0
     43048 MEMB     346      POPE     H12R     HAL2     0.900000E-01   1.00800           0
     43049 MEMB     346      POPE     H12S     HAL2     0.900000E-01   1.00800           0
     43050 MEMB     346      POPE     C213     CTL2    -0.180000       12.0110           0
     43051 MEMB     346      POPE     H13R     HAL2     0.900000E-01   1.00800           0
     43052 MEMB     346      POPE     H13S     HAL2     0.900000E-01   1.00800           0
     43053 MEMB     346      POPE     C214     CTL2    -0.180000       12.0110           0
     43054 MEMB     346      POPE     H14R     HAL2     0.900000E-01   1.00800           0
     43055 MEMB     346      POPE     H14S     HAL2     0.900000E-01   1.00800           0
     43056 MEMB     346      POPE     C215     CTL2    -0.180000       12.0110           0
     43057 MEMB     346      POPE     H15R     HAL2     0.900000E-01   1.00800           0
     43058 MEMB     346      POPE     H15S     HAL2     0.900000E-01   1.00800           0
     43059 MEMB     346      POPE     C216     CTL2    -0.180000       12.0110           0
     43060 MEMB     346      POPE     H16R     HAL2     0.900000E-01   1.00800           0
     43061 MEMB     346      POPE     H16S     HAL2     0.900000E-01   1.00800           0
     43062 MEMB     346      POPE     C217     CTL2    -0.180000       12.0110           0
     43063 MEMB     346      POPE     H17R     HAL2     0.900000E-01   1.00800           0
     43064 MEMB     346      POPE     H17S     HAL2     0.900000E-01   1.00800           0
     43065 MEMB     346      POPE     C218     CTL3    -0.270000       12.0110           0
     43066 MEMB     346      POPE     H18R     HAL3     0.900000E-01   1.00800           0
     43067 MEMB     346      POPE     H18S     HAL3     0.900000E-01   1.00800           0
     43068 MEMB     346      POPE     H18T     HAL3     0.900000E-01   1.00800           0
     43069 MEMB     346      POPE     C33      CTL2    -0.180000       12.0110           0
     43070 MEMB     346      POPE     H3X      HAL2     0.900000E-01   1.00800           0
     43071 MEMB     346      POPE     H3Y      HAL2     0.900000E-01   1.00800           0
     43072 MEMB     346      POPE     C34      CTL2    -0.180000       12.0110           0
     43073 MEMB     346      POPE     H4X      HAL2     0.900000E-01   1.00800           0
     43074 MEMB     346      POPE     H4Y      HAL2     0.900000E-01   1.00800           0
     43075 MEMB     346      POPE     C35      CTL2    -0.180000       12.0110           0
     43076 MEMB     346      POPE     H5X      HAL2     0.900000E-01   1.00800           0
     43077 MEMB     346      POPE     H5Y      HAL2     0.900000E-01   1.00800           0
     43078 MEMB     346      POPE     C36      CTL2    -0.180000       12.0110           0
     43079 MEMB     346      POPE     H6X      HAL2     0.900000E-01   1.00800           0
     43080 MEMB     346      POPE     H6Y      HAL2     0.900000E-01   1.00800           0
     43081 MEMB     346      POPE     C37      CTL2    -0.180000       12.0110           0
     43082 MEMB     346      POPE     H7X      HAL2     0.900000E-01   1.00800           0
     43083 MEMB     346      POPE     H7Y      HAL2     0.900000E-01   1.00800           0
     43084 MEMB     346      POPE     C38      CTL2    -0.180000       12.0110           0
     43085 MEMB     346      POPE     H8X      HAL2     0.900000E-01   1.00800           0
     43086 MEMB     346      POPE     H8Y      HAL2     0.900000E-01   1.00800           0
     43087 MEMB     346      POPE     C39      CTL2    -0.180000       12.0110           0
     43088 MEMB     346      POPE     H9X      HAL2     0.900000E-01   1.00800           0
     43089 MEMB     346      POPE     H9Y      HAL2     0.900000E-01   1.00800           0
     43090 MEMB     346      POPE     C310     CTL2    -0.180000       12.0110           0
     43091 MEMB     346      POPE     H10X     HAL2     0.900000E-01   1.00800           0
     43092 MEMB     346      POPE     H10Y     HAL2     0.900000E-01   1.00800           0
     43093 MEMB     346      POPE     C311     CTL2    -0.180000       12.0110           0
     43094 MEMB     346      POPE     H11X     HAL2     0.900000E-01   1.00800           0
     43095 MEMB     346      POPE     H11Y     HAL2     0.900000E-01   1.00800           0
     43096 MEMB     346      POPE     C312     CTL2    -0.180000       12.0110           0
     43097 MEMB     346      POPE     H12X     HAL2     0.900000E-01   1.00800           0
     43098 MEMB     346      POPE     H12Y     HAL2     0.900000E-01   1.00800           0
     43099 MEMB     346      POPE     C313     CTL2    -0.180000       12.0110           0
     43100 MEMB     346      POPE     H13X     HAL2     0.900000E-01   1.00800           0
     43101 MEMB     346      POPE     H13Y     HAL2     0.900000E-01   1.00800           0
     43102 MEMB     346      POPE     C314     CTL2    -0.180000       12.0110           0
     43103 MEMB     346      POPE     H14X     HAL2     0.900000E-01   1.00800           0
     43104 MEMB     346      POPE     H14Y     HAL2     0.900000E-01   1.00800           0
     43105 MEMB     346      POPE     C315     CTL2    -0.180000       12.0110           0
     43106 MEMB     346      POPE     H15X     HAL2     0.900000E-01   1.00800           0
     43107 MEMB     346      POPE     H15Y     HAL2     0.900000E-01   1.00800           0
     43108 MEMB     346      POPE     C316     CTL3    -0.270000       12.0110           0
     43109 MEMB     346      POPE     H16X     HAL3     0.900000E-01   1.00800           0
     43110 MEMB     346      POPE     H16Y     HAL3     0.900000E-01   1.00800           0
     43111 MEMB     346      POPE     H16Z     HAL3     0.900000E-01   1.00800           0
     43112 MEMB     347      PYPG     C13      CTL2     0.500000E-01   12.0110           0
     43113 MEMB     347      PYPG     H13A     HAL2     0.900000E-01   1.00800           0
     43114 MEMB     347      PYPG     H13B     HAL2     0.900000E-01   1.00800           0
     43115 MEMB     347      PYPG     OC3      OHL     -0.660000       15.9994           0
     43116 MEMB     347      PYPG     HO3      HOL      0.430000       1.00800           0
     43117 MEMB     347      PYPG     C12      CTL1     0.140000       12.0110           0
     43118 MEMB     347      PYPG     H12A     HAL1     0.900000E-01   1.00800           0
     43119 MEMB     347      PYPG     OC2      OHL     -0.660000       15.9994           0
     43120 MEMB     347      PYPG     HO2      HOL      0.430000       1.00800           0
     43121 MEMB     347      PYPG     C11      CTL2    -0.800000E-01   12.0110           0
     43122 MEMB     347      PYPG     H11A     HAL2     0.900000E-01   1.00800           0
     43123 MEMB     347      PYPG     H11B     HAL2     0.900000E-01   1.00800           0
     43124 MEMB     347      PYPG     P        PL        1.50000       30.9740           0
     43125 MEMB     347      PYPG     O13      O2L     -0.780000       15.9994           0
     43126 MEMB     347      PYPG     O14      O2L     -0.780000       15.9994           0
     43127 MEMB     347      PYPG     O11      OSLP    -0.570000       15.9994           0
     43128 MEMB     347      PYPG     O12      OSLP    -0.570000       15.9994           0
     43129 MEMB     347      PYPG     C1       CTL2    -0.800000E-01   12.0110           0
     43130 MEMB     347      PYPG     HA       HAL2     0.900000E-01   1.00800           0
     43131 MEMB     347      PYPG     HB       HAL2     0.900000E-01   1.00800           0
     43132 MEMB     347      PYPG     C2       CTL1     0.170000       12.0110           0
     43133 MEMB     347      PYPG     HS       HAL1     0.900000E-01   1.00800           0
     43134 MEMB     347      PYPG     O21      OSL     -0.490000       15.9994           0
     43135 MEMB     347      PYPG     C21      CL       0.900000       12.0110           0
     43136 MEMB     347      PYPG     O22      OBL     -0.630000       15.9994           0
     43137 MEMB     347      PYPG     C22      CTL2    -0.220000       12.0110           0
     43138 MEMB     347      PYPG     H2R      HAL2     0.900000E-01   1.00800           0
     43139 MEMB     347      PYPG     H2S      HAL2     0.900000E-01   1.00800           0
     43140 MEMB     347      PYPG     C3       CTL2     0.800000E-01   12.0110           0
     43141 MEMB     347      PYPG     HX       HAL2     0.900000E-01   1.00800           0
     43142 MEMB     347      PYPG     HY       HAL2     0.900000E-01   1.00800           0
     43143 MEMB     347      PYPG     O31      OSL     -0.490000       15.9994           0
     43144 MEMB     347      PYPG     C31      CL       0.900000       12.0110           0
     43145 MEMB     347      PYPG     O32      OBL     -0.630000       15.9994           0
     43146 MEMB     347      PYPG     C32      CTL2    -0.220000       12.0110           0
     43147 MEMB     347      PYPG     H2X      HAL2     0.900000E-01   1.00800           0
     43148 MEMB     347      PYPG     H2Y      HAL2     0.900000E-01   1.00800           0
     43149 MEMB     347      PYPG     C23      CTL2    -0.180000       12.0110           0
     43150 MEMB     347      PYPG     H3R      HAL2     0.900000E-01   1.00800           0
     43151 MEMB     347      PYPG     H3S      HAL2     0.900000E-01   1.00800           0
     43152 MEMB     347      PYPG     C24      CTL2    -0.180000       12.0110           0
     43153 MEMB     347      PYPG     H4R      HAL2     0.900000E-01   1.00800           0
     43154 MEMB     347      PYPG     H4S      HAL2     0.900000E-01   1.00800           0
     43155 MEMB     347      PYPG     C25      CTL2    -0.180000       12.0110           0
     43156 MEMB     347      PYPG     H5R      HAL2     0.900000E-01   1.00800           0
     43157 MEMB     347      PYPG     H5S      HAL2     0.900000E-01   1.00800           0
     43158 MEMB     347      PYPG     C26      CTL2    -0.180000       12.0110           0
     43159 MEMB     347      PYPG     H6R      HAL2     0.900000E-01   1.00800           0
     43160 MEMB     347      PYPG     H6S      HAL2     0.900000E-01   1.00800           0
     43161 MEMB     347      PYPG     C27      CTL2    -0.180000       12.0110           0
     43162 MEMB     347      PYPG     H7R      HAL2     0.900000E-01   1.00800           0
     43163 MEMB     347      PYPG     H7S      HAL2     0.900000E-01   1.00800           0
     43164 MEMB     347      PYPG     C28      CTL2    -0.180000       12.0110           0
     43165 MEMB     347      PYPG     H8R      HAL2     0.900000E-01   1.00800           0
     43166 MEMB     347      PYPG     H8S      HAL2     0.900000E-01   1.00800           0
     43167 MEMB     347      PYPG     C29      CEL1    -0.150000       12.0110           0
     43168 MEMB     347      PYPG     H9R      HEL1     0.150000       1.00800           0
     43169 MEMB     347      PYPG     C210     CEL1    -0.150000       12.0110           0
     43170 MEMB     347      PYPG     H10R     HEL1     0.150000       1.00800           0
     43171 MEMB     347      PYPG     C211     CTL2    -0.180000       12.0110           0
     43172 MEMB     347      PYPG     H11R     HAL2     0.900000E-01   1.00800           0
     43173 MEMB     347      PYPG     H11S     HAL2     0.900000E-01   1.00800           0
     43174 MEMB     347      PYPG     C212     CTL2    -0.180000       12.0110           0
     43175 MEMB     347      PYPG     H12R     HAL2     0.900000E-01   1.00800           0
     43176 MEMB     347      PYPG     H12S     HAL2     0.900000E-01   1.00800           0
     43177 MEMB     347      PYPG     C213     CTL2    -0.180000       12.0110           0
     43178 MEMB     347      PYPG     H13R     HAL2     0.900000E-01   1.00800           0
     43179 MEMB     347      PYPG     H13S     HAL2     0.900000E-01   1.00800           0
     43180 MEMB     347      PYPG     C214     CTL2    -0.180000       12.0110           0
     43181 MEMB     347      PYPG     H14R     HAL2     0.900000E-01   1.00800           0
     43182 MEMB     347      PYPG     H14S     HAL2     0.900000E-01   1.00800           0
     43183 MEMB     347      PYPG     C215     CTL2    -0.180000       12.0110           0
     43184 MEMB     347      PYPG     H15R     HAL2     0.900000E-01   1.00800           0
     43185 MEMB     347      PYPG     H15S     HAL2     0.900000E-01   1.00800           0
     43186 MEMB     347      PYPG     C216     CTL3    -0.270000       12.0110           0
     43187 MEMB     347      PYPG     H16R     HAL3     0.900000E-01   1.00800           0
     43188 MEMB     347      PYPG     H16S     HAL3     0.900000E-01   1.00800           0
     43189 MEMB     347      PYPG     H16T     HAL3     0.900000E-01   1.00800           0
     43190 MEMB     347      PYPG     C33      CTL2    -0.180000       12.0110           0
     43191 MEMB     347      PYPG     H3X      HAL2     0.900000E-01   1.00800           0
     43192 MEMB     347      PYPG     H3Y      HAL2     0.900000E-01   1.00800           0
     43193 MEMB     347      PYPG     C34      CTL2    -0.180000       12.0110           0
     43194 MEMB     347      PYPG     H4X      HAL2     0.900000E-01   1.00800           0
     43195 MEMB     347      PYPG     H4Y      HAL2     0.900000E-01   1.00800           0
     43196 MEMB     347      PYPG     C35      CTL2    -0.180000       12.0110           0
     43197 MEMB     347      PYPG     H5X      HAL2     0.900000E-01   1.00800           0
     43198 MEMB     347      PYPG     H5Y      HAL2     0.900000E-01   1.00800           0
     43199 MEMB     347      PYPG     C36      CTL2    -0.180000       12.0110           0
     43200 MEMB     347      PYPG     H6X      HAL2     0.900000E-01   1.00800           0
     43201 MEMB     347      PYPG     H6Y      HAL2     0.900000E-01   1.00800           0
     43202 MEMB     347      PYPG     C37      CTL2    -0.180000       12.0110           0
     43203 MEMB     347      PYPG     H7X      HAL2     0.900000E-01   1.00800           0
     43204 MEMB     347      PYPG     H7Y      HAL2     0.900000E-01   1.00800           0
     43205 MEMB     347      PYPG     C38      CTL2    -0.180000       12.0110           0
     43206 MEMB     347      PYPG     H8X      HAL2     0.900000E-01   1.00800           0
     43207 MEMB     347      PYPG     H8Y      HAL2     0.900000E-01   1.00800           0
     43208 MEMB     347      PYPG     C39      CTL2    -0.180000       12.0110           0
     43209 MEMB     347      PYPG     H9X      HAL2     0.900000E-01   1.00800           0
     43210 MEMB     347      PYPG     H9Y      HAL2     0.900000E-01   1.00800           0
     43211 MEMB     347      PYPG     C310     CTL2    -0.180000       12.0110           0
     43212 MEMB     347      PYPG     H10X     HAL2     0.900000E-01   1.00800           0
     43213 MEMB     347      PYPG     H10Y     HAL2     0.900000E-01   1.00800           0
     43214 MEMB     347      PYPG     C311     CTL2    -0.180000       12.0110           0
     43215 MEMB     347      PYPG     H11X     HAL2     0.900000E-01   1.00800           0
     43216 MEMB     347      PYPG     H11Y     HAL2     0.900000E-01   1.00800           0
     43217 MEMB     347      PYPG     C312     CTL2    -0.180000       12.0110           0
     43218 MEMB     347      PYPG     H12X     HAL2     0.900000E-01   1.00800           0
     43219 MEMB     347      PYPG     H12Y     HAL2     0.900000E-01   1.00800           0
     43220 MEMB     347      PYPG     C313     CTL2    -0.180000       12.0110           0
     43221 MEMB     347      PYPG     H13X     HAL2     0.900000E-01   1.00800           0
     43222 MEMB     347      PYPG     H13Y     HAL2     0.900000E-01   1.00800           0
     43223 MEMB     347      PYPG     C314     CTL2    -0.180000       12.0110           0
     43224 MEMB     347      PYPG     H14X     HAL2     0.900000E-01   1.00800           0
     43225 MEMB     347      PYPG     H14Y     HAL2     0.900000E-01   1.00800           0
     43226 MEMB     347      PYPG     C315     CTL2    -0.180000       12.0110           0
     43227 MEMB     347      PYPG     H15X     HAL2     0.900000E-01   1.00800           0
     43228 MEMB     347      PYPG     H15Y     HAL2     0.900000E-01   1.00800           0
     43229 MEMB     347      PYPG     C316     CTL3    -0.270000       12.0110           0
     43230 MEMB     347      PYPG     H16X     HAL3     0.900000E-01   1.00800           0
     43231 MEMB     347      PYPG     H16Y     HAL3     0.900000E-01   1.00800           0
     43232 MEMB     347      PYPG     H16Z     HAL3     0.900000E-01   1.00800           0
     43233 MEMB     348      PMPE     N        NH3L    -0.300000       14.0070           0
     43234 MEMB     348      PMPE     HN1      HCL      0.330000       1.00800           0
     43235 MEMB     348      PMPE     HN2      HCL      0.330000       1.00800           0
     43236 MEMB     348      PMPE     HN3      HCL      0.330000       1.00800           0
     43237 MEMB     348      PMPE     C12      CTL2     0.130000       12.0110           0
     43238 MEMB     348      PMPE     H12A     HAL2     0.900000E-01   1.00800           0
     43239 MEMB     348      PMPE     H12B     HAL2     0.900000E-01   1.00800           0
     43240 MEMB     348      PMPE     C11      CTL2    -0.800000E-01   12.0110           0
     43241 MEMB     348      PMPE     H11A     HAL2     0.900000E-01   1.00800           0
     43242 MEMB     348      PMPE     H11B     HAL2     0.900000E-01   1.00800           0
     43243 MEMB     348      PMPE     P        PL        1.50000       30.9740           0
     43244 MEMB     348      PMPE     O13      O2L     -0.780000       15.9994           0
     43245 MEMB     348      PMPE     O14      O2L     -0.780000       15.9994           0
     43246 MEMB     348      PMPE     O11      OSLP    -0.570000       15.9994           0
     43247 MEMB     348      PMPE     O12      OSLP    -0.570000       15.9994           0
     43248 MEMB     348      PMPE     C1       CTL2    -0.800000E-01   12.0110           0
     43249 MEMB     348      PMPE     HA       HAL2     0.900000E-01   1.00800           0
     43250 MEMB     348      PMPE     HB       HAL2     0.900000E-01   1.00800           0
     43251 MEMB     348      PMPE     C2       CTL1     0.170000       12.0110           0
     43252 MEMB     348      PMPE     HS       HAL1     0.900000E-01   1.00800           0
     43253 MEMB     348      PMPE     O21      OSL     -0.490000       15.9994           0
     43254 MEMB     348      PMPE     C21      CL       0.900000       12.0110           0
     43255 MEMB     348      PMPE     O22      OBL     -0.630000       15.9994           0
     43256 MEMB     348      PMPE     C22      CTL2    -0.220000       12.0110           0
     43257 MEMB     348      PMPE     H2R      HAL2     0.900000E-01   1.00800           0
     43258 MEMB     348      PMPE     H2S      HAL2     0.900000E-01   1.00800           0
     43259 MEMB     348      PMPE     C3       CTL2     0.800000E-01   12.0110           0
     43260 MEMB     348      PMPE     HX       HAL2     0.900000E-01   1.00800           0
     43261 MEMB     348      PMPE     HY       HAL2     0.900000E-01   1.00800           0
     43262 MEMB     348      PMPE     O31      OSL     -0.490000       15.9994           0
     43263 MEMB     348      PMPE     C31      CL       0.900000       12.0110           0
     43264 MEMB     348      PMPE     O32      OBL     -0.630000       15.9994           0
     43265 MEMB     348      PMPE     C32      CTL2    -0.220000       12.0110           0
     43266 MEMB     348      PMPE     H2X      HAL2     0.900000E-01   1.00800           0
     43267 MEMB     348      PMPE     H2Y      HAL2     0.900000E-01   1.00800           0
     43268 MEMB     348      PMPE     C23      CTL2    -0.180000       12.0110           0
     43269 MEMB     348      PMPE     H3R      HAL2     0.900000E-01   1.00800           0
     43270 MEMB     348      PMPE     H3S      HAL2     0.900000E-01   1.00800           0
     43271 MEMB     348      PMPE     C24      CTL2    -0.180000       12.0110           0
     43272 MEMB     348      PMPE     H4R      HAL2     0.900000E-01   1.00800           0
     43273 MEMB     348      PMPE     H4S      HAL2     0.900000E-01   1.00800           0
     43274 MEMB     348      PMPE     C25      CTL2    -0.180000       12.0110           0
     43275 MEMB     348      PMPE     H5R      HAL2     0.900000E-01   1.00800           0
     43276 MEMB     348      PMPE     H5S      HAL2     0.900000E-01   1.00800           0
     43277 MEMB     348      PMPE     C26      CTL2    -0.180000       12.0110           0
     43278 MEMB     348      PMPE     H6R      HAL2     0.900000E-01   1.00800           0
     43279 MEMB     348      PMPE     H6S      HAL2     0.900000E-01   1.00800           0
     43280 MEMB     348      PMPE     C27      CTL2    -0.180000       12.0110           0
     43281 MEMB     348      PMPE     H7R      HAL2     0.900000E-01   1.00800           0
     43282 MEMB     348      PMPE     H7S      HAL2     0.900000E-01   1.00800           0
     43283 MEMB     348      PMPE     C28      CTL2    -0.180000       12.0110           0
     43284 MEMB     348      PMPE     H8R      HAL2     0.900000E-01   1.00800           0
     43285 MEMB     348      PMPE     H8S      HAL2     0.900000E-01   1.00800           0
     43286 MEMB     348      PMPE     C29      CG3RC1  -0.900000E-01   12.0110           0
     43287 MEMB     348      PMPE     H9R      HGA1     0.900000E-01   1.00800           0
     43288 MEMB     348      PMPE     C217     CG3C31  -0.180000       12.0110           0
     43289 MEMB     348      PMPE     H17R     HGA2     0.900000E-01   1.00800           0
     43290 MEMB     348      PMPE     H17S     HGA2     0.900000E-01   1.00800           0
     43291 MEMB     348      PMPE     C210     CG3RC1  -0.900000E-01   12.0110           0
     43292 MEMB     348      PMPE     H10R     HGA1     0.900000E-01   1.00800           0
     43293 MEMB     348      PMPE     C211     CTL2    -0.180000       12.0110           0
     43294 MEMB     348      PMPE     H11R     HAL2     0.900000E-01   1.00800           0
     43295 MEMB     348      PMPE     H11S     HAL2     0.900000E-01   1.00800           0
     43296 MEMB     348      PMPE     C212     CTL2    -0.180000       12.0110           0
     43297 MEMB     348      PMPE     H12R     HAL2     0.900000E-01   1.00800           0
     43298 MEMB     348      PMPE     H12S     HAL2     0.900000E-01   1.00800           0
     43299 MEMB     348      PMPE     C213     CTL2    -0.180000       12.0110           0
     43300 MEMB     348      PMPE     H13R     HAL2     0.900000E-01   1.00800           0
     43301 MEMB     348      PMPE     H13S     HAL2     0.900000E-01   1.00800           0
     43302 MEMB     348      PMPE     C214     CTL2    -0.180000       12.0110           0
     43303 MEMB     348      PMPE     H14R     HAL2     0.900000E-01   1.00800           0
     43304 MEMB     348      PMPE     H14S     HAL2     0.900000E-01   1.00800           0
     43305 MEMB     348      PMPE     C215     CTL2    -0.180000       12.0110           0
     43306 MEMB     348      PMPE     H15R     HAL2     0.900000E-01   1.00800           0
     43307 MEMB     348      PMPE     H15S     HAL2     0.900000E-01   1.00800           0
     43308 MEMB     348      PMPE     C216     CTL3    -0.270000       12.0110           0
     43309 MEMB     348      PMPE     H16R     HAL3     0.900000E-01   1.00800           0
     43310 MEMB     348      PMPE     H16S     HAL3     0.900000E-01   1.00800           0
     43311 MEMB     348      PMPE     H16T     HAL3     0.900000E-01   1.00800           0
     43312 MEMB     348      PMPE     C33      CTL2    -0.180000       12.0110           0
     43313 MEMB     348      PMPE     H3X      HAL2     0.900000E-01   1.00800           0
     43314 MEMB     348      PMPE     H3Y      HAL2     0.900000E-01   1.00800           0
     43315 MEMB     348      PMPE     C34      CTL2    -0.180000       12.0110           0
     43316 MEMB     348      PMPE     H4X      HAL2     0.900000E-01   1.00800           0
     43317 MEMB     348      PMPE     H4Y      HAL2     0.900000E-01   1.00800           0
     43318 MEMB     348      PMPE     C35      CTL2    -0.180000       12.0110           0
     43319 MEMB     348      PMPE     H5X      HAL2     0.900000E-01   1.00800           0
     43320 MEMB     348      PMPE     H5Y      HAL2     0.900000E-01   1.00800           0
     43321 MEMB     348      PMPE     C36      CTL2    -0.180000       12.0110           0
     43322 MEMB     348      PMPE     H6X      HAL2     0.900000E-01   1.00800           0
     43323 MEMB     348      PMPE     H6Y      HAL2     0.900000E-01   1.00800           0
     43324 MEMB     348      PMPE     C37      CTL2    -0.180000       12.0110           0
     43325 MEMB     348      PMPE     H7X      HAL2     0.900000E-01   1.00800           0
     43326 MEMB     348      PMPE     H7Y      HAL2     0.900000E-01   1.00800           0
     43327 MEMB     348      PMPE     C38      CTL2    -0.180000       12.0110           0
     43328 MEMB     348      PMPE     H8X      HAL2     0.900000E-01   1.00800           0
     43329 MEMB     348      PMPE     H8Y      HAL2     0.900000E-01   1.00800           0
     43330 MEMB     348      PMPE     C39      CTL2    -0.180000       12.0110           0
     43331 MEMB     348      PMPE     H9X      HAL2     0.900000E-01   1.00800           0
     43332 MEMB     348      PMPE     H9Y      HAL2     0.900000E-01   1.00800           0
     43333 MEMB     348      PMPE     C310     CTL2    -0.180000       12.0110           0
     43334 MEMB     348      PMPE     H10X     HAL2     0.900000E-01   1.00800           0
     43335 MEMB     348      PMPE     H10Y     HAL2     0.900000E-01   1.00800           0
     43336 MEMB     348      PMPE     C311     CTL2    -0.180000       12.0110           0
     43337 MEMB     348      PMPE     H11X     HAL2     0.900000E-01   1.00800           0
     43338 MEMB     348      PMPE     H11Y     HAL2     0.900000E-01   1.00800           0
     43339 MEMB     348      PMPE     C312     CTL2    -0.180000       12.0110           0
     43340 MEMB     348      PMPE     H12X     HAL2     0.900000E-01   1.00800           0
     43341 MEMB     348      PMPE     H12Y     HAL2     0.900000E-01   1.00800           0
     43342 MEMB     348      PMPE     C313     CTL2    -0.180000       12.0110           0
     43343 MEMB     348      PMPE     H13X     HAL2     0.900000E-01   1.00800           0
     43344 MEMB     348      PMPE     H13Y     HAL2     0.900000E-01   1.00800           0
     43345 MEMB     348      PMPE     C314     CTL2    -0.180000       12.0110           0
     43346 MEMB     348      PMPE     H14X     HAL2     0.900000E-01   1.00800           0
     43347 MEMB     348      PMPE     H14Y     HAL2     0.900000E-01   1.00800           0
     43348 MEMB     348      PMPE     C315     CTL2    -0.180000       12.0110           0
     43349 MEMB     348      PMPE     H15X     HAL2     0.900000E-01   1.00800           0
     43350 MEMB     348      PMPE     H15Y     HAL2     0.900000E-01   1.00800           0
     43351 MEMB     348      PMPE     C316     CTL3    -0.270000       12.0110           0
     43352 MEMB     348      PMPE     H16X     HAL3     0.900000E-01   1.00800           0
     43353 MEMB     348      PMPE     H16Y     HAL3     0.900000E-01   1.00800           0
     43354 MEMB     348      PMPE     H16Z     HAL3     0.900000E-01   1.00800           0
     43355 MEMB     349      POPE     N        NH3L    -0.300000       14.0070           0
     43356 MEMB     349      POPE     HN1      HCL      0.330000       1.00800           0
     43357 MEMB     349      POPE     HN2      HCL      0.330000       1.00800           0
     43358 MEMB     349      POPE     HN3      HCL      0.330000       1.00800           0
     43359 MEMB     349      POPE     C12      CTL2     0.130000       12.0110           0
     43360 MEMB     349      POPE     H12A     HAL2     0.900000E-01   1.00800           0
     43361 MEMB     349      POPE     H12B     HAL2     0.900000E-01   1.00800           0
     43362 MEMB     349      POPE     C11      CTL2    -0.800000E-01   12.0110           0
     43363 MEMB     349      POPE     H11A     HAL2     0.900000E-01   1.00800           0
     43364 MEMB     349      POPE     H11B     HAL2     0.900000E-01   1.00800           0
     43365 MEMB     349      POPE     P        PL        1.50000       30.9740           0
     43366 MEMB     349      POPE     O13      O2L     -0.780000       15.9994           0
     43367 MEMB     349      POPE     O14      O2L     -0.780000       15.9994           0
     43368 MEMB     349      POPE     O11      OSLP    -0.570000       15.9994           0
     43369 MEMB     349      POPE     O12      OSLP    -0.570000       15.9994           0
     43370 MEMB     349      POPE     C1       CTL2    -0.800000E-01   12.0110           0
     43371 MEMB     349      POPE     HA       HAL2     0.900000E-01   1.00800           0
     43372 MEMB     349      POPE     HB       HAL2     0.900000E-01   1.00800           0
     43373 MEMB     349      POPE     C2       CTL1     0.170000       12.0110           0
     43374 MEMB     349      POPE     HS       HAL1     0.900000E-01   1.00800           0
     43375 MEMB     349      POPE     O21      OSL     -0.490000       15.9994           0
     43376 MEMB     349      POPE     C21      CL       0.900000       12.0110           0
     43377 MEMB     349      POPE     O22      OBL     -0.630000       15.9994           0
     43378 MEMB     349      POPE     C22      CTL2    -0.220000       12.0110           0
     43379 MEMB     349      POPE     H2R      HAL2     0.900000E-01   1.00800           0
     43380 MEMB     349      POPE     H2S      HAL2     0.900000E-01   1.00800           0
     43381 MEMB     349      POPE     C3       CTL2     0.800000E-01   12.0110           0
     43382 MEMB     349      POPE     HX       HAL2     0.900000E-01   1.00800           0
     43383 MEMB     349      POPE     HY       HAL2     0.900000E-01   1.00800           0
     43384 MEMB     349      POPE     O31      OSL     -0.490000       15.9994           0
     43385 MEMB     349      POPE     C31      CL       0.900000       12.0110           0
     43386 MEMB     349      POPE     O32      OBL     -0.630000       15.9994           0
     43387 MEMB     349      POPE     C32      CTL2    -0.220000       12.0110           0
     43388 MEMB     349      POPE     H2X      HAL2     0.900000E-01   1.00800           0
     43389 MEMB     349      POPE     H2Y      HAL2     0.900000E-01   1.00800           0
     43390 MEMB     349      POPE     C23      CTL2    -0.180000       12.0110           0
     43391 MEMB     349      POPE     H3R      HAL2     0.900000E-01   1.00800           0
     43392 MEMB     349      POPE     H3S      HAL2     0.900000E-01   1.00800           0
     43393 MEMB     349      POPE     C24      CTL2    -0.180000       12.0110           0
     43394 MEMB     349      POPE     H4R      HAL2     0.900000E-01   1.00800           0
     43395 MEMB     349      POPE     H4S      HAL2     0.900000E-01   1.00800           0
     43396 MEMB     349      POPE     C25      CTL2    -0.180000       12.0110           0
     43397 MEMB     349      POPE     H5R      HAL2     0.900000E-01   1.00800           0
     43398 MEMB     349      POPE     H5S      HAL2     0.900000E-01   1.00800           0
     43399 MEMB     349      POPE     C26      CTL2    -0.180000       12.0110           0
     43400 MEMB     349      POPE     H6R      HAL2     0.900000E-01   1.00800           0
     43401 MEMB     349      POPE     H6S      HAL2     0.900000E-01   1.00800           0
     43402 MEMB     349      POPE     C27      CTL2    -0.180000       12.0110           0
     43403 MEMB     349      POPE     H7R      HAL2     0.900000E-01   1.00800           0
     43404 MEMB     349      POPE     H7S      HAL2     0.900000E-01   1.00800           0
     43405 MEMB     349      POPE     C28      CTL2    -0.180000       12.0110           0
     43406 MEMB     349      POPE     H8R      HAL2     0.900000E-01   1.00800           0
     43407 MEMB     349      POPE     H8S      HAL2     0.900000E-01   1.00800           0
     43408 MEMB     349      POPE     C29      CEL1    -0.150000       12.0110           0
     43409 MEMB     349      POPE     H91      HEL1     0.150000       1.00800           0
     43410 MEMB     349      POPE     C210     CEL1    -0.150000       12.0110           0
     43411 MEMB     349      POPE     H101     HEL1     0.150000       1.00800           0
     43412 MEMB     349      POPE     C211     CTL2    -0.180000       12.0110           0
     43413 MEMB     349      POPE     H11R     HAL2     0.900000E-01   1.00800           0
     43414 MEMB     349      POPE     H11S     HAL2     0.900000E-01   1.00800           0
     43415 MEMB     349      POPE     C212     CTL2    -0.180000       12.0110           0
     43416 MEMB     349      POPE     H12R     HAL2     0.900000E-01   1.00800           0
     43417 MEMB     349      POPE     H12S     HAL2     0.900000E-01   1.00800           0
     43418 MEMB     349      POPE     C213     CTL2    -0.180000       12.0110           0
     43419 MEMB     349      POPE     H13R     HAL2     0.900000E-01   1.00800           0
     43420 MEMB     349      POPE     H13S     HAL2     0.900000E-01   1.00800           0
     43421 MEMB     349      POPE     C214     CTL2    -0.180000       12.0110           0
     43422 MEMB     349      POPE     H14R     HAL2     0.900000E-01   1.00800           0
     43423 MEMB     349      POPE     H14S     HAL2     0.900000E-01   1.00800           0
     43424 MEMB     349      POPE     C215     CTL2    -0.180000       12.0110           0
     43425 MEMB     349      POPE     H15R     HAL2     0.900000E-01   1.00800           0
     43426 MEMB     349      POPE     H15S     HAL2     0.900000E-01   1.00800           0
     43427 MEMB     349      POPE     C216     CTL2    -0.180000       12.0110           0
     43428 MEMB     349      POPE     H16R     HAL2     0.900000E-01   1.00800           0
     43429 MEMB     349      POPE     H16S     HAL2     0.900000E-01   1.00800           0
     43430 MEMB     349      POPE     C217     CTL2    -0.180000       12.0110           0
     43431 MEMB     349      POPE     H17R     HAL2     0.900000E-01   1.00800           0
     43432 MEMB     349      POPE     H17S     HAL2     0.900000E-01   1.00800           0
     43433 MEMB     349      POPE     C218     CTL3    -0.270000       12.0110           0
     43434 MEMB     349      POPE     H18R     HAL3     0.900000E-01   1.00800           0
     43435 MEMB     349      POPE     H18S     HAL3     0.900000E-01   1.00800           0
     43436 MEMB     349      POPE     H18T     HAL3     0.900000E-01   1.00800           0
     43437 MEMB     349      POPE     C33      CTL2    -0.180000       12.0110           0
     43438 MEMB     349      POPE     H3X      HAL2     0.900000E-01   1.00800           0
     43439 MEMB     349      POPE     H3Y      HAL2     0.900000E-01   1.00800           0
     43440 MEMB     349      POPE     C34      CTL2    -0.180000       12.0110           0
     43441 MEMB     349      POPE     H4X      HAL2     0.900000E-01   1.00800           0
     43442 MEMB     349      POPE     H4Y      HAL2     0.900000E-01   1.00800           0
     43443 MEMB     349      POPE     C35      CTL2    -0.180000       12.0110           0
     43444 MEMB     349      POPE     H5X      HAL2     0.900000E-01   1.00800           0
     43445 MEMB     349      POPE     H5Y      HAL2     0.900000E-01   1.00800           0
     43446 MEMB     349      POPE     C36      CTL2    -0.180000       12.0110           0
     43447 MEMB     349      POPE     H6X      HAL2     0.900000E-01   1.00800           0
     43448 MEMB     349      POPE     H6Y      HAL2     0.900000E-01   1.00800           0
     43449 MEMB     349      POPE     C37      CTL2    -0.180000       12.0110           0
     43450 MEMB     349      POPE     H7X      HAL2     0.900000E-01   1.00800           0
     43451 MEMB     349      POPE     H7Y      HAL2     0.900000E-01   1.00800           0
     43452 MEMB     349      POPE     C38      CTL2    -0.180000       12.0110           0
     43453 MEMB     349      POPE     H8X      HAL2     0.900000E-01   1.00800           0
     43454 MEMB     349      POPE     H8Y      HAL2     0.900000E-01   1.00800           0
     43455 MEMB     349      POPE     C39      CTL2    -0.180000       12.0110           0
     43456 MEMB     349      POPE     H9X      HAL2     0.900000E-01   1.00800           0
     43457 MEMB     349      POPE     H9Y      HAL2     0.900000E-01   1.00800           0
     43458 MEMB     349      POPE     C310     CTL2    -0.180000       12.0110           0
     43459 MEMB     349      POPE     H10X     HAL2     0.900000E-01   1.00800           0
     43460 MEMB     349      POPE     H10Y     HAL2     0.900000E-01   1.00800           0
     43461 MEMB     349      POPE     C311     CTL2    -0.180000       12.0110           0
     43462 MEMB     349      POPE     H11X     HAL2     0.900000E-01   1.00800           0
     43463 MEMB     349      POPE     H11Y     HAL2     0.900000E-01   1.00800           0
     43464 MEMB     349      POPE     C312     CTL2    -0.180000       12.0110           0
     43465 MEMB     349      POPE     H12X     HAL2     0.900000E-01   1.00800           0
     43466 MEMB     349      POPE     H12Y     HAL2     0.900000E-01   1.00800           0
     43467 MEMB     349      POPE     C313     CTL2    -0.180000       12.0110           0
     43468 MEMB     349      POPE     H13X     HAL2     0.900000E-01   1.00800           0
     43469 MEMB     349      POPE     H13Y     HAL2     0.900000E-01   1.00800           0
     43470 MEMB     349      POPE     C314     CTL2    -0.180000       12.0110           0
     43471 MEMB     349      POPE     H14X     HAL2     0.900000E-01   1.00800           0
     43472 MEMB     349      POPE     H14Y     HAL2     0.900000E-01   1.00800           0
     43473 MEMB     349      POPE     C315     CTL2    -0.180000       12.0110           0
     43474 MEMB     349      POPE     H15X     HAL2     0.900000E-01   1.00800           0
     43475 MEMB     349      POPE     H15Y     HAL2     0.900000E-01   1.00800           0
     43476 MEMB     349      POPE     C316     CTL3    -0.270000       12.0110           0
     43477 MEMB     349      POPE     H16X     HAL3     0.900000E-01   1.00800           0
     43478 MEMB     349      POPE     H16Y     HAL3     0.900000E-01   1.00800           0
     43479 MEMB     349      POPE     H16Z     HAL3     0.900000E-01   1.00800           0
     43480 MEMB     350      QMPE     N        NH3L    -0.300000       14.0070           0
     43481 MEMB     350      QMPE     HN1      HCL      0.330000       1.00800           0
     43482 MEMB     350      QMPE     HN2      HCL      0.330000       1.00800           0
     43483 MEMB     350      QMPE     HN3      HCL      0.330000       1.00800           0
     43484 MEMB     350      QMPE     C12      CTL2     0.130000       12.0110           0
     43485 MEMB     350      QMPE     H12A     HAL2     0.900000E-01   1.00800           0
     43486 MEMB     350      QMPE     H12B     HAL2     0.900000E-01   1.00800           0
     43487 MEMB     350      QMPE     C11      CTL2    -0.800000E-01   12.0110           0
     43488 MEMB     350      QMPE     H11A     HAL2     0.900000E-01   1.00800           0
     43489 MEMB     350      QMPE     H11B     HAL2     0.900000E-01   1.00800           0
     43490 MEMB     350      QMPE     P        PL        1.50000       30.9740           0
     43491 MEMB     350      QMPE     O13      O2L     -0.780000       15.9994           0
     43492 MEMB     350      QMPE     O14      O2L     -0.780000       15.9994           0
     43493 MEMB     350      QMPE     O11      OSLP    -0.570000       15.9994           0
     43494 MEMB     350      QMPE     O12      OSLP    -0.570000       15.9994           0
     43495 MEMB     350      QMPE     C1       CTL2    -0.800000E-01   12.0110           0
     43496 MEMB     350      QMPE     HA       HAL2     0.900000E-01   1.00800           0
     43497 MEMB     350      QMPE     HB       HAL2     0.900000E-01   1.00800           0
     43498 MEMB     350      QMPE     C2       CTL1     0.170000       12.0110           0
     43499 MEMB     350      QMPE     HS       HAL1     0.900000E-01   1.00800           0
     43500 MEMB     350      QMPE     O21      OSL     -0.490000       15.9994           0
     43501 MEMB     350      QMPE     C21      CL       0.900000       12.0110           0
     43502 MEMB     350      QMPE     O22      OBL     -0.630000       15.9994           0
     43503 MEMB     350      QMPE     C22      CTL2    -0.220000       12.0110           0
     43504 MEMB     350      QMPE     H2R      HAL2     0.900000E-01   1.00800           0
     43505 MEMB     350      QMPE     H2S      HAL2     0.900000E-01   1.00800           0
     43506 MEMB     350      QMPE     C3       CTL2     0.800000E-01   12.0110           0
     43507 MEMB     350      QMPE     HX       HAL2     0.900000E-01   1.00800           0
     43508 MEMB     350      QMPE     HY       HAL2     0.900000E-01   1.00800           0
     43509 MEMB     350      QMPE     O31      OSL     -0.490000       15.9994           0
     43510 MEMB     350      QMPE     C31      CL       0.900000       12.0110           0
     43511 MEMB     350      QMPE     O32      OBL     -0.630000       15.9994           0
     43512 MEMB     350      QMPE     C32      CTL2    -0.220000       12.0110           0
     43513 MEMB     350      QMPE     H2X      HAL2     0.900000E-01   1.00800           0
     43514 MEMB     350      QMPE     H2Y      HAL2     0.900000E-01   1.00800           0
     43515 MEMB     350      QMPE     C23      CTL2    -0.180000       12.0110           0
     43516 MEMB     350      QMPE     H3R      HAL2     0.900000E-01   1.00800           0
     43517 MEMB     350      QMPE     H3S      HAL2     0.900000E-01   1.00800           0
     43518 MEMB     350      QMPE     C24      CTL2    -0.180000       12.0110           0
     43519 MEMB     350      QMPE     H4R      HAL2     0.900000E-01   1.00800           0
     43520 MEMB     350      QMPE     H4S      HAL2     0.900000E-01   1.00800           0
     43521 MEMB     350      QMPE     C25      CTL2    -0.180000       12.0110           0
     43522 MEMB     350      QMPE     H5R      HAL2     0.900000E-01   1.00800           0
     43523 MEMB     350      QMPE     H5S      HAL2     0.900000E-01   1.00800           0
     43524 MEMB     350      QMPE     C26      CTL2    -0.180000       12.0110           0
     43525 MEMB     350      QMPE     H6R      HAL2     0.900000E-01   1.00800           0
     43526 MEMB     350      QMPE     H6S      HAL2     0.900000E-01   1.00800           0
     43527 MEMB     350      QMPE     C27      CTL2    -0.180000       12.0110           0
     43528 MEMB     350      QMPE     H7R      HAL2     0.900000E-01   1.00800           0
     43529 MEMB     350      QMPE     H7S      HAL2     0.900000E-01   1.00800           0
     43530 MEMB     350      QMPE     C28      CTL2    -0.180000       12.0110           0
     43531 MEMB     350      QMPE     H8R      HAL2     0.900000E-01   1.00800           0
     43532 MEMB     350      QMPE     H8S      HAL2     0.900000E-01   1.00800           0
     43533 MEMB     350      QMPE     C29      CG3RC1  -0.900000E-01   12.0110           0
     43534 MEMB     350      QMPE     H9R      HGA1     0.900000E-01   1.00800           0
     43535 MEMB     350      QMPE     C217     CG3C31  -0.180000       12.0110           0
     43536 MEMB     350      QMPE     H17R     HGA2     0.900000E-01   1.00800           0
     43537 MEMB     350      QMPE     H17S     HGA2     0.900000E-01   1.00800           0
     43538 MEMB     350      QMPE     C210     CG3RC1  -0.900000E-01   12.0110           0
     43539 MEMB     350      QMPE     H10R     HGA1     0.900000E-01   1.00800           0
     43540 MEMB     350      QMPE     C211     CTL2    -0.180000       12.0110           0
     43541 MEMB     350      QMPE     H11R     HAL2     0.900000E-01   1.00800           0
     43542 MEMB     350      QMPE     H11S     HAL2     0.900000E-01   1.00800           0
     43543 MEMB     350      QMPE     C212     CTL2    -0.180000       12.0110           0
     43544 MEMB     350      QMPE     H12R     HAL2     0.900000E-01   1.00800           0
     43545 MEMB     350      QMPE     H12S     HAL2     0.900000E-01   1.00800           0
     43546 MEMB     350      QMPE     C213     CTL2    -0.180000       12.0110           0
     43547 MEMB     350      QMPE     H13R     HAL2     0.900000E-01   1.00800           0
     43548 MEMB     350      QMPE     H13S     HAL2     0.900000E-01   1.00800           0
     43549 MEMB     350      QMPE     C214     CTL2    -0.180000       12.0110           0
     43550 MEMB     350      QMPE     H14R     HAL2     0.900000E-01   1.00800           0
     43551 MEMB     350      QMPE     H14S     HAL2     0.900000E-01   1.00800           0
     43552 MEMB     350      QMPE     C215     CTL2    -0.180000       12.0110           0
     43553 MEMB     350      QMPE     H15R     HAL2     0.900000E-01   1.00800           0
     43554 MEMB     350      QMPE     H15S     HAL2     0.900000E-01   1.00800           0
     43555 MEMB     350      QMPE     C216     CTL3    -0.270000       12.0110           0
     43556 MEMB     350      QMPE     H16R     HAL3     0.900000E-01   1.00800           0
     43557 MEMB     350      QMPE     H16S     HAL3     0.900000E-01   1.00800           0
     43558 MEMB     350      QMPE     H16T     HAL3     0.900000E-01   1.00800           0
     43559 MEMB     350      QMPE     C33      CTL2    -0.180000       12.0110           0
     43560 MEMB     350      QMPE     H3X      HAL2     0.900000E-01   1.00800           0
     43561 MEMB     350      QMPE     H3Y      HAL2     0.900000E-01   1.00800           0
     43562 MEMB     350      QMPE     C34      CTL2    -0.180000       12.0110           0
     43563 MEMB     350      QMPE     H4X      HAL2     0.900000E-01   1.00800           0
     43564 MEMB     350      QMPE     H4Y      HAL2     0.900000E-01   1.00800           0
     43565 MEMB     350      QMPE     C35      CTL2    -0.180000       12.0110           0
     43566 MEMB     350      QMPE     H5X      HAL2     0.900000E-01   1.00800           0
     43567 MEMB     350      QMPE     H5Y      HAL2     0.900000E-01   1.00800           0
     43568 MEMB     350      QMPE     C36      CTL2    -0.180000       12.0110           0
     43569 MEMB     350      QMPE     H6X      HAL2     0.900000E-01   1.00800           0
     43570 MEMB     350      QMPE     H6Y      HAL2     0.900000E-01   1.00800           0
     43571 MEMB     350      QMPE     C37      CTL2    -0.180000       12.0110           0
     43572 MEMB     350      QMPE     H7X      HAL2     0.900000E-01   1.00800           0
     43573 MEMB     350      QMPE     H7Y      HAL2     0.900000E-01   1.00800           0
     43574 MEMB     350      QMPE     C38      CTL2    -0.180000       12.0110           0
     43575 MEMB     350      QMPE     H8X      HAL2     0.900000E-01   1.00800           0
     43576 MEMB     350      QMPE     H8Y      HAL2     0.900000E-01   1.00800           0
     43577 MEMB     350      QMPE     C39      CTL2    -0.180000       12.0110           0
     43578 MEMB     350      QMPE     H9X      HAL2     0.900000E-01   1.00800           0
     43579 MEMB     350      QMPE     H9Y      HAL2     0.900000E-01   1.00800           0
     43580 MEMB     350      QMPE     C310     CTL2    -0.180000       12.0110           0
     43581 MEMB     350      QMPE     H10X     HAL2     0.900000E-01   1.00800           0
     43582 MEMB     350      QMPE     H10Y     HAL2     0.900000E-01   1.00800           0
     43583 MEMB     350      QMPE     C311     CTL2    -0.180000       12.0110           0
     43584 MEMB     350      QMPE     H11X     HAL2     0.900000E-01   1.00800           0
     43585 MEMB     350      QMPE     H11Y     HAL2     0.900000E-01   1.00800           0
     43586 MEMB     350      QMPE     C312     CTL2    -0.180000       12.0110           0
     43587 MEMB     350      QMPE     H12X     HAL2     0.900000E-01   1.00800           0
     43588 MEMB     350      QMPE     H12Y     HAL2     0.900000E-01   1.00800           0
     43589 MEMB     350      QMPE     C313     CTL2    -0.180000       12.0110           0
     43590 MEMB     350      QMPE     H13X     HAL2     0.900000E-01   1.00800           0
     43591 MEMB     350      QMPE     H13Y     HAL2     0.900000E-01   1.00800           0
     43592 MEMB     350      QMPE     C314     CTL2    -0.180000       12.0110           0
     43593 MEMB     350      QMPE     H14X     HAL2     0.900000E-01   1.00800           0
     43594 MEMB     350      QMPE     H14Y     HAL2     0.900000E-01   1.00800           0
     43595 MEMB     350      QMPE     C315     CTL3    -0.270000       12.0110           0
     43596 MEMB     350      QMPE     H15X     HAL3     0.900000E-01   1.00800           0
     43597 MEMB     350      QMPE     H15Y     HAL3     0.900000E-01   1.00800           0
     43598 MEMB     350      QMPE     H15Z     HAL3     0.900000E-01   1.00800           0
     43599 MEMB     351      POPE     N        NH3L    -0.300000       14.0070           0
     43600 MEMB     351      POPE     HN1      HCL      0.330000       1.00800           0
     43601 MEMB     351      POPE     HN2      HCL      0.330000       1.00800           0
     43602 MEMB     351      POPE     HN3      HCL      0.330000       1.00800           0
     43603 MEMB     351      POPE     C12      CTL2     0.130000       12.0110           0
     43604 MEMB     351      POPE     H12A     HAL2     0.900000E-01   1.00800           0
     43605 MEMB     351      POPE     H12B     HAL2     0.900000E-01   1.00800           0
     43606 MEMB     351      POPE     C11      CTL2    -0.800000E-01   12.0110           0
     43607 MEMB     351      POPE     H11A     HAL2     0.900000E-01   1.00800           0
     43608 MEMB     351      POPE     H11B     HAL2     0.900000E-01   1.00800           0
     43609 MEMB     351      POPE     P        PL        1.50000       30.9740           0
     43610 MEMB     351      POPE     O13      O2L     -0.780000       15.9994           0
     43611 MEMB     351      POPE     O14      O2L     -0.780000       15.9994           0
     43612 MEMB     351      POPE     O11      OSLP    -0.570000       15.9994           0
     43613 MEMB     351      POPE     O12      OSLP    -0.570000       15.9994           0
     43614 MEMB     351      POPE     C1       CTL2    -0.800000E-01   12.0110           0
     43615 MEMB     351      POPE     HA       HAL2     0.900000E-01   1.00800           0
     43616 MEMB     351      POPE     HB       HAL2     0.900000E-01   1.00800           0
     43617 MEMB     351      POPE     C2       CTL1     0.170000       12.0110           0
     43618 MEMB     351      POPE     HS       HAL1     0.900000E-01   1.00800           0
     43619 MEMB     351      POPE     O21      OSL     -0.490000       15.9994           0
     43620 MEMB     351      POPE     C21      CL       0.900000       12.0110           0
     43621 MEMB     351      POPE     O22      OBL     -0.630000       15.9994           0
     43622 MEMB     351      POPE     C22      CTL2    -0.220000       12.0110           0
     43623 MEMB     351      POPE     H2R      HAL2     0.900000E-01   1.00800           0
     43624 MEMB     351      POPE     H2S      HAL2     0.900000E-01   1.00800           0
     43625 MEMB     351      POPE     C3       CTL2     0.800000E-01   12.0110           0
     43626 MEMB     351      POPE     HX       HAL2     0.900000E-01   1.00800           0
     43627 MEMB     351      POPE     HY       HAL2     0.900000E-01   1.00800           0
     43628 MEMB     351      POPE     O31      OSL     -0.490000       15.9994           0
     43629 MEMB     351      POPE     C31      CL       0.900000       12.0110           0
     43630 MEMB     351      POPE     O32      OBL     -0.630000       15.9994           0
     43631 MEMB     351      POPE     C32      CTL2    -0.220000       12.0110           0
     43632 MEMB     351      POPE     H2X      HAL2     0.900000E-01   1.00800           0
     43633 MEMB     351      POPE     H2Y      HAL2     0.900000E-01   1.00800           0
     43634 MEMB     351      POPE     C23      CTL2    -0.180000       12.0110           0
     43635 MEMB     351      POPE     H3R      HAL2     0.900000E-01   1.00800           0
     43636 MEMB     351      POPE     H3S      HAL2     0.900000E-01   1.00800           0
     43637 MEMB     351      POPE     C24      CTL2    -0.180000       12.0110           0
     43638 MEMB     351      POPE     H4R      HAL2     0.900000E-01   1.00800           0
     43639 MEMB     351      POPE     H4S      HAL2     0.900000E-01   1.00800           0
     43640 MEMB     351      POPE     C25      CTL2    -0.180000       12.0110           0
     43641 MEMB     351      POPE     H5R      HAL2     0.900000E-01   1.00800           0
     43642 MEMB     351      POPE     H5S      HAL2     0.900000E-01   1.00800           0
     43643 MEMB     351      POPE     C26      CTL2    -0.180000       12.0110           0
     43644 MEMB     351      POPE     H6R      HAL2     0.900000E-01   1.00800           0
     43645 MEMB     351      POPE     H6S      HAL2     0.900000E-01   1.00800           0
     43646 MEMB     351      POPE     C27      CTL2    -0.180000       12.0110           0
     43647 MEMB     351      POPE     H7R      HAL2     0.900000E-01   1.00800           0
     43648 MEMB     351      POPE     H7S      HAL2     0.900000E-01   1.00800           0
     43649 MEMB     351      POPE     C28      CTL2    -0.180000       12.0110           0
     43650 MEMB     351      POPE     H8R      HAL2     0.900000E-01   1.00800           0
     43651 MEMB     351      POPE     H8S      HAL2     0.900000E-01   1.00800           0
     43652 MEMB     351      POPE     C29      CEL1    -0.150000       12.0110           0
     43653 MEMB     351      POPE     H91      HEL1     0.150000       1.00800           0
     43654 MEMB     351      POPE     C210     CEL1    -0.150000       12.0110           0
     43655 MEMB     351      POPE     H101     HEL1     0.150000       1.00800           0
     43656 MEMB     351      POPE     C211     CTL2    -0.180000       12.0110           0
     43657 MEMB     351      POPE     H11R     HAL2     0.900000E-01   1.00800           0
     43658 MEMB     351      POPE     H11S     HAL2     0.900000E-01   1.00800           0
     43659 MEMB     351      POPE     C212     CTL2    -0.180000       12.0110           0
     43660 MEMB     351      POPE     H12R     HAL2     0.900000E-01   1.00800           0
     43661 MEMB     351      POPE     H12S     HAL2     0.900000E-01   1.00800           0
     43662 MEMB     351      POPE     C213     CTL2    -0.180000       12.0110           0
     43663 MEMB     351      POPE     H13R     HAL2     0.900000E-01   1.00800           0
     43664 MEMB     351      POPE     H13S     HAL2     0.900000E-01   1.00800           0
     43665 MEMB     351      POPE     C214     CTL2    -0.180000       12.0110           0
     43666 MEMB     351      POPE     H14R     HAL2     0.900000E-01   1.00800           0
     43667 MEMB     351      POPE     H14S     HAL2     0.900000E-01   1.00800           0
     43668 MEMB     351      POPE     C215     CTL2    -0.180000       12.0110           0
     43669 MEMB     351      POPE     H15R     HAL2     0.900000E-01   1.00800           0
     43670 MEMB     351      POPE     H15S     HAL2     0.900000E-01   1.00800           0
     43671 MEMB     351      POPE     C216     CTL2    -0.180000       12.0110           0
     43672 MEMB     351      POPE     H16R     HAL2     0.900000E-01   1.00800           0
     43673 MEMB     351      POPE     H16S     HAL2     0.900000E-01   1.00800           0
     43674 MEMB     351      POPE     C217     CTL2    -0.180000       12.0110           0
     43675 MEMB     351      POPE     H17R     HAL2     0.900000E-01   1.00800           0
     43676 MEMB     351      POPE     H17S     HAL2     0.900000E-01   1.00800           0
     43677 MEMB     351      POPE     C218     CTL3    -0.270000       12.0110           0
     43678 MEMB     351      POPE     H18R     HAL3     0.900000E-01   1.00800           0
     43679 MEMB     351      POPE     H18S     HAL3     0.900000E-01   1.00800           0
     43680 MEMB     351      POPE     H18T     HAL3     0.900000E-01   1.00800           0
     43681 MEMB     351      POPE     C33      CTL2    -0.180000       12.0110           0
     43682 MEMB     351      POPE     H3X      HAL2     0.900000E-01   1.00800           0
     43683 MEMB     351      POPE     H3Y      HAL2     0.900000E-01   1.00800           0
     43684 MEMB     351      POPE     C34      CTL2    -0.180000       12.0110           0
     43685 MEMB     351      POPE     H4X      HAL2     0.900000E-01   1.00800           0
     43686 MEMB     351      POPE     H4Y      HAL2     0.900000E-01   1.00800           0
     43687 MEMB     351      POPE     C35      CTL2    -0.180000       12.0110           0
     43688 MEMB     351      POPE     H5X      HAL2     0.900000E-01   1.00800           0
     43689 MEMB     351      POPE     H5Y      HAL2     0.900000E-01   1.00800           0
     43690 MEMB     351      POPE     C36      CTL2    -0.180000       12.0110           0
     43691 MEMB     351      POPE     H6X      HAL2     0.900000E-01   1.00800           0
     43692 MEMB     351      POPE     H6Y      HAL2     0.900000E-01   1.00800           0
     43693 MEMB     351      POPE     C37      CTL2    -0.180000       12.0110           0
     43694 MEMB     351      POPE     H7X      HAL2     0.900000E-01   1.00800           0
     43695 MEMB     351      POPE     H7Y      HAL2     0.900000E-01   1.00800           0
     43696 MEMB     351      POPE     C38      CTL2    -0.180000       12.0110           0
     43697 MEMB     351      POPE     H8X      HAL2     0.900000E-01   1.00800           0
     43698 MEMB     351      POPE     H8Y      HAL2     0.900000E-01   1.00800           0
     43699 MEMB     351      POPE     C39      CTL2    -0.180000       12.0110           0
     43700 MEMB     351      POPE     H9X      HAL2     0.900000E-01   1.00800           0
     43701 MEMB     351      POPE     H9Y      HAL2     0.900000E-01   1.00800           0
     43702 MEMB     351      POPE     C310     CTL2    -0.180000       12.0110           0
     43703 MEMB     351      POPE     H10X     HAL2     0.900000E-01   1.00800           0
     43704 MEMB     351      POPE     H10Y     HAL2     0.900000E-01   1.00800           0
     43705 MEMB     351      POPE     C311     CTL2    -0.180000       12.0110           0
     43706 MEMB     351      POPE     H11X     HAL2     0.900000E-01   1.00800           0
     43707 MEMB     351      POPE     H11Y     HAL2     0.900000E-01   1.00800           0
     43708 MEMB     351      POPE     C312     CTL2    -0.180000       12.0110           0
     43709 MEMB     351      POPE     H12X     HAL2     0.900000E-01   1.00800           0
     43710 MEMB     351      POPE     H12Y     HAL2     0.900000E-01   1.00800           0
     43711 MEMB     351      POPE     C313     CTL2    -0.180000       12.0110           0
     43712 MEMB     351      POPE     H13X     HAL2     0.900000E-01   1.00800           0
     43713 MEMB     351      POPE     H13Y     HAL2     0.900000E-01   1.00800           0
     43714 MEMB     351      POPE     C314     CTL2    -0.180000       12.0110           0
     43715 MEMB     351      POPE     H14X     HAL2     0.900000E-01   1.00800           0
     43716 MEMB     351      POPE     H14Y     HAL2     0.900000E-01   1.00800           0
     43717 MEMB     351      POPE     C315     CTL2    -0.180000       12.0110           0
     43718 MEMB     351      POPE     H15X     HAL2     0.900000E-01   1.00800           0
     43719 MEMB     351      POPE     H15Y     HAL2     0.900000E-01   1.00800           0
     43720 MEMB     351      POPE     C316     CTL3    -0.270000       12.0110           0
     43721 MEMB     351      POPE     H16X     HAL3     0.900000E-01   1.00800           0
     43722 MEMB     351      POPE     H16Y     HAL3     0.900000E-01   1.00800           0
     43723 MEMB     351      POPE     H16Z     HAL3     0.900000E-01   1.00800           0
     43724 MEMB     352      PMPE     N        NH3L    -0.300000       14.0070           0
     43725 MEMB     352      PMPE     HN1      HCL      0.330000       1.00800           0
     43726 MEMB     352      PMPE     HN2      HCL      0.330000       1.00800           0
     43727 MEMB     352      PMPE     HN3      HCL      0.330000       1.00800           0
     43728 MEMB     352      PMPE     C12      CTL2     0.130000       12.0110           0
     43729 MEMB     352      PMPE     H12A     HAL2     0.900000E-01   1.00800           0
     43730 MEMB     352      PMPE     H12B     HAL2     0.900000E-01   1.00800           0
     43731 MEMB     352      PMPE     C11      CTL2    -0.800000E-01   12.0110           0
     43732 MEMB     352      PMPE     H11A     HAL2     0.900000E-01   1.00800           0
     43733 MEMB     352      PMPE     H11B     HAL2     0.900000E-01   1.00800           0
     43734 MEMB     352      PMPE     P        PL        1.50000       30.9740           0
     43735 MEMB     352      PMPE     O13      O2L     -0.780000       15.9994           0
     43736 MEMB     352      PMPE     O14      O2L     -0.780000       15.9994           0
     43737 MEMB     352      PMPE     O11      OSLP    -0.570000       15.9994           0
     43738 MEMB     352      PMPE     O12      OSLP    -0.570000       15.9994           0
     43739 MEMB     352      PMPE     C1       CTL2    -0.800000E-01   12.0110           0
     43740 MEMB     352      PMPE     HA       HAL2     0.900000E-01   1.00800           0
     43741 MEMB     352      PMPE     HB       HAL2     0.900000E-01   1.00800           0
     43742 MEMB     352      PMPE     C2       CTL1     0.170000       12.0110           0
     43743 MEMB     352      PMPE     HS       HAL1     0.900000E-01   1.00800           0
     43744 MEMB     352      PMPE     O21      OSL     -0.490000       15.9994           0
     43745 MEMB     352      PMPE     C21      CL       0.900000       12.0110           0
     43746 MEMB     352      PMPE     O22      OBL     -0.630000       15.9994           0
     43747 MEMB     352      PMPE     C22      CTL2    -0.220000       12.0110           0
     43748 MEMB     352      PMPE     H2R      HAL2     0.900000E-01   1.00800           0
     43749 MEMB     352      PMPE     H2S      HAL2     0.900000E-01   1.00800           0
     43750 MEMB     352      PMPE     C3       CTL2     0.800000E-01   12.0110           0
     43751 MEMB     352      PMPE     HX       HAL2     0.900000E-01   1.00800           0
     43752 MEMB     352      PMPE     HY       HAL2     0.900000E-01   1.00800           0
     43753 MEMB     352      PMPE     O31      OSL     -0.490000       15.9994           0
     43754 MEMB     352      PMPE     C31      CL       0.900000       12.0110           0
     43755 MEMB     352      PMPE     O32      OBL     -0.630000       15.9994           0
     43756 MEMB     352      PMPE     C32      CTL2    -0.220000       12.0110           0
     43757 MEMB     352      PMPE     H2X      HAL2     0.900000E-01   1.00800           0
     43758 MEMB     352      PMPE     H2Y      HAL2     0.900000E-01   1.00800           0
     43759 MEMB     352      PMPE     C23      CTL2    -0.180000       12.0110           0
     43760 MEMB     352      PMPE     H3R      HAL2     0.900000E-01   1.00800           0
     43761 MEMB     352      PMPE     H3S      HAL2     0.900000E-01   1.00800           0
     43762 MEMB     352      PMPE     C24      CTL2    -0.180000       12.0110           0
     43763 MEMB     352      PMPE     H4R      HAL2     0.900000E-01   1.00800           0
     43764 MEMB     352      PMPE     H4S      HAL2     0.900000E-01   1.00800           0
     43765 MEMB     352      PMPE     C25      CTL2    -0.180000       12.0110           0
     43766 MEMB     352      PMPE     H5R      HAL2     0.900000E-01   1.00800           0
     43767 MEMB     352      PMPE     H5S      HAL2     0.900000E-01   1.00800           0
     43768 MEMB     352      PMPE     C26      CTL2    -0.180000       12.0110           0
     43769 MEMB     352      PMPE     H6R      HAL2     0.900000E-01   1.00800           0
     43770 MEMB     352      PMPE     H6S      HAL2     0.900000E-01   1.00800           0
     43771 MEMB     352      PMPE     C27      CTL2    -0.180000       12.0110           0
     43772 MEMB     352      PMPE     H7R      HAL2     0.900000E-01   1.00800           0
     43773 MEMB     352      PMPE     H7S      HAL2     0.900000E-01   1.00800           0
     43774 MEMB     352      PMPE     C28      CTL2    -0.180000       12.0110           0
     43775 MEMB     352      PMPE     H8R      HAL2     0.900000E-01   1.00800           0
     43776 MEMB     352      PMPE     H8S      HAL2     0.900000E-01   1.00800           0
     43777 MEMB     352      PMPE     C29      CG3RC1  -0.900000E-01   12.0110           0
     43778 MEMB     352      PMPE     H9R      HGA1     0.900000E-01   1.00800           0
     43779 MEMB     352      PMPE     C217     CG3C31  -0.180000       12.0110           0
     43780 MEMB     352      PMPE     H17R     HGA2     0.900000E-01   1.00800           0
     43781 MEMB     352      PMPE     H17S     HGA2     0.900000E-01   1.00800           0
     43782 MEMB     352      PMPE     C210     CG3RC1  -0.900000E-01   12.0110           0
     43783 MEMB     352      PMPE     H10R     HGA1     0.900000E-01   1.00800           0
     43784 MEMB     352      PMPE     C211     CTL2    -0.180000       12.0110           0
     43785 MEMB     352      PMPE     H11R     HAL2     0.900000E-01   1.00800           0
     43786 MEMB     352      PMPE     H11S     HAL2     0.900000E-01   1.00800           0
     43787 MEMB     352      PMPE     C212     CTL2    -0.180000       12.0110           0
     43788 MEMB     352      PMPE     H12R     HAL2     0.900000E-01   1.00800           0
     43789 MEMB     352      PMPE     H12S     HAL2     0.900000E-01   1.00800           0
     43790 MEMB     352      PMPE     C213     CTL2    -0.180000       12.0110           0
     43791 MEMB     352      PMPE     H13R     HAL2     0.900000E-01   1.00800           0
     43792 MEMB     352      PMPE     H13S     HAL2     0.900000E-01   1.00800           0
     43793 MEMB     352      PMPE     C214     CTL2    -0.180000       12.0110           0
     43794 MEMB     352      PMPE     H14R     HAL2     0.900000E-01   1.00800           0
     43795 MEMB     352      PMPE     H14S     HAL2     0.900000E-01   1.00800           0
     43796 MEMB     352      PMPE     C215     CTL2    -0.180000       12.0110           0
     43797 MEMB     352      PMPE     H15R     HAL2     0.900000E-01   1.00800           0
     43798 MEMB     352      PMPE     H15S     HAL2     0.900000E-01   1.00800           0
     43799 MEMB     352      PMPE     C216     CTL3    -0.270000       12.0110           0
     43800 MEMB     352      PMPE     H16R     HAL3     0.900000E-01   1.00800           0
     43801 MEMB     352      PMPE     H16S     HAL3     0.900000E-01   1.00800           0
     43802 MEMB     352      PMPE     H16T     HAL3     0.900000E-01   1.00800           0
     43803 MEMB     352      PMPE     C33      CTL2    -0.180000       12.0110           0
     43804 MEMB     352      PMPE     H3X      HAL2     0.900000E-01   1.00800           0
     43805 MEMB     352      PMPE     H3Y      HAL2     0.900000E-01   1.00800           0
     43806 MEMB     352      PMPE     C34      CTL2    -0.180000       12.0110           0
     43807 MEMB     352      PMPE     H4X      HAL2     0.900000E-01   1.00800           0
     43808 MEMB     352      PMPE     H4Y      HAL2     0.900000E-01   1.00800           0
     43809 MEMB     352      PMPE     C35      CTL2    -0.180000       12.0110           0
     43810 MEMB     352      PMPE     H5X      HAL2     0.900000E-01   1.00800           0
     43811 MEMB     352      PMPE     H5Y      HAL2     0.900000E-01   1.00800           0
     43812 MEMB     352      PMPE     C36      CTL2    -0.180000       12.0110           0
     43813 MEMB     352      PMPE     H6X      HAL2     0.900000E-01   1.00800           0
     43814 MEMB     352      PMPE     H6Y      HAL2     0.900000E-01   1.00800           0
     43815 MEMB     352      PMPE     C37      CTL2    -0.180000       12.0110           0
     43816 MEMB     352      PMPE     H7X      HAL2     0.900000E-01   1.00800           0
     43817 MEMB     352      PMPE     H7Y      HAL2     0.900000E-01   1.00800           0
     43818 MEMB     352      PMPE     C38      CTL2    -0.180000       12.0110           0
     43819 MEMB     352      PMPE     H8X      HAL2     0.900000E-01   1.00800           0
     43820 MEMB     352      PMPE     H8Y      HAL2     0.900000E-01   1.00800           0
     43821 MEMB     352      PMPE     C39      CTL2    -0.180000       12.0110           0
     43822 MEMB     352      PMPE     H9X      HAL2     0.900000E-01   1.00800           0
     43823 MEMB     352      PMPE     H9Y      HAL2     0.900000E-01   1.00800           0
     43824 MEMB     352      PMPE     C310     CTL2    -0.180000       12.0110           0
     43825 MEMB     352      PMPE     H10X     HAL2     0.900000E-01   1.00800           0
     43826 MEMB     352      PMPE     H10Y     HAL2     0.900000E-01   1.00800           0
     43827 MEMB     352      PMPE     C311     CTL2    -0.180000       12.0110           0
     43828 MEMB     352      PMPE     H11X     HAL2     0.900000E-01   1.00800           0
     43829 MEMB     352      PMPE     H11Y     HAL2     0.900000E-01   1.00800           0
     43830 MEMB     352      PMPE     C312     CTL2    -0.180000       12.0110           0
     43831 MEMB     352      PMPE     H12X     HAL2     0.900000E-01   1.00800           0
     43832 MEMB     352      PMPE     H12Y     HAL2     0.900000E-01   1.00800           0
     43833 MEMB     352      PMPE     C313     CTL2    -0.180000       12.0110           0
     43834 MEMB     352      PMPE     H13X     HAL2     0.900000E-01   1.00800           0
     43835 MEMB     352      PMPE     H13Y     HAL2     0.900000E-01   1.00800           0
     43836 MEMB     352      PMPE     C314     CTL2    -0.180000       12.0110           0
     43837 MEMB     352      PMPE     H14X     HAL2     0.900000E-01   1.00800           0
     43838 MEMB     352      PMPE     H14Y     HAL2     0.900000E-01   1.00800           0
     43839 MEMB     352      PMPE     C315     CTL2    -0.180000       12.0110           0
     43840 MEMB     352      PMPE     H15X     HAL2     0.900000E-01   1.00800           0
     43841 MEMB     352      PMPE     H15Y     HAL2     0.900000E-01   1.00800           0
     43842 MEMB     352      PMPE     C316     CTL3    -0.270000       12.0110           0
     43843 MEMB     352      PMPE     H16X     HAL3     0.900000E-01   1.00800           0
     43844 MEMB     352      PMPE     H16Y     HAL3     0.900000E-01   1.00800           0
     43845 MEMB     352      PMPE     H16Z     HAL3     0.900000E-01   1.00800           0
     43846 MEMB     353      PMPG     C13      CTL2     0.500000E-01   12.0110           0
     43847 MEMB     353      PMPG     H13A     HAL2     0.900000E-01   1.00800           0
     43848 MEMB     353      PMPG     H13B     HAL2     0.900000E-01   1.00800           0
     43849 MEMB     353      PMPG     OC3      OHL     -0.660000       15.9994           0
     43850 MEMB     353      PMPG     HO3      HOL      0.430000       1.00800           0
     43851 MEMB     353      PMPG     C12      CTL1     0.140000       12.0110           0
     43852 MEMB     353      PMPG     H12A     HAL1     0.900000E-01   1.00800           0
     43853 MEMB     353      PMPG     OC2      OHL     -0.660000       15.9994           0
     43854 MEMB     353      PMPG     HO2      HOL      0.430000       1.00800           0
     43855 MEMB     353      PMPG     C11      CTL2    -0.800000E-01   12.0110           0
     43856 MEMB     353      PMPG     H11A     HAL2     0.900000E-01   1.00800           0
     43857 MEMB     353      PMPG     H11B     HAL2     0.900000E-01   1.00800           0
     43858 MEMB     353      PMPG     P        PL        1.50000       30.9740           0
     43859 MEMB     353      PMPG     O13      O2L     -0.780000       15.9994           0
     43860 MEMB     353      PMPG     O14      O2L     -0.780000       15.9994           0
     43861 MEMB     353      PMPG     O11      OSLP    -0.570000       15.9994           0
     43862 MEMB     353      PMPG     O12      OSLP    -0.570000       15.9994           0
     43863 MEMB     353      PMPG     C1       CTL2    -0.800000E-01   12.0110           0
     43864 MEMB     353      PMPG     HA       HAL2     0.900000E-01   1.00800           0
     43865 MEMB     353      PMPG     HB       HAL2     0.900000E-01   1.00800           0
     43866 MEMB     353      PMPG     C2       CTL1     0.170000       12.0110           0
     43867 MEMB     353      PMPG     HS       HAL1     0.900000E-01   1.00800           0
     43868 MEMB     353      PMPG     O21      OSL     -0.490000       15.9994           0
     43869 MEMB     353      PMPG     C21      CL       0.900000       12.0110           0
     43870 MEMB     353      PMPG     O22      OBL     -0.630000       15.9994           0
     43871 MEMB     353      PMPG     C22      CTL2    -0.220000       12.0110           0
     43872 MEMB     353      PMPG     H2R      HAL2     0.900000E-01   1.00800           0
     43873 MEMB     353      PMPG     H2S      HAL2     0.900000E-01   1.00800           0
     43874 MEMB     353      PMPG     C3       CTL2     0.800000E-01   12.0110           0
     43875 MEMB     353      PMPG     HX       HAL2     0.900000E-01   1.00800           0
     43876 MEMB     353      PMPG     HY       HAL2     0.900000E-01   1.00800           0
     43877 MEMB     353      PMPG     O31      OSL     -0.490000       15.9994           0
     43878 MEMB     353      PMPG     C31      CL       0.900000       12.0110           0
     43879 MEMB     353      PMPG     O32      OBL     -0.630000       15.9994           0
     43880 MEMB     353      PMPG     C32      CTL2    -0.220000       12.0110           0
     43881 MEMB     353      PMPG     H2X      HAL2     0.900000E-01   1.00800           0
     43882 MEMB     353      PMPG     H2Y      HAL2     0.900000E-01   1.00800           0
     43883 MEMB     353      PMPG     C23      CTL2    -0.180000       12.0110           0
     43884 MEMB     353      PMPG     H3R      HAL2     0.900000E-01   1.00800           0
     43885 MEMB     353      PMPG     H3S      HAL2     0.900000E-01   1.00800           0
     43886 MEMB     353      PMPG     C24      CTL2    -0.180000       12.0110           0
     43887 MEMB     353      PMPG     H4R      HAL2     0.900000E-01   1.00800           0
     43888 MEMB     353      PMPG     H4S      HAL2     0.900000E-01   1.00800           0
     43889 MEMB     353      PMPG     C25      CTL2    -0.180000       12.0110           0
     43890 MEMB     353      PMPG     H5R      HAL2     0.900000E-01   1.00800           0
     43891 MEMB     353      PMPG     H5S      HAL2     0.900000E-01   1.00800           0
     43892 MEMB     353      PMPG     C26      CTL2    -0.180000       12.0110           0
     43893 MEMB     353      PMPG     H6R      HAL2     0.900000E-01   1.00800           0
     43894 MEMB     353      PMPG     H6S      HAL2     0.900000E-01   1.00800           0
     43895 MEMB     353      PMPG     C27      CTL2    -0.180000       12.0110           0
     43896 MEMB     353      PMPG     H7R      HAL2     0.900000E-01   1.00800           0
     43897 MEMB     353      PMPG     H7S      HAL2     0.900000E-01   1.00800           0
     43898 MEMB     353      PMPG     C28      CTL2    -0.180000       12.0110           0
     43899 MEMB     353      PMPG     H8R      HAL2     0.900000E-01   1.00800           0
     43900 MEMB     353      PMPG     H8S      HAL2     0.900000E-01   1.00800           0
     43901 MEMB     353      PMPG     C29      CG3RC1  -0.900000E-01   12.0110           0
     43902 MEMB     353      PMPG     H9R      HGA1     0.900000E-01   1.00800           0
     43903 MEMB     353      PMPG     C217     CG3C31  -0.180000       12.0110           0
     43904 MEMB     353      PMPG     H17R     HGA2     0.900000E-01   1.00800           0
     43905 MEMB     353      PMPG     H17S     HGA2     0.900000E-01   1.00800           0
     43906 MEMB     353      PMPG     C210     CG3RC1  -0.900000E-01   12.0110           0
     43907 MEMB     353      PMPG     H10R     HGA1     0.900000E-01   1.00800           0
     43908 MEMB     353      PMPG     C211     CTL2    -0.180000       12.0110           0
     43909 MEMB     353      PMPG     H11R     HAL2     0.900000E-01   1.00800           0
     43910 MEMB     353      PMPG     H11S     HAL2     0.900000E-01   1.00800           0
     43911 MEMB     353      PMPG     C212     CTL2    -0.180000       12.0110           0
     43912 MEMB     353      PMPG     H12R     HAL2     0.900000E-01   1.00800           0
     43913 MEMB     353      PMPG     H12S     HAL2     0.900000E-01   1.00800           0
     43914 MEMB     353      PMPG     C213     CTL2    -0.180000       12.0110           0
     43915 MEMB     353      PMPG     H13R     HAL2     0.900000E-01   1.00800           0
     43916 MEMB     353      PMPG     H13S     HAL2     0.900000E-01   1.00800           0
     43917 MEMB     353      PMPG     C214     CTL2    -0.180000       12.0110           0
     43918 MEMB     353      PMPG     H14R     HAL2     0.900000E-01   1.00800           0
     43919 MEMB     353      PMPG     H14S     HAL2     0.900000E-01   1.00800           0
     43920 MEMB     353      PMPG     C215     CTL2    -0.180000       12.0110           0
     43921 MEMB     353      PMPG     H15R     HAL2     0.900000E-01   1.00800           0
     43922 MEMB     353      PMPG     H15S     HAL2     0.900000E-01   1.00800           0
     43923 MEMB     353      PMPG     C216     CTL3    -0.270000       12.0110           0
     43924 MEMB     353      PMPG     H16R     HAL3     0.900000E-01   1.00800           0
     43925 MEMB     353      PMPG     H16S     HAL3     0.900000E-01   1.00800           0
     43926 MEMB     353      PMPG     H16T     HAL3     0.900000E-01   1.00800           0
     43927 MEMB     353      PMPG     C33      CTL2    -0.180000       12.0110           0
     43928 MEMB     353      PMPG     H3X      HAL2     0.900000E-01   1.00800           0
     43929 MEMB     353      PMPG     H3Y      HAL2     0.900000E-01   1.00800           0
     43930 MEMB     353      PMPG     C34      CTL2    -0.180000       12.0110           0
     43931 MEMB     353      PMPG     H4X      HAL2     0.900000E-01   1.00800           0
     43932 MEMB     353      PMPG     H4Y      HAL2     0.900000E-01   1.00800           0
     43933 MEMB     353      PMPG     C35      CTL2    -0.180000       12.0110           0
     43934 MEMB     353      PMPG     H5X      HAL2     0.900000E-01   1.00800           0
     43935 MEMB     353      PMPG     H5Y      HAL2     0.900000E-01   1.00800           0
     43936 MEMB     353      PMPG     C36      CTL2    -0.180000       12.0110           0
     43937 MEMB     353      PMPG     H6X      HAL2     0.900000E-01   1.00800           0
     43938 MEMB     353      PMPG     H6Y      HAL2     0.900000E-01   1.00800           0
     43939 MEMB     353      PMPG     C37      CTL2    -0.180000       12.0110           0
     43940 MEMB     353      PMPG     H7X      HAL2     0.900000E-01   1.00800           0
     43941 MEMB     353      PMPG     H7Y      HAL2     0.900000E-01   1.00800           0
     43942 MEMB     353      PMPG     C38      CTL2    -0.180000       12.0110           0
     43943 MEMB     353      PMPG     H8X      HAL2     0.900000E-01   1.00800           0
     43944 MEMB     353      PMPG     H8Y      HAL2     0.900000E-01   1.00800           0
     43945 MEMB     353      PMPG     C39      CTL2    -0.180000       12.0110           0
     43946 MEMB     353      PMPG     H9X      HAL2     0.900000E-01   1.00800           0
     43947 MEMB     353      PMPG     H9Y      HAL2     0.900000E-01   1.00800           0
     43948 MEMB     353      PMPG     C310     CTL2    -0.180000       12.0110           0
     43949 MEMB     353      PMPG     H10X     HAL2     0.900000E-01   1.00800           0
     43950 MEMB     353      PMPG     H10Y     HAL2     0.900000E-01   1.00800           0
     43951 MEMB     353      PMPG     C311     CTL2    -0.180000       12.0110           0
     43952 MEMB     353      PMPG     H11X     HAL2     0.900000E-01   1.00800           0
     43953 MEMB     353      PMPG     H11Y     HAL2     0.900000E-01   1.00800           0
     43954 MEMB     353      PMPG     C312     CTL2    -0.180000       12.0110           0
     43955 MEMB     353      PMPG     H12X     HAL2     0.900000E-01   1.00800           0
     43956 MEMB     353      PMPG     H12Y     HAL2     0.900000E-01   1.00800           0
     43957 MEMB     353      PMPG     C313     CTL2    -0.180000       12.0110           0
     43958 MEMB     353      PMPG     H13X     HAL2     0.900000E-01   1.00800           0
     43959 MEMB     353      PMPG     H13Y     HAL2     0.900000E-01   1.00800           0
     43960 MEMB     353      PMPG     C314     CTL2    -0.180000       12.0110           0
     43961 MEMB     353      PMPG     H14X     HAL2     0.900000E-01   1.00800           0
     43962 MEMB     353      PMPG     H14Y     HAL2     0.900000E-01   1.00800           0
     43963 MEMB     353      PMPG     C315     CTL2    -0.180000       12.0110           0
     43964 MEMB     353      PMPG     H15X     HAL2     0.900000E-01   1.00800           0
     43965 MEMB     353      PMPG     H15Y     HAL2     0.900000E-01   1.00800           0
     43966 MEMB     353      PMPG     C316     CTL3    -0.270000       12.0110           0
     43967 MEMB     353      PMPG     H16X     HAL3     0.900000E-01   1.00800           0
     43968 MEMB     353      PMPG     H16Y     HAL3     0.900000E-01   1.00800           0
     43969 MEMB     353      PMPG     H16Z     HAL3     0.900000E-01   1.00800           0
     43970 MEMB     354      PMPE     N        NH3L    -0.300000       14.0070           0
     43971 MEMB     354      PMPE     HN1      HCL      0.330000       1.00800           0
     43972 MEMB     354      PMPE     HN2      HCL      0.330000       1.00800           0
     43973 MEMB     354      PMPE     HN3      HCL      0.330000       1.00800           0
     43974 MEMB     354      PMPE     C12      CTL2     0.130000       12.0110           0
     43975 MEMB     354      PMPE     H12A     HAL2     0.900000E-01   1.00800           0
     43976 MEMB     354      PMPE     H12B     HAL2     0.900000E-01   1.00800           0
     43977 MEMB     354      PMPE     C11      CTL2    -0.800000E-01   12.0110           0
     43978 MEMB     354      PMPE     H11A     HAL2     0.900000E-01   1.00800           0
     43979 MEMB     354      PMPE     H11B     HAL2     0.900000E-01   1.00800           0
     43980 MEMB     354      PMPE     P        PL        1.50000       30.9740           0
     43981 MEMB     354      PMPE     O13      O2L     -0.780000       15.9994           0
     43982 MEMB     354      PMPE     O14      O2L     -0.780000       15.9994           0
     43983 MEMB     354      PMPE     O11      OSLP    -0.570000       15.9994           0
     43984 MEMB     354      PMPE     O12      OSLP    -0.570000       15.9994           0
     43985 MEMB     354      PMPE     C1       CTL2    -0.800000E-01   12.0110           0
     43986 MEMB     354      PMPE     HA       HAL2     0.900000E-01   1.00800           0
     43987 MEMB     354      PMPE     HB       HAL2     0.900000E-01   1.00800           0
     43988 MEMB     354      PMPE     C2       CTL1     0.170000       12.0110           0
     43989 MEMB     354      PMPE     HS       HAL1     0.900000E-01   1.00800           0
     43990 MEMB     354      PMPE     O21      OSL     -0.490000       15.9994           0
     43991 MEMB     354      PMPE     C21      CL       0.900000       12.0110           0
     43992 MEMB     354      PMPE     O22      OBL     -0.630000       15.9994           0
     43993 MEMB     354      PMPE     C22      CTL2    -0.220000       12.0110           0
     43994 MEMB     354      PMPE     H2R      HAL2     0.900000E-01   1.00800           0
     43995 MEMB     354      PMPE     H2S      HAL2     0.900000E-01   1.00800           0
     43996 MEMB     354      PMPE     C3       CTL2     0.800000E-01   12.0110           0
     43997 MEMB     354      PMPE     HX       HAL2     0.900000E-01   1.00800           0
     43998 MEMB     354      PMPE     HY       HAL2     0.900000E-01   1.00800           0
     43999 MEMB     354      PMPE     O31      OSL     -0.490000       15.9994           0
     44000 MEMB     354      PMPE     C31      CL       0.900000       12.0110           0
     44001 MEMB     354      PMPE     O32      OBL     -0.630000       15.9994           0
     44002 MEMB     354      PMPE     C32      CTL2    -0.220000       12.0110           0
     44003 MEMB     354      PMPE     H2X      HAL2     0.900000E-01   1.00800           0
     44004 MEMB     354      PMPE     H2Y      HAL2     0.900000E-01   1.00800           0
     44005 MEMB     354      PMPE     C23      CTL2    -0.180000       12.0110           0
     44006 MEMB     354      PMPE     H3R      HAL2     0.900000E-01   1.00800           0
     44007 MEMB     354      PMPE     H3S      HAL2     0.900000E-01   1.00800           0
     44008 MEMB     354      PMPE     C24      CTL2    -0.180000       12.0110           0
     44009 MEMB     354      PMPE     H4R      HAL2     0.900000E-01   1.00800           0
     44010 MEMB     354      PMPE     H4S      HAL2     0.900000E-01   1.00800           0
     44011 MEMB     354      PMPE     C25      CTL2    -0.180000       12.0110           0
     44012 MEMB     354      PMPE     H5R      HAL2     0.900000E-01   1.00800           0
     44013 MEMB     354      PMPE     H5S      HAL2     0.900000E-01   1.00800           0
     44014 MEMB     354      PMPE     C26      CTL2    -0.180000       12.0110           0
     44015 MEMB     354      PMPE     H6R      HAL2     0.900000E-01   1.00800           0
     44016 MEMB     354      PMPE     H6S      HAL2     0.900000E-01   1.00800           0
     44017 MEMB     354      PMPE     C27      CTL2    -0.180000       12.0110           0
     44018 MEMB     354      PMPE     H7R      HAL2     0.900000E-01   1.00800           0
     44019 MEMB     354      PMPE     H7S      HAL2     0.900000E-01   1.00800           0
     44020 MEMB     354      PMPE     C28      CTL2    -0.180000       12.0110           0
     44021 MEMB     354      PMPE     H8R      HAL2     0.900000E-01   1.00800           0
     44022 MEMB     354      PMPE     H8S      HAL2     0.900000E-01   1.00800           0
     44023 MEMB     354      PMPE     C29      CG3RC1  -0.900000E-01   12.0110           0
     44024 MEMB     354      PMPE     H9R      HGA1     0.900000E-01   1.00800           0
     44025 MEMB     354      PMPE     C217     CG3C31  -0.180000       12.0110           0
     44026 MEMB     354      PMPE     H17R     HGA2     0.900000E-01   1.00800           0
     44027 MEMB     354      PMPE     H17S     HGA2     0.900000E-01   1.00800           0
     44028 MEMB     354      PMPE     C210     CG3RC1  -0.900000E-01   12.0110           0
     44029 MEMB     354      PMPE     H10R     HGA1     0.900000E-01   1.00800           0
     44030 MEMB     354      PMPE     C211     CTL2    -0.180000       12.0110           0
     44031 MEMB     354      PMPE     H11R     HAL2     0.900000E-01   1.00800           0
     44032 MEMB     354      PMPE     H11S     HAL2     0.900000E-01   1.00800           0
     44033 MEMB     354      PMPE     C212     CTL2    -0.180000       12.0110           0
     44034 MEMB     354      PMPE     H12R     HAL2     0.900000E-01   1.00800           0
     44035 MEMB     354      PMPE     H12S     HAL2     0.900000E-01   1.00800           0
     44036 MEMB     354      PMPE     C213     CTL2    -0.180000       12.0110           0
     44037 MEMB     354      PMPE     H13R     HAL2     0.900000E-01   1.00800           0
     44038 MEMB     354      PMPE     H13S     HAL2     0.900000E-01   1.00800           0
     44039 MEMB     354      PMPE     C214     CTL2    -0.180000       12.0110           0
     44040 MEMB     354      PMPE     H14R     HAL2     0.900000E-01   1.00800           0
     44041 MEMB     354      PMPE     H14S     HAL2     0.900000E-01   1.00800           0
     44042 MEMB     354      PMPE     C215     CTL2    -0.180000       12.0110           0
     44043 MEMB     354      PMPE     H15R     HAL2     0.900000E-01   1.00800           0
     44044 MEMB     354      PMPE     H15S     HAL2     0.900000E-01   1.00800           0
     44045 MEMB     354      PMPE     C216     CTL3    -0.270000       12.0110           0
     44046 MEMB     354      PMPE     H16R     HAL3     0.900000E-01   1.00800           0
     44047 MEMB     354      PMPE     H16S     HAL3     0.900000E-01   1.00800           0
     44048 MEMB     354      PMPE     H16T     HAL3     0.900000E-01   1.00800           0
     44049 MEMB     354      PMPE     C33      CTL2    -0.180000       12.0110           0
     44050 MEMB     354      PMPE     H3X      HAL2     0.900000E-01   1.00800           0
     44051 MEMB     354      PMPE     H3Y      HAL2     0.900000E-01   1.00800           0
     44052 MEMB     354      PMPE     C34      CTL2    -0.180000       12.0110           0
     44053 MEMB     354      PMPE     H4X      HAL2     0.900000E-01   1.00800           0
     44054 MEMB     354      PMPE     H4Y      HAL2     0.900000E-01   1.00800           0
     44055 MEMB     354      PMPE     C35      CTL2    -0.180000       12.0110           0
     44056 MEMB     354      PMPE     H5X      HAL2     0.900000E-01   1.00800           0
     44057 MEMB     354      PMPE     H5Y      HAL2     0.900000E-01   1.00800           0
     44058 MEMB     354      PMPE     C36      CTL2    -0.180000       12.0110           0
     44059 MEMB     354      PMPE     H6X      HAL2     0.900000E-01   1.00800           0
     44060 MEMB     354      PMPE     H6Y      HAL2     0.900000E-01   1.00800           0
     44061 MEMB     354      PMPE     C37      CTL2    -0.180000       12.0110           0
     44062 MEMB     354      PMPE     H7X      HAL2     0.900000E-01   1.00800           0
     44063 MEMB     354      PMPE     H7Y      HAL2     0.900000E-01   1.00800           0
     44064 MEMB     354      PMPE     C38      CTL2    -0.180000       12.0110           0
     44065 MEMB     354      PMPE     H8X      HAL2     0.900000E-01   1.00800           0
     44066 MEMB     354      PMPE     H8Y      HAL2     0.900000E-01   1.00800           0
     44067 MEMB     354      PMPE     C39      CTL2    -0.180000       12.0110           0
     44068 MEMB     354      PMPE     H9X      HAL2     0.900000E-01   1.00800           0
     44069 MEMB     354      PMPE     H9Y      HAL2     0.900000E-01   1.00800           0
     44070 MEMB     354      PMPE     C310     CTL2    -0.180000       12.0110           0
     44071 MEMB     354      PMPE     H10X     HAL2     0.900000E-01   1.00800           0
     44072 MEMB     354      PMPE     H10Y     HAL2     0.900000E-01   1.00800           0
     44073 MEMB     354      PMPE     C311     CTL2    -0.180000       12.0110           0
     44074 MEMB     354      PMPE     H11X     HAL2     0.900000E-01   1.00800           0
     44075 MEMB     354      PMPE     H11Y     HAL2     0.900000E-01   1.00800           0
     44076 MEMB     354      PMPE     C312     CTL2    -0.180000       12.0110           0
     44077 MEMB     354      PMPE     H12X     HAL2     0.900000E-01   1.00800           0
     44078 MEMB     354      PMPE     H12Y     HAL2     0.900000E-01   1.00800           0
     44079 MEMB     354      PMPE     C313     CTL2    -0.180000       12.0110           0
     44080 MEMB     354      PMPE     H13X     HAL2     0.900000E-01   1.00800           0
     44081 MEMB     354      PMPE     H13Y     HAL2     0.900000E-01   1.00800           0
     44082 MEMB     354      PMPE     C314     CTL2    -0.180000       12.0110           0
     44083 MEMB     354      PMPE     H14X     HAL2     0.900000E-01   1.00800           0
     44084 MEMB     354      PMPE     H14Y     HAL2     0.900000E-01   1.00800           0
     44085 MEMB     354      PMPE     C315     CTL2    -0.180000       12.0110           0
     44086 MEMB     354      PMPE     H15X     HAL2     0.900000E-01   1.00800           0
     44087 MEMB     354      PMPE     H15Y     HAL2     0.900000E-01   1.00800           0
     44088 MEMB     354      PMPE     C316     CTL3    -0.270000       12.0110           0
     44089 MEMB     354      PMPE     H16X     HAL3     0.900000E-01   1.00800           0
     44090 MEMB     354      PMPE     H16Y     HAL3     0.900000E-01   1.00800           0
     44091 MEMB     354      PMPE     H16Z     HAL3     0.900000E-01   1.00800           0
     44092 MEMB     355      PYPG     C13      CTL2     0.500000E-01   12.0110           0
     44093 MEMB     355      PYPG     H13A     HAL2     0.900000E-01   1.00800           0
     44094 MEMB     355      PYPG     H13B     HAL2     0.900000E-01   1.00800           0
     44095 MEMB     355      PYPG     OC3      OHL     -0.660000       15.9994           0
     44096 MEMB     355      PYPG     HO3      HOL      0.430000       1.00800           0
     44097 MEMB     355      PYPG     C12      CTL1     0.140000       12.0110           0
     44098 MEMB     355      PYPG     H12A     HAL1     0.900000E-01   1.00800           0
     44099 MEMB     355      PYPG     OC2      OHL     -0.660000       15.9994           0
     44100 MEMB     355      PYPG     HO2      HOL      0.430000       1.00800           0
     44101 MEMB     355      PYPG     C11      CTL2    -0.800000E-01   12.0110           0
     44102 MEMB     355      PYPG     H11A     HAL2     0.900000E-01   1.00800           0
     44103 MEMB     355      PYPG     H11B     HAL2     0.900000E-01   1.00800           0
     44104 MEMB     355      PYPG     P        PL        1.50000       30.9740           0
     44105 MEMB     355      PYPG     O13      O2L     -0.780000       15.9994           0
     44106 MEMB     355      PYPG     O14      O2L     -0.780000       15.9994           0
     44107 MEMB     355      PYPG     O11      OSLP    -0.570000       15.9994           0
     44108 MEMB     355      PYPG     O12      OSLP    -0.570000       15.9994           0
     44109 MEMB     355      PYPG     C1       CTL2    -0.800000E-01   12.0110           0
     44110 MEMB     355      PYPG     HA       HAL2     0.900000E-01   1.00800           0
     44111 MEMB     355      PYPG     HB       HAL2     0.900000E-01   1.00800           0
     44112 MEMB     355      PYPG     C2       CTL1     0.170000       12.0110           0
     44113 MEMB     355      PYPG     HS       HAL1     0.900000E-01   1.00800           0
     44114 MEMB     355      PYPG     O21      OSL     -0.490000       15.9994           0
     44115 MEMB     355      PYPG     C21      CL       0.900000       12.0110           0
     44116 MEMB     355      PYPG     O22      OBL     -0.630000       15.9994           0
     44117 MEMB     355      PYPG     C22      CTL2    -0.220000       12.0110           0
     44118 MEMB     355      PYPG     H2R      HAL2     0.900000E-01   1.00800           0
     44119 MEMB     355      PYPG     H2S      HAL2     0.900000E-01   1.00800           0
     44120 MEMB     355      PYPG     C3       CTL2     0.800000E-01   12.0110           0
     44121 MEMB     355      PYPG     HX       HAL2     0.900000E-01   1.00800           0
     44122 MEMB     355      PYPG     HY       HAL2     0.900000E-01   1.00800           0
     44123 MEMB     355      PYPG     O31      OSL     -0.490000       15.9994           0
     44124 MEMB     355      PYPG     C31      CL       0.900000       12.0110           0
     44125 MEMB     355      PYPG     O32      OBL     -0.630000       15.9994           0
     44126 MEMB     355      PYPG     C32      CTL2    -0.220000       12.0110           0
     44127 MEMB     355      PYPG     H2X      HAL2     0.900000E-01   1.00800           0
     44128 MEMB     355      PYPG     H2Y      HAL2     0.900000E-01   1.00800           0
     44129 MEMB     355      PYPG     C23      CTL2    -0.180000       12.0110           0
     44130 MEMB     355      PYPG     H3R      HAL2     0.900000E-01   1.00800           0
     44131 MEMB     355      PYPG     H3S      HAL2     0.900000E-01   1.00800           0
     44132 MEMB     355      PYPG     C24      CTL2    -0.180000       12.0110           0
     44133 MEMB     355      PYPG     H4R      HAL2     0.900000E-01   1.00800           0
     44134 MEMB     355      PYPG     H4S      HAL2     0.900000E-01   1.00800           0
     44135 MEMB     355      PYPG     C25      CTL2    -0.180000       12.0110           0
     44136 MEMB     355      PYPG     H5R      HAL2     0.900000E-01   1.00800           0
     44137 MEMB     355      PYPG     H5S      HAL2     0.900000E-01   1.00800           0
     44138 MEMB     355      PYPG     C26      CTL2    -0.180000       12.0110           0
     44139 MEMB     355      PYPG     H6R      HAL2     0.900000E-01   1.00800           0
     44140 MEMB     355      PYPG     H6S      HAL2     0.900000E-01   1.00800           0
     44141 MEMB     355      PYPG     C27      CTL2    -0.180000       12.0110           0
     44142 MEMB     355      PYPG     H7R      HAL2     0.900000E-01   1.00800           0
     44143 MEMB     355      PYPG     H7S      HAL2     0.900000E-01   1.00800           0
     44144 MEMB     355      PYPG     C28      CTL2    -0.180000       12.0110           0
     44145 MEMB     355      PYPG     H8R      HAL2     0.900000E-01   1.00800           0
     44146 MEMB     355      PYPG     H8S      HAL2     0.900000E-01   1.00800           0
     44147 MEMB     355      PYPG     C29      CEL1    -0.150000       12.0110           0
     44148 MEMB     355      PYPG     H9R      HEL1     0.150000       1.00800           0
     44149 MEMB     355      PYPG     C210     CEL1    -0.150000       12.0110           0
     44150 MEMB     355      PYPG     H10R     HEL1     0.150000       1.00800           0
     44151 MEMB     355      PYPG     C211     CTL2    -0.180000       12.0110           0
     44152 MEMB     355      PYPG     H11R     HAL2     0.900000E-01   1.00800           0
     44153 MEMB     355      PYPG     H11S     HAL2     0.900000E-01   1.00800           0
     44154 MEMB     355      PYPG     C212     CTL2    -0.180000       12.0110           0
     44155 MEMB     355      PYPG     H12R     HAL2     0.900000E-01   1.00800           0
     44156 MEMB     355      PYPG     H12S     HAL2     0.900000E-01   1.00800           0
     44157 MEMB     355      PYPG     C213     CTL2    -0.180000       12.0110           0
     44158 MEMB     355      PYPG     H13R     HAL2     0.900000E-01   1.00800           0
     44159 MEMB     355      PYPG     H13S     HAL2     0.900000E-01   1.00800           0
     44160 MEMB     355      PYPG     C214     CTL2    -0.180000       12.0110           0
     44161 MEMB     355      PYPG     H14R     HAL2     0.900000E-01   1.00800           0
     44162 MEMB     355      PYPG     H14S     HAL2     0.900000E-01   1.00800           0
     44163 MEMB     355      PYPG     C215     CTL2    -0.180000       12.0110           0
     44164 MEMB     355      PYPG     H15R     HAL2     0.900000E-01   1.00800           0
     44165 MEMB     355      PYPG     H15S     HAL2     0.900000E-01   1.00800           0
     44166 MEMB     355      PYPG     C216     CTL3    -0.270000       12.0110           0
     44167 MEMB     355      PYPG     H16R     HAL3     0.900000E-01   1.00800           0
     44168 MEMB     355      PYPG     H16S     HAL3     0.900000E-01   1.00800           0
     44169 MEMB     355      PYPG     H16T     HAL3     0.900000E-01   1.00800           0
     44170 MEMB     355      PYPG     C33      CTL2    -0.180000       12.0110           0
     44171 MEMB     355      PYPG     H3X      HAL2     0.900000E-01   1.00800           0
     44172 MEMB     355      PYPG     H3Y      HAL2     0.900000E-01   1.00800           0
     44173 MEMB     355      PYPG     C34      CTL2    -0.180000       12.0110           0
     44174 MEMB     355      PYPG     H4X      HAL2     0.900000E-01   1.00800           0
     44175 MEMB     355      PYPG     H4Y      HAL2     0.900000E-01   1.00800           0
     44176 MEMB     355      PYPG     C35      CTL2    -0.180000       12.0110           0
     44177 MEMB     355      PYPG     H5X      HAL2     0.900000E-01   1.00800           0
     44178 MEMB     355      PYPG     H5Y      HAL2     0.900000E-01   1.00800           0
     44179 MEMB     355      PYPG     C36      CTL2    -0.180000       12.0110           0
     44180 MEMB     355      PYPG     H6X      HAL2     0.900000E-01   1.00800           0
     44181 MEMB     355      PYPG     H6Y      HAL2     0.900000E-01   1.00800           0
     44182 MEMB     355      PYPG     C37      CTL2    -0.180000       12.0110           0
     44183 MEMB     355      PYPG     H7X      HAL2     0.900000E-01   1.00800           0
     44184 MEMB     355      PYPG     H7Y      HAL2     0.900000E-01   1.00800           0
     44185 MEMB     355      PYPG     C38      CTL2    -0.180000       12.0110           0
     44186 MEMB     355      PYPG     H8X      HAL2     0.900000E-01   1.00800           0
     44187 MEMB     355      PYPG     H8Y      HAL2     0.900000E-01   1.00800           0
     44188 MEMB     355      PYPG     C39      CTL2    -0.180000       12.0110           0
     44189 MEMB     355      PYPG     H9X      HAL2     0.900000E-01   1.00800           0
     44190 MEMB     355      PYPG     H9Y      HAL2     0.900000E-01   1.00800           0
     44191 MEMB     355      PYPG     C310     CTL2    -0.180000       12.0110           0
     44192 MEMB     355      PYPG     H10X     HAL2     0.900000E-01   1.00800           0
     44193 MEMB     355      PYPG     H10Y     HAL2     0.900000E-01   1.00800           0
     44194 MEMB     355      PYPG     C311     CTL2    -0.180000       12.0110           0
     44195 MEMB     355      PYPG     H11X     HAL2     0.900000E-01   1.00800           0
     44196 MEMB     355      PYPG     H11Y     HAL2     0.900000E-01   1.00800           0
     44197 MEMB     355      PYPG     C312     CTL2    -0.180000       12.0110           0
     44198 MEMB     355      PYPG     H12X     HAL2     0.900000E-01   1.00800           0
     44199 MEMB     355      PYPG     H12Y     HAL2     0.900000E-01   1.00800           0
     44200 MEMB     355      PYPG     C313     CTL2    -0.180000       12.0110           0
     44201 MEMB     355      PYPG     H13X     HAL2     0.900000E-01   1.00800           0
     44202 MEMB     355      PYPG     H13Y     HAL2     0.900000E-01   1.00800           0
     44203 MEMB     355      PYPG     C314     CTL2    -0.180000       12.0110           0
     44204 MEMB     355      PYPG     H14X     HAL2     0.900000E-01   1.00800           0
     44205 MEMB     355      PYPG     H14Y     HAL2     0.900000E-01   1.00800           0
     44206 MEMB     355      PYPG     C315     CTL2    -0.180000       12.0110           0
     44207 MEMB     355      PYPG     H15X     HAL2     0.900000E-01   1.00800           0
     44208 MEMB     355      PYPG     H15Y     HAL2     0.900000E-01   1.00800           0
     44209 MEMB     355      PYPG     C316     CTL3    -0.270000       12.0110           0
     44210 MEMB     355      PYPG     H16X     HAL3     0.900000E-01   1.00800           0
     44211 MEMB     355      PYPG     H16Y     HAL3     0.900000E-01   1.00800           0
     44212 MEMB     355      PYPG     H16Z     HAL3     0.900000E-01   1.00800           0
     44213 MEMB     356      PMPE     N        NH3L    -0.300000       14.0070           0
     44214 MEMB     356      PMPE     HN1      HCL      0.330000       1.00800           0
     44215 MEMB     356      PMPE     HN2      HCL      0.330000       1.00800           0
     44216 MEMB     356      PMPE     HN3      HCL      0.330000       1.00800           0
     44217 MEMB     356      PMPE     C12      CTL2     0.130000       12.0110           0
     44218 MEMB     356      PMPE     H12A     HAL2     0.900000E-01   1.00800           0
     44219 MEMB     356      PMPE     H12B     HAL2     0.900000E-01   1.00800           0
     44220 MEMB     356      PMPE     C11      CTL2    -0.800000E-01   12.0110           0
     44221 MEMB     356      PMPE     H11A     HAL2     0.900000E-01   1.00800           0
     44222 MEMB     356      PMPE     H11B     HAL2     0.900000E-01   1.00800           0
     44223 MEMB     356      PMPE     P        PL        1.50000       30.9740           0
     44224 MEMB     356      PMPE     O13      O2L     -0.780000       15.9994           0
     44225 MEMB     356      PMPE     O14      O2L     -0.780000       15.9994           0
     44226 MEMB     356      PMPE     O11      OSLP    -0.570000       15.9994           0
     44227 MEMB     356      PMPE     O12      OSLP    -0.570000       15.9994           0
     44228 MEMB     356      PMPE     C1       CTL2    -0.800000E-01   12.0110           0
     44229 MEMB     356      PMPE     HA       HAL2     0.900000E-01   1.00800           0
     44230 MEMB     356      PMPE     HB       HAL2     0.900000E-01   1.00800           0
     44231 MEMB     356      PMPE     C2       CTL1     0.170000       12.0110           0
     44232 MEMB     356      PMPE     HS       HAL1     0.900000E-01   1.00800           0
     44233 MEMB     356      PMPE     O21      OSL     -0.490000       15.9994           0
     44234 MEMB     356      PMPE     C21      CL       0.900000       12.0110           0
     44235 MEMB     356      PMPE     O22      OBL     -0.630000       15.9994           0
     44236 MEMB     356      PMPE     C22      CTL2    -0.220000       12.0110           0
     44237 MEMB     356      PMPE     H2R      HAL2     0.900000E-01   1.00800           0
     44238 MEMB     356      PMPE     H2S      HAL2     0.900000E-01   1.00800           0
     44239 MEMB     356      PMPE     C3       CTL2     0.800000E-01   12.0110           0
     44240 MEMB     356      PMPE     HX       HAL2     0.900000E-01   1.00800           0
     44241 MEMB     356      PMPE     HY       HAL2     0.900000E-01   1.00800           0
     44242 MEMB     356      PMPE     O31      OSL     -0.490000       15.9994           0
     44243 MEMB     356      PMPE     C31      CL       0.900000       12.0110           0
     44244 MEMB     356      PMPE     O32      OBL     -0.630000       15.9994           0
     44245 MEMB     356      PMPE     C32      CTL2    -0.220000       12.0110           0
     44246 MEMB     356      PMPE     H2X      HAL2     0.900000E-01   1.00800           0
     44247 MEMB     356      PMPE     H2Y      HAL2     0.900000E-01   1.00800           0
     44248 MEMB     356      PMPE     C23      CTL2    -0.180000       12.0110           0
     44249 MEMB     356      PMPE     H3R      HAL2     0.900000E-01   1.00800           0
     44250 MEMB     356      PMPE     H3S      HAL2     0.900000E-01   1.00800           0
     44251 MEMB     356      PMPE     C24      CTL2    -0.180000       12.0110           0
     44252 MEMB     356      PMPE     H4R      HAL2     0.900000E-01   1.00800           0
     44253 MEMB     356      PMPE     H4S      HAL2     0.900000E-01   1.00800           0
     44254 MEMB     356      PMPE     C25      CTL2    -0.180000       12.0110           0
     44255 MEMB     356      PMPE     H5R      HAL2     0.900000E-01   1.00800           0
     44256 MEMB     356      PMPE     H5S      HAL2     0.900000E-01   1.00800           0
     44257 MEMB     356      PMPE     C26      CTL2    -0.180000       12.0110           0
     44258 MEMB     356      PMPE     H6R      HAL2     0.900000E-01   1.00800           0
     44259 MEMB     356      PMPE     H6S      HAL2     0.900000E-01   1.00800           0
     44260 MEMB     356      PMPE     C27      CTL2    -0.180000       12.0110           0
     44261 MEMB     356      PMPE     H7R      HAL2     0.900000E-01   1.00800           0
     44262 MEMB     356      PMPE     H7S      HAL2     0.900000E-01   1.00800           0
     44263 MEMB     356      PMPE     C28      CTL2    -0.180000       12.0110           0
     44264 MEMB     356      PMPE     H8R      HAL2     0.900000E-01   1.00800           0
     44265 MEMB     356      PMPE     H8S      HAL2     0.900000E-01   1.00800           0
     44266 MEMB     356      PMPE     C29      CG3RC1  -0.900000E-01   12.0110           0
     44267 MEMB     356      PMPE     H9R      HGA1     0.900000E-01   1.00800           0
     44268 MEMB     356      PMPE     C217     CG3C31  -0.180000       12.0110           0
     44269 MEMB     356      PMPE     H17R     HGA2     0.900000E-01   1.00800           0
     44270 MEMB     356      PMPE     H17S     HGA2     0.900000E-01   1.00800           0
     44271 MEMB     356      PMPE     C210     CG3RC1  -0.900000E-01   12.0110           0
     44272 MEMB     356      PMPE     H10R     HGA1     0.900000E-01   1.00800           0
     44273 MEMB     356      PMPE     C211     CTL2    -0.180000       12.0110           0
     44274 MEMB     356      PMPE     H11R     HAL2     0.900000E-01   1.00800           0
     44275 MEMB     356      PMPE     H11S     HAL2     0.900000E-01   1.00800           0
     44276 MEMB     356      PMPE     C212     CTL2    -0.180000       12.0110           0
     44277 MEMB     356      PMPE     H12R     HAL2     0.900000E-01   1.00800           0
     44278 MEMB     356      PMPE     H12S     HAL2     0.900000E-01   1.00800           0
     44279 MEMB     356      PMPE     C213     CTL2    -0.180000       12.0110           0
     44280 MEMB     356      PMPE     H13R     HAL2     0.900000E-01   1.00800           0
     44281 MEMB     356      PMPE     H13S     HAL2     0.900000E-01   1.00800           0
     44282 MEMB     356      PMPE     C214     CTL2    -0.180000       12.0110           0
     44283 MEMB     356      PMPE     H14R     HAL2     0.900000E-01   1.00800           0
     44284 MEMB     356      PMPE     H14S     HAL2     0.900000E-01   1.00800           0
     44285 MEMB     356      PMPE     C215     CTL2    -0.180000       12.0110           0
     44286 MEMB     356      PMPE     H15R     HAL2     0.900000E-01   1.00800           0
     44287 MEMB     356      PMPE     H15S     HAL2     0.900000E-01   1.00800           0
     44288 MEMB     356      PMPE     C216     CTL3    -0.270000       12.0110           0
     44289 MEMB     356      PMPE     H16R     HAL3     0.900000E-01   1.00800           0
     44290 MEMB     356      PMPE     H16S     HAL3     0.900000E-01   1.00800           0
     44291 MEMB     356      PMPE     H16T     HAL3     0.900000E-01   1.00800           0
     44292 MEMB     356      PMPE     C33      CTL2    -0.180000       12.0110           0
     44293 MEMB     356      PMPE     H3X      HAL2     0.900000E-01   1.00800           0
     44294 MEMB     356      PMPE     H3Y      HAL2     0.900000E-01   1.00800           0
     44295 MEMB     356      PMPE     C34      CTL2    -0.180000       12.0110           0
     44296 MEMB     356      PMPE     H4X      HAL2     0.900000E-01   1.00800           0
     44297 MEMB     356      PMPE     H4Y      HAL2     0.900000E-01   1.00800           0
     44298 MEMB     356      PMPE     C35      CTL2    -0.180000       12.0110           0
     44299 MEMB     356      PMPE     H5X      HAL2     0.900000E-01   1.00800           0
     44300 MEMB     356      PMPE     H5Y      HAL2     0.900000E-01   1.00800           0
     44301 MEMB     356      PMPE     C36      CTL2    -0.180000       12.0110           0
     44302 MEMB     356      PMPE     H6X      HAL2     0.900000E-01   1.00800           0
     44303 MEMB     356      PMPE     H6Y      HAL2     0.900000E-01   1.00800           0
     44304 MEMB     356      PMPE     C37      CTL2    -0.180000       12.0110           0
     44305 MEMB     356      PMPE     H7X      HAL2     0.900000E-01   1.00800           0
     44306 MEMB     356      PMPE     H7Y      HAL2     0.900000E-01   1.00800           0
     44307 MEMB     356      PMPE     C38      CTL2    -0.180000       12.0110           0
     44308 MEMB     356      PMPE     H8X      HAL2     0.900000E-01   1.00800           0
     44309 MEMB     356      PMPE     H8Y      HAL2     0.900000E-01   1.00800           0
     44310 MEMB     356      PMPE     C39      CTL2    -0.180000       12.0110           0
     44311 MEMB     356      PMPE     H9X      HAL2     0.900000E-01   1.00800           0
     44312 MEMB     356      PMPE     H9Y      HAL2     0.900000E-01   1.00800           0
     44313 MEMB     356      PMPE     C310     CTL2    -0.180000       12.0110           0
     44314 MEMB     356      PMPE     H10X     HAL2     0.900000E-01   1.00800           0
     44315 MEMB     356      PMPE     H10Y     HAL2     0.900000E-01   1.00800           0
     44316 MEMB     356      PMPE     C311     CTL2    -0.180000       12.0110           0
     44317 MEMB     356      PMPE     H11X     HAL2     0.900000E-01   1.00800           0
     44318 MEMB     356      PMPE     H11Y     HAL2     0.900000E-01   1.00800           0
     44319 MEMB     356      PMPE     C312     CTL2    -0.180000       12.0110           0
     44320 MEMB     356      PMPE     H12X     HAL2     0.900000E-01   1.00800           0
     44321 MEMB     356      PMPE     H12Y     HAL2     0.900000E-01   1.00800           0
     44322 MEMB     356      PMPE     C313     CTL2    -0.180000       12.0110           0
     44323 MEMB     356      PMPE     H13X     HAL2     0.900000E-01   1.00800           0
     44324 MEMB     356      PMPE     H13Y     HAL2     0.900000E-01   1.00800           0
     44325 MEMB     356      PMPE     C314     CTL2    -0.180000       12.0110           0
     44326 MEMB     356      PMPE     H14X     HAL2     0.900000E-01   1.00800           0
     44327 MEMB     356      PMPE     H14Y     HAL2     0.900000E-01   1.00800           0
     44328 MEMB     356      PMPE     C315     CTL2    -0.180000       12.0110           0
     44329 MEMB     356      PMPE     H15X     HAL2     0.900000E-01   1.00800           0
     44330 MEMB     356      PMPE     H15Y     HAL2     0.900000E-01   1.00800           0
     44331 MEMB     356      PMPE     C316     CTL3    -0.270000       12.0110           0
     44332 MEMB     356      PMPE     H16X     HAL3     0.900000E-01   1.00800           0
     44333 MEMB     356      PMPE     H16Y     HAL3     0.900000E-01   1.00800           0
     44334 MEMB     356      PMPE     H16Z     HAL3     0.900000E-01   1.00800           0
     44335 MEMB     357      PMPG     C13      CTL2     0.500000E-01   12.0110           0
     44336 MEMB     357      PMPG     H13A     HAL2     0.900000E-01   1.00800           0
     44337 MEMB     357      PMPG     H13B     HAL2     0.900000E-01   1.00800           0
     44338 MEMB     357      PMPG     OC3      OHL     -0.660000       15.9994           0
     44339 MEMB     357      PMPG     HO3      HOL      0.430000       1.00800           0
     44340 MEMB     357      PMPG     C12      CTL1     0.140000       12.0110           0
     44341 MEMB     357      PMPG     H12A     HAL1     0.900000E-01   1.00800           0
     44342 MEMB     357      PMPG     OC2      OHL     -0.660000       15.9994           0
     44343 MEMB     357      PMPG     HO2      HOL      0.430000       1.00800           0
     44344 MEMB     357      PMPG     C11      CTL2    -0.800000E-01   12.0110           0
     44345 MEMB     357      PMPG     H11A     HAL2     0.900000E-01   1.00800           0
     44346 MEMB     357      PMPG     H11B     HAL2     0.900000E-01   1.00800           0
     44347 MEMB     357      PMPG     P        PL        1.50000       30.9740           0
     44348 MEMB     357      PMPG     O13      O2L     -0.780000       15.9994           0
     44349 MEMB     357      PMPG     O14      O2L     -0.780000       15.9994           0
     44350 MEMB     357      PMPG     O11      OSLP    -0.570000       15.9994           0
     44351 MEMB     357      PMPG     O12      OSLP    -0.570000       15.9994           0
     44352 MEMB     357      PMPG     C1       CTL2    -0.800000E-01   12.0110           0
     44353 MEMB     357      PMPG     HA       HAL2     0.900000E-01   1.00800           0
     44354 MEMB     357      PMPG     HB       HAL2     0.900000E-01   1.00800           0
     44355 MEMB     357      PMPG     C2       CTL1     0.170000       12.0110           0
     44356 MEMB     357      PMPG     HS       HAL1     0.900000E-01   1.00800           0
     44357 MEMB     357      PMPG     O21      OSL     -0.490000       15.9994           0
     44358 MEMB     357      PMPG     C21      CL       0.900000       12.0110           0
     44359 MEMB     357      PMPG     O22      OBL     -0.630000       15.9994           0
     44360 MEMB     357      PMPG     C22      CTL2    -0.220000       12.0110           0
     44361 MEMB     357      PMPG     H2R      HAL2     0.900000E-01   1.00800           0
     44362 MEMB     357      PMPG     H2S      HAL2     0.900000E-01   1.00800           0
     44363 MEMB     357      PMPG     C3       CTL2     0.800000E-01   12.0110           0
     44364 MEMB     357      PMPG     HX       HAL2     0.900000E-01   1.00800           0
     44365 MEMB     357      PMPG     HY       HAL2     0.900000E-01   1.00800           0
     44366 MEMB     357      PMPG     O31      OSL     -0.490000       15.9994           0
     44367 MEMB     357      PMPG     C31      CL       0.900000       12.0110           0
     44368 MEMB     357      PMPG     O32      OBL     -0.630000       15.9994           0
     44369 MEMB     357      PMPG     C32      CTL2    -0.220000       12.0110           0
     44370 MEMB     357      PMPG     H2X      HAL2     0.900000E-01   1.00800           0
     44371 MEMB     357      PMPG     H2Y      HAL2     0.900000E-01   1.00800           0
     44372 MEMB     357      PMPG     C23      CTL2    -0.180000       12.0110           0
     44373 MEMB     357      PMPG     H3R      HAL2     0.900000E-01   1.00800           0
     44374 MEMB     357      PMPG     H3S      HAL2     0.900000E-01   1.00800           0
     44375 MEMB     357      PMPG     C24      CTL2    -0.180000       12.0110           0
     44376 MEMB     357      PMPG     H4R      HAL2     0.900000E-01   1.00800           0
     44377 MEMB     357      PMPG     H4S      HAL2     0.900000E-01   1.00800           0
     44378 MEMB     357      PMPG     C25      CTL2    -0.180000       12.0110           0
     44379 MEMB     357      PMPG     H5R      HAL2     0.900000E-01   1.00800           0
     44380 MEMB     357      PMPG     H5S      HAL2     0.900000E-01   1.00800           0
     44381 MEMB     357      PMPG     C26      CTL2    -0.180000       12.0110           0
     44382 MEMB     357      PMPG     H6R      HAL2     0.900000E-01   1.00800           0
     44383 MEMB     357      PMPG     H6S      HAL2     0.900000E-01   1.00800           0
     44384 MEMB     357      PMPG     C27      CTL2    -0.180000       12.0110           0
     44385 MEMB     357      PMPG     H7R      HAL2     0.900000E-01   1.00800           0
     44386 MEMB     357      PMPG     H7S      HAL2     0.900000E-01   1.00800           0
     44387 MEMB     357      PMPG     C28      CTL2    -0.180000       12.0110           0
     44388 MEMB     357      PMPG     H8R      HAL2     0.900000E-01   1.00800           0
     44389 MEMB     357      PMPG     H8S      HAL2     0.900000E-01   1.00800           0
     44390 MEMB     357      PMPG     C29      CG3RC1  -0.900000E-01   12.0110           0
     44391 MEMB     357      PMPG     H9R      HGA1     0.900000E-01   1.00800           0
     44392 MEMB     357      PMPG     C217     CG3C31  -0.180000       12.0110           0
     44393 MEMB     357      PMPG     H17R     HGA2     0.900000E-01   1.00800           0
     44394 MEMB     357      PMPG     H17S     HGA2     0.900000E-01   1.00800           0
     44395 MEMB     357      PMPG     C210     CG3RC1  -0.900000E-01   12.0110           0
     44396 MEMB     357      PMPG     H10R     HGA1     0.900000E-01   1.00800           0
     44397 MEMB     357      PMPG     C211     CTL2    -0.180000       12.0110           0
     44398 MEMB     357      PMPG     H11R     HAL2     0.900000E-01   1.00800           0
     44399 MEMB     357      PMPG     H11S     HAL2     0.900000E-01   1.00800           0
     44400 MEMB     357      PMPG     C212     CTL2    -0.180000       12.0110           0
     44401 MEMB     357      PMPG     H12R     HAL2     0.900000E-01   1.00800           0
     44402 MEMB     357      PMPG     H12S     HAL2     0.900000E-01   1.00800           0
     44403 MEMB     357      PMPG     C213     CTL2    -0.180000       12.0110           0
     44404 MEMB     357      PMPG     H13R     HAL2     0.900000E-01   1.00800           0
     44405 MEMB     357      PMPG     H13S     HAL2     0.900000E-01   1.00800           0
     44406 MEMB     357      PMPG     C214     CTL2    -0.180000       12.0110           0
     44407 MEMB     357      PMPG     H14R     HAL2     0.900000E-01   1.00800           0
     44408 MEMB     357      PMPG     H14S     HAL2     0.900000E-01   1.00800           0
     44409 MEMB     357      PMPG     C215     CTL2    -0.180000       12.0110           0
     44410 MEMB     357      PMPG     H15R     HAL2     0.900000E-01   1.00800           0
     44411 MEMB     357      PMPG     H15S     HAL2     0.900000E-01   1.00800           0
     44412 MEMB     357      PMPG     C216     CTL3    -0.270000       12.0110           0
     44413 MEMB     357      PMPG     H16R     HAL3     0.900000E-01   1.00800           0
     44414 MEMB     357      PMPG     H16S     HAL3     0.900000E-01   1.00800           0
     44415 MEMB     357      PMPG     H16T     HAL3     0.900000E-01   1.00800           0
     44416 MEMB     357      PMPG     C33      CTL2    -0.180000       12.0110           0
     44417 MEMB     357      PMPG     H3X      HAL2     0.900000E-01   1.00800           0
     44418 MEMB     357      PMPG     H3Y      HAL2     0.900000E-01   1.00800           0
     44419 MEMB     357      PMPG     C34      CTL2    -0.180000       12.0110           0
     44420 MEMB     357      PMPG     H4X      HAL2     0.900000E-01   1.00800           0
     44421 MEMB     357      PMPG     H4Y      HAL2     0.900000E-01   1.00800           0
     44422 MEMB     357      PMPG     C35      CTL2    -0.180000       12.0110           0
     44423 MEMB     357      PMPG     H5X      HAL2     0.900000E-01   1.00800           0
     44424 MEMB     357      PMPG     H5Y      HAL2     0.900000E-01   1.00800           0
     44425 MEMB     357      PMPG     C36      CTL2    -0.180000       12.0110           0
     44426 MEMB     357      PMPG     H6X      HAL2     0.900000E-01   1.00800           0
     44427 MEMB     357      PMPG     H6Y      HAL2     0.900000E-01   1.00800           0
     44428 MEMB     357      PMPG     C37      CTL2    -0.180000       12.0110           0
     44429 MEMB     357      PMPG     H7X      HAL2     0.900000E-01   1.00800           0
     44430 MEMB     357      PMPG     H7Y      HAL2     0.900000E-01   1.00800           0
     44431 MEMB     357      PMPG     C38      CTL2    -0.180000       12.0110           0
     44432 MEMB     357      PMPG     H8X      HAL2     0.900000E-01   1.00800           0
     44433 MEMB     357      PMPG     H8Y      HAL2     0.900000E-01   1.00800           0
     44434 MEMB     357      PMPG     C39      CTL2    -0.180000       12.0110           0
     44435 MEMB     357      PMPG     H9X      HAL2     0.900000E-01   1.00800           0
     44436 MEMB     357      PMPG     H9Y      HAL2     0.900000E-01   1.00800           0
     44437 MEMB     357      PMPG     C310     CTL2    -0.180000       12.0110           0
     44438 MEMB     357      PMPG     H10X     HAL2     0.900000E-01   1.00800           0
     44439 MEMB     357      PMPG     H10Y     HAL2     0.900000E-01   1.00800           0
     44440 MEMB     357      PMPG     C311     CTL2    -0.180000       12.0110           0
     44441 MEMB     357      PMPG     H11X     HAL2     0.900000E-01   1.00800           0
     44442 MEMB     357      PMPG     H11Y     HAL2     0.900000E-01   1.00800           0
     44443 MEMB     357      PMPG     C312     CTL2    -0.180000       12.0110           0
     44444 MEMB     357      PMPG     H12X     HAL2     0.900000E-01   1.00800           0
     44445 MEMB     357      PMPG     H12Y     HAL2     0.900000E-01   1.00800           0
     44446 MEMB     357      PMPG     C313     CTL2    -0.180000       12.0110           0
     44447 MEMB     357      PMPG     H13X     HAL2     0.900000E-01   1.00800           0
     44448 MEMB     357      PMPG     H13Y     HAL2     0.900000E-01   1.00800           0
     44449 MEMB     357      PMPG     C314     CTL2    -0.180000       12.0110           0
     44450 MEMB     357      PMPG     H14X     HAL2     0.900000E-01   1.00800           0
     44451 MEMB     357      PMPG     H14Y     HAL2     0.900000E-01   1.00800           0
     44452 MEMB     357      PMPG     C315     CTL2    -0.180000       12.0110           0
     44453 MEMB     357      PMPG     H15X     HAL2     0.900000E-01   1.00800           0
     44454 MEMB     357      PMPG     H15Y     HAL2     0.900000E-01   1.00800           0
     44455 MEMB     357      PMPG     C316     CTL3    -0.270000       12.0110           0
     44456 MEMB     357      PMPG     H16X     HAL3     0.900000E-01   1.00800           0
     44457 MEMB     357      PMPG     H16Y     HAL3     0.900000E-01   1.00800           0
     44458 MEMB     357      PMPG     H16Z     HAL3     0.900000E-01   1.00800           0
     44459 MEMB     358      PMPE     N        NH3L    -0.300000       14.0070           0
     44460 MEMB     358      PMPE     HN1      HCL      0.330000       1.00800           0
     44461 MEMB     358      PMPE     HN2      HCL      0.330000       1.00800           0
     44462 MEMB     358      PMPE     HN3      HCL      0.330000       1.00800           0
     44463 MEMB     358      PMPE     C12      CTL2     0.130000       12.0110           0
     44464 MEMB     358      PMPE     H12A     HAL2     0.900000E-01   1.00800           0
     44465 MEMB     358      PMPE     H12B     HAL2     0.900000E-01   1.00800           0
     44466 MEMB     358      PMPE     C11      CTL2    -0.800000E-01   12.0110           0
     44467 MEMB     358      PMPE     H11A     HAL2     0.900000E-01   1.00800           0
     44468 MEMB     358      PMPE     H11B     HAL2     0.900000E-01   1.00800           0
     44469 MEMB     358      PMPE     P        PL        1.50000       30.9740           0
     44470 MEMB     358      PMPE     O13      O2L     -0.780000       15.9994           0
     44471 MEMB     358      PMPE     O14      O2L     -0.780000       15.9994           0
     44472 MEMB     358      PMPE     O11      OSLP    -0.570000       15.9994           0
     44473 MEMB     358      PMPE     O12      OSLP    -0.570000       15.9994           0
     44474 MEMB     358      PMPE     C1       CTL2    -0.800000E-01   12.0110           0
     44475 MEMB     358      PMPE     HA       HAL2     0.900000E-01   1.00800           0
     44476 MEMB     358      PMPE     HB       HAL2     0.900000E-01   1.00800           0
     44477 MEMB     358      PMPE     C2       CTL1     0.170000       12.0110           0
     44478 MEMB     358      PMPE     HS       HAL1     0.900000E-01   1.00800           0
     44479 MEMB     358      PMPE     O21      OSL     -0.490000       15.9994           0
     44480 MEMB     358      PMPE     C21      CL       0.900000       12.0110           0
     44481 MEMB     358      PMPE     O22      OBL     -0.630000       15.9994           0
     44482 MEMB     358      PMPE     C22      CTL2    -0.220000       12.0110           0
     44483 MEMB     358      PMPE     H2R      HAL2     0.900000E-01   1.00800           0
     44484 MEMB     358      PMPE     H2S      HAL2     0.900000E-01   1.00800           0
     44485 MEMB     358      PMPE     C3       CTL2     0.800000E-01   12.0110           0
     44486 MEMB     358      PMPE     HX       HAL2     0.900000E-01   1.00800           0
     44487 MEMB     358      PMPE     HY       HAL2     0.900000E-01   1.00800           0
     44488 MEMB     358      PMPE     O31      OSL     -0.490000       15.9994           0
     44489 MEMB     358      PMPE     C31      CL       0.900000       12.0110           0
     44490 MEMB     358      PMPE     O32      OBL     -0.630000       15.9994           0
     44491 MEMB     358      PMPE     C32      CTL2    -0.220000       12.0110           0
     44492 MEMB     358      PMPE     H2X      HAL2     0.900000E-01   1.00800           0
     44493 MEMB     358      PMPE     H2Y      HAL2     0.900000E-01   1.00800           0
     44494 MEMB     358      PMPE     C23      CTL2    -0.180000       12.0110           0
     44495 MEMB     358      PMPE     H3R      HAL2     0.900000E-01   1.00800           0
     44496 MEMB     358      PMPE     H3S      HAL2     0.900000E-01   1.00800           0
     44497 MEMB     358      PMPE     C24      CTL2    -0.180000       12.0110           0
     44498 MEMB     358      PMPE     H4R      HAL2     0.900000E-01   1.00800           0
     44499 MEMB     358      PMPE     H4S      HAL2     0.900000E-01   1.00800           0
     44500 MEMB     358      PMPE     C25      CTL2    -0.180000       12.0110           0
     44501 MEMB     358      PMPE     H5R      HAL2     0.900000E-01   1.00800           0
     44502 MEMB     358      PMPE     H5S      HAL2     0.900000E-01   1.00800           0
     44503 MEMB     358      PMPE     C26      CTL2    -0.180000       12.0110           0
     44504 MEMB     358      PMPE     H6R      HAL2     0.900000E-01   1.00800           0
     44505 MEMB     358      PMPE     H6S      HAL2     0.900000E-01   1.00800           0
     44506 MEMB     358      PMPE     C27      CTL2    -0.180000       12.0110           0
     44507 MEMB     358      PMPE     H7R      HAL2     0.900000E-01   1.00800           0
     44508 MEMB     358      PMPE     H7S      HAL2     0.900000E-01   1.00800           0
     44509 MEMB     358      PMPE     C28      CTL2    -0.180000       12.0110           0
     44510 MEMB     358      PMPE     H8R      HAL2     0.900000E-01   1.00800           0
     44511 MEMB     358      PMPE     H8S      HAL2     0.900000E-01   1.00800           0
     44512 MEMB     358      PMPE     C29      CG3RC1  -0.900000E-01   12.0110           0
     44513 MEMB     358      PMPE     H9R      HGA1     0.900000E-01   1.00800           0
     44514 MEMB     358      PMPE     C217     CG3C31  -0.180000       12.0110           0
     44515 MEMB     358      PMPE     H17R     HGA2     0.900000E-01   1.00800           0
     44516 MEMB     358      PMPE     H17S     HGA2     0.900000E-01   1.00800           0
     44517 MEMB     358      PMPE     C210     CG3RC1  -0.900000E-01   12.0110           0
     44518 MEMB     358      PMPE     H10R     HGA1     0.900000E-01   1.00800           0
     44519 MEMB     358      PMPE     C211     CTL2    -0.180000       12.0110           0
     44520 MEMB     358      PMPE     H11R     HAL2     0.900000E-01   1.00800           0
     44521 MEMB     358      PMPE     H11S     HAL2     0.900000E-01   1.00800           0
     44522 MEMB     358      PMPE     C212     CTL2    -0.180000       12.0110           0
     44523 MEMB     358      PMPE     H12R     HAL2     0.900000E-01   1.00800           0
     44524 MEMB     358      PMPE     H12S     HAL2     0.900000E-01   1.00800           0
     44525 MEMB     358      PMPE     C213     CTL2    -0.180000       12.0110           0
     44526 MEMB     358      PMPE     H13R     HAL2     0.900000E-01   1.00800           0
     44527 MEMB     358      PMPE     H13S     HAL2     0.900000E-01   1.00800           0
     44528 MEMB     358      PMPE     C214     CTL2    -0.180000       12.0110           0
     44529 MEMB     358      PMPE     H14R     HAL2     0.900000E-01   1.00800           0
     44530 MEMB     358      PMPE     H14S     HAL2     0.900000E-01   1.00800           0
     44531 MEMB     358      PMPE     C215     CTL2    -0.180000       12.0110           0
     44532 MEMB     358      PMPE     H15R     HAL2     0.900000E-01   1.00800           0
     44533 MEMB     358      PMPE     H15S     HAL2     0.900000E-01   1.00800           0
     44534 MEMB     358      PMPE     C216     CTL3    -0.270000       12.0110           0
     44535 MEMB     358      PMPE     H16R     HAL3     0.900000E-01   1.00800           0
     44536 MEMB     358      PMPE     H16S     HAL3     0.900000E-01   1.00800           0
     44537 MEMB     358      PMPE     H16T     HAL3     0.900000E-01   1.00800           0
     44538 MEMB     358      PMPE     C33      CTL2    -0.180000       12.0110           0
     44539 MEMB     358      PMPE     H3X      HAL2     0.900000E-01   1.00800           0
     44540 MEMB     358      PMPE     H3Y      HAL2     0.900000E-01   1.00800           0
     44541 MEMB     358      PMPE     C34      CTL2    -0.180000       12.0110           0
     44542 MEMB     358      PMPE     H4X      HAL2     0.900000E-01   1.00800           0
     44543 MEMB     358      PMPE     H4Y      HAL2     0.900000E-01   1.00800           0
     44544 MEMB     358      PMPE     C35      CTL2    -0.180000       12.0110           0
     44545 MEMB     358      PMPE     H5X      HAL2     0.900000E-01   1.00800           0
     44546 MEMB     358      PMPE     H5Y      HAL2     0.900000E-01   1.00800           0
     44547 MEMB     358      PMPE     C36      CTL2    -0.180000       12.0110           0
     44548 MEMB     358      PMPE     H6X      HAL2     0.900000E-01   1.00800           0
     44549 MEMB     358      PMPE     H6Y      HAL2     0.900000E-01   1.00800           0
     44550 MEMB     358      PMPE     C37      CTL2    -0.180000       12.0110           0
     44551 MEMB     358      PMPE     H7X      HAL2     0.900000E-01   1.00800           0
     44552 MEMB     358      PMPE     H7Y      HAL2     0.900000E-01   1.00800           0
     44553 MEMB     358      PMPE     C38      CTL2    -0.180000       12.0110           0
     44554 MEMB     358      PMPE     H8X      HAL2     0.900000E-01   1.00800           0
     44555 MEMB     358      PMPE     H8Y      HAL2     0.900000E-01   1.00800           0
     44556 MEMB     358      PMPE     C39      CTL2    -0.180000       12.0110           0
     44557 MEMB     358      PMPE     H9X      HAL2     0.900000E-01   1.00800           0
     44558 MEMB     358      PMPE     H9Y      HAL2     0.900000E-01   1.00800           0
     44559 MEMB     358      PMPE     C310     CTL2    -0.180000       12.0110           0
     44560 MEMB     358      PMPE     H10X     HAL2     0.900000E-01   1.00800           0
     44561 MEMB     358      PMPE     H10Y     HAL2     0.900000E-01   1.00800           0
     44562 MEMB     358      PMPE     C311     CTL2    -0.180000       12.0110           0
     44563 MEMB     358      PMPE     H11X     HAL2     0.900000E-01   1.00800           0
     44564 MEMB     358      PMPE     H11Y     HAL2     0.900000E-01   1.00800           0
     44565 MEMB     358      PMPE     C312     CTL2    -0.180000       12.0110           0
     44566 MEMB     358      PMPE     H12X     HAL2     0.900000E-01   1.00800           0
     44567 MEMB     358      PMPE     H12Y     HAL2     0.900000E-01   1.00800           0
     44568 MEMB     358      PMPE     C313     CTL2    -0.180000       12.0110           0
     44569 MEMB     358      PMPE     H13X     HAL2     0.900000E-01   1.00800           0
     44570 MEMB     358      PMPE     H13Y     HAL2     0.900000E-01   1.00800           0
     44571 MEMB     358      PMPE     C314     CTL2    -0.180000       12.0110           0
     44572 MEMB     358      PMPE     H14X     HAL2     0.900000E-01   1.00800           0
     44573 MEMB     358      PMPE     H14Y     HAL2     0.900000E-01   1.00800           0
     44574 MEMB     358      PMPE     C315     CTL2    -0.180000       12.0110           0
     44575 MEMB     358      PMPE     H15X     HAL2     0.900000E-01   1.00800           0
     44576 MEMB     358      PMPE     H15Y     HAL2     0.900000E-01   1.00800           0
     44577 MEMB     358      PMPE     C316     CTL3    -0.270000       12.0110           0
     44578 MEMB     358      PMPE     H16X     HAL3     0.900000E-01   1.00800           0
     44579 MEMB     358      PMPE     H16Y     HAL3     0.900000E-01   1.00800           0
     44580 MEMB     358      PMPE     H16Z     HAL3     0.900000E-01   1.00800           0
     44581 MEMB     359      PMPE     N        NH3L    -0.300000       14.0070           0
     44582 MEMB     359      PMPE     HN1      HCL      0.330000       1.00800           0
     44583 MEMB     359      PMPE     HN2      HCL      0.330000       1.00800           0
     44584 MEMB     359      PMPE     HN3      HCL      0.330000       1.00800           0
     44585 MEMB     359      PMPE     C12      CTL2     0.130000       12.0110           0
     44586 MEMB     359      PMPE     H12A     HAL2     0.900000E-01   1.00800           0
     44587 MEMB     359      PMPE     H12B     HAL2     0.900000E-01   1.00800           0
     44588 MEMB     359      PMPE     C11      CTL2    -0.800000E-01   12.0110           0
     44589 MEMB     359      PMPE     H11A     HAL2     0.900000E-01   1.00800           0
     44590 MEMB     359      PMPE     H11B     HAL2     0.900000E-01   1.00800           0
     44591 MEMB     359      PMPE     P        PL        1.50000       30.9740           0
     44592 MEMB     359      PMPE     O13      O2L     -0.780000       15.9994           0
     44593 MEMB     359      PMPE     O14      O2L     -0.780000       15.9994           0
     44594 MEMB     359      PMPE     O11      OSLP    -0.570000       15.9994           0
     44595 MEMB     359      PMPE     O12      OSLP    -0.570000       15.9994           0
     44596 MEMB     359      PMPE     C1       CTL2    -0.800000E-01   12.0110           0
     44597 MEMB     359      PMPE     HA       HAL2     0.900000E-01   1.00800           0
     44598 MEMB     359      PMPE     HB       HAL2     0.900000E-01   1.00800           0
     44599 MEMB     359      PMPE     C2       CTL1     0.170000       12.0110           0
     44600 MEMB     359      PMPE     HS       HAL1     0.900000E-01   1.00800           0
     44601 MEMB     359      PMPE     O21      OSL     -0.490000       15.9994           0
     44602 MEMB     359      PMPE     C21      CL       0.900000       12.0110           0
     44603 MEMB     359      PMPE     O22      OBL     -0.630000       15.9994           0
     44604 MEMB     359      PMPE     C22      CTL2    -0.220000       12.0110           0
     44605 MEMB     359      PMPE     H2R      HAL2     0.900000E-01   1.00800           0
     44606 MEMB     359      PMPE     H2S      HAL2     0.900000E-01   1.00800           0
     44607 MEMB     359      PMPE     C3       CTL2     0.800000E-01   12.0110           0
     44608 MEMB     359      PMPE     HX       HAL2     0.900000E-01   1.00800           0
     44609 MEMB     359      PMPE     HY       HAL2     0.900000E-01   1.00800           0
     44610 MEMB     359      PMPE     O31      OSL     -0.490000       15.9994           0
     44611 MEMB     359      PMPE     C31      CL       0.900000       12.0110           0
     44612 MEMB     359      PMPE     O32      OBL     -0.630000       15.9994           0
     44613 MEMB     359      PMPE     C32      CTL2    -0.220000       12.0110           0
     44614 MEMB     359      PMPE     H2X      HAL2     0.900000E-01   1.00800           0
     44615 MEMB     359      PMPE     H2Y      HAL2     0.900000E-01   1.00800           0
     44616 MEMB     359      PMPE     C23      CTL2    -0.180000       12.0110           0
     44617 MEMB     359      PMPE     H3R      HAL2     0.900000E-01   1.00800           0
     44618 MEMB     359      PMPE     H3S      HAL2     0.900000E-01   1.00800           0
     44619 MEMB     359      PMPE     C24      CTL2    -0.180000       12.0110           0
     44620 MEMB     359      PMPE     H4R      HAL2     0.900000E-01   1.00800           0
     44621 MEMB     359      PMPE     H4S      HAL2     0.900000E-01   1.00800           0
     44622 MEMB     359      PMPE     C25      CTL2    -0.180000       12.0110           0
     44623 MEMB     359      PMPE     H5R      HAL2     0.900000E-01   1.00800           0
     44624 MEMB     359      PMPE     H5S      HAL2     0.900000E-01   1.00800           0
     44625 MEMB     359      PMPE     C26      CTL2    -0.180000       12.0110           0
     44626 MEMB     359      PMPE     H6R      HAL2     0.900000E-01   1.00800           0
     44627 MEMB     359      PMPE     H6S      HAL2     0.900000E-01   1.00800           0
     44628 MEMB     359      PMPE     C27      CTL2    -0.180000       12.0110           0
     44629 MEMB     359      PMPE     H7R      HAL2     0.900000E-01   1.00800           0
     44630 MEMB     359      PMPE     H7S      HAL2     0.900000E-01   1.00800           0
     44631 MEMB     359      PMPE     C28      CTL2    -0.180000       12.0110           0
     44632 MEMB     359      PMPE     H8R      HAL2     0.900000E-01   1.00800           0
     44633 MEMB     359      PMPE     H8S      HAL2     0.900000E-01   1.00800           0
     44634 MEMB     359      PMPE     C29      CG3RC1  -0.900000E-01   12.0110           0
     44635 MEMB     359      PMPE     H9R      HGA1     0.900000E-01   1.00800           0
     44636 MEMB     359      PMPE     C217     CG3C31  -0.180000       12.0110           0
     44637 MEMB     359      PMPE     H17R     HGA2     0.900000E-01   1.00800           0
     44638 MEMB     359      PMPE     H17S     HGA2     0.900000E-01   1.00800           0
     44639 MEMB     359      PMPE     C210     CG3RC1  -0.900000E-01   12.0110           0
     44640 MEMB     359      PMPE     H10R     HGA1     0.900000E-01   1.00800           0
     44641 MEMB     359      PMPE     C211     CTL2    -0.180000       12.0110           0
     44642 MEMB     359      PMPE     H11R     HAL2     0.900000E-01   1.00800           0
     44643 MEMB     359      PMPE     H11S     HAL2     0.900000E-01   1.00800           0
     44644 MEMB     359      PMPE     C212     CTL2    -0.180000       12.0110           0
     44645 MEMB     359      PMPE     H12R     HAL2     0.900000E-01   1.00800           0
     44646 MEMB     359      PMPE     H12S     HAL2     0.900000E-01   1.00800           0
     44647 MEMB     359      PMPE     C213     CTL2    -0.180000       12.0110           0
     44648 MEMB     359      PMPE     H13R     HAL2     0.900000E-01   1.00800           0
     44649 MEMB     359      PMPE     H13S     HAL2     0.900000E-01   1.00800           0
     44650 MEMB     359      PMPE     C214     CTL2    -0.180000       12.0110           0
     44651 MEMB     359      PMPE     H14R     HAL2     0.900000E-01   1.00800           0
     44652 MEMB     359      PMPE     H14S     HAL2     0.900000E-01   1.00800           0
     44653 MEMB     359      PMPE     C215     CTL2    -0.180000       12.0110           0
     44654 MEMB     359      PMPE     H15R     HAL2     0.900000E-01   1.00800           0
     44655 MEMB     359      PMPE     H15S     HAL2     0.900000E-01   1.00800           0
     44656 MEMB     359      PMPE     C216     CTL3    -0.270000       12.0110           0
     44657 MEMB     359      PMPE     H16R     HAL3     0.900000E-01   1.00800           0
     44658 MEMB     359      PMPE     H16S     HAL3     0.900000E-01   1.00800           0
     44659 MEMB     359      PMPE     H16T     HAL3     0.900000E-01   1.00800           0
     44660 MEMB     359      PMPE     C33      CTL2    -0.180000       12.0110           0
     44661 MEMB     359      PMPE     H3X      HAL2     0.900000E-01   1.00800           0
     44662 MEMB     359      PMPE     H3Y      HAL2     0.900000E-01   1.00800           0
     44663 MEMB     359      PMPE     C34      CTL2    -0.180000       12.0110           0
     44664 MEMB     359      PMPE     H4X      HAL2     0.900000E-01   1.00800           0
     44665 MEMB     359      PMPE     H4Y      HAL2     0.900000E-01   1.00800           0
     44666 MEMB     359      PMPE     C35      CTL2    -0.180000       12.0110           0
     44667 MEMB     359      PMPE     H5X      HAL2     0.900000E-01   1.00800           0
     44668 MEMB     359      PMPE     H5Y      HAL2     0.900000E-01   1.00800           0
     44669 MEMB     359      PMPE     C36      CTL2    -0.180000       12.0110           0
     44670 MEMB     359      PMPE     H6X      HAL2     0.900000E-01   1.00800           0
     44671 MEMB     359      PMPE     H6Y      HAL2     0.900000E-01   1.00800           0
     44672 MEMB     359      PMPE     C37      CTL2    -0.180000       12.0110           0
     44673 MEMB     359      PMPE     H7X      HAL2     0.900000E-01   1.00800           0
     44674 MEMB     359      PMPE     H7Y      HAL2     0.900000E-01   1.00800           0
     44675 MEMB     359      PMPE     C38      CTL2    -0.180000       12.0110           0
     44676 MEMB     359      PMPE     H8X      HAL2     0.900000E-01   1.00800           0
     44677 MEMB     359      PMPE     H8Y      HAL2     0.900000E-01   1.00800           0
     44678 MEMB     359      PMPE     C39      CTL2    -0.180000       12.0110           0
     44679 MEMB     359      PMPE     H9X      HAL2     0.900000E-01   1.00800           0
     44680 MEMB     359      PMPE     H9Y      HAL2     0.900000E-01   1.00800           0
     44681 MEMB     359      PMPE     C310     CTL2    -0.180000       12.0110           0
     44682 MEMB     359      PMPE     H10X     HAL2     0.900000E-01   1.00800           0
     44683 MEMB     359      PMPE     H10Y     HAL2     0.900000E-01   1.00800           0
     44684 MEMB     359      PMPE     C311     CTL2    -0.180000       12.0110           0
     44685 MEMB     359      PMPE     H11X     HAL2     0.900000E-01   1.00800           0
     44686 MEMB     359      PMPE     H11Y     HAL2     0.900000E-01   1.00800           0
     44687 MEMB     359      PMPE     C312     CTL2    -0.180000       12.0110           0
     44688 MEMB     359      PMPE     H12X     HAL2     0.900000E-01   1.00800           0
     44689 MEMB     359      PMPE     H12Y     HAL2     0.900000E-01   1.00800           0
     44690 MEMB     359      PMPE     C313     CTL2    -0.180000       12.0110           0
     44691 MEMB     359      PMPE     H13X     HAL2     0.900000E-01   1.00800           0
     44692 MEMB     359      PMPE     H13Y     HAL2     0.900000E-01   1.00800           0
     44693 MEMB     359      PMPE     C314     CTL2    -0.180000       12.0110           0
     44694 MEMB     359      PMPE     H14X     HAL2     0.900000E-01   1.00800           0
     44695 MEMB     359      PMPE     H14Y     HAL2     0.900000E-01   1.00800           0
     44696 MEMB     359      PMPE     C315     CTL2    -0.180000       12.0110           0
     44697 MEMB     359      PMPE     H15X     HAL2     0.900000E-01   1.00800           0
     44698 MEMB     359      PMPE     H15Y     HAL2     0.900000E-01   1.00800           0
     44699 MEMB     359      PMPE     C316     CTL3    -0.270000       12.0110           0
     44700 MEMB     359      PMPE     H16X     HAL3     0.900000E-01   1.00800           0
     44701 MEMB     359      PMPE     H16Y     HAL3     0.900000E-01   1.00800           0
     44702 MEMB     359      PMPE     H16Z     HAL3     0.900000E-01   1.00800           0
     44703 MEMB     360      PYPG     C13      CTL2     0.500000E-01   12.0110           0
     44704 MEMB     360      PYPG     H13A     HAL2     0.900000E-01   1.00800           0
     44705 MEMB     360      PYPG     H13B     HAL2     0.900000E-01   1.00800           0
     44706 MEMB     360      PYPG     OC3      OHL     -0.660000       15.9994           0
     44707 MEMB     360      PYPG     HO3      HOL      0.430000       1.00800           0
     44708 MEMB     360      PYPG     C12      CTL1     0.140000       12.0110           0
     44709 MEMB     360      PYPG     H12A     HAL1     0.900000E-01   1.00800           0
     44710 MEMB     360      PYPG     OC2      OHL     -0.660000       15.9994           0
     44711 MEMB     360      PYPG     HO2      HOL      0.430000       1.00800           0
     44712 MEMB     360      PYPG     C11      CTL2    -0.800000E-01   12.0110           0
     44713 MEMB     360      PYPG     H11A     HAL2     0.900000E-01   1.00800           0
     44714 MEMB     360      PYPG     H11B     HAL2     0.900000E-01   1.00800           0
     44715 MEMB     360      PYPG     P        PL        1.50000       30.9740           0
     44716 MEMB     360      PYPG     O13      O2L     -0.780000       15.9994           0
     44717 MEMB     360      PYPG     O14      O2L     -0.780000       15.9994           0
     44718 MEMB     360      PYPG     O11      OSLP    -0.570000       15.9994           0
     44719 MEMB     360      PYPG     O12      OSLP    -0.570000       15.9994           0
     44720 MEMB     360      PYPG     C1       CTL2    -0.800000E-01   12.0110           0
     44721 MEMB     360      PYPG     HA       HAL2     0.900000E-01   1.00800           0
     44722 MEMB     360      PYPG     HB       HAL2     0.900000E-01   1.00800           0
     44723 MEMB     360      PYPG     C2       CTL1     0.170000       12.0110           0
     44724 MEMB     360      PYPG     HS       HAL1     0.900000E-01   1.00800           0
     44725 MEMB     360      PYPG     O21      OSL     -0.490000       15.9994           0
     44726 MEMB     360      PYPG     C21      CL       0.900000       12.0110           0
     44727 MEMB     360      PYPG     O22      OBL     -0.630000       15.9994           0
     44728 MEMB     360      PYPG     C22      CTL2    -0.220000       12.0110           0
     44729 MEMB     360      PYPG     H2R      HAL2     0.900000E-01   1.00800           0
     44730 MEMB     360      PYPG     H2S      HAL2     0.900000E-01   1.00800           0
     44731 MEMB     360      PYPG     C3       CTL2     0.800000E-01   12.0110           0
     44732 MEMB     360      PYPG     HX       HAL2     0.900000E-01   1.00800           0
     44733 MEMB     360      PYPG     HY       HAL2     0.900000E-01   1.00800           0
     44734 MEMB     360      PYPG     O31      OSL     -0.490000       15.9994           0
     44735 MEMB     360      PYPG     C31      CL       0.900000       12.0110           0
     44736 MEMB     360      PYPG     O32      OBL     -0.630000       15.9994           0
     44737 MEMB     360      PYPG     C32      CTL2    -0.220000       12.0110           0
     44738 MEMB     360      PYPG     H2X      HAL2     0.900000E-01   1.00800           0
     44739 MEMB     360      PYPG     H2Y      HAL2     0.900000E-01   1.00800           0
     44740 MEMB     360      PYPG     C23      CTL2    -0.180000       12.0110           0
     44741 MEMB     360      PYPG     H3R      HAL2     0.900000E-01   1.00800           0
     44742 MEMB     360      PYPG     H3S      HAL2     0.900000E-01   1.00800           0
     44743 MEMB     360      PYPG     C24      CTL2    -0.180000       12.0110           0
     44744 MEMB     360      PYPG     H4R      HAL2     0.900000E-01   1.00800           0
     44745 MEMB     360      PYPG     H4S      HAL2     0.900000E-01   1.00800           0
     44746 MEMB     360      PYPG     C25      CTL2    -0.180000       12.0110           0
     44747 MEMB     360      PYPG     H5R      HAL2     0.900000E-01   1.00800           0
     44748 MEMB     360      PYPG     H5S      HAL2     0.900000E-01   1.00800           0
     44749 MEMB     360      PYPG     C26      CTL2    -0.180000       12.0110           0
     44750 MEMB     360      PYPG     H6R      HAL2     0.900000E-01   1.00800           0
     44751 MEMB     360      PYPG     H6S      HAL2     0.900000E-01   1.00800           0
     44752 MEMB     360      PYPG     C27      CTL2    -0.180000       12.0110           0
     44753 MEMB     360      PYPG     H7R      HAL2     0.900000E-01   1.00800           0
     44754 MEMB     360      PYPG     H7S      HAL2     0.900000E-01   1.00800           0
     44755 MEMB     360      PYPG     C28      CTL2    -0.180000       12.0110           0
     44756 MEMB     360      PYPG     H8R      HAL2     0.900000E-01   1.00800           0
     44757 MEMB     360      PYPG     H8S      HAL2     0.900000E-01   1.00800           0
     44758 MEMB     360      PYPG     C29      CEL1    -0.150000       12.0110           0
     44759 MEMB     360      PYPG     H9R      HEL1     0.150000       1.00800           0
     44760 MEMB     360      PYPG     C210     CEL1    -0.150000       12.0110           0
     44761 MEMB     360      PYPG     H10R     HEL1     0.150000       1.00800           0
     44762 MEMB     360      PYPG     C211     CTL2    -0.180000       12.0110           0
     44763 MEMB     360      PYPG     H11R     HAL2     0.900000E-01   1.00800           0
     44764 MEMB     360      PYPG     H11S     HAL2     0.900000E-01   1.00800           0
     44765 MEMB     360      PYPG     C212     CTL2    -0.180000       12.0110           0
     44766 MEMB     360      PYPG     H12R     HAL2     0.900000E-01   1.00800           0
     44767 MEMB     360      PYPG     H12S     HAL2     0.900000E-01   1.00800           0
     44768 MEMB     360      PYPG     C213     CTL2    -0.180000       12.0110           0
     44769 MEMB     360      PYPG     H13R     HAL2     0.900000E-01   1.00800           0
     44770 MEMB     360      PYPG     H13S     HAL2     0.900000E-01   1.00800           0
     44771 MEMB     360      PYPG     C214     CTL2    -0.180000       12.0110           0
     44772 MEMB     360      PYPG     H14R     HAL2     0.900000E-01   1.00800           0
     44773 MEMB     360      PYPG     H14S     HAL2     0.900000E-01   1.00800           0
     44774 MEMB     360      PYPG     C215     CTL2    -0.180000       12.0110           0
     44775 MEMB     360      PYPG     H15R     HAL2     0.900000E-01   1.00800           0
     44776 MEMB     360      PYPG     H15S     HAL2     0.900000E-01   1.00800           0
     44777 MEMB     360      PYPG     C216     CTL3    -0.270000       12.0110           0
     44778 MEMB     360      PYPG     H16R     HAL3     0.900000E-01   1.00800           0
     44779 MEMB     360      PYPG     H16S     HAL3     0.900000E-01   1.00800           0
     44780 MEMB     360      PYPG     H16T     HAL3     0.900000E-01   1.00800           0
     44781 MEMB     360      PYPG     C33      CTL2    -0.180000       12.0110           0
     44782 MEMB     360      PYPG     H3X      HAL2     0.900000E-01   1.00800           0
     44783 MEMB     360      PYPG     H3Y      HAL2     0.900000E-01   1.00800           0
     44784 MEMB     360      PYPG     C34      CTL2    -0.180000       12.0110           0
     44785 MEMB     360      PYPG     H4X      HAL2     0.900000E-01   1.00800           0
     44786 MEMB     360      PYPG     H4Y      HAL2     0.900000E-01   1.00800           0
     44787 MEMB     360      PYPG     C35      CTL2    -0.180000       12.0110           0
     44788 MEMB     360      PYPG     H5X      HAL2     0.900000E-01   1.00800           0
     44789 MEMB     360      PYPG     H5Y      HAL2     0.900000E-01   1.00800           0
     44790 MEMB     360      PYPG     C36      CTL2    -0.180000       12.0110           0
     44791 MEMB     360      PYPG     H6X      HAL2     0.900000E-01   1.00800           0
     44792 MEMB     360      PYPG     H6Y      HAL2     0.900000E-01   1.00800           0
     44793 MEMB     360      PYPG     C37      CTL2    -0.180000       12.0110           0
     44794 MEMB     360      PYPG     H7X      HAL2     0.900000E-01   1.00800           0
     44795 MEMB     360      PYPG     H7Y      HAL2     0.900000E-01   1.00800           0
     44796 MEMB     360      PYPG     C38      CTL2    -0.180000       12.0110           0
     44797 MEMB     360      PYPG     H8X      HAL2     0.900000E-01   1.00800           0
     44798 MEMB     360      PYPG     H8Y      HAL2     0.900000E-01   1.00800           0
     44799 MEMB     360      PYPG     C39      CTL2    -0.180000       12.0110           0
     44800 MEMB     360      PYPG     H9X      HAL2     0.900000E-01   1.00800           0
     44801 MEMB     360      PYPG     H9Y      HAL2     0.900000E-01   1.00800           0
     44802 MEMB     360      PYPG     C310     CTL2    -0.180000       12.0110           0
     44803 MEMB     360      PYPG     H10X     HAL2     0.900000E-01   1.00800           0
     44804 MEMB     360      PYPG     H10Y     HAL2     0.900000E-01   1.00800           0
     44805 MEMB     360      PYPG     C311     CTL2    -0.180000       12.0110           0
     44806 MEMB     360      PYPG     H11X     HAL2     0.900000E-01   1.00800           0
     44807 MEMB     360      PYPG     H11Y     HAL2     0.900000E-01   1.00800           0
     44808 MEMB     360      PYPG     C312     CTL2    -0.180000       12.0110           0
     44809 MEMB     360      PYPG     H12X     HAL2     0.900000E-01   1.00800           0
     44810 MEMB     360      PYPG     H12Y     HAL2     0.900000E-01   1.00800           0
     44811 MEMB     360      PYPG     C313     CTL2    -0.180000       12.0110           0
     44812 MEMB     360      PYPG     H13X     HAL2     0.900000E-01   1.00800           0
     44813 MEMB     360      PYPG     H13Y     HAL2     0.900000E-01   1.00800           0
     44814 MEMB     360      PYPG     C314     CTL2    -0.180000       12.0110           0
     44815 MEMB     360      PYPG     H14X     HAL2     0.900000E-01   1.00800           0
     44816 MEMB     360      PYPG     H14Y     HAL2     0.900000E-01   1.00800           0
     44817 MEMB     360      PYPG     C315     CTL2    -0.180000       12.0110           0
     44818 MEMB     360      PYPG     H15X     HAL2     0.900000E-01   1.00800           0
     44819 MEMB     360      PYPG     H15Y     HAL2     0.900000E-01   1.00800           0
     44820 MEMB     360      PYPG     C316     CTL3    -0.270000       12.0110           0
     44821 MEMB     360      PYPG     H16X     HAL3     0.900000E-01   1.00800           0
     44822 MEMB     360      PYPG     H16Y     HAL3     0.900000E-01   1.00800           0
     44823 MEMB     360      PYPG     H16Z     HAL3     0.900000E-01   1.00800           0
     44824 MEMB     361      PMPE     N        NH3L    -0.300000       14.0070           0
     44825 MEMB     361      PMPE     HN1      HCL      0.330000       1.00800           0
     44826 MEMB     361      PMPE     HN2      HCL      0.330000       1.00800           0
     44827 MEMB     361      PMPE     HN3      HCL      0.330000       1.00800           0
     44828 MEMB     361      PMPE     C12      CTL2     0.130000       12.0110           0
     44829 MEMB     361      PMPE     H12A     HAL2     0.900000E-01   1.00800           0
     44830 MEMB     361      PMPE     H12B     HAL2     0.900000E-01   1.00800           0
     44831 MEMB     361      PMPE     C11      CTL2    -0.800000E-01   12.0110           0
     44832 MEMB     361      PMPE     H11A     HAL2     0.900000E-01   1.00800           0
     44833 MEMB     361      PMPE     H11B     HAL2     0.900000E-01   1.00800           0
     44834 MEMB     361      PMPE     P        PL        1.50000       30.9740           0
     44835 MEMB     361      PMPE     O13      O2L     -0.780000       15.9994           0
     44836 MEMB     361      PMPE     O14      O2L     -0.780000       15.9994           0
     44837 MEMB     361      PMPE     O11      OSLP    -0.570000       15.9994           0
     44838 MEMB     361      PMPE     O12      OSLP    -0.570000       15.9994           0
     44839 MEMB     361      PMPE     C1       CTL2    -0.800000E-01   12.0110           0
     44840 MEMB     361      PMPE     HA       HAL2     0.900000E-01   1.00800           0
     44841 MEMB     361      PMPE     HB       HAL2     0.900000E-01   1.00800           0
     44842 MEMB     361      PMPE     C2       CTL1     0.170000       12.0110           0
     44843 MEMB     361      PMPE     HS       HAL1     0.900000E-01   1.00800           0
     44844 MEMB     361      PMPE     O21      OSL     -0.490000       15.9994           0
     44845 MEMB     361      PMPE     C21      CL       0.900000       12.0110           0
     44846 MEMB     361      PMPE     O22      OBL     -0.630000       15.9994           0
     44847 MEMB     361      PMPE     C22      CTL2    -0.220000       12.0110           0
     44848 MEMB     361      PMPE     H2R      HAL2     0.900000E-01   1.00800           0
     44849 MEMB     361      PMPE     H2S      HAL2     0.900000E-01   1.00800           0
     44850 MEMB     361      PMPE     C3       CTL2     0.800000E-01   12.0110           0
     44851 MEMB     361      PMPE     HX       HAL2     0.900000E-01   1.00800           0
     44852 MEMB     361      PMPE     HY       HAL2     0.900000E-01   1.00800           0
     44853 MEMB     361      PMPE     O31      OSL     -0.490000       15.9994           0
     44854 MEMB     361      PMPE     C31      CL       0.900000       12.0110           0
     44855 MEMB     361      PMPE     O32      OBL     -0.630000       15.9994           0
     44856 MEMB     361      PMPE     C32      CTL2    -0.220000       12.0110           0
     44857 MEMB     361      PMPE     H2X      HAL2     0.900000E-01   1.00800           0
     44858 MEMB     361      PMPE     H2Y      HAL2     0.900000E-01   1.00800           0
     44859 MEMB     361      PMPE     C23      CTL2    -0.180000       12.0110           0
     44860 MEMB     361      PMPE     H3R      HAL2     0.900000E-01   1.00800           0
     44861 MEMB     361      PMPE     H3S      HAL2     0.900000E-01   1.00800           0
     44862 MEMB     361      PMPE     C24      CTL2    -0.180000       12.0110           0
     44863 MEMB     361      PMPE     H4R      HAL2     0.900000E-01   1.00800           0
     44864 MEMB     361      PMPE     H4S      HAL2     0.900000E-01   1.00800           0
     44865 MEMB     361      PMPE     C25      CTL2    -0.180000       12.0110           0
     44866 MEMB     361      PMPE     H5R      HAL2     0.900000E-01   1.00800           0
     44867 MEMB     361      PMPE     H5S      HAL2     0.900000E-01   1.00800           0
     44868 MEMB     361      PMPE     C26      CTL2    -0.180000       12.0110           0
     44869 MEMB     361      PMPE     H6R      HAL2     0.900000E-01   1.00800           0
     44870 MEMB     361      PMPE     H6S      HAL2     0.900000E-01   1.00800           0
     44871 MEMB     361      PMPE     C27      CTL2    -0.180000       12.0110           0
     44872 MEMB     361      PMPE     H7R      HAL2     0.900000E-01   1.00800           0
     44873 MEMB     361      PMPE     H7S      HAL2     0.900000E-01   1.00800           0
     44874 MEMB     361      PMPE     C28      CTL2    -0.180000       12.0110           0
     44875 MEMB     361      PMPE     H8R      HAL2     0.900000E-01   1.00800           0
     44876 MEMB     361      PMPE     H8S      HAL2     0.900000E-01   1.00800           0
     44877 MEMB     361      PMPE     C29      CG3RC1  -0.900000E-01   12.0110           0
     44878 MEMB     361      PMPE     H9R      HGA1     0.900000E-01   1.00800           0
     44879 MEMB     361      PMPE     C217     CG3C31  -0.180000       12.0110           0
     44880 MEMB     361      PMPE     H17R     HGA2     0.900000E-01   1.00800           0
     44881 MEMB     361      PMPE     H17S     HGA2     0.900000E-01   1.00800           0
     44882 MEMB     361      PMPE     C210     CG3RC1  -0.900000E-01   12.0110           0
     44883 MEMB     361      PMPE     H10R     HGA1     0.900000E-01   1.00800           0
     44884 MEMB     361      PMPE     C211     CTL2    -0.180000       12.0110           0
     44885 MEMB     361      PMPE     H11R     HAL2     0.900000E-01   1.00800           0
     44886 MEMB     361      PMPE     H11S     HAL2     0.900000E-01   1.00800           0
     44887 MEMB     361      PMPE     C212     CTL2    -0.180000       12.0110           0
     44888 MEMB     361      PMPE     H12R     HAL2     0.900000E-01   1.00800           0
     44889 MEMB     361      PMPE     H12S     HAL2     0.900000E-01   1.00800           0
     44890 MEMB     361      PMPE     C213     CTL2    -0.180000       12.0110           0
     44891 MEMB     361      PMPE     H13R     HAL2     0.900000E-01   1.00800           0
     44892 MEMB     361      PMPE     H13S     HAL2     0.900000E-01   1.00800           0
     44893 MEMB     361      PMPE     C214     CTL2    -0.180000       12.0110           0
     44894 MEMB     361      PMPE     H14R     HAL2     0.900000E-01   1.00800           0
     44895 MEMB     361      PMPE     H14S     HAL2     0.900000E-01   1.00800           0
     44896 MEMB     361      PMPE     C215     CTL2    -0.180000       12.0110           0
     44897 MEMB     361      PMPE     H15R     HAL2     0.900000E-01   1.00800           0
     44898 MEMB     361      PMPE     H15S     HAL2     0.900000E-01   1.00800           0
     44899 MEMB     361      PMPE     C216     CTL3    -0.270000       12.0110           0
     44900 MEMB     361      PMPE     H16R     HAL3     0.900000E-01   1.00800           0
     44901 MEMB     361      PMPE     H16S     HAL3     0.900000E-01   1.00800           0
     44902 MEMB     361      PMPE     H16T     HAL3     0.900000E-01   1.00800           0
     44903 MEMB     361      PMPE     C33      CTL2    -0.180000       12.0110           0
     44904 MEMB     361      PMPE     H3X      HAL2     0.900000E-01   1.00800           0
     44905 MEMB     361      PMPE     H3Y      HAL2     0.900000E-01   1.00800           0
     44906 MEMB     361      PMPE     C34      CTL2    -0.180000       12.0110           0
     44907 MEMB     361      PMPE     H4X      HAL2     0.900000E-01   1.00800           0
     44908 MEMB     361      PMPE     H4Y      HAL2     0.900000E-01   1.00800           0
     44909 MEMB     361      PMPE     C35      CTL2    -0.180000       12.0110           0
     44910 MEMB     361      PMPE     H5X      HAL2     0.900000E-01   1.00800           0
     44911 MEMB     361      PMPE     H5Y      HAL2     0.900000E-01   1.00800           0
     44912 MEMB     361      PMPE     C36      CTL2    -0.180000       12.0110           0
     44913 MEMB     361      PMPE     H6X      HAL2     0.900000E-01   1.00800           0
     44914 MEMB     361      PMPE     H6Y      HAL2     0.900000E-01   1.00800           0
     44915 MEMB     361      PMPE     C37      CTL2    -0.180000       12.0110           0
     44916 MEMB     361      PMPE     H7X      HAL2     0.900000E-01   1.00800           0
     44917 MEMB     361      PMPE     H7Y      HAL2     0.900000E-01   1.00800           0
     44918 MEMB     361      PMPE     C38      CTL2    -0.180000       12.0110           0
     44919 MEMB     361      PMPE     H8X      HAL2     0.900000E-01   1.00800           0
     44920 MEMB     361      PMPE     H8Y      HAL2     0.900000E-01   1.00800           0
     44921 MEMB     361      PMPE     C39      CTL2    -0.180000       12.0110           0
     44922 MEMB     361      PMPE     H9X      HAL2     0.900000E-01   1.00800           0
     44923 MEMB     361      PMPE     H9Y      HAL2     0.900000E-01   1.00800           0
     44924 MEMB     361      PMPE     C310     CTL2    -0.180000       12.0110           0
     44925 MEMB     361      PMPE     H10X     HAL2     0.900000E-01   1.00800           0
     44926 MEMB     361      PMPE     H10Y     HAL2     0.900000E-01   1.00800           0
     44927 MEMB     361      PMPE     C311     CTL2    -0.180000       12.0110           0
     44928 MEMB     361      PMPE     H11X     HAL2     0.900000E-01   1.00800           0
     44929 MEMB     361      PMPE     H11Y     HAL2     0.900000E-01   1.00800           0
     44930 MEMB     361      PMPE     C312     CTL2    -0.180000       12.0110           0
     44931 MEMB     361      PMPE     H12X     HAL2     0.900000E-01   1.00800           0
     44932 MEMB     361      PMPE     H12Y     HAL2     0.900000E-01   1.00800           0
     44933 MEMB     361      PMPE     C313     CTL2    -0.180000       12.0110           0
     44934 MEMB     361      PMPE     H13X     HAL2     0.900000E-01   1.00800           0
     44935 MEMB     361      PMPE     H13Y     HAL2     0.900000E-01   1.00800           0
     44936 MEMB     361      PMPE     C314     CTL2    -0.180000       12.0110           0
     44937 MEMB     361      PMPE     H14X     HAL2     0.900000E-01   1.00800           0
     44938 MEMB     361      PMPE     H14Y     HAL2     0.900000E-01   1.00800           0
     44939 MEMB     361      PMPE     C315     CTL2    -0.180000       12.0110           0
     44940 MEMB     361      PMPE     H15X     HAL2     0.900000E-01   1.00800           0
     44941 MEMB     361      PMPE     H15Y     HAL2     0.900000E-01   1.00800           0
     44942 MEMB     361      PMPE     C316     CTL3    -0.270000       12.0110           0
     44943 MEMB     361      PMPE     H16X     HAL3     0.900000E-01   1.00800           0
     44944 MEMB     361      PMPE     H16Y     HAL3     0.900000E-01   1.00800           0
     44945 MEMB     361      PMPE     H16Z     HAL3     0.900000E-01   1.00800           0
     44946 MEMB     362      PMPE     N        NH3L    -0.300000       14.0070           0
     44947 MEMB     362      PMPE     HN1      HCL      0.330000       1.00800           0
     44948 MEMB     362      PMPE     HN2      HCL      0.330000       1.00800           0
     44949 MEMB     362      PMPE     HN3      HCL      0.330000       1.00800           0
     44950 MEMB     362      PMPE     C12      CTL2     0.130000       12.0110           0
     44951 MEMB     362      PMPE     H12A     HAL2     0.900000E-01   1.00800           0
     44952 MEMB     362      PMPE     H12B     HAL2     0.900000E-01   1.00800           0
     44953 MEMB     362      PMPE     C11      CTL2    -0.800000E-01   12.0110           0
     44954 MEMB     362      PMPE     H11A     HAL2     0.900000E-01   1.00800           0
     44955 MEMB     362      PMPE     H11B     HAL2     0.900000E-01   1.00800           0
     44956 MEMB     362      PMPE     P        PL        1.50000       30.9740           0
     44957 MEMB     362      PMPE     O13      O2L     -0.780000       15.9994           0
     44958 MEMB     362      PMPE     O14      O2L     -0.780000       15.9994           0
     44959 MEMB     362      PMPE     O11      OSLP    -0.570000       15.9994           0
     44960 MEMB     362      PMPE     O12      OSLP    -0.570000       15.9994           0
     44961 MEMB     362      PMPE     C1       CTL2    -0.800000E-01   12.0110           0
     44962 MEMB     362      PMPE     HA       HAL2     0.900000E-01   1.00800           0
     44963 MEMB     362      PMPE     HB       HAL2     0.900000E-01   1.00800           0
     44964 MEMB     362      PMPE     C2       CTL1     0.170000       12.0110           0
     44965 MEMB     362      PMPE     HS       HAL1     0.900000E-01   1.00800           0
     44966 MEMB     362      PMPE     O21      OSL     -0.490000       15.9994           0
     44967 MEMB     362      PMPE     C21      CL       0.900000       12.0110           0
     44968 MEMB     362      PMPE     O22      OBL     -0.630000       15.9994           0
     44969 MEMB     362      PMPE     C22      CTL2    -0.220000       12.0110           0
     44970 MEMB     362      PMPE     H2R      HAL2     0.900000E-01   1.00800           0
     44971 MEMB     362      PMPE     H2S      HAL2     0.900000E-01   1.00800           0
     44972 MEMB     362      PMPE     C3       CTL2     0.800000E-01   12.0110           0
     44973 MEMB     362      PMPE     HX       HAL2     0.900000E-01   1.00800           0
     44974 MEMB     362      PMPE     HY       HAL2     0.900000E-01   1.00800           0
     44975 MEMB     362      PMPE     O31      OSL     -0.490000       15.9994           0
     44976 MEMB     362      PMPE     C31      CL       0.900000       12.0110           0
     44977 MEMB     362      PMPE     O32      OBL     -0.630000       15.9994           0
     44978 MEMB     362      PMPE     C32      CTL2    -0.220000       12.0110           0
     44979 MEMB     362      PMPE     H2X      HAL2     0.900000E-01   1.00800           0
     44980 MEMB     362      PMPE     H2Y      HAL2     0.900000E-01   1.00800           0
     44981 MEMB     362      PMPE     C23      CTL2    -0.180000       12.0110           0
     44982 MEMB     362      PMPE     H3R      HAL2     0.900000E-01   1.00800           0
     44983 MEMB     362      PMPE     H3S      HAL2     0.900000E-01   1.00800           0
     44984 MEMB     362      PMPE     C24      CTL2    -0.180000       12.0110           0
     44985 MEMB     362      PMPE     H4R      HAL2     0.900000E-01   1.00800           0
     44986 MEMB     362      PMPE     H4S      HAL2     0.900000E-01   1.00800           0
     44987 MEMB     362      PMPE     C25      CTL2    -0.180000       12.0110           0
     44988 MEMB     362      PMPE     H5R      HAL2     0.900000E-01   1.00800           0
     44989 MEMB     362      PMPE     H5S      HAL2     0.900000E-01   1.00800           0
     44990 MEMB     362      PMPE     C26      CTL2    -0.180000       12.0110           0
     44991 MEMB     362      PMPE     H6R      HAL2     0.900000E-01   1.00800           0
     44992 MEMB     362      PMPE     H6S      HAL2     0.900000E-01   1.00800           0
     44993 MEMB     362      PMPE     C27      CTL2    -0.180000       12.0110           0
     44994 MEMB     362      PMPE     H7R      HAL2     0.900000E-01   1.00800           0
     44995 MEMB     362      PMPE     H7S      HAL2     0.900000E-01   1.00800           0
     44996 MEMB     362      PMPE     C28      CTL2    -0.180000       12.0110           0
     44997 MEMB     362      PMPE     H8R      HAL2     0.900000E-01   1.00800           0
     44998 MEMB     362      PMPE     H8S      HAL2     0.900000E-01   1.00800           0
     44999 MEMB     362      PMPE     C29      CG3RC1  -0.900000E-01   12.0110           0
     45000 MEMB     362      PMPE     H9R      HGA1     0.900000E-01   1.00800           0
     45001 MEMB     362      PMPE     C217     CG3C31  -0.180000       12.0110           0
     45002 MEMB     362      PMPE     H17R     HGA2     0.900000E-01   1.00800           0
     45003 MEMB     362      PMPE     H17S     HGA2     0.900000E-01   1.00800           0
     45004 MEMB     362      PMPE     C210     CG3RC1  -0.900000E-01   12.0110           0
     45005 MEMB     362      PMPE     H10R     HGA1     0.900000E-01   1.00800           0
     45006 MEMB     362      PMPE     C211     CTL2    -0.180000       12.0110           0
     45007 MEMB     362      PMPE     H11R     HAL2     0.900000E-01   1.00800           0
     45008 MEMB     362      PMPE     H11S     HAL2     0.900000E-01   1.00800           0
     45009 MEMB     362      PMPE     C212     CTL2    -0.180000       12.0110           0
     45010 MEMB     362      PMPE     H12R     HAL2     0.900000E-01   1.00800           0
     45011 MEMB     362      PMPE     H12S     HAL2     0.900000E-01   1.00800           0
     45012 MEMB     362      PMPE     C213     CTL2    -0.180000       12.0110           0
     45013 MEMB     362      PMPE     H13R     HAL2     0.900000E-01   1.00800           0
     45014 MEMB     362      PMPE     H13S     HAL2     0.900000E-01   1.00800           0
     45015 MEMB     362      PMPE     C214     CTL2    -0.180000       12.0110           0
     45016 MEMB     362      PMPE     H14R     HAL2     0.900000E-01   1.00800           0
     45017 MEMB     362      PMPE     H14S     HAL2     0.900000E-01   1.00800           0
     45018 MEMB     362      PMPE     C215     CTL2    -0.180000       12.0110           0
     45019 MEMB     362      PMPE     H15R     HAL2     0.900000E-01   1.00800           0
     45020 MEMB     362      PMPE     H15S     HAL2     0.900000E-01   1.00800           0
     45021 MEMB     362      PMPE     C216     CTL3    -0.270000       12.0110           0
     45022 MEMB     362      PMPE     H16R     HAL3     0.900000E-01   1.00800           0
     45023 MEMB     362      PMPE     H16S     HAL3     0.900000E-01   1.00800           0
     45024 MEMB     362      PMPE     H16T     HAL3     0.900000E-01   1.00800           0
     45025 MEMB     362      PMPE     C33      CTL2    -0.180000       12.0110           0
     45026 MEMB     362      PMPE     H3X      HAL2     0.900000E-01   1.00800           0
     45027 MEMB     362      PMPE     H3Y      HAL2     0.900000E-01   1.00800           0
     45028 MEMB     362      PMPE     C34      CTL2    -0.180000       12.0110           0
     45029 MEMB     362      PMPE     H4X      HAL2     0.900000E-01   1.00800           0
     45030 MEMB     362      PMPE     H4Y      HAL2     0.900000E-01   1.00800           0
     45031 MEMB     362      PMPE     C35      CTL2    -0.180000       12.0110           0
     45032 MEMB     362      PMPE     H5X      HAL2     0.900000E-01   1.00800           0
     45033 MEMB     362      PMPE     H5Y      HAL2     0.900000E-01   1.00800           0
     45034 MEMB     362      PMPE     C36      CTL2    -0.180000       12.0110           0
     45035 MEMB     362      PMPE     H6X      HAL2     0.900000E-01   1.00800           0
     45036 MEMB     362      PMPE     H6Y      HAL2     0.900000E-01   1.00800           0
     45037 MEMB     362      PMPE     C37      CTL2    -0.180000       12.0110           0
     45038 MEMB     362      PMPE     H7X      HAL2     0.900000E-01   1.00800           0
     45039 MEMB     362      PMPE     H7Y      HAL2     0.900000E-01   1.00800           0
     45040 MEMB     362      PMPE     C38      CTL2    -0.180000       12.0110           0
     45041 MEMB     362      PMPE     H8X      HAL2     0.900000E-01   1.00800           0
     45042 MEMB     362      PMPE     H8Y      HAL2     0.900000E-01   1.00800           0
     45043 MEMB     362      PMPE     C39      CTL2    -0.180000       12.0110           0
     45044 MEMB     362      PMPE     H9X      HAL2     0.900000E-01   1.00800           0
     45045 MEMB     362      PMPE     H9Y      HAL2     0.900000E-01   1.00800           0
     45046 MEMB     362      PMPE     C310     CTL2    -0.180000       12.0110           0
     45047 MEMB     362      PMPE     H10X     HAL2     0.900000E-01   1.00800           0
     45048 MEMB     362      PMPE     H10Y     HAL2     0.900000E-01   1.00800           0
     45049 MEMB     362      PMPE     C311     CTL2    -0.180000       12.0110           0
     45050 MEMB     362      PMPE     H11X     HAL2     0.900000E-01   1.00800           0
     45051 MEMB     362      PMPE     H11Y     HAL2     0.900000E-01   1.00800           0
     45052 MEMB     362      PMPE     C312     CTL2    -0.180000       12.0110           0
     45053 MEMB     362      PMPE     H12X     HAL2     0.900000E-01   1.00800           0
     45054 MEMB     362      PMPE     H12Y     HAL2     0.900000E-01   1.00800           0
     45055 MEMB     362      PMPE     C313     CTL2    -0.180000       12.0110           0
     45056 MEMB     362      PMPE     H13X     HAL2     0.900000E-01   1.00800           0
     45057 MEMB     362      PMPE     H13Y     HAL2     0.900000E-01   1.00800           0
     45058 MEMB     362      PMPE     C314     CTL2    -0.180000       12.0110           0
     45059 MEMB     362      PMPE     H14X     HAL2     0.900000E-01   1.00800           0
     45060 MEMB     362      PMPE     H14Y     HAL2     0.900000E-01   1.00800           0
     45061 MEMB     362      PMPE     C315     CTL2    -0.180000       12.0110           0
     45062 MEMB     362      PMPE     H15X     HAL2     0.900000E-01   1.00800           0
     45063 MEMB     362      PMPE     H15Y     HAL2     0.900000E-01   1.00800           0
     45064 MEMB     362      PMPE     C316     CTL3    -0.270000       12.0110           0
     45065 MEMB     362      PMPE     H16X     HAL3     0.900000E-01   1.00800           0
     45066 MEMB     362      PMPE     H16Y     HAL3     0.900000E-01   1.00800           0
     45067 MEMB     362      PMPE     H16Z     HAL3     0.900000E-01   1.00800           0
     45068 MEMB     363      PMPE     N        NH3L    -0.300000       14.0070           0
     45069 MEMB     363      PMPE     HN1      HCL      0.330000       1.00800           0
     45070 MEMB     363      PMPE     HN2      HCL      0.330000       1.00800           0
     45071 MEMB     363      PMPE     HN3      HCL      0.330000       1.00800           0
     45072 MEMB     363      PMPE     C12      CTL2     0.130000       12.0110           0
     45073 MEMB     363      PMPE     H12A     HAL2     0.900000E-01   1.00800           0
     45074 MEMB     363      PMPE     H12B     HAL2     0.900000E-01   1.00800           0
     45075 MEMB     363      PMPE     C11      CTL2    -0.800000E-01   12.0110           0
     45076 MEMB     363      PMPE     H11A     HAL2     0.900000E-01   1.00800           0
     45077 MEMB     363      PMPE     H11B     HAL2     0.900000E-01   1.00800           0
     45078 MEMB     363      PMPE     P        PL        1.50000       30.9740           0
     45079 MEMB     363      PMPE     O13      O2L     -0.780000       15.9994           0
     45080 MEMB     363      PMPE     O14      O2L     -0.780000       15.9994           0
     45081 MEMB     363      PMPE     O11      OSLP    -0.570000       15.9994           0
     45082 MEMB     363      PMPE     O12      OSLP    -0.570000       15.9994           0
     45083 MEMB     363      PMPE     C1       CTL2    -0.800000E-01   12.0110           0
     45084 MEMB     363      PMPE     HA       HAL2     0.900000E-01   1.00800           0
     45085 MEMB     363      PMPE     HB       HAL2     0.900000E-01   1.00800           0
     45086 MEMB     363      PMPE     C2       CTL1     0.170000       12.0110           0
     45087 MEMB     363      PMPE     HS       HAL1     0.900000E-01   1.00800           0
     45088 MEMB     363      PMPE     O21      OSL     -0.490000       15.9994           0
     45089 MEMB     363      PMPE     C21      CL       0.900000       12.0110           0
     45090 MEMB     363      PMPE     O22      OBL     -0.630000       15.9994           0
     45091 MEMB     363      PMPE     C22      CTL2    -0.220000       12.0110           0
     45092 MEMB     363      PMPE     H2R      HAL2     0.900000E-01   1.00800           0
     45093 MEMB     363      PMPE     H2S      HAL2     0.900000E-01   1.00800           0
     45094 MEMB     363      PMPE     C3       CTL2     0.800000E-01   12.0110           0
     45095 MEMB     363      PMPE     HX       HAL2     0.900000E-01   1.00800           0
     45096 MEMB     363      PMPE     HY       HAL2     0.900000E-01   1.00800           0
     45097 MEMB     363      PMPE     O31      OSL     -0.490000       15.9994           0
     45098 MEMB     363      PMPE     C31      CL       0.900000       12.0110           0
     45099 MEMB     363      PMPE     O32      OBL     -0.630000       15.9994           0
     45100 MEMB     363      PMPE     C32      CTL2    -0.220000       12.0110           0
     45101 MEMB     363      PMPE     H2X      HAL2     0.900000E-01   1.00800           0
     45102 MEMB     363      PMPE     H2Y      HAL2     0.900000E-01   1.00800           0
     45103 MEMB     363      PMPE     C23      CTL2    -0.180000       12.0110           0
     45104 MEMB     363      PMPE     H3R      HAL2     0.900000E-01   1.00800           0
     45105 MEMB     363      PMPE     H3S      HAL2     0.900000E-01   1.00800           0
     45106 MEMB     363      PMPE     C24      CTL2    -0.180000       12.0110           0
     45107 MEMB     363      PMPE     H4R      HAL2     0.900000E-01   1.00800           0
     45108 MEMB     363      PMPE     H4S      HAL2     0.900000E-01   1.00800           0
     45109 MEMB     363      PMPE     C25      CTL2    -0.180000       12.0110           0
     45110 MEMB     363      PMPE     H5R      HAL2     0.900000E-01   1.00800           0
     45111 MEMB     363      PMPE     H5S      HAL2     0.900000E-01   1.00800           0
     45112 MEMB     363      PMPE     C26      CTL2    -0.180000       12.0110           0
     45113 MEMB     363      PMPE     H6R      HAL2     0.900000E-01   1.00800           0
     45114 MEMB     363      PMPE     H6S      HAL2     0.900000E-01   1.00800           0
     45115 MEMB     363      PMPE     C27      CTL2    -0.180000       12.0110           0
     45116 MEMB     363      PMPE     H7R      HAL2     0.900000E-01   1.00800           0
     45117 MEMB     363      PMPE     H7S      HAL2     0.900000E-01   1.00800           0
     45118 MEMB     363      PMPE     C28      CTL2    -0.180000       12.0110           0
     45119 MEMB     363      PMPE     H8R      HAL2     0.900000E-01   1.00800           0
     45120 MEMB     363      PMPE     H8S      HAL2     0.900000E-01   1.00800           0
     45121 MEMB     363      PMPE     C29      CG3RC1  -0.900000E-01   12.0110           0
     45122 MEMB     363      PMPE     H9R      HGA1     0.900000E-01   1.00800           0
     45123 MEMB     363      PMPE     C217     CG3C31  -0.180000       12.0110           0
     45124 MEMB     363      PMPE     H17R     HGA2     0.900000E-01   1.00800           0
     45125 MEMB     363      PMPE     H17S     HGA2     0.900000E-01   1.00800           0
     45126 MEMB     363      PMPE     C210     CG3RC1  -0.900000E-01   12.0110           0
     45127 MEMB     363      PMPE     H10R     HGA1     0.900000E-01   1.00800           0
     45128 MEMB     363      PMPE     C211     CTL2    -0.180000       12.0110           0
     45129 MEMB     363      PMPE     H11R     HAL2     0.900000E-01   1.00800           0
     45130 MEMB     363      PMPE     H11S     HAL2     0.900000E-01   1.00800           0
     45131 MEMB     363      PMPE     C212     CTL2    -0.180000       12.0110           0
     45132 MEMB     363      PMPE     H12R     HAL2     0.900000E-01   1.00800           0
     45133 MEMB     363      PMPE     H12S     HAL2     0.900000E-01   1.00800           0
     45134 MEMB     363      PMPE     C213     CTL2    -0.180000       12.0110           0
     45135 MEMB     363      PMPE     H13R     HAL2     0.900000E-01   1.00800           0
     45136 MEMB     363      PMPE     H13S     HAL2     0.900000E-01   1.00800           0
     45137 MEMB     363      PMPE     C214     CTL2    -0.180000       12.0110           0
     45138 MEMB     363      PMPE     H14R     HAL2     0.900000E-01   1.00800           0
     45139 MEMB     363      PMPE     H14S     HAL2     0.900000E-01   1.00800           0
     45140 MEMB     363      PMPE     C215     CTL2    -0.180000       12.0110           0
     45141 MEMB     363      PMPE     H15R     HAL2     0.900000E-01   1.00800           0
     45142 MEMB     363      PMPE     H15S     HAL2     0.900000E-01   1.00800           0
     45143 MEMB     363      PMPE     C216     CTL3    -0.270000       12.0110           0
     45144 MEMB     363      PMPE     H16R     HAL3     0.900000E-01   1.00800           0
     45145 MEMB     363      PMPE     H16S     HAL3     0.900000E-01   1.00800           0
     45146 MEMB     363      PMPE     H16T     HAL3     0.900000E-01   1.00800           0
     45147 MEMB     363      PMPE     C33      CTL2    -0.180000       12.0110           0
     45148 MEMB     363      PMPE     H3X      HAL2     0.900000E-01   1.00800           0
     45149 MEMB     363      PMPE     H3Y      HAL2     0.900000E-01   1.00800           0
     45150 MEMB     363      PMPE     C34      CTL2    -0.180000       12.0110           0
     45151 MEMB     363      PMPE     H4X      HAL2     0.900000E-01   1.00800           0
     45152 MEMB     363      PMPE     H4Y      HAL2     0.900000E-01   1.00800           0
     45153 MEMB     363      PMPE     C35      CTL2    -0.180000       12.0110           0
     45154 MEMB     363      PMPE     H5X      HAL2     0.900000E-01   1.00800           0
     45155 MEMB     363      PMPE     H5Y      HAL2     0.900000E-01   1.00800           0
     45156 MEMB     363      PMPE     C36      CTL2    -0.180000       12.0110           0
     45157 MEMB     363      PMPE     H6X      HAL2     0.900000E-01   1.00800           0
     45158 MEMB     363      PMPE     H6Y      HAL2     0.900000E-01   1.00800           0
     45159 MEMB     363      PMPE     C37      CTL2    -0.180000       12.0110           0
     45160 MEMB     363      PMPE     H7X      HAL2     0.900000E-01   1.00800           0
     45161 MEMB     363      PMPE     H7Y      HAL2     0.900000E-01   1.00800           0
     45162 MEMB     363      PMPE     C38      CTL2    -0.180000       12.0110           0
     45163 MEMB     363      PMPE     H8X      HAL2     0.900000E-01   1.00800           0
     45164 MEMB     363      PMPE     H8Y      HAL2     0.900000E-01   1.00800           0
     45165 MEMB     363      PMPE     C39      CTL2    -0.180000       12.0110           0
     45166 MEMB     363      PMPE     H9X      HAL2     0.900000E-01   1.00800           0
     45167 MEMB     363      PMPE     H9Y      HAL2     0.900000E-01   1.00800           0
     45168 MEMB     363      PMPE     C310     CTL2    -0.180000       12.0110           0
     45169 MEMB     363      PMPE     H10X     HAL2     0.900000E-01   1.00800           0
     45170 MEMB     363      PMPE     H10Y     HAL2     0.900000E-01   1.00800           0
     45171 MEMB     363      PMPE     C311     CTL2    -0.180000       12.0110           0
     45172 MEMB     363      PMPE     H11X     HAL2     0.900000E-01   1.00800           0
     45173 MEMB     363      PMPE     H11Y     HAL2     0.900000E-01   1.00800           0
     45174 MEMB     363      PMPE     C312     CTL2    -0.180000       12.0110           0
     45175 MEMB     363      PMPE     H12X     HAL2     0.900000E-01   1.00800           0
     45176 MEMB     363      PMPE     H12Y     HAL2     0.900000E-01   1.00800           0
     45177 MEMB     363      PMPE     C313     CTL2    -0.180000       12.0110           0
     45178 MEMB     363      PMPE     H13X     HAL2     0.900000E-01   1.00800           0
     45179 MEMB     363      PMPE     H13Y     HAL2     0.900000E-01   1.00800           0
     45180 MEMB     363      PMPE     C314     CTL2    -0.180000       12.0110           0
     45181 MEMB     363      PMPE     H14X     HAL2     0.900000E-01   1.00800           0
     45182 MEMB     363      PMPE     H14Y     HAL2     0.900000E-01   1.00800           0
     45183 MEMB     363      PMPE     C315     CTL2    -0.180000       12.0110           0
     45184 MEMB     363      PMPE     H15X     HAL2     0.900000E-01   1.00800           0
     45185 MEMB     363      PMPE     H15Y     HAL2     0.900000E-01   1.00800           0
     45186 MEMB     363      PMPE     C316     CTL3    -0.270000       12.0110           0
     45187 MEMB     363      PMPE     H16X     HAL3     0.900000E-01   1.00800           0
     45188 MEMB     363      PMPE     H16Y     HAL3     0.900000E-01   1.00800           0
     45189 MEMB     363      PMPE     H16Z     HAL3     0.900000E-01   1.00800           0
     45190 MEMB     364      PMPE     N        NH3L    -0.300000       14.0070           0
     45191 MEMB     364      PMPE     HN1      HCL      0.330000       1.00800           0
     45192 MEMB     364      PMPE     HN2      HCL      0.330000       1.00800           0
     45193 MEMB     364      PMPE     HN3      HCL      0.330000       1.00800           0
     45194 MEMB     364      PMPE     C12      CTL2     0.130000       12.0110           0
     45195 MEMB     364      PMPE     H12A     HAL2     0.900000E-01   1.00800           0
     45196 MEMB     364      PMPE     H12B     HAL2     0.900000E-01   1.00800           0
     45197 MEMB     364      PMPE     C11      CTL2    -0.800000E-01   12.0110           0
     45198 MEMB     364      PMPE     H11A     HAL2     0.900000E-01   1.00800           0
     45199 MEMB     364      PMPE     H11B     HAL2     0.900000E-01   1.00800           0
     45200 MEMB     364      PMPE     P        PL        1.50000       30.9740           0
     45201 MEMB     364      PMPE     O13      O2L     -0.780000       15.9994           0
     45202 MEMB     364      PMPE     O14      O2L     -0.780000       15.9994           0
     45203 MEMB     364      PMPE     O11      OSLP    -0.570000       15.9994           0
     45204 MEMB     364      PMPE     O12      OSLP    -0.570000       15.9994           0
     45205 MEMB     364      PMPE     C1       CTL2    -0.800000E-01   12.0110           0
     45206 MEMB     364      PMPE     HA       HAL2     0.900000E-01   1.00800           0
     45207 MEMB     364      PMPE     HB       HAL2     0.900000E-01   1.00800           0
     45208 MEMB     364      PMPE     C2       CTL1     0.170000       12.0110           0
     45209 MEMB     364      PMPE     HS       HAL1     0.900000E-01   1.00800           0
     45210 MEMB     364      PMPE     O21      OSL     -0.490000       15.9994           0
     45211 MEMB     364      PMPE     C21      CL       0.900000       12.0110           0
     45212 MEMB     364      PMPE     O22      OBL     -0.630000       15.9994           0
     45213 MEMB     364      PMPE     C22      CTL2    -0.220000       12.0110           0
     45214 MEMB     364      PMPE     H2R      HAL2     0.900000E-01   1.00800           0
     45215 MEMB     364      PMPE     H2S      HAL2     0.900000E-01   1.00800           0
     45216 MEMB     364      PMPE     C3       CTL2     0.800000E-01   12.0110           0
     45217 MEMB     364      PMPE     HX       HAL2     0.900000E-01   1.00800           0
     45218 MEMB     364      PMPE     HY       HAL2     0.900000E-01   1.00800           0
     45219 MEMB     364      PMPE     O31      OSL     -0.490000       15.9994           0
     45220 MEMB     364      PMPE     C31      CL       0.900000       12.0110           0
     45221 MEMB     364      PMPE     O32      OBL     -0.630000       15.9994           0
     45222 MEMB     364      PMPE     C32      CTL2    -0.220000       12.0110           0
     45223 MEMB     364      PMPE     H2X      HAL2     0.900000E-01   1.00800           0
     45224 MEMB     364      PMPE     H2Y      HAL2     0.900000E-01   1.00800           0
     45225 MEMB     364      PMPE     C23      CTL2    -0.180000       12.0110           0
     45226 MEMB     364      PMPE     H3R      HAL2     0.900000E-01   1.00800           0
     45227 MEMB     364      PMPE     H3S      HAL2     0.900000E-01   1.00800           0
     45228 MEMB     364      PMPE     C24      CTL2    -0.180000       12.0110           0
     45229 MEMB     364      PMPE     H4R      HAL2     0.900000E-01   1.00800           0
     45230 MEMB     364      PMPE     H4S      HAL2     0.900000E-01   1.00800           0
     45231 MEMB     364      PMPE     C25      CTL2    -0.180000       12.0110           0
     45232 MEMB     364      PMPE     H5R      HAL2     0.900000E-01   1.00800           0
     45233 MEMB     364      PMPE     H5S      HAL2     0.900000E-01   1.00800           0
     45234 MEMB     364      PMPE     C26      CTL2    -0.180000       12.0110           0
     45235 MEMB     364      PMPE     H6R      HAL2     0.900000E-01   1.00800           0
     45236 MEMB     364      PMPE     H6S      HAL2     0.900000E-01   1.00800           0
     45237 MEMB     364      PMPE     C27      CTL2    -0.180000       12.0110           0
     45238 MEMB     364      PMPE     H7R      HAL2     0.900000E-01   1.00800           0
     45239 MEMB     364      PMPE     H7S      HAL2     0.900000E-01   1.00800           0
     45240 MEMB     364      PMPE     C28      CTL2    -0.180000       12.0110           0
     45241 MEMB     364      PMPE     H8R      HAL2     0.900000E-01   1.00800           0
     45242 MEMB     364      PMPE     H8S      HAL2     0.900000E-01   1.00800           0
     45243 MEMB     364      PMPE     C29      CG3RC1  -0.900000E-01   12.0110           0
     45244 MEMB     364      PMPE     H9R      HGA1     0.900000E-01   1.00800           0
     45245 MEMB     364      PMPE     C217     CG3C31  -0.180000       12.0110           0
     45246 MEMB     364      PMPE     H17R     HGA2     0.900000E-01   1.00800           0
     45247 MEMB     364      PMPE     H17S     HGA2     0.900000E-01   1.00800           0
     45248 MEMB     364      PMPE     C210     CG3RC1  -0.900000E-01   12.0110           0
     45249 MEMB     364      PMPE     H10R     HGA1     0.900000E-01   1.00800           0
     45250 MEMB     364      PMPE     C211     CTL2    -0.180000       12.0110           0
     45251 MEMB     364      PMPE     H11R     HAL2     0.900000E-01   1.00800           0
     45252 MEMB     364      PMPE     H11S     HAL2     0.900000E-01   1.00800           0
     45253 MEMB     364      PMPE     C212     CTL2    -0.180000       12.0110           0
     45254 MEMB     364      PMPE     H12R     HAL2     0.900000E-01   1.00800           0
     45255 MEMB     364      PMPE     H12S     HAL2     0.900000E-01   1.00800           0
     45256 MEMB     364      PMPE     C213     CTL2    -0.180000       12.0110           0
     45257 MEMB     364      PMPE     H13R     HAL2     0.900000E-01   1.00800           0
     45258 MEMB     364      PMPE     H13S     HAL2     0.900000E-01   1.00800           0
     45259 MEMB     364      PMPE     C214     CTL2    -0.180000       12.0110           0
     45260 MEMB     364      PMPE     H14R     HAL2     0.900000E-01   1.00800           0
     45261 MEMB     364      PMPE     H14S     HAL2     0.900000E-01   1.00800           0
     45262 MEMB     364      PMPE     C215     CTL2    -0.180000       12.0110           0
     45263 MEMB     364      PMPE     H15R     HAL2     0.900000E-01   1.00800           0
     45264 MEMB     364      PMPE     H15S     HAL2     0.900000E-01   1.00800           0
     45265 MEMB     364      PMPE     C216     CTL3    -0.270000       12.0110           0
     45266 MEMB     364      PMPE     H16R     HAL3     0.900000E-01   1.00800           0
     45267 MEMB     364      PMPE     H16S     HAL3     0.900000E-01   1.00800           0
     45268 MEMB     364      PMPE     H16T     HAL3     0.900000E-01   1.00800           0
     45269 MEMB     364      PMPE     C33      CTL2    -0.180000       12.0110           0
     45270 MEMB     364      PMPE     H3X      HAL2     0.900000E-01   1.00800           0
     45271 MEMB     364      PMPE     H3Y      HAL2     0.900000E-01   1.00800           0
     45272 MEMB     364      PMPE     C34      CTL2    -0.180000       12.0110           0
     45273 MEMB     364      PMPE     H4X      HAL2     0.900000E-01   1.00800           0
     45274 MEMB     364      PMPE     H4Y      HAL2     0.900000E-01   1.00800           0
     45275 MEMB     364      PMPE     C35      CTL2    -0.180000       12.0110           0
     45276 MEMB     364      PMPE     H5X      HAL2     0.900000E-01   1.00800           0
     45277 MEMB     364      PMPE     H5Y      HAL2     0.900000E-01   1.00800           0
     45278 MEMB     364      PMPE     C36      CTL2    -0.180000       12.0110           0
     45279 MEMB     364      PMPE     H6X      HAL2     0.900000E-01   1.00800           0
     45280 MEMB     364      PMPE     H6Y      HAL2     0.900000E-01   1.00800           0
     45281 MEMB     364      PMPE     C37      CTL2    -0.180000       12.0110           0
     45282 MEMB     364      PMPE     H7X      HAL2     0.900000E-01   1.00800           0
     45283 MEMB     364      PMPE     H7Y      HAL2     0.900000E-01   1.00800           0
     45284 MEMB     364      PMPE     C38      CTL2    -0.180000       12.0110           0
     45285 MEMB     364      PMPE     H8X      HAL2     0.900000E-01   1.00800           0
     45286 MEMB     364      PMPE     H8Y      HAL2     0.900000E-01   1.00800           0
     45287 MEMB     364      PMPE     C39      CTL2    -0.180000       12.0110           0
     45288 MEMB     364      PMPE     H9X      HAL2     0.900000E-01   1.00800           0
     45289 MEMB     364      PMPE     H9Y      HAL2     0.900000E-01   1.00800           0
     45290 MEMB     364      PMPE     C310     CTL2    -0.180000       12.0110           0
     45291 MEMB     364      PMPE     H10X     HAL2     0.900000E-01   1.00800           0
     45292 MEMB     364      PMPE     H10Y     HAL2     0.900000E-01   1.00800           0
     45293 MEMB     364      PMPE     C311     CTL2    -0.180000       12.0110           0
     45294 MEMB     364      PMPE     H11X     HAL2     0.900000E-01   1.00800           0
     45295 MEMB     364      PMPE     H11Y     HAL2     0.900000E-01   1.00800           0
     45296 MEMB     364      PMPE     C312     CTL2    -0.180000       12.0110           0
     45297 MEMB     364      PMPE     H12X     HAL2     0.900000E-01   1.00800           0
     45298 MEMB     364      PMPE     H12Y     HAL2     0.900000E-01   1.00800           0
     45299 MEMB     364      PMPE     C313     CTL2    -0.180000       12.0110           0
     45300 MEMB     364      PMPE     H13X     HAL2     0.900000E-01   1.00800           0
     45301 MEMB     364      PMPE     H13Y     HAL2     0.900000E-01   1.00800           0
     45302 MEMB     364      PMPE     C314     CTL2    -0.180000       12.0110           0
     45303 MEMB     364      PMPE     H14X     HAL2     0.900000E-01   1.00800           0
     45304 MEMB     364      PMPE     H14Y     HAL2     0.900000E-01   1.00800           0
     45305 MEMB     364      PMPE     C315     CTL2    -0.180000       12.0110           0
     45306 MEMB     364      PMPE     H15X     HAL2     0.900000E-01   1.00800           0
     45307 MEMB     364      PMPE     H15Y     HAL2     0.900000E-01   1.00800           0
     45308 MEMB     364      PMPE     C316     CTL3    -0.270000       12.0110           0
     45309 MEMB     364      PMPE     H16X     HAL3     0.900000E-01   1.00800           0
     45310 MEMB     364      PMPE     H16Y     HAL3     0.900000E-01   1.00800           0
     45311 MEMB     364      PMPE     H16Z     HAL3     0.900000E-01   1.00800           0
     45312 MEMB     365      POPE     N        NH3L    -0.300000       14.0070           0
     45313 MEMB     365      POPE     HN1      HCL      0.330000       1.00800           0
     45314 MEMB     365      POPE     HN2      HCL      0.330000       1.00800           0
     45315 MEMB     365      POPE     HN3      HCL      0.330000       1.00800           0
     45316 MEMB     365      POPE     C12      CTL2     0.130000       12.0110           0
     45317 MEMB     365      POPE     H12A     HAL2     0.900000E-01   1.00800           0
     45318 MEMB     365      POPE     H12B     HAL2     0.900000E-01   1.00800           0
     45319 MEMB     365      POPE     C11      CTL2    -0.800000E-01   12.0110           0
     45320 MEMB     365      POPE     H11A     HAL2     0.900000E-01   1.00800           0
     45321 MEMB     365      POPE     H11B     HAL2     0.900000E-01   1.00800           0
     45322 MEMB     365      POPE     P        PL        1.50000       30.9740           0
     45323 MEMB     365      POPE     O13      O2L     -0.780000       15.9994           0
     45324 MEMB     365      POPE     O14      O2L     -0.780000       15.9994           0
     45325 MEMB     365      POPE     O11      OSLP    -0.570000       15.9994           0
     45326 MEMB     365      POPE     O12      OSLP    -0.570000       15.9994           0
     45327 MEMB     365      POPE     C1       CTL2    -0.800000E-01   12.0110           0
     45328 MEMB     365      POPE     HA       HAL2     0.900000E-01   1.00800           0
     45329 MEMB     365      POPE     HB       HAL2     0.900000E-01   1.00800           0
     45330 MEMB     365      POPE     C2       CTL1     0.170000       12.0110           0
     45331 MEMB     365      POPE     HS       HAL1     0.900000E-01   1.00800           0
     45332 MEMB     365      POPE     O21      OSL     -0.490000       15.9994           0
     45333 MEMB     365      POPE     C21      CL       0.900000       12.0110           0
     45334 MEMB     365      POPE     O22      OBL     -0.630000       15.9994           0
     45335 MEMB     365      POPE     C22      CTL2    -0.220000       12.0110           0
     45336 MEMB     365      POPE     H2R      HAL2     0.900000E-01   1.00800           0
     45337 MEMB     365      POPE     H2S      HAL2     0.900000E-01   1.00800           0
     45338 MEMB     365      POPE     C3       CTL2     0.800000E-01   12.0110           0
     45339 MEMB     365      POPE     HX       HAL2     0.900000E-01   1.00800           0
     45340 MEMB     365      POPE     HY       HAL2     0.900000E-01   1.00800           0
     45341 MEMB     365      POPE     O31      OSL     -0.490000       15.9994           0
     45342 MEMB     365      POPE     C31      CL       0.900000       12.0110           0
     45343 MEMB     365      POPE     O32      OBL     -0.630000       15.9994           0
     45344 MEMB     365      POPE     C32      CTL2    -0.220000       12.0110           0
     45345 MEMB     365      POPE     H2X      HAL2     0.900000E-01   1.00800           0
     45346 MEMB     365      POPE     H2Y      HAL2     0.900000E-01   1.00800           0
     45347 MEMB     365      POPE     C23      CTL2    -0.180000       12.0110           0
     45348 MEMB     365      POPE     H3R      HAL2     0.900000E-01   1.00800           0
     45349 MEMB     365      POPE     H3S      HAL2     0.900000E-01   1.00800           0
     45350 MEMB     365      POPE     C24      CTL2    -0.180000       12.0110           0
     45351 MEMB     365      POPE     H4R      HAL2     0.900000E-01   1.00800           0
     45352 MEMB     365      POPE     H4S      HAL2     0.900000E-01   1.00800           0
     45353 MEMB     365      POPE     C25      CTL2    -0.180000       12.0110           0
     45354 MEMB     365      POPE     H5R      HAL2     0.900000E-01   1.00800           0
     45355 MEMB     365      POPE     H5S      HAL2     0.900000E-01   1.00800           0
     45356 MEMB     365      POPE     C26      CTL2    -0.180000       12.0110           0
     45357 MEMB     365      POPE     H6R      HAL2     0.900000E-01   1.00800           0
     45358 MEMB     365      POPE     H6S      HAL2     0.900000E-01   1.00800           0
     45359 MEMB     365      POPE     C27      CTL2    -0.180000       12.0110           0
     45360 MEMB     365      POPE     H7R      HAL2     0.900000E-01   1.00800           0
     45361 MEMB     365      POPE     H7S      HAL2     0.900000E-01   1.00800           0
     45362 MEMB     365      POPE     C28      CTL2    -0.180000       12.0110           0
     45363 MEMB     365      POPE     H8R      HAL2     0.900000E-01   1.00800           0
     45364 MEMB     365      POPE     H8S      HAL2     0.900000E-01   1.00800           0
     45365 MEMB     365      POPE     C29      CEL1    -0.150000       12.0110           0
     45366 MEMB     365      POPE     H91      HEL1     0.150000       1.00800           0
     45367 MEMB     365      POPE     C210     CEL1    -0.150000       12.0110           0
     45368 MEMB     365      POPE     H101     HEL1     0.150000       1.00800           0
     45369 MEMB     365      POPE     C211     CTL2    -0.180000       12.0110           0
     45370 MEMB     365      POPE     H11R     HAL2     0.900000E-01   1.00800           0
     45371 MEMB     365      POPE     H11S     HAL2     0.900000E-01   1.00800           0
     45372 MEMB     365      POPE     C212     CTL2    -0.180000       12.0110           0
     45373 MEMB     365      POPE     H12R     HAL2     0.900000E-01   1.00800           0
     45374 MEMB     365      POPE     H12S     HAL2     0.900000E-01   1.00800           0
     45375 MEMB     365      POPE     C213     CTL2    -0.180000       12.0110           0
     45376 MEMB     365      POPE     H13R     HAL2     0.900000E-01   1.00800           0
     45377 MEMB     365      POPE     H13S     HAL2     0.900000E-01   1.00800           0
     45378 MEMB     365      POPE     C214     CTL2    -0.180000       12.0110           0
     45379 MEMB     365      POPE     H14R     HAL2     0.900000E-01   1.00800           0
     45380 MEMB     365      POPE     H14S     HAL2     0.900000E-01   1.00800           0
     45381 MEMB     365      POPE     C215     CTL2    -0.180000       12.0110           0
     45382 MEMB     365      POPE     H15R     HAL2     0.900000E-01   1.00800           0
     45383 MEMB     365      POPE     H15S     HAL2     0.900000E-01   1.00800           0
     45384 MEMB     365      POPE     C216     CTL2    -0.180000       12.0110           0
     45385 MEMB     365      POPE     H16R     HAL2     0.900000E-01   1.00800           0
     45386 MEMB     365      POPE     H16S     HAL2     0.900000E-01   1.00800           0
     45387 MEMB     365      POPE     C217     CTL2    -0.180000       12.0110           0
     45388 MEMB     365      POPE     H17R     HAL2     0.900000E-01   1.00800           0
     45389 MEMB     365      POPE     H17S     HAL2     0.900000E-01   1.00800           0
     45390 MEMB     365      POPE     C218     CTL3    -0.270000       12.0110           0
     45391 MEMB     365      POPE     H18R     HAL3     0.900000E-01   1.00800           0
     45392 MEMB     365      POPE     H18S     HAL3     0.900000E-01   1.00800           0
     45393 MEMB     365      POPE     H18T     HAL3     0.900000E-01   1.00800           0
     45394 MEMB     365      POPE     C33      CTL2    -0.180000       12.0110           0
     45395 MEMB     365      POPE     H3X      HAL2     0.900000E-01   1.00800           0
     45396 MEMB     365      POPE     H3Y      HAL2     0.900000E-01   1.00800           0
     45397 MEMB     365      POPE     C34      CTL2    -0.180000       12.0110           0
     45398 MEMB     365      POPE     H4X      HAL2     0.900000E-01   1.00800           0
     45399 MEMB     365      POPE     H4Y      HAL2     0.900000E-01   1.00800           0
     45400 MEMB     365      POPE     C35      CTL2    -0.180000       12.0110           0
     45401 MEMB     365      POPE     H5X      HAL2     0.900000E-01   1.00800           0
     45402 MEMB     365      POPE     H5Y      HAL2     0.900000E-01   1.00800           0
     45403 MEMB     365      POPE     C36      CTL2    -0.180000       12.0110           0
     45404 MEMB     365      POPE     H6X      HAL2     0.900000E-01   1.00800           0
     45405 MEMB     365      POPE     H6Y      HAL2     0.900000E-01   1.00800           0
     45406 MEMB     365      POPE     C37      CTL2    -0.180000       12.0110           0
     45407 MEMB     365      POPE     H7X      HAL2     0.900000E-01   1.00800           0
     45408 MEMB     365      POPE     H7Y      HAL2     0.900000E-01   1.00800           0
     45409 MEMB     365      POPE     C38      CTL2    -0.180000       12.0110           0
     45410 MEMB     365      POPE     H8X      HAL2     0.900000E-01   1.00800           0
     45411 MEMB     365      POPE     H8Y      HAL2     0.900000E-01   1.00800           0
     45412 MEMB     365      POPE     C39      CTL2    -0.180000       12.0110           0
     45413 MEMB     365      POPE     H9X      HAL2     0.900000E-01   1.00800           0
     45414 MEMB     365      POPE     H9Y      HAL2     0.900000E-01   1.00800           0
     45415 MEMB     365      POPE     C310     CTL2    -0.180000       12.0110           0
     45416 MEMB     365      POPE     H10X     HAL2     0.900000E-01   1.00800           0
     45417 MEMB     365      POPE     H10Y     HAL2     0.900000E-01   1.00800           0
     45418 MEMB     365      POPE     C311     CTL2    -0.180000       12.0110           0
     45419 MEMB     365      POPE     H11X     HAL2     0.900000E-01   1.00800           0
     45420 MEMB     365      POPE     H11Y     HAL2     0.900000E-01   1.00800           0
     45421 MEMB     365      POPE     C312     CTL2    -0.180000       12.0110           0
     45422 MEMB     365      POPE     H12X     HAL2     0.900000E-01   1.00800           0
     45423 MEMB     365      POPE     H12Y     HAL2     0.900000E-01   1.00800           0
     45424 MEMB     365      POPE     C313     CTL2    -0.180000       12.0110           0
     45425 MEMB     365      POPE     H13X     HAL2     0.900000E-01   1.00800           0
     45426 MEMB     365      POPE     H13Y     HAL2     0.900000E-01   1.00800           0
     45427 MEMB     365      POPE     C314     CTL2    -0.180000       12.0110           0
     45428 MEMB     365      POPE     H14X     HAL2     0.900000E-01   1.00800           0
     45429 MEMB     365      POPE     H14Y     HAL2     0.900000E-01   1.00800           0
     45430 MEMB     365      POPE     C315     CTL2    -0.180000       12.0110           0
     45431 MEMB     365      POPE     H15X     HAL2     0.900000E-01   1.00800           0
     45432 MEMB     365      POPE     H15Y     HAL2     0.900000E-01   1.00800           0
     45433 MEMB     365      POPE     C316     CTL3    -0.270000       12.0110           0
     45434 MEMB     365      POPE     H16X     HAL3     0.900000E-01   1.00800           0
     45435 MEMB     365      POPE     H16Y     HAL3     0.900000E-01   1.00800           0
     45436 MEMB     365      POPE     H16Z     HAL3     0.900000E-01   1.00800           0
     45437 MEMB     366      PMPE     N        NH3L    -0.300000       14.0070           0
     45438 MEMB     366      PMPE     HN1      HCL      0.330000       1.00800           0
     45439 MEMB     366      PMPE     HN2      HCL      0.330000       1.00800           0
     45440 MEMB     366      PMPE     HN3      HCL      0.330000       1.00800           0
     45441 MEMB     366      PMPE     C12      CTL2     0.130000       12.0110           0
     45442 MEMB     366      PMPE     H12A     HAL2     0.900000E-01   1.00800           0
     45443 MEMB     366      PMPE     H12B     HAL2     0.900000E-01   1.00800           0
     45444 MEMB     366      PMPE     C11      CTL2    -0.800000E-01   12.0110           0
     45445 MEMB     366      PMPE     H11A     HAL2     0.900000E-01   1.00800           0
     45446 MEMB     366      PMPE     H11B     HAL2     0.900000E-01   1.00800           0
     45447 MEMB     366      PMPE     P        PL        1.50000       30.9740           0
     45448 MEMB     366      PMPE     O13      O2L     -0.780000       15.9994           0
     45449 MEMB     366      PMPE     O14      O2L     -0.780000       15.9994           0
     45450 MEMB     366      PMPE     O11      OSLP    -0.570000       15.9994           0
     45451 MEMB     366      PMPE     O12      OSLP    -0.570000       15.9994           0
     45452 MEMB     366      PMPE     C1       CTL2    -0.800000E-01   12.0110           0
     45453 MEMB     366      PMPE     HA       HAL2     0.900000E-01   1.00800           0
     45454 MEMB     366      PMPE     HB       HAL2     0.900000E-01   1.00800           0
     45455 MEMB     366      PMPE     C2       CTL1     0.170000       12.0110           0
     45456 MEMB     366      PMPE     HS       HAL1     0.900000E-01   1.00800           0
     45457 MEMB     366      PMPE     O21      OSL     -0.490000       15.9994           0
     45458 MEMB     366      PMPE     C21      CL       0.900000       12.0110           0
     45459 MEMB     366      PMPE     O22      OBL     -0.630000       15.9994           0
     45460 MEMB     366      PMPE     C22      CTL2    -0.220000       12.0110           0
     45461 MEMB     366      PMPE     H2R      HAL2     0.900000E-01   1.00800           0
     45462 MEMB     366      PMPE     H2S      HAL2     0.900000E-01   1.00800           0
     45463 MEMB     366      PMPE     C3       CTL2     0.800000E-01   12.0110           0
     45464 MEMB     366      PMPE     HX       HAL2     0.900000E-01   1.00800           0
     45465 MEMB     366      PMPE     HY       HAL2     0.900000E-01   1.00800           0
     45466 MEMB     366      PMPE     O31      OSL     -0.490000       15.9994           0
     45467 MEMB     366      PMPE     C31      CL       0.900000       12.0110           0
     45468 MEMB     366      PMPE     O32      OBL     -0.630000       15.9994           0
     45469 MEMB     366      PMPE     C32      CTL2    -0.220000       12.0110           0
     45470 MEMB     366      PMPE     H2X      HAL2     0.900000E-01   1.00800           0
     45471 MEMB     366      PMPE     H2Y      HAL2     0.900000E-01   1.00800           0
     45472 MEMB     366      PMPE     C23      CTL2    -0.180000       12.0110           0
     45473 MEMB     366      PMPE     H3R      HAL2     0.900000E-01   1.00800           0
     45474 MEMB     366      PMPE     H3S      HAL2     0.900000E-01   1.00800           0
     45475 MEMB     366      PMPE     C24      CTL2    -0.180000       12.0110           0
     45476 MEMB     366      PMPE     H4R      HAL2     0.900000E-01   1.00800           0
     45477 MEMB     366      PMPE     H4S      HAL2     0.900000E-01   1.00800           0
     45478 MEMB     366      PMPE     C25      CTL2    -0.180000       12.0110           0
     45479 MEMB     366      PMPE     H5R      HAL2     0.900000E-01   1.00800           0
     45480 MEMB     366      PMPE     H5S      HAL2     0.900000E-01   1.00800           0
     45481 MEMB     366      PMPE     C26      CTL2    -0.180000       12.0110           0
     45482 MEMB     366      PMPE     H6R      HAL2     0.900000E-01   1.00800           0
     45483 MEMB     366      PMPE     H6S      HAL2     0.900000E-01   1.00800           0
     45484 MEMB     366      PMPE     C27      CTL2    -0.180000       12.0110           0
     45485 MEMB     366      PMPE     H7R      HAL2     0.900000E-01   1.00800           0
     45486 MEMB     366      PMPE     H7S      HAL2     0.900000E-01   1.00800           0
     45487 MEMB     366      PMPE     C28      CTL2    -0.180000       12.0110           0
     45488 MEMB     366      PMPE     H8R      HAL2     0.900000E-01   1.00800           0
     45489 MEMB     366      PMPE     H8S      HAL2     0.900000E-01   1.00800           0
     45490 MEMB     366      PMPE     C29      CG3RC1  -0.900000E-01   12.0110           0
     45491 MEMB     366      PMPE     H9R      HGA1     0.900000E-01   1.00800           0
     45492 MEMB     366      PMPE     C217     CG3C31  -0.180000       12.0110           0
     45493 MEMB     366      PMPE     H17R     HGA2     0.900000E-01   1.00800           0
     45494 MEMB     366      PMPE     H17S     HGA2     0.900000E-01   1.00800           0
     45495 MEMB     366      PMPE     C210     CG3RC1  -0.900000E-01   12.0110           0
     45496 MEMB     366      PMPE     H10R     HGA1     0.900000E-01   1.00800           0
     45497 MEMB     366      PMPE     C211     CTL2    -0.180000       12.0110           0
     45498 MEMB     366      PMPE     H11R     HAL2     0.900000E-01   1.00800           0
     45499 MEMB     366      PMPE     H11S     HAL2     0.900000E-01   1.00800           0
     45500 MEMB     366      PMPE     C212     CTL2    -0.180000       12.0110           0
     45501 MEMB     366      PMPE     H12R     HAL2     0.900000E-01   1.00800           0
     45502 MEMB     366      PMPE     H12S     HAL2     0.900000E-01   1.00800           0
     45503 MEMB     366      PMPE     C213     CTL2    -0.180000       12.0110           0
     45504 MEMB     366      PMPE     H13R     HAL2     0.900000E-01   1.00800           0
     45505 MEMB     366      PMPE     H13S     HAL2     0.900000E-01   1.00800           0
     45506 MEMB     366      PMPE     C214     CTL2    -0.180000       12.0110           0
     45507 MEMB     366      PMPE     H14R     HAL2     0.900000E-01   1.00800           0
     45508 MEMB     366      PMPE     H14S     HAL2     0.900000E-01   1.00800           0
     45509 MEMB     366      PMPE     C215     CTL2    -0.180000       12.0110           0
     45510 MEMB     366      PMPE     H15R     HAL2     0.900000E-01   1.00800           0
     45511 MEMB     366      PMPE     H15S     HAL2     0.900000E-01   1.00800           0
     45512 MEMB     366      PMPE     C216     CTL3    -0.270000       12.0110           0
     45513 MEMB     366      PMPE     H16R     HAL3     0.900000E-01   1.00800           0
     45514 MEMB     366      PMPE     H16S     HAL3     0.900000E-01   1.00800           0
     45515 MEMB     366      PMPE     H16T     HAL3     0.900000E-01   1.00800           0
     45516 MEMB     366      PMPE     C33      CTL2    -0.180000       12.0110           0
     45517 MEMB     366      PMPE     H3X      HAL2     0.900000E-01   1.00800           0
     45518 MEMB     366      PMPE     H3Y      HAL2     0.900000E-01   1.00800           0
     45519 MEMB     366      PMPE     C34      CTL2    -0.180000       12.0110           0
     45520 MEMB     366      PMPE     H4X      HAL2     0.900000E-01   1.00800           0
     45521 MEMB     366      PMPE     H4Y      HAL2     0.900000E-01   1.00800           0
     45522 MEMB     366      PMPE     C35      CTL2    -0.180000       12.0110           0
     45523 MEMB     366      PMPE     H5X      HAL2     0.900000E-01   1.00800           0
     45524 MEMB     366      PMPE     H5Y      HAL2     0.900000E-01   1.00800           0
     45525 MEMB     366      PMPE     C36      CTL2    -0.180000       12.0110           0
     45526 MEMB     366      PMPE     H6X      HAL2     0.900000E-01   1.00800           0
     45527 MEMB     366      PMPE     H6Y      HAL2     0.900000E-01   1.00800           0
     45528 MEMB     366      PMPE     C37      CTL2    -0.180000       12.0110           0
     45529 MEMB     366      PMPE     H7X      HAL2     0.900000E-01   1.00800           0
     45530 MEMB     366      PMPE     H7Y      HAL2     0.900000E-01   1.00800           0
     45531 MEMB     366      PMPE     C38      CTL2    -0.180000       12.0110           0
     45532 MEMB     366      PMPE     H8X      HAL2     0.900000E-01   1.00800           0
     45533 MEMB     366      PMPE     H8Y      HAL2     0.900000E-01   1.00800           0
     45534 MEMB     366      PMPE     C39      CTL2    -0.180000       12.0110           0
     45535 MEMB     366      PMPE     H9X      HAL2     0.900000E-01   1.00800           0
     45536 MEMB     366      PMPE     H9Y      HAL2     0.900000E-01   1.00800           0
     45537 MEMB     366      PMPE     C310     CTL2    -0.180000       12.0110           0
     45538 MEMB     366      PMPE     H10X     HAL2     0.900000E-01   1.00800           0
     45539 MEMB     366      PMPE     H10Y     HAL2     0.900000E-01   1.00800           0
     45540 MEMB     366      PMPE     C311     CTL2    -0.180000       12.0110           0
     45541 MEMB     366      PMPE     H11X     HAL2     0.900000E-01   1.00800           0
     45542 MEMB     366      PMPE     H11Y     HAL2     0.900000E-01   1.00800           0
     45543 MEMB     366      PMPE     C312     CTL2    -0.180000       12.0110           0
     45544 MEMB     366      PMPE     H12X     HAL2     0.900000E-01   1.00800           0
     45545 MEMB     366      PMPE     H12Y     HAL2     0.900000E-01   1.00800           0
     45546 MEMB     366      PMPE     C313     CTL2    -0.180000       12.0110           0
     45547 MEMB     366      PMPE     H13X     HAL2     0.900000E-01   1.00800           0
     45548 MEMB     366      PMPE     H13Y     HAL2     0.900000E-01   1.00800           0
     45549 MEMB     366      PMPE     C314     CTL2    -0.180000       12.0110           0
     45550 MEMB     366      PMPE     H14X     HAL2     0.900000E-01   1.00800           0
     45551 MEMB     366      PMPE     H14Y     HAL2     0.900000E-01   1.00800           0
     45552 MEMB     366      PMPE     C315     CTL2    -0.180000       12.0110           0
     45553 MEMB     366      PMPE     H15X     HAL2     0.900000E-01   1.00800           0
     45554 MEMB     366      PMPE     H15Y     HAL2     0.900000E-01   1.00800           0
     45555 MEMB     366      PMPE     C316     CTL3    -0.270000       12.0110           0
     45556 MEMB     366      PMPE     H16X     HAL3     0.900000E-01   1.00800           0
     45557 MEMB     366      PMPE     H16Y     HAL3     0.900000E-01   1.00800           0
     45558 MEMB     366      PMPE     H16Z     HAL3     0.900000E-01   1.00800           0
     45559 MEMB     367      PMPE     N        NH3L    -0.300000       14.0070           0
     45560 MEMB     367      PMPE     HN1      HCL      0.330000       1.00800           0
     45561 MEMB     367      PMPE     HN2      HCL      0.330000       1.00800           0
     45562 MEMB     367      PMPE     HN3      HCL      0.330000       1.00800           0
     45563 MEMB     367      PMPE     C12      CTL2     0.130000       12.0110           0
     45564 MEMB     367      PMPE     H12A     HAL2     0.900000E-01   1.00800           0
     45565 MEMB     367      PMPE     H12B     HAL2     0.900000E-01   1.00800           0
     45566 MEMB     367      PMPE     C11      CTL2    -0.800000E-01   12.0110           0
     45567 MEMB     367      PMPE     H11A     HAL2     0.900000E-01   1.00800           0
     45568 MEMB     367      PMPE     H11B     HAL2     0.900000E-01   1.00800           0
     45569 MEMB     367      PMPE     P        PL        1.50000       30.9740           0
     45570 MEMB     367      PMPE     O13      O2L     -0.780000       15.9994           0
     45571 MEMB     367      PMPE     O14      O2L     -0.780000       15.9994           0
     45572 MEMB     367      PMPE     O11      OSLP    -0.570000       15.9994           0
     45573 MEMB     367      PMPE     O12      OSLP    -0.570000       15.9994           0
     45574 MEMB     367      PMPE     C1       CTL2    -0.800000E-01   12.0110           0
     45575 MEMB     367      PMPE     HA       HAL2     0.900000E-01   1.00800           0
     45576 MEMB     367      PMPE     HB       HAL2     0.900000E-01   1.00800           0
     45577 MEMB     367      PMPE     C2       CTL1     0.170000       12.0110           0
     45578 MEMB     367      PMPE     HS       HAL1     0.900000E-01   1.00800           0
     45579 MEMB     367      PMPE     O21      OSL     -0.490000       15.9994           0
     45580 MEMB     367      PMPE     C21      CL       0.900000       12.0110           0
     45581 MEMB     367      PMPE     O22      OBL     -0.630000       15.9994           0
     45582 MEMB     367      PMPE     C22      CTL2    -0.220000       12.0110           0
     45583 MEMB     367      PMPE     H2R      HAL2     0.900000E-01   1.00800           0
     45584 MEMB     367      PMPE     H2S      HAL2     0.900000E-01   1.00800           0
     45585 MEMB     367      PMPE     C3       CTL2     0.800000E-01   12.0110           0
     45586 MEMB     367      PMPE     HX       HAL2     0.900000E-01   1.00800           0
     45587 MEMB     367      PMPE     HY       HAL2     0.900000E-01   1.00800           0
     45588 MEMB     367      PMPE     O31      OSL     -0.490000       15.9994           0
     45589 MEMB     367      PMPE     C31      CL       0.900000       12.0110           0
     45590 MEMB     367      PMPE     O32      OBL     -0.630000       15.9994           0
     45591 MEMB     367      PMPE     C32      CTL2    -0.220000       12.0110           0
     45592 MEMB     367      PMPE     H2X      HAL2     0.900000E-01   1.00800           0
     45593 MEMB     367      PMPE     H2Y      HAL2     0.900000E-01   1.00800           0
     45594 MEMB     367      PMPE     C23      CTL2    -0.180000       12.0110           0
     45595 MEMB     367      PMPE     H3R      HAL2     0.900000E-01   1.00800           0
     45596 MEMB     367      PMPE     H3S      HAL2     0.900000E-01   1.00800           0
     45597 MEMB     367      PMPE     C24      CTL2    -0.180000       12.0110           0
     45598 MEMB     367      PMPE     H4R      HAL2     0.900000E-01   1.00800           0
     45599 MEMB     367      PMPE     H4S      HAL2     0.900000E-01   1.00800           0
     45600 MEMB     367      PMPE     C25      CTL2    -0.180000       12.0110           0
     45601 MEMB     367      PMPE     H5R      HAL2     0.900000E-01   1.00800           0
     45602 MEMB     367      PMPE     H5S      HAL2     0.900000E-01   1.00800           0
     45603 MEMB     367      PMPE     C26      CTL2    -0.180000       12.0110           0
     45604 MEMB     367      PMPE     H6R      HAL2     0.900000E-01   1.00800           0
     45605 MEMB     367      PMPE     H6S      HAL2     0.900000E-01   1.00800           0
     45606 MEMB     367      PMPE     C27      CTL2    -0.180000       12.0110           0
     45607 MEMB     367      PMPE     H7R      HAL2     0.900000E-01   1.00800           0
     45608 MEMB     367      PMPE     H7S      HAL2     0.900000E-01   1.00800           0
     45609 MEMB     367      PMPE     C28      CTL2    -0.180000       12.0110           0
     45610 MEMB     367      PMPE     H8R      HAL2     0.900000E-01   1.00800           0
     45611 MEMB     367      PMPE     H8S      HAL2     0.900000E-01   1.00800           0
     45612 MEMB     367      PMPE     C29      CG3RC1  -0.900000E-01   12.0110           0
     45613 MEMB     367      PMPE     H9R      HGA1     0.900000E-01   1.00800           0
     45614 MEMB     367      PMPE     C217     CG3C31  -0.180000       12.0110           0
     45615 MEMB     367      PMPE     H17R     HGA2     0.900000E-01   1.00800           0
     45616 MEMB     367      PMPE     H17S     HGA2     0.900000E-01   1.00800           0
     45617 MEMB     367      PMPE     C210     CG3RC1  -0.900000E-01   12.0110           0
     45618 MEMB     367      PMPE     H10R     HGA1     0.900000E-01   1.00800           0
     45619 MEMB     367      PMPE     C211     CTL2    -0.180000       12.0110           0
     45620 MEMB     367      PMPE     H11R     HAL2     0.900000E-01   1.00800           0
     45621 MEMB     367      PMPE     H11S     HAL2     0.900000E-01   1.00800           0
     45622 MEMB     367      PMPE     C212     CTL2    -0.180000       12.0110           0
     45623 MEMB     367      PMPE     H12R     HAL2     0.900000E-01   1.00800           0
     45624 MEMB     367      PMPE     H12S     HAL2     0.900000E-01   1.00800           0
     45625 MEMB     367      PMPE     C213     CTL2    -0.180000       12.0110           0
     45626 MEMB     367      PMPE     H13R     HAL2     0.900000E-01   1.00800           0
     45627 MEMB     367      PMPE     H13S     HAL2     0.900000E-01   1.00800           0
     45628 MEMB     367      PMPE     C214     CTL2    -0.180000       12.0110           0
     45629 MEMB     367      PMPE     H14R     HAL2     0.900000E-01   1.00800           0
     45630 MEMB     367      PMPE     H14S     HAL2     0.900000E-01   1.00800           0
     45631 MEMB     367      PMPE     C215     CTL2    -0.180000       12.0110           0
     45632 MEMB     367      PMPE     H15R     HAL2     0.900000E-01   1.00800           0
     45633 MEMB     367      PMPE     H15S     HAL2     0.900000E-01   1.00800           0
     45634 MEMB     367      PMPE     C216     CTL3    -0.270000       12.0110           0
     45635 MEMB     367      PMPE     H16R     HAL3     0.900000E-01   1.00800           0
     45636 MEMB     367      PMPE     H16S     HAL3     0.900000E-01   1.00800           0
     45637 MEMB     367      PMPE     H16T     HAL3     0.900000E-01   1.00800           0
     45638 MEMB     367      PMPE     C33      CTL2    -0.180000       12.0110           0
     45639 MEMB     367      PMPE     H3X      HAL2     0.900000E-01   1.00800           0
     45640 MEMB     367      PMPE     H3Y      HAL2     0.900000E-01   1.00800           0
     45641 MEMB     367      PMPE     C34      CTL2    -0.180000       12.0110           0
     45642 MEMB     367      PMPE     H4X      HAL2     0.900000E-01   1.00800           0
     45643 MEMB     367      PMPE     H4Y      HAL2     0.900000E-01   1.00800           0
     45644 MEMB     367      PMPE     C35      CTL2    -0.180000       12.0110           0
     45645 MEMB     367      PMPE     H5X      HAL2     0.900000E-01   1.00800           0
     45646 MEMB     367      PMPE     H5Y      HAL2     0.900000E-01   1.00800           0
     45647 MEMB     367      PMPE     C36      CTL2    -0.180000       12.0110           0
     45648 MEMB     367      PMPE     H6X      HAL2     0.900000E-01   1.00800           0
     45649 MEMB     367      PMPE     H6Y      HAL2     0.900000E-01   1.00800           0
     45650 MEMB     367      PMPE     C37      CTL2    -0.180000       12.0110           0
     45651 MEMB     367      PMPE     H7X      HAL2     0.900000E-01   1.00800           0
     45652 MEMB     367      PMPE     H7Y      HAL2     0.900000E-01   1.00800           0
     45653 MEMB     367      PMPE     C38      CTL2    -0.180000       12.0110           0
     45654 MEMB     367      PMPE     H8X      HAL2     0.900000E-01   1.00800           0
     45655 MEMB     367      PMPE     H8Y      HAL2     0.900000E-01   1.00800           0
     45656 MEMB     367      PMPE     C39      CTL2    -0.180000       12.0110           0
     45657 MEMB     367      PMPE     H9X      HAL2     0.900000E-01   1.00800           0
     45658 MEMB     367      PMPE     H9Y      HAL2     0.900000E-01   1.00800           0
     45659 MEMB     367      PMPE     C310     CTL2    -0.180000       12.0110           0
     45660 MEMB     367      PMPE     H10X     HAL2     0.900000E-01   1.00800           0
     45661 MEMB     367      PMPE     H10Y     HAL2     0.900000E-01   1.00800           0
     45662 MEMB     367      PMPE     C311     CTL2    -0.180000       12.0110           0
     45663 MEMB     367      PMPE     H11X     HAL2     0.900000E-01   1.00800           0
     45664 MEMB     367      PMPE     H11Y     HAL2     0.900000E-01   1.00800           0
     45665 MEMB     367      PMPE     C312     CTL2    -0.180000       12.0110           0
     45666 MEMB     367      PMPE     H12X     HAL2     0.900000E-01   1.00800           0
     45667 MEMB     367      PMPE     H12Y     HAL2     0.900000E-01   1.00800           0
     45668 MEMB     367      PMPE     C313     CTL2    -0.180000       12.0110           0
     45669 MEMB     367      PMPE     H13X     HAL2     0.900000E-01   1.00800           0
     45670 MEMB     367      PMPE     H13Y     HAL2     0.900000E-01   1.00800           0
     45671 MEMB     367      PMPE     C314     CTL2    -0.180000       12.0110           0
     45672 MEMB     367      PMPE     H14X     HAL2     0.900000E-01   1.00800           0
     45673 MEMB     367      PMPE     H14Y     HAL2     0.900000E-01   1.00800           0
     45674 MEMB     367      PMPE     C315     CTL2    -0.180000       12.0110           0
     45675 MEMB     367      PMPE     H15X     HAL2     0.900000E-01   1.00800           0
     45676 MEMB     367      PMPE     H15Y     HAL2     0.900000E-01   1.00800           0
     45677 MEMB     367      PMPE     C316     CTL3    -0.270000       12.0110           0
     45678 MEMB     367      PMPE     H16X     HAL3     0.900000E-01   1.00800           0
     45679 MEMB     367      PMPE     H16Y     HAL3     0.900000E-01   1.00800           0
     45680 MEMB     367      PMPE     H16Z     HAL3     0.900000E-01   1.00800           0
     45681 MEMB     368      POPE     N        NH3L    -0.300000       14.0070           0
     45682 MEMB     368      POPE     HN1      HCL      0.330000       1.00800           0
     45683 MEMB     368      POPE     HN2      HCL      0.330000       1.00800           0
     45684 MEMB     368      POPE     HN3      HCL      0.330000       1.00800           0
     45685 MEMB     368      POPE     C12      CTL2     0.130000       12.0110           0
     45686 MEMB     368      POPE     H12A     HAL2     0.900000E-01   1.00800           0
     45687 MEMB     368      POPE     H12B     HAL2     0.900000E-01   1.00800           0
     45688 MEMB     368      POPE     C11      CTL2    -0.800000E-01   12.0110           0
     45689 MEMB     368      POPE     H11A     HAL2     0.900000E-01   1.00800           0
     45690 MEMB     368      POPE     H11B     HAL2     0.900000E-01   1.00800           0
     45691 MEMB     368      POPE     P        PL        1.50000       30.9740           0
     45692 MEMB     368      POPE     O13      O2L     -0.780000       15.9994           0
     45693 MEMB     368      POPE     O14      O2L     -0.780000       15.9994           0
     45694 MEMB     368      POPE     O11      OSLP    -0.570000       15.9994           0
     45695 MEMB     368      POPE     O12      OSLP    -0.570000       15.9994           0
     45696 MEMB     368      POPE     C1       CTL2    -0.800000E-01   12.0110           0
     45697 MEMB     368      POPE     HA       HAL2     0.900000E-01   1.00800           0
     45698 MEMB     368      POPE     HB       HAL2     0.900000E-01   1.00800           0
     45699 MEMB     368      POPE     C2       CTL1     0.170000       12.0110           0
     45700 MEMB     368      POPE     HS       HAL1     0.900000E-01   1.00800           0
     45701 MEMB     368      POPE     O21      OSL     -0.490000       15.9994           0
     45702 MEMB     368      POPE     C21      CL       0.900000       12.0110           0
     45703 MEMB     368      POPE     O22      OBL     -0.630000       15.9994           0
     45704 MEMB     368      POPE     C22      CTL2    -0.220000       12.0110           0
     45705 MEMB     368      POPE     H2R      HAL2     0.900000E-01   1.00800           0
     45706 MEMB     368      POPE     H2S      HAL2     0.900000E-01   1.00800           0
     45707 MEMB     368      POPE     C3       CTL2     0.800000E-01   12.0110           0
     45708 MEMB     368      POPE     HX       HAL2     0.900000E-01   1.00800           0
     45709 MEMB     368      POPE     HY       HAL2     0.900000E-01   1.00800           0
     45710 MEMB     368      POPE     O31      OSL     -0.490000       15.9994           0
     45711 MEMB     368      POPE     C31      CL       0.900000       12.0110           0
     45712 MEMB     368      POPE     O32      OBL     -0.630000       15.9994           0
     45713 MEMB     368      POPE     C32      CTL2    -0.220000       12.0110           0
     45714 MEMB     368      POPE     H2X      HAL2     0.900000E-01   1.00800           0
     45715 MEMB     368      POPE     H2Y      HAL2     0.900000E-01   1.00800           0
     45716 MEMB     368      POPE     C23      CTL2    -0.180000       12.0110           0
     45717 MEMB     368      POPE     H3R      HAL2     0.900000E-01   1.00800           0
     45718 MEMB     368      POPE     H3S      HAL2     0.900000E-01   1.00800           0
     45719 MEMB     368      POPE     C24      CTL2    -0.180000       12.0110           0
     45720 MEMB     368      POPE     H4R      HAL2     0.900000E-01   1.00800           0
     45721 MEMB     368      POPE     H4S      HAL2     0.900000E-01   1.00800           0
     45722 MEMB     368      POPE     C25      CTL2    -0.180000       12.0110           0
     45723 MEMB     368      POPE     H5R      HAL2     0.900000E-01   1.00800           0
     45724 MEMB     368      POPE     H5S      HAL2     0.900000E-01   1.00800           0
     45725 MEMB     368      POPE     C26      CTL2    -0.180000       12.0110           0
     45726 MEMB     368      POPE     H6R      HAL2     0.900000E-01   1.00800           0
     45727 MEMB     368      POPE     H6S      HAL2     0.900000E-01   1.00800           0
     45728 MEMB     368      POPE     C27      CTL2    -0.180000       12.0110           0
     45729 MEMB     368      POPE     H7R      HAL2     0.900000E-01   1.00800           0
     45730 MEMB     368      POPE     H7S      HAL2     0.900000E-01   1.00800           0
     45731 MEMB     368      POPE     C28      CTL2    -0.180000       12.0110           0
     45732 MEMB     368      POPE     H8R      HAL2     0.900000E-01   1.00800           0
     45733 MEMB     368      POPE     H8S      HAL2     0.900000E-01   1.00800           0
     45734 MEMB     368      POPE     C29      CEL1    -0.150000       12.0110           0
     45735 MEMB     368      POPE     H91      HEL1     0.150000       1.00800           0
     45736 MEMB     368      POPE     C210     CEL1    -0.150000       12.0110           0
     45737 MEMB     368      POPE     H101     HEL1     0.150000       1.00800           0
     45738 MEMB     368      POPE     C211     CTL2    -0.180000       12.0110           0
     45739 MEMB     368      POPE     H11R     HAL2     0.900000E-01   1.00800           0
     45740 MEMB     368      POPE     H11S     HAL2     0.900000E-01   1.00800           0
     45741 MEMB     368      POPE     C212     CTL2    -0.180000       12.0110           0
     45742 MEMB     368      POPE     H12R     HAL2     0.900000E-01   1.00800           0
     45743 MEMB     368      POPE     H12S     HAL2     0.900000E-01   1.00800           0
     45744 MEMB     368      POPE     C213     CTL2    -0.180000       12.0110           0
     45745 MEMB     368      POPE     H13R     HAL2     0.900000E-01   1.00800           0
     45746 MEMB     368      POPE     H13S     HAL2     0.900000E-01   1.00800           0
     45747 MEMB     368      POPE     C214     CTL2    -0.180000       12.0110           0
     45748 MEMB     368      POPE     H14R     HAL2     0.900000E-01   1.00800           0
     45749 MEMB     368      POPE     H14S     HAL2     0.900000E-01   1.00800           0
     45750 MEMB     368      POPE     C215     CTL2    -0.180000       12.0110           0
     45751 MEMB     368      POPE     H15R     HAL2     0.900000E-01   1.00800           0
     45752 MEMB     368      POPE     H15S     HAL2     0.900000E-01   1.00800           0
     45753 MEMB     368      POPE     C216     CTL2    -0.180000       12.0110           0
     45754 MEMB     368      POPE     H16R     HAL2     0.900000E-01   1.00800           0
     45755 MEMB     368      POPE     H16S     HAL2     0.900000E-01   1.00800           0
     45756 MEMB     368      POPE     C217     CTL2    -0.180000       12.0110           0
     45757 MEMB     368      POPE     H17R     HAL2     0.900000E-01   1.00800           0
     45758 MEMB     368      POPE     H17S     HAL2     0.900000E-01   1.00800           0
     45759 MEMB     368      POPE     C218     CTL3    -0.270000       12.0110           0
     45760 MEMB     368      POPE     H18R     HAL3     0.900000E-01   1.00800           0
     45761 MEMB     368      POPE     H18S     HAL3     0.900000E-01   1.00800           0
     45762 MEMB     368      POPE     H18T     HAL3     0.900000E-01   1.00800           0
     45763 MEMB     368      POPE     C33      CTL2    -0.180000       12.0110           0
     45764 MEMB     368      POPE     H3X      HAL2     0.900000E-01   1.00800           0
     45765 MEMB     368      POPE     H3Y      HAL2     0.900000E-01   1.00800           0
     45766 MEMB     368      POPE     C34      CTL2    -0.180000       12.0110           0
     45767 MEMB     368      POPE     H4X      HAL2     0.900000E-01   1.00800           0
     45768 MEMB     368      POPE     H4Y      HAL2     0.900000E-01   1.00800           0
     45769 MEMB     368      POPE     C35      CTL2    -0.180000       12.0110           0
     45770 MEMB     368      POPE     H5X      HAL2     0.900000E-01   1.00800           0
     45771 MEMB     368      POPE     H5Y      HAL2     0.900000E-01   1.00800           0
     45772 MEMB     368      POPE     C36      CTL2    -0.180000       12.0110           0
     45773 MEMB     368      POPE     H6X      HAL2     0.900000E-01   1.00800           0
     45774 MEMB     368      POPE     H6Y      HAL2     0.900000E-01   1.00800           0
     45775 MEMB     368      POPE     C37      CTL2    -0.180000       12.0110           0
     45776 MEMB     368      POPE     H7X      HAL2     0.900000E-01   1.00800           0
     45777 MEMB     368      POPE     H7Y      HAL2     0.900000E-01   1.00800           0
     45778 MEMB     368      POPE     C38      CTL2    -0.180000       12.0110           0
     45779 MEMB     368      POPE     H8X      HAL2     0.900000E-01   1.00800           0
     45780 MEMB     368      POPE     H8Y      HAL2     0.900000E-01   1.00800           0
     45781 MEMB     368      POPE     C39      CTL2    -0.180000       12.0110           0
     45782 MEMB     368      POPE     H9X      HAL2     0.900000E-01   1.00800           0
     45783 MEMB     368      POPE     H9Y      HAL2     0.900000E-01   1.00800           0
     45784 MEMB     368      POPE     C310     CTL2    -0.180000       12.0110           0
     45785 MEMB     368      POPE     H10X     HAL2     0.900000E-01   1.00800           0
     45786 MEMB     368      POPE     H10Y     HAL2     0.900000E-01   1.00800           0
     45787 MEMB     368      POPE     C311     CTL2    -0.180000       12.0110           0
     45788 MEMB     368      POPE     H11X     HAL2     0.900000E-01   1.00800           0
     45789 MEMB     368      POPE     H11Y     HAL2     0.900000E-01   1.00800           0
     45790 MEMB     368      POPE     C312     CTL2    -0.180000       12.0110           0
     45791 MEMB     368      POPE     H12X     HAL2     0.900000E-01   1.00800           0
     45792 MEMB     368      POPE     H12Y     HAL2     0.900000E-01   1.00800           0
     45793 MEMB     368      POPE     C313     CTL2    -0.180000       12.0110           0
     45794 MEMB     368      POPE     H13X     HAL2     0.900000E-01   1.00800           0
     45795 MEMB     368      POPE     H13Y     HAL2     0.900000E-01   1.00800           0
     45796 MEMB     368      POPE     C314     CTL2    -0.180000       12.0110           0
     45797 MEMB     368      POPE     H14X     HAL2     0.900000E-01   1.00800           0
     45798 MEMB     368      POPE     H14Y     HAL2     0.900000E-01   1.00800           0
     45799 MEMB     368      POPE     C315     CTL2    -0.180000       12.0110           0
     45800 MEMB     368      POPE     H15X     HAL2     0.900000E-01   1.00800           0
     45801 MEMB     368      POPE     H15Y     HAL2     0.900000E-01   1.00800           0
     45802 MEMB     368      POPE     C316     CTL3    -0.270000       12.0110           0
     45803 MEMB     368      POPE     H16X     HAL3     0.900000E-01   1.00800           0
     45804 MEMB     368      POPE     H16Y     HAL3     0.900000E-01   1.00800           0
     45805 MEMB     368      POPE     H16Z     HAL3     0.900000E-01   1.00800           0
     45806 MEMB     369      PMPE     N        NH3L    -0.300000       14.0070           0
     45807 MEMB     369      PMPE     HN1      HCL      0.330000       1.00800           0
     45808 MEMB     369      PMPE     HN2      HCL      0.330000       1.00800           0
     45809 MEMB     369      PMPE     HN3      HCL      0.330000       1.00800           0
     45810 MEMB     369      PMPE     C12      CTL2     0.130000       12.0110           0
     45811 MEMB     369      PMPE     H12A     HAL2     0.900000E-01   1.00800           0
     45812 MEMB     369      PMPE     H12B     HAL2     0.900000E-01   1.00800           0
     45813 MEMB     369      PMPE     C11      CTL2    -0.800000E-01   12.0110           0
     45814 MEMB     369      PMPE     H11A     HAL2     0.900000E-01   1.00800           0
     45815 MEMB     369      PMPE     H11B     HAL2     0.900000E-01   1.00800           0
     45816 MEMB     369      PMPE     P        PL        1.50000       30.9740           0
     45817 MEMB     369      PMPE     O13      O2L     -0.780000       15.9994           0
     45818 MEMB     369      PMPE     O14      O2L     -0.780000       15.9994           0
     45819 MEMB     369      PMPE     O11      OSLP    -0.570000       15.9994           0
     45820 MEMB     369      PMPE     O12      OSLP    -0.570000       15.9994           0
     45821 MEMB     369      PMPE     C1       CTL2    -0.800000E-01   12.0110           0
     45822 MEMB     369      PMPE     HA       HAL2     0.900000E-01   1.00800           0
     45823 MEMB     369      PMPE     HB       HAL2     0.900000E-01   1.00800           0
     45824 MEMB     369      PMPE     C2       CTL1     0.170000       12.0110           0
     45825 MEMB     369      PMPE     HS       HAL1     0.900000E-01   1.00800           0
     45826 MEMB     369      PMPE     O21      OSL     -0.490000       15.9994           0
     45827 MEMB     369      PMPE     C21      CL       0.900000       12.0110           0
     45828 MEMB     369      PMPE     O22      OBL     -0.630000       15.9994           0
     45829 MEMB     369      PMPE     C22      CTL2    -0.220000       12.0110           0
     45830 MEMB     369      PMPE     H2R      HAL2     0.900000E-01   1.00800           0
     45831 MEMB     369      PMPE     H2S      HAL2     0.900000E-01   1.00800           0
     45832 MEMB     369      PMPE     C3       CTL2     0.800000E-01   12.0110           0
     45833 MEMB     369      PMPE     HX       HAL2     0.900000E-01   1.00800           0
     45834 MEMB     369      PMPE     HY       HAL2     0.900000E-01   1.00800           0
     45835 MEMB     369      PMPE     O31      OSL     -0.490000       15.9994           0
     45836 MEMB     369      PMPE     C31      CL       0.900000       12.0110           0
     45837 MEMB     369      PMPE     O32      OBL     -0.630000       15.9994           0
     45838 MEMB     369      PMPE     C32      CTL2    -0.220000       12.0110           0
     45839 MEMB     369      PMPE     H2X      HAL2     0.900000E-01   1.00800           0
     45840 MEMB     369      PMPE     H2Y      HAL2     0.900000E-01   1.00800           0
     45841 MEMB     369      PMPE     C23      CTL2    -0.180000       12.0110           0
     45842 MEMB     369      PMPE     H3R      HAL2     0.900000E-01   1.00800           0
     45843 MEMB     369      PMPE     H3S      HAL2     0.900000E-01   1.00800           0
     45844 MEMB     369      PMPE     C24      CTL2    -0.180000       12.0110           0
     45845 MEMB     369      PMPE     H4R      HAL2     0.900000E-01   1.00800           0
     45846 MEMB     369      PMPE     H4S      HAL2     0.900000E-01   1.00800           0
     45847 MEMB     369      PMPE     C25      CTL2    -0.180000       12.0110           0
     45848 MEMB     369      PMPE     H5R      HAL2     0.900000E-01   1.00800           0
     45849 MEMB     369      PMPE     H5S      HAL2     0.900000E-01   1.00800           0
     45850 MEMB     369      PMPE     C26      CTL2    -0.180000       12.0110           0
     45851 MEMB     369      PMPE     H6R      HAL2     0.900000E-01   1.00800           0
     45852 MEMB     369      PMPE     H6S      HAL2     0.900000E-01   1.00800           0
     45853 MEMB     369      PMPE     C27      CTL2    -0.180000       12.0110           0
     45854 MEMB     369      PMPE     H7R      HAL2     0.900000E-01   1.00800           0
     45855 MEMB     369      PMPE     H7S      HAL2     0.900000E-01   1.00800           0
     45856 MEMB     369      PMPE     C28      CTL2    -0.180000       12.0110           0
     45857 MEMB     369      PMPE     H8R      HAL2     0.900000E-01   1.00800           0
     45858 MEMB     369      PMPE     H8S      HAL2     0.900000E-01   1.00800           0
     45859 MEMB     369      PMPE     C29      CG3RC1  -0.900000E-01   12.0110           0
     45860 MEMB     369      PMPE     H9R      HGA1     0.900000E-01   1.00800           0
     45861 MEMB     369      PMPE     C217     CG3C31  -0.180000       12.0110           0
     45862 MEMB     369      PMPE     H17R     HGA2     0.900000E-01   1.00800           0
     45863 MEMB     369      PMPE     H17S     HGA2     0.900000E-01   1.00800           0
     45864 MEMB     369      PMPE     C210     CG3RC1  -0.900000E-01   12.0110           0
     45865 MEMB     369      PMPE     H10R     HGA1     0.900000E-01   1.00800           0
     45866 MEMB     369      PMPE     C211     CTL2    -0.180000       12.0110           0
     45867 MEMB     369      PMPE     H11R     HAL2     0.900000E-01   1.00800           0
     45868 MEMB     369      PMPE     H11S     HAL2     0.900000E-01   1.00800           0
     45869 MEMB     369      PMPE     C212     CTL2    -0.180000       12.0110           0
     45870 MEMB     369      PMPE     H12R     HAL2     0.900000E-01   1.00800           0
     45871 MEMB     369      PMPE     H12S     HAL2     0.900000E-01   1.00800           0
     45872 MEMB     369      PMPE     C213     CTL2    -0.180000       12.0110           0
     45873 MEMB     369      PMPE     H13R     HAL2     0.900000E-01   1.00800           0
     45874 MEMB     369      PMPE     H13S     HAL2     0.900000E-01   1.00800           0
     45875 MEMB     369      PMPE     C214     CTL2    -0.180000       12.0110           0
     45876 MEMB     369      PMPE     H14R     HAL2     0.900000E-01   1.00800           0
     45877 MEMB     369      PMPE     H14S     HAL2     0.900000E-01   1.00800           0
     45878 MEMB     369      PMPE     C215     CTL2    -0.180000       12.0110           0
     45879 MEMB     369      PMPE     H15R     HAL2     0.900000E-01   1.00800           0
     45880 MEMB     369      PMPE     H15S     HAL2     0.900000E-01   1.00800           0
     45881 MEMB     369      PMPE     C216     CTL3    -0.270000       12.0110           0
     45882 MEMB     369      PMPE     H16R     HAL3     0.900000E-01   1.00800           0
     45883 MEMB     369      PMPE     H16S     HAL3     0.900000E-01   1.00800           0
     45884 MEMB     369      PMPE     H16T     HAL3     0.900000E-01   1.00800           0
     45885 MEMB     369      PMPE     C33      CTL2    -0.180000       12.0110           0
     45886 MEMB     369      PMPE     H3X      HAL2     0.900000E-01   1.00800           0
     45887 MEMB     369      PMPE     H3Y      HAL2     0.900000E-01   1.00800           0
     45888 MEMB     369      PMPE     C34      CTL2    -0.180000       12.0110           0
     45889 MEMB     369      PMPE     H4X      HAL2     0.900000E-01   1.00800           0
     45890 MEMB     369      PMPE     H4Y      HAL2     0.900000E-01   1.00800           0
     45891 MEMB     369      PMPE     C35      CTL2    -0.180000       12.0110           0
     45892 MEMB     369      PMPE     H5X      HAL2     0.900000E-01   1.00800           0
     45893 MEMB     369      PMPE     H5Y      HAL2     0.900000E-01   1.00800           0
     45894 MEMB     369      PMPE     C36      CTL2    -0.180000       12.0110           0
     45895 MEMB     369      PMPE     H6X      HAL2     0.900000E-01   1.00800           0
     45896 MEMB     369      PMPE     H6Y      HAL2     0.900000E-01   1.00800           0
     45897 MEMB     369      PMPE     C37      CTL2    -0.180000       12.0110           0
     45898 MEMB     369      PMPE     H7X      HAL2     0.900000E-01   1.00800           0
     45899 MEMB     369      PMPE     H7Y      HAL2     0.900000E-01   1.00800           0
     45900 MEMB     369      PMPE     C38      CTL2    -0.180000       12.0110           0
     45901 MEMB     369      PMPE     H8X      HAL2     0.900000E-01   1.00800           0
     45902 MEMB     369      PMPE     H8Y      HAL2     0.900000E-01   1.00800           0
     45903 MEMB     369      PMPE     C39      CTL2    -0.180000       12.0110           0
     45904 MEMB     369      PMPE     H9X      HAL2     0.900000E-01   1.00800           0
     45905 MEMB     369      PMPE     H9Y      HAL2     0.900000E-01   1.00800           0
     45906 MEMB     369      PMPE     C310     CTL2    -0.180000       12.0110           0
     45907 MEMB     369      PMPE     H10X     HAL2     0.900000E-01   1.00800           0
     45908 MEMB     369      PMPE     H10Y     HAL2     0.900000E-01   1.00800           0
     45909 MEMB     369      PMPE     C311     CTL2    -0.180000       12.0110           0
     45910 MEMB     369      PMPE     H11X     HAL2     0.900000E-01   1.00800           0
     45911 MEMB     369      PMPE     H11Y     HAL2     0.900000E-01   1.00800           0
     45912 MEMB     369      PMPE     C312     CTL2    -0.180000       12.0110           0
     45913 MEMB     369      PMPE     H12X     HAL2     0.900000E-01   1.00800           0
     45914 MEMB     369      PMPE     H12Y     HAL2     0.900000E-01   1.00800           0
     45915 MEMB     369      PMPE     C313     CTL2    -0.180000       12.0110           0
     45916 MEMB     369      PMPE     H13X     HAL2     0.900000E-01   1.00800           0
     45917 MEMB     369      PMPE     H13Y     HAL2     0.900000E-01   1.00800           0
     45918 MEMB     369      PMPE     C314     CTL2    -0.180000       12.0110           0
     45919 MEMB     369      PMPE     H14X     HAL2     0.900000E-01   1.00800           0
     45920 MEMB     369      PMPE     H14Y     HAL2     0.900000E-01   1.00800           0
     45921 MEMB     369      PMPE     C315     CTL2    -0.180000       12.0110           0
     45922 MEMB     369      PMPE     H15X     HAL2     0.900000E-01   1.00800           0
     45923 MEMB     369      PMPE     H15Y     HAL2     0.900000E-01   1.00800           0
     45924 MEMB     369      PMPE     C316     CTL3    -0.270000       12.0110           0
     45925 MEMB     369      PMPE     H16X     HAL3     0.900000E-01   1.00800           0
     45926 MEMB     369      PMPE     H16Y     HAL3     0.900000E-01   1.00800           0
     45927 MEMB     369      PMPE     H16Z     HAL3     0.900000E-01   1.00800           0
     45928 MEMB     370      PMPE     N        NH3L    -0.300000       14.0070           0
     45929 MEMB     370      PMPE     HN1      HCL      0.330000       1.00800           0
     45930 MEMB     370      PMPE     HN2      HCL      0.330000       1.00800           0
     45931 MEMB     370      PMPE     HN3      HCL      0.330000       1.00800           0
     45932 MEMB     370      PMPE     C12      CTL2     0.130000       12.0110           0
     45933 MEMB     370      PMPE     H12A     HAL2     0.900000E-01   1.00800           0
     45934 MEMB     370      PMPE     H12B     HAL2     0.900000E-01   1.00800           0
     45935 MEMB     370      PMPE     C11      CTL2    -0.800000E-01   12.0110           0
     45936 MEMB     370      PMPE     H11A     HAL2     0.900000E-01   1.00800           0
     45937 MEMB     370      PMPE     H11B     HAL2     0.900000E-01   1.00800           0
     45938 MEMB     370      PMPE     P        PL        1.50000       30.9740           0
     45939 MEMB     370      PMPE     O13      O2L     -0.780000       15.9994           0
     45940 MEMB     370      PMPE     O14      O2L     -0.780000       15.9994           0
     45941 MEMB     370      PMPE     O11      OSLP    -0.570000       15.9994           0
     45942 MEMB     370      PMPE     O12      OSLP    -0.570000       15.9994           0
     45943 MEMB     370      PMPE     C1       CTL2    -0.800000E-01   12.0110           0
     45944 MEMB     370      PMPE     HA       HAL2     0.900000E-01   1.00800           0
     45945 MEMB     370      PMPE     HB       HAL2     0.900000E-01   1.00800           0
     45946 MEMB     370      PMPE     C2       CTL1     0.170000       12.0110           0
     45947 MEMB     370      PMPE     HS       HAL1     0.900000E-01   1.00800           0
     45948 MEMB     370      PMPE     O21      OSL     -0.490000       15.9994           0
     45949 MEMB     370      PMPE     C21      CL       0.900000       12.0110           0
     45950 MEMB     370      PMPE     O22      OBL     -0.630000       15.9994           0
     45951 MEMB     370      PMPE     C22      CTL2    -0.220000       12.0110           0
     45952 MEMB     370      PMPE     H2R      HAL2     0.900000E-01   1.00800           0
     45953 MEMB     370      PMPE     H2S      HAL2     0.900000E-01   1.00800           0
     45954 MEMB     370      PMPE     C3       CTL2     0.800000E-01   12.0110           0
     45955 MEMB     370      PMPE     HX       HAL2     0.900000E-01   1.00800           0
     45956 MEMB     370      PMPE     HY       HAL2     0.900000E-01   1.00800           0
     45957 MEMB     370      PMPE     O31      OSL     -0.490000       15.9994           0
     45958 MEMB     370      PMPE     C31      CL       0.900000       12.0110           0
     45959 MEMB     370      PMPE     O32      OBL     -0.630000       15.9994           0
     45960 MEMB     370      PMPE     C32      CTL2    -0.220000       12.0110           0
     45961 MEMB     370      PMPE     H2X      HAL2     0.900000E-01   1.00800           0
     45962 MEMB     370      PMPE     H2Y      HAL2     0.900000E-01   1.00800           0
     45963 MEMB     370      PMPE     C23      CTL2    -0.180000       12.0110           0
     45964 MEMB     370      PMPE     H3R      HAL2     0.900000E-01   1.00800           0
     45965 MEMB     370      PMPE     H3S      HAL2     0.900000E-01   1.00800           0
     45966 MEMB     370      PMPE     C24      CTL2    -0.180000       12.0110           0
     45967 MEMB     370      PMPE     H4R      HAL2     0.900000E-01   1.00800           0
     45968 MEMB     370      PMPE     H4S      HAL2     0.900000E-01   1.00800           0
     45969 MEMB     370      PMPE     C25      CTL2    -0.180000       12.0110           0
     45970 MEMB     370      PMPE     H5R      HAL2     0.900000E-01   1.00800           0
     45971 MEMB     370      PMPE     H5S      HAL2     0.900000E-01   1.00800           0
     45972 MEMB     370      PMPE     C26      CTL2    -0.180000       12.0110           0
     45973 MEMB     370      PMPE     H6R      HAL2     0.900000E-01   1.00800           0
     45974 MEMB     370      PMPE     H6S      HAL2     0.900000E-01   1.00800           0
     45975 MEMB     370      PMPE     C27      CTL2    -0.180000       12.0110           0
     45976 MEMB     370      PMPE     H7R      HAL2     0.900000E-01   1.00800           0
     45977 MEMB     370      PMPE     H7S      HAL2     0.900000E-01   1.00800           0
     45978 MEMB     370      PMPE     C28      CTL2    -0.180000       12.0110           0
     45979 MEMB     370      PMPE     H8R      HAL2     0.900000E-01   1.00800           0
     45980 MEMB     370      PMPE     H8S      HAL2     0.900000E-01   1.00800           0
     45981 MEMB     370      PMPE     C29      CG3RC1  -0.900000E-01   12.0110           0
     45982 MEMB     370      PMPE     H9R      HGA1     0.900000E-01   1.00800           0
     45983 MEMB     370      PMPE     C217     CG3C31  -0.180000       12.0110           0
     45984 MEMB     370      PMPE     H17R     HGA2     0.900000E-01   1.00800           0
     45985 MEMB     370      PMPE     H17S     HGA2     0.900000E-01   1.00800           0
     45986 MEMB     370      PMPE     C210     CG3RC1  -0.900000E-01   12.0110           0
     45987 MEMB     370      PMPE     H10R     HGA1     0.900000E-01   1.00800           0
     45988 MEMB     370      PMPE     C211     CTL2    -0.180000       12.0110           0
     45989 MEMB     370      PMPE     H11R     HAL2     0.900000E-01   1.00800           0
     45990 MEMB     370      PMPE     H11S     HAL2     0.900000E-01   1.00800           0
     45991 MEMB     370      PMPE     C212     CTL2    -0.180000       12.0110           0
     45992 MEMB     370      PMPE     H12R     HAL2     0.900000E-01   1.00800           0
     45993 MEMB     370      PMPE     H12S     HAL2     0.900000E-01   1.00800           0
     45994 MEMB     370      PMPE     C213     CTL2    -0.180000       12.0110           0
     45995 MEMB     370      PMPE     H13R     HAL2     0.900000E-01   1.00800           0
     45996 MEMB     370      PMPE     H13S     HAL2     0.900000E-01   1.00800           0
     45997 MEMB     370      PMPE     C214     CTL2    -0.180000       12.0110           0
     45998 MEMB     370      PMPE     H14R     HAL2     0.900000E-01   1.00800           0
     45999 MEMB     370      PMPE     H14S     HAL2     0.900000E-01   1.00800           0
     46000 MEMB     370      PMPE     C215     CTL2    -0.180000       12.0110           0
     46001 MEMB     370      PMPE     H15R     HAL2     0.900000E-01   1.00800           0
     46002 MEMB     370      PMPE     H15S     HAL2     0.900000E-01   1.00800           0
     46003 MEMB     370      PMPE     C216     CTL3    -0.270000       12.0110           0
     46004 MEMB     370      PMPE     H16R     HAL3     0.900000E-01   1.00800           0
     46005 MEMB     370      PMPE     H16S     HAL3     0.900000E-01   1.00800           0
     46006 MEMB     370      PMPE     H16T     HAL3     0.900000E-01   1.00800           0
     46007 MEMB     370      PMPE     C33      CTL2    -0.180000       12.0110           0
     46008 MEMB     370      PMPE     H3X      HAL2     0.900000E-01   1.00800           0
     46009 MEMB     370      PMPE     H3Y      HAL2     0.900000E-01   1.00800           0
     46010 MEMB     370      PMPE     C34      CTL2    -0.180000       12.0110           0
     46011 MEMB     370      PMPE     H4X      HAL2     0.900000E-01   1.00800           0
     46012 MEMB     370      PMPE     H4Y      HAL2     0.900000E-01   1.00800           0
     46013 MEMB     370      PMPE     C35      CTL2    -0.180000       12.0110           0
     46014 MEMB     370      PMPE     H5X      HAL2     0.900000E-01   1.00800           0
     46015 MEMB     370      PMPE     H5Y      HAL2     0.900000E-01   1.00800           0
     46016 MEMB     370      PMPE     C36      CTL2    -0.180000       12.0110           0
     46017 MEMB     370      PMPE     H6X      HAL2     0.900000E-01   1.00800           0
     46018 MEMB     370      PMPE     H6Y      HAL2     0.900000E-01   1.00800           0
     46019 MEMB     370      PMPE     C37      CTL2    -0.180000       12.0110           0
     46020 MEMB     370      PMPE     H7X      HAL2     0.900000E-01   1.00800           0
     46021 MEMB     370      PMPE     H7Y      HAL2     0.900000E-01   1.00800           0
     46022 MEMB     370      PMPE     C38      CTL2    -0.180000       12.0110           0
     46023 MEMB     370      PMPE     H8X      HAL2     0.900000E-01   1.00800           0
     46024 MEMB     370      PMPE     H8Y      HAL2     0.900000E-01   1.00800           0
     46025 MEMB     370      PMPE     C39      CTL2    -0.180000       12.0110           0
     46026 MEMB     370      PMPE     H9X      HAL2     0.900000E-01   1.00800           0
     46027 MEMB     370      PMPE     H9Y      HAL2     0.900000E-01   1.00800           0
     46028 MEMB     370      PMPE     C310     CTL2    -0.180000       12.0110           0
     46029 MEMB     370      PMPE     H10X     HAL2     0.900000E-01   1.00800           0
     46030 MEMB     370      PMPE     H10Y     HAL2     0.900000E-01   1.00800           0
     46031 MEMB     370      PMPE     C311     CTL2    -0.180000       12.0110           0
     46032 MEMB     370      PMPE     H11X     HAL2     0.900000E-01   1.00800           0
     46033 MEMB     370      PMPE     H11Y     HAL2     0.900000E-01   1.00800           0
     46034 MEMB     370      PMPE     C312     CTL2    -0.180000       12.0110           0
     46035 MEMB     370      PMPE     H12X     HAL2     0.900000E-01   1.00800           0
     46036 MEMB     370      PMPE     H12Y     HAL2     0.900000E-01   1.00800           0
     46037 MEMB     370      PMPE     C313     CTL2    -0.180000       12.0110           0
     46038 MEMB     370      PMPE     H13X     HAL2     0.900000E-01   1.00800           0
     46039 MEMB     370      PMPE     H13Y     HAL2     0.900000E-01   1.00800           0
     46040 MEMB     370      PMPE     C314     CTL2    -0.180000       12.0110           0
     46041 MEMB     370      PMPE     H14X     HAL2     0.900000E-01   1.00800           0
     46042 MEMB     370      PMPE     H14Y     HAL2     0.900000E-01   1.00800           0
     46043 MEMB     370      PMPE     C315     CTL2    -0.180000       12.0110           0
     46044 MEMB     370      PMPE     H15X     HAL2     0.900000E-01   1.00800           0
     46045 MEMB     370      PMPE     H15Y     HAL2     0.900000E-01   1.00800           0
     46046 MEMB     370      PMPE     C316     CTL3    -0.270000       12.0110           0
     46047 MEMB     370      PMPE     H16X     HAL3     0.900000E-01   1.00800           0
     46048 MEMB     370      PMPE     H16Y     HAL3     0.900000E-01   1.00800           0
     46049 MEMB     370      PMPE     H16Z     HAL3     0.900000E-01   1.00800           0
     46050 MEMB     371      POPE     N        NH3L    -0.300000       14.0070           0
     46051 MEMB     371      POPE     HN1      HCL      0.330000       1.00800           0
     46052 MEMB     371      POPE     HN2      HCL      0.330000       1.00800           0
     46053 MEMB     371      POPE     HN3      HCL      0.330000       1.00800           0
     46054 MEMB     371      POPE     C12      CTL2     0.130000       12.0110           0
     46055 MEMB     371      POPE     H12A     HAL2     0.900000E-01   1.00800           0
     46056 MEMB     371      POPE     H12B     HAL2     0.900000E-01   1.00800           0
     46057 MEMB     371      POPE     C11      CTL2    -0.800000E-01   12.0110           0
     46058 MEMB     371      POPE     H11A     HAL2     0.900000E-01   1.00800           0
     46059 MEMB     371      POPE     H11B     HAL2     0.900000E-01   1.00800           0
     46060 MEMB     371      POPE     P        PL        1.50000       30.9740           0
     46061 MEMB     371      POPE     O13      O2L     -0.780000       15.9994           0
     46062 MEMB     371      POPE     O14      O2L     -0.780000       15.9994           0
     46063 MEMB     371      POPE     O11      OSLP    -0.570000       15.9994           0
     46064 MEMB     371      POPE     O12      OSLP    -0.570000       15.9994           0
     46065 MEMB     371      POPE     C1       CTL2    -0.800000E-01   12.0110           0
     46066 MEMB     371      POPE     HA       HAL2     0.900000E-01   1.00800           0
     46067 MEMB     371      POPE     HB       HAL2     0.900000E-01   1.00800           0
     46068 MEMB     371      POPE     C2       CTL1     0.170000       12.0110           0
     46069 MEMB     371      POPE     HS       HAL1     0.900000E-01   1.00800           0
     46070 MEMB     371      POPE     O21      OSL     -0.490000       15.9994           0
     46071 MEMB     371      POPE     C21      CL       0.900000       12.0110           0
     46072 MEMB     371      POPE     O22      OBL     -0.630000       15.9994           0
     46073 MEMB     371      POPE     C22      CTL2    -0.220000       12.0110           0
     46074 MEMB     371      POPE     H2R      HAL2     0.900000E-01   1.00800           0
     46075 MEMB     371      POPE     H2S      HAL2     0.900000E-01   1.00800           0
     46076 MEMB     371      POPE     C3       CTL2     0.800000E-01   12.0110           0
     46077 MEMB     371      POPE     HX       HAL2     0.900000E-01   1.00800           0
     46078 MEMB     371      POPE     HY       HAL2     0.900000E-01   1.00800           0
     46079 MEMB     371      POPE     O31      OSL     -0.490000       15.9994           0
     46080 MEMB     371      POPE     C31      CL       0.900000       12.0110           0
     46081 MEMB     371      POPE     O32      OBL     -0.630000       15.9994           0
     46082 MEMB     371      POPE     C32      CTL2    -0.220000       12.0110           0
     46083 MEMB     371      POPE     H2X      HAL2     0.900000E-01   1.00800           0
     46084 MEMB     371      POPE     H2Y      HAL2     0.900000E-01   1.00800           0
     46085 MEMB     371      POPE     C23      CTL2    -0.180000       12.0110           0
     46086 MEMB     371      POPE     H3R      HAL2     0.900000E-01   1.00800           0
     46087 MEMB     371      POPE     H3S      HAL2     0.900000E-01   1.00800           0
     46088 MEMB     371      POPE     C24      CTL2    -0.180000       12.0110           0
     46089 MEMB     371      POPE     H4R      HAL2     0.900000E-01   1.00800           0
     46090 MEMB     371      POPE     H4S      HAL2     0.900000E-01   1.00800           0
     46091 MEMB     371      POPE     C25      CTL2    -0.180000       12.0110           0
     46092 MEMB     371      POPE     H5R      HAL2     0.900000E-01   1.00800           0
     46093 MEMB     371      POPE     H5S      HAL2     0.900000E-01   1.00800           0
     46094 MEMB     371      POPE     C26      CTL2    -0.180000       12.0110           0
     46095 MEMB     371      POPE     H6R      HAL2     0.900000E-01   1.00800           0
     46096 MEMB     371      POPE     H6S      HAL2     0.900000E-01   1.00800           0
     46097 MEMB     371      POPE     C27      CTL2    -0.180000       12.0110           0
     46098 MEMB     371      POPE     H7R      HAL2     0.900000E-01   1.00800           0
     46099 MEMB     371      POPE     H7S      HAL2     0.900000E-01   1.00800           0
     46100 MEMB     371      POPE     C28      CTL2    -0.180000       12.0110           0
     46101 MEMB     371      POPE     H8R      HAL2     0.900000E-01   1.00800           0
     46102 MEMB     371      POPE     H8S      HAL2     0.900000E-01   1.00800           0
     46103 MEMB     371      POPE     C29      CEL1    -0.150000       12.0110           0
     46104 MEMB     371      POPE     H91      HEL1     0.150000       1.00800           0
     46105 MEMB     371      POPE     C210     CEL1    -0.150000       12.0110           0
     46106 MEMB     371      POPE     H101     HEL1     0.150000       1.00800           0
     46107 MEMB     371      POPE     C211     CTL2    -0.180000       12.0110           0
     46108 MEMB     371      POPE     H11R     HAL2     0.900000E-01   1.00800           0
     46109 MEMB     371      POPE     H11S     HAL2     0.900000E-01   1.00800           0
     46110 MEMB     371      POPE     C212     CTL2    -0.180000       12.0110           0
     46111 MEMB     371      POPE     H12R     HAL2     0.900000E-01   1.00800           0
     46112 MEMB     371      POPE     H12S     HAL2     0.900000E-01   1.00800           0
     46113 MEMB     371      POPE     C213     CTL2    -0.180000       12.0110           0
     46114 MEMB     371      POPE     H13R     HAL2     0.900000E-01   1.00800           0
     46115 MEMB     371      POPE     H13S     HAL2     0.900000E-01   1.00800           0
     46116 MEMB     371      POPE     C214     CTL2    -0.180000       12.0110           0
     46117 MEMB     371      POPE     H14R     HAL2     0.900000E-01   1.00800           0
     46118 MEMB     371      POPE     H14S     HAL2     0.900000E-01   1.00800           0
     46119 MEMB     371      POPE     C215     CTL2    -0.180000       12.0110           0
     46120 MEMB     371      POPE     H15R     HAL2     0.900000E-01   1.00800           0
     46121 MEMB     371      POPE     H15S     HAL2     0.900000E-01   1.00800           0
     46122 MEMB     371      POPE     C216     CTL2    -0.180000       12.0110           0
     46123 MEMB     371      POPE     H16R     HAL2     0.900000E-01   1.00800           0
     46124 MEMB     371      POPE     H16S     HAL2     0.900000E-01   1.00800           0
     46125 MEMB     371      POPE     C217     CTL2    -0.180000       12.0110           0
     46126 MEMB     371      POPE     H17R     HAL2     0.900000E-01   1.00800           0
     46127 MEMB     371      POPE     H17S     HAL2     0.900000E-01   1.00800           0
     46128 MEMB     371      POPE     C218     CTL3    -0.270000       12.0110           0
     46129 MEMB     371      POPE     H18R     HAL3     0.900000E-01   1.00800           0
     46130 MEMB     371      POPE     H18S     HAL3     0.900000E-01   1.00800           0
     46131 MEMB     371      POPE     H18T     HAL3     0.900000E-01   1.00800           0
     46132 MEMB     371      POPE     C33      CTL2    -0.180000       12.0110           0
     46133 MEMB     371      POPE     H3X      HAL2     0.900000E-01   1.00800           0
     46134 MEMB     371      POPE     H3Y      HAL2     0.900000E-01   1.00800           0
     46135 MEMB     371      POPE     C34      CTL2    -0.180000       12.0110           0
     46136 MEMB     371      POPE     H4X      HAL2     0.900000E-01   1.00800           0
     46137 MEMB     371      POPE     H4Y      HAL2     0.900000E-01   1.00800           0
     46138 MEMB     371      POPE     C35      CTL2    -0.180000       12.0110           0
     46139 MEMB     371      POPE     H5X      HAL2     0.900000E-01   1.00800           0
     46140 MEMB     371      POPE     H5Y      HAL2     0.900000E-01   1.00800           0
     46141 MEMB     371      POPE     C36      CTL2    -0.180000       12.0110           0
     46142 MEMB     371      POPE     H6X      HAL2     0.900000E-01   1.00800           0
     46143 MEMB     371      POPE     H6Y      HAL2     0.900000E-01   1.00800           0
     46144 MEMB     371      POPE     C37      CTL2    -0.180000       12.0110           0
     46145 MEMB     371      POPE     H7X      HAL2     0.900000E-01   1.00800           0
     46146 MEMB     371      POPE     H7Y      HAL2     0.900000E-01   1.00800           0
     46147 MEMB     371      POPE     C38      CTL2    -0.180000       12.0110           0
     46148 MEMB     371      POPE     H8X      HAL2     0.900000E-01   1.00800           0
     46149 MEMB     371      POPE     H8Y      HAL2     0.900000E-01   1.00800           0
     46150 MEMB     371      POPE     C39      CTL2    -0.180000       12.0110           0
     46151 MEMB     371      POPE     H9X      HAL2     0.900000E-01   1.00800           0
     46152 MEMB     371      POPE     H9Y      HAL2     0.900000E-01   1.00800           0
     46153 MEMB     371      POPE     C310     CTL2    -0.180000       12.0110           0
     46154 MEMB     371      POPE     H10X     HAL2     0.900000E-01   1.00800           0
     46155 MEMB     371      POPE     H10Y     HAL2     0.900000E-01   1.00800           0
     46156 MEMB     371      POPE     C311     CTL2    -0.180000       12.0110           0
     46157 MEMB     371      POPE     H11X     HAL2     0.900000E-01   1.00800           0
     46158 MEMB     371      POPE     H11Y     HAL2     0.900000E-01   1.00800           0
     46159 MEMB     371      POPE     C312     CTL2    -0.180000       12.0110           0
     46160 MEMB     371      POPE     H12X     HAL2     0.900000E-01   1.00800           0
     46161 MEMB     371      POPE     H12Y     HAL2     0.900000E-01   1.00800           0
     46162 MEMB     371      POPE     C313     CTL2    -0.180000       12.0110           0
     46163 MEMB     371      POPE     H13X     HAL2     0.900000E-01   1.00800           0
     46164 MEMB     371      POPE     H13Y     HAL2     0.900000E-01   1.00800           0
     46165 MEMB     371      POPE     C314     CTL2    -0.180000       12.0110           0
     46166 MEMB     371      POPE     H14X     HAL2     0.900000E-01   1.00800           0
     46167 MEMB     371      POPE     H14Y     HAL2     0.900000E-01   1.00800           0
     46168 MEMB     371      POPE     C315     CTL2    -0.180000       12.0110           0
     46169 MEMB     371      POPE     H15X     HAL2     0.900000E-01   1.00800           0
     46170 MEMB     371      POPE     H15Y     HAL2     0.900000E-01   1.00800           0
     46171 MEMB     371      POPE     C316     CTL3    -0.270000       12.0110           0
     46172 MEMB     371      POPE     H16X     HAL3     0.900000E-01   1.00800           0
     46173 MEMB     371      POPE     H16Y     HAL3     0.900000E-01   1.00800           0
     46174 MEMB     371      POPE     H16Z     HAL3     0.900000E-01   1.00800           0
     46175 MEMB     372      PMPE     N        NH3L    -0.300000       14.0070           0
     46176 MEMB     372      PMPE     HN1      HCL      0.330000       1.00800           0
     46177 MEMB     372      PMPE     HN2      HCL      0.330000       1.00800           0
     46178 MEMB     372      PMPE     HN3      HCL      0.330000       1.00800           0
     46179 MEMB     372      PMPE     C12      CTL2     0.130000       12.0110           0
     46180 MEMB     372      PMPE     H12A     HAL2     0.900000E-01   1.00800           0
     46181 MEMB     372      PMPE     H12B     HAL2     0.900000E-01   1.00800           0
     46182 MEMB     372      PMPE     C11      CTL2    -0.800000E-01   12.0110           0
     46183 MEMB     372      PMPE     H11A     HAL2     0.900000E-01   1.00800           0
     46184 MEMB     372      PMPE     H11B     HAL2     0.900000E-01   1.00800           0
     46185 MEMB     372      PMPE     P        PL        1.50000       30.9740           0
     46186 MEMB     372      PMPE     O13      O2L     -0.780000       15.9994           0
     46187 MEMB     372      PMPE     O14      O2L     -0.780000       15.9994           0
     46188 MEMB     372      PMPE     O11      OSLP    -0.570000       15.9994           0
     46189 MEMB     372      PMPE     O12      OSLP    -0.570000       15.9994           0
     46190 MEMB     372      PMPE     C1       CTL2    -0.800000E-01   12.0110           0
     46191 MEMB     372      PMPE     HA       HAL2     0.900000E-01   1.00800           0
     46192 MEMB     372      PMPE     HB       HAL2     0.900000E-01   1.00800           0
     46193 MEMB     372      PMPE     C2       CTL1     0.170000       12.0110           0
     46194 MEMB     372      PMPE     HS       HAL1     0.900000E-01   1.00800           0
     46195 MEMB     372      PMPE     O21      OSL     -0.490000       15.9994           0
     46196 MEMB     372      PMPE     C21      CL       0.900000       12.0110           0
     46197 MEMB     372      PMPE     O22      OBL     -0.630000       15.9994           0
     46198 MEMB     372      PMPE     C22      CTL2    -0.220000       12.0110           0
     46199 MEMB     372      PMPE     H2R      HAL2     0.900000E-01   1.00800           0
     46200 MEMB     372      PMPE     H2S      HAL2     0.900000E-01   1.00800           0
     46201 MEMB     372      PMPE     C3       CTL2     0.800000E-01   12.0110           0
     46202 MEMB     372      PMPE     HX       HAL2     0.900000E-01   1.00800           0
     46203 MEMB     372      PMPE     HY       HAL2     0.900000E-01   1.00800           0
     46204 MEMB     372      PMPE     O31      OSL     -0.490000       15.9994           0
     46205 MEMB     372      PMPE     C31      CL       0.900000       12.0110           0
     46206 MEMB     372      PMPE     O32      OBL     -0.630000       15.9994           0
     46207 MEMB     372      PMPE     C32      CTL2    -0.220000       12.0110           0
     46208 MEMB     372      PMPE     H2X      HAL2     0.900000E-01   1.00800           0
     46209 MEMB     372      PMPE     H2Y      HAL2     0.900000E-01   1.00800           0
     46210 MEMB     372      PMPE     C23      CTL2    -0.180000       12.0110           0
     46211 MEMB     372      PMPE     H3R      HAL2     0.900000E-01   1.00800           0
     46212 MEMB     372      PMPE     H3S      HAL2     0.900000E-01   1.00800           0
     46213 MEMB     372      PMPE     C24      CTL2    -0.180000       12.0110           0
     46214 MEMB     372      PMPE     H4R      HAL2     0.900000E-01   1.00800           0
     46215 MEMB     372      PMPE     H4S      HAL2     0.900000E-01   1.00800           0
     46216 MEMB     372      PMPE     C25      CTL2    -0.180000       12.0110           0
     46217 MEMB     372      PMPE     H5R      HAL2     0.900000E-01   1.00800           0
     46218 MEMB     372      PMPE     H5S      HAL2     0.900000E-01   1.00800           0
     46219 MEMB     372      PMPE     C26      CTL2    -0.180000       12.0110           0
     46220 MEMB     372      PMPE     H6R      HAL2     0.900000E-01   1.00800           0
     46221 MEMB     372      PMPE     H6S      HAL2     0.900000E-01   1.00800           0
     46222 MEMB     372      PMPE     C27      CTL2    -0.180000       12.0110           0
     46223 MEMB     372      PMPE     H7R      HAL2     0.900000E-01   1.00800           0
     46224 MEMB     372      PMPE     H7S      HAL2     0.900000E-01   1.00800           0
     46225 MEMB     372      PMPE     C28      CTL2    -0.180000       12.0110           0
     46226 MEMB     372      PMPE     H8R      HAL2     0.900000E-01   1.00800           0
     46227 MEMB     372      PMPE     H8S      HAL2     0.900000E-01   1.00800           0
     46228 MEMB     372      PMPE     C29      CG3RC1  -0.900000E-01   12.0110           0
     46229 MEMB     372      PMPE     H9R      HGA1     0.900000E-01   1.00800           0
     46230 MEMB     372      PMPE     C217     CG3C31  -0.180000       12.0110           0
     46231 MEMB     372      PMPE     H17R     HGA2     0.900000E-01   1.00800           0
     46232 MEMB     372      PMPE     H17S     HGA2     0.900000E-01   1.00800           0
     46233 MEMB     372      PMPE     C210     CG3RC1  -0.900000E-01   12.0110           0
     46234 MEMB     372      PMPE     H10R     HGA1     0.900000E-01   1.00800           0
     46235 MEMB     372      PMPE     C211     CTL2    -0.180000       12.0110           0
     46236 MEMB     372      PMPE     H11R     HAL2     0.900000E-01   1.00800           0
     46237 MEMB     372      PMPE     H11S     HAL2     0.900000E-01   1.00800           0
     46238 MEMB     372      PMPE     C212     CTL2    -0.180000       12.0110           0
     46239 MEMB     372      PMPE     H12R     HAL2     0.900000E-01   1.00800           0
     46240 MEMB     372      PMPE     H12S     HAL2     0.900000E-01   1.00800           0
     46241 MEMB     372      PMPE     C213     CTL2    -0.180000       12.0110           0
     46242 MEMB     372      PMPE     H13R     HAL2     0.900000E-01   1.00800           0
     46243 MEMB     372      PMPE     H13S     HAL2     0.900000E-01   1.00800           0
     46244 MEMB     372      PMPE     C214     CTL2    -0.180000       12.0110           0
     46245 MEMB     372      PMPE     H14R     HAL2     0.900000E-01   1.00800           0
     46246 MEMB     372      PMPE     H14S     HAL2     0.900000E-01   1.00800           0
     46247 MEMB     372      PMPE     C215     CTL2    -0.180000       12.0110           0
     46248 MEMB     372      PMPE     H15R     HAL2     0.900000E-01   1.00800           0
     46249 MEMB     372      PMPE     H15S     HAL2     0.900000E-01   1.00800           0
     46250 MEMB     372      PMPE     C216     CTL3    -0.270000       12.0110           0
     46251 MEMB     372      PMPE     H16R     HAL3     0.900000E-01   1.00800           0
     46252 MEMB     372      PMPE     H16S     HAL3     0.900000E-01   1.00800           0
     46253 MEMB     372      PMPE     H16T     HAL3     0.900000E-01   1.00800           0
     46254 MEMB     372      PMPE     C33      CTL2    -0.180000       12.0110           0
     46255 MEMB     372      PMPE     H3X      HAL2     0.900000E-01   1.00800           0
     46256 MEMB     372      PMPE     H3Y      HAL2     0.900000E-01   1.00800           0
     46257 MEMB     372      PMPE     C34      CTL2    -0.180000       12.0110           0
     46258 MEMB     372      PMPE     H4X      HAL2     0.900000E-01   1.00800           0
     46259 MEMB     372      PMPE     H4Y      HAL2     0.900000E-01   1.00800           0
     46260 MEMB     372      PMPE     C35      CTL2    -0.180000       12.0110           0
     46261 MEMB     372      PMPE     H5X      HAL2     0.900000E-01   1.00800           0
     46262 MEMB     372      PMPE     H5Y      HAL2     0.900000E-01   1.00800           0
     46263 MEMB     372      PMPE     C36      CTL2    -0.180000       12.0110           0
     46264 MEMB     372      PMPE     H6X      HAL2     0.900000E-01   1.00800           0
     46265 MEMB     372      PMPE     H6Y      HAL2     0.900000E-01   1.00800           0
     46266 MEMB     372      PMPE     C37      CTL2    -0.180000       12.0110           0
     46267 MEMB     372      PMPE     H7X      HAL2     0.900000E-01   1.00800           0
     46268 MEMB     372      PMPE     H7Y      HAL2     0.900000E-01   1.00800           0
     46269 MEMB     372      PMPE     C38      CTL2    -0.180000       12.0110           0
     46270 MEMB     372      PMPE     H8X      HAL2     0.900000E-01   1.00800           0
     46271 MEMB     372      PMPE     H8Y      HAL2     0.900000E-01   1.00800           0
     46272 MEMB     372      PMPE     C39      CTL2    -0.180000       12.0110           0
     46273 MEMB     372      PMPE     H9X      HAL2     0.900000E-01   1.00800           0
     46274 MEMB     372      PMPE     H9Y      HAL2     0.900000E-01   1.00800           0
     46275 MEMB     372      PMPE     C310     CTL2    -0.180000       12.0110           0
     46276 MEMB     372      PMPE     H10X     HAL2     0.900000E-01   1.00800           0
     46277 MEMB     372      PMPE     H10Y     HAL2     0.900000E-01   1.00800           0
     46278 MEMB     372      PMPE     C311     CTL2    -0.180000       12.0110           0
     46279 MEMB     372      PMPE     H11X     HAL2     0.900000E-01   1.00800           0
     46280 MEMB     372      PMPE     H11Y     HAL2     0.900000E-01   1.00800           0
     46281 MEMB     372      PMPE     C312     CTL2    -0.180000       12.0110           0
     46282 MEMB     372      PMPE     H12X     HAL2     0.900000E-01   1.00800           0
     46283 MEMB     372      PMPE     H12Y     HAL2     0.900000E-01   1.00800           0
     46284 MEMB     372      PMPE     C313     CTL2    -0.180000       12.0110           0
     46285 MEMB     372      PMPE     H13X     HAL2     0.900000E-01   1.00800           0
     46286 MEMB     372      PMPE     H13Y     HAL2     0.900000E-01   1.00800           0
     46287 MEMB     372      PMPE     C314     CTL2    -0.180000       12.0110           0
     46288 MEMB     372      PMPE     H14X     HAL2     0.900000E-01   1.00800           0
     46289 MEMB     372      PMPE     H14Y     HAL2     0.900000E-01   1.00800           0
     46290 MEMB     372      PMPE     C315     CTL2    -0.180000       12.0110           0
     46291 MEMB     372      PMPE     H15X     HAL2     0.900000E-01   1.00800           0
     46292 MEMB     372      PMPE     H15Y     HAL2     0.900000E-01   1.00800           0
     46293 MEMB     372      PMPE     C316     CTL3    -0.270000       12.0110           0
     46294 MEMB     372      PMPE     H16X     HAL3     0.900000E-01   1.00800           0
     46295 MEMB     372      PMPE     H16Y     HAL3     0.900000E-01   1.00800           0
     46296 MEMB     372      PMPE     H16Z     HAL3     0.900000E-01   1.00800           0
     46297 MEMB     373      PYPG     C13      CTL2     0.500000E-01   12.0110           0
     46298 MEMB     373      PYPG     H13A     HAL2     0.900000E-01   1.00800           0
     46299 MEMB     373      PYPG     H13B     HAL2     0.900000E-01   1.00800           0
     46300 MEMB     373      PYPG     OC3      OHL     -0.660000       15.9994           0
     46301 MEMB     373      PYPG     HO3      HOL      0.430000       1.00800           0
     46302 MEMB     373      PYPG     C12      CTL1     0.140000       12.0110           0
     46303 MEMB     373      PYPG     H12A     HAL1     0.900000E-01   1.00800           0
     46304 MEMB     373      PYPG     OC2      OHL     -0.660000       15.9994           0
     46305 MEMB     373      PYPG     HO2      HOL      0.430000       1.00800           0
     46306 MEMB     373      PYPG     C11      CTL2    -0.800000E-01   12.0110           0
     46307 MEMB     373      PYPG     H11A     HAL2     0.900000E-01   1.00800           0
     46308 MEMB     373      PYPG     H11B     HAL2     0.900000E-01   1.00800           0
     46309 MEMB     373      PYPG     P        PL        1.50000       30.9740           0
     46310 MEMB     373      PYPG     O13      O2L     -0.780000       15.9994           0
     46311 MEMB     373      PYPG     O14      O2L     -0.780000       15.9994           0
     46312 MEMB     373      PYPG     O11      OSLP    -0.570000       15.9994           0
     46313 MEMB     373      PYPG     O12      OSLP    -0.570000       15.9994           0
     46314 MEMB     373      PYPG     C1       CTL2    -0.800000E-01   12.0110           0
     46315 MEMB     373      PYPG     HA       HAL2     0.900000E-01   1.00800           0
     46316 MEMB     373      PYPG     HB       HAL2     0.900000E-01   1.00800           0
     46317 MEMB     373      PYPG     C2       CTL1     0.170000       12.0110           0
     46318 MEMB     373      PYPG     HS       HAL1     0.900000E-01   1.00800           0
     46319 MEMB     373      PYPG     O21      OSL     -0.490000       15.9994           0
     46320 MEMB     373      PYPG     C21      CL       0.900000       12.0110           0
     46321 MEMB     373      PYPG     O22      OBL     -0.630000       15.9994           0
     46322 MEMB     373      PYPG     C22      CTL2    -0.220000       12.0110           0
     46323 MEMB     373      PYPG     H2R      HAL2     0.900000E-01   1.00800           0
     46324 MEMB     373      PYPG     H2S      HAL2     0.900000E-01   1.00800           0
     46325 MEMB     373      PYPG     C3       CTL2     0.800000E-01   12.0110           0
     46326 MEMB     373      PYPG     HX       HAL2     0.900000E-01   1.00800           0
     46327 MEMB     373      PYPG     HY       HAL2     0.900000E-01   1.00800           0
     46328 MEMB     373      PYPG     O31      OSL     -0.490000       15.9994           0
     46329 MEMB     373      PYPG     C31      CL       0.900000       12.0110           0
     46330 MEMB     373      PYPG     O32      OBL     -0.630000       15.9994           0
     46331 MEMB     373      PYPG     C32      CTL2    -0.220000       12.0110           0
     46332 MEMB     373      PYPG     H2X      HAL2     0.900000E-01   1.00800           0
     46333 MEMB     373      PYPG     H2Y      HAL2     0.900000E-01   1.00800           0
     46334 MEMB     373      PYPG     C23      CTL2    -0.180000       12.0110           0
     46335 MEMB     373      PYPG     H3R      HAL2     0.900000E-01   1.00800           0
     46336 MEMB     373      PYPG     H3S      HAL2     0.900000E-01   1.00800           0
     46337 MEMB     373      PYPG     C24      CTL2    -0.180000       12.0110           0
     46338 MEMB     373      PYPG     H4R      HAL2     0.900000E-01   1.00800           0
     46339 MEMB     373      PYPG     H4S      HAL2     0.900000E-01   1.00800           0
     46340 MEMB     373      PYPG     C25      CTL2    -0.180000       12.0110           0
     46341 MEMB     373      PYPG     H5R      HAL2     0.900000E-01   1.00800           0
     46342 MEMB     373      PYPG     H5S      HAL2     0.900000E-01   1.00800           0
     46343 MEMB     373      PYPG     C26      CTL2    -0.180000       12.0110           0
     46344 MEMB     373      PYPG     H6R      HAL2     0.900000E-01   1.00800           0
     46345 MEMB     373      PYPG     H6S      HAL2     0.900000E-01   1.00800           0
     46346 MEMB     373      PYPG     C27      CTL2    -0.180000       12.0110           0
     46347 MEMB     373      PYPG     H7R      HAL2     0.900000E-01   1.00800           0
     46348 MEMB     373      PYPG     H7S      HAL2     0.900000E-01   1.00800           0
     46349 MEMB     373      PYPG     C28      CTL2    -0.180000       12.0110           0
     46350 MEMB     373      PYPG     H8R      HAL2     0.900000E-01   1.00800           0
     46351 MEMB     373      PYPG     H8S      HAL2     0.900000E-01   1.00800           0
     46352 MEMB     373      PYPG     C29      CEL1    -0.150000       12.0110           0
     46353 MEMB     373      PYPG     H9R      HEL1     0.150000       1.00800           0
     46354 MEMB     373      PYPG     C210     CEL1    -0.150000       12.0110           0
     46355 MEMB     373      PYPG     H10R     HEL1     0.150000       1.00800           0
     46356 MEMB     373      PYPG     C211     CTL2    -0.180000       12.0110           0
     46357 MEMB     373      PYPG     H11R     HAL2     0.900000E-01   1.00800           0
     46358 MEMB     373      PYPG     H11S     HAL2     0.900000E-01   1.00800           0
     46359 MEMB     373      PYPG     C212     CTL2    -0.180000       12.0110           0
     46360 MEMB     373      PYPG     H12R     HAL2     0.900000E-01   1.00800           0
     46361 MEMB     373      PYPG     H12S     HAL2     0.900000E-01   1.00800           0
     46362 MEMB     373      PYPG     C213     CTL2    -0.180000       12.0110           0
     46363 MEMB     373      PYPG     H13R     HAL2     0.900000E-01   1.00800           0
     46364 MEMB     373      PYPG     H13S     HAL2     0.900000E-01   1.00800           0
     46365 MEMB     373      PYPG     C214     CTL2    -0.180000       12.0110           0
     46366 MEMB     373      PYPG     H14R     HAL2     0.900000E-01   1.00800           0
     46367 MEMB     373      PYPG     H14S     HAL2     0.900000E-01   1.00800           0
     46368 MEMB     373      PYPG     C215     CTL2    -0.180000       12.0110           0
     46369 MEMB     373      PYPG     H15R     HAL2     0.900000E-01   1.00800           0
     46370 MEMB     373      PYPG     H15S     HAL2     0.900000E-01   1.00800           0
     46371 MEMB     373      PYPG     C216     CTL3    -0.270000       12.0110           0
     46372 MEMB     373      PYPG     H16R     HAL3     0.900000E-01   1.00800           0
     46373 MEMB     373      PYPG     H16S     HAL3     0.900000E-01   1.00800           0
     46374 MEMB     373      PYPG     H16T     HAL3     0.900000E-01   1.00800           0
     46375 MEMB     373      PYPG     C33      CTL2    -0.180000       12.0110           0
     46376 MEMB     373      PYPG     H3X      HAL2     0.900000E-01   1.00800           0
     46377 MEMB     373      PYPG     H3Y      HAL2     0.900000E-01   1.00800           0
     46378 MEMB     373      PYPG     C34      CTL2    -0.180000       12.0110           0
     46379 MEMB     373      PYPG     H4X      HAL2     0.900000E-01   1.00800           0
     46380 MEMB     373      PYPG     H4Y      HAL2     0.900000E-01   1.00800           0
     46381 MEMB     373      PYPG     C35      CTL2    -0.180000       12.0110           0
     46382 MEMB     373      PYPG     H5X      HAL2     0.900000E-01   1.00800           0
     46383 MEMB     373      PYPG     H5Y      HAL2     0.900000E-01   1.00800           0
     46384 MEMB     373      PYPG     C36      CTL2    -0.180000       12.0110           0
     46385 MEMB     373      PYPG     H6X      HAL2     0.900000E-01   1.00800           0
     46386 MEMB     373      PYPG     H6Y      HAL2     0.900000E-01   1.00800           0
     46387 MEMB     373      PYPG     C37      CTL2    -0.180000       12.0110           0
     46388 MEMB     373      PYPG     H7X      HAL2     0.900000E-01   1.00800           0
     46389 MEMB     373      PYPG     H7Y      HAL2     0.900000E-01   1.00800           0
     46390 MEMB     373      PYPG     C38      CTL2    -0.180000       12.0110           0
     46391 MEMB     373      PYPG     H8X      HAL2     0.900000E-01   1.00800           0
     46392 MEMB     373      PYPG     H8Y      HAL2     0.900000E-01   1.00800           0
     46393 MEMB     373      PYPG     C39      CTL2    -0.180000       12.0110           0
     46394 MEMB     373      PYPG     H9X      HAL2     0.900000E-01   1.00800           0
     46395 MEMB     373      PYPG     H9Y      HAL2     0.900000E-01   1.00800           0
     46396 MEMB     373      PYPG     C310     CTL2    -0.180000       12.0110           0
     46397 MEMB     373      PYPG     H10X     HAL2     0.900000E-01   1.00800           0
     46398 MEMB     373      PYPG     H10Y     HAL2     0.900000E-01   1.00800           0
     46399 MEMB     373      PYPG     C311     CTL2    -0.180000       12.0110           0
     46400 MEMB     373      PYPG     H11X     HAL2     0.900000E-01   1.00800           0
     46401 MEMB     373      PYPG     H11Y     HAL2     0.900000E-01   1.00800           0
     46402 MEMB     373      PYPG     C312     CTL2    -0.180000       12.0110           0
     46403 MEMB     373      PYPG     H12X     HAL2     0.900000E-01   1.00800           0
     46404 MEMB     373      PYPG     H12Y     HAL2     0.900000E-01   1.00800           0
     46405 MEMB     373      PYPG     C313     CTL2    -0.180000       12.0110           0
     46406 MEMB     373      PYPG     H13X     HAL2     0.900000E-01   1.00800           0
     46407 MEMB     373      PYPG     H13Y     HAL2     0.900000E-01   1.00800           0
     46408 MEMB     373      PYPG     C314     CTL2    -0.180000       12.0110           0
     46409 MEMB     373      PYPG     H14X     HAL2     0.900000E-01   1.00800           0
     46410 MEMB     373      PYPG     H14Y     HAL2     0.900000E-01   1.00800           0
     46411 MEMB     373      PYPG     C315     CTL2    -0.180000       12.0110           0
     46412 MEMB     373      PYPG     H15X     HAL2     0.900000E-01   1.00800           0
     46413 MEMB     373      PYPG     H15Y     HAL2     0.900000E-01   1.00800           0
     46414 MEMB     373      PYPG     C316     CTL3    -0.270000       12.0110           0
     46415 MEMB     373      PYPG     H16X     HAL3     0.900000E-01   1.00800           0
     46416 MEMB     373      PYPG     H16Y     HAL3     0.900000E-01   1.00800           0
     46417 MEMB     373      PYPG     H16Z     HAL3     0.900000E-01   1.00800           0
     46418 MEMB     374      PMPE     N        NH3L    -0.300000       14.0070           0
     46419 MEMB     374      PMPE     HN1      HCL      0.330000       1.00800           0
     46420 MEMB     374      PMPE     HN2      HCL      0.330000       1.00800           0
     46421 MEMB     374      PMPE     HN3      HCL      0.330000       1.00800           0
     46422 MEMB     374      PMPE     C12      CTL2     0.130000       12.0110           0
     46423 MEMB     374      PMPE     H12A     HAL2     0.900000E-01   1.00800           0
     46424 MEMB     374      PMPE     H12B     HAL2     0.900000E-01   1.00800           0
     46425 MEMB     374      PMPE     C11      CTL2    -0.800000E-01   12.0110           0
     46426 MEMB     374      PMPE     H11A     HAL2     0.900000E-01   1.00800           0
     46427 MEMB     374      PMPE     H11B     HAL2     0.900000E-01   1.00800           0
     46428 MEMB     374      PMPE     P        PL        1.50000       30.9740           0
     46429 MEMB     374      PMPE     O13      O2L     -0.780000       15.9994           0
     46430 MEMB     374      PMPE     O14      O2L     -0.780000       15.9994           0
     46431 MEMB     374      PMPE     O11      OSLP    -0.570000       15.9994           0
     46432 MEMB     374      PMPE     O12      OSLP    -0.570000       15.9994           0
     46433 MEMB     374      PMPE     C1       CTL2    -0.800000E-01   12.0110           0
     46434 MEMB     374      PMPE     HA       HAL2     0.900000E-01   1.00800           0
     46435 MEMB     374      PMPE     HB       HAL2     0.900000E-01   1.00800           0
     46436 MEMB     374      PMPE     C2       CTL1     0.170000       12.0110           0
     46437 MEMB     374      PMPE     HS       HAL1     0.900000E-01   1.00800           0
     46438 MEMB     374      PMPE     O21      OSL     -0.490000       15.9994           0
     46439 MEMB     374      PMPE     C21      CL       0.900000       12.0110           0
     46440 MEMB     374      PMPE     O22      OBL     -0.630000       15.9994           0
     46441 MEMB     374      PMPE     C22      CTL2    -0.220000       12.0110           0
     46442 MEMB     374      PMPE     H2R      HAL2     0.900000E-01   1.00800           0
     46443 MEMB     374      PMPE     H2S      HAL2     0.900000E-01   1.00800           0
     46444 MEMB     374      PMPE     C3       CTL2     0.800000E-01   12.0110           0
     46445 MEMB     374      PMPE     HX       HAL2     0.900000E-01   1.00800           0
     46446 MEMB     374      PMPE     HY       HAL2     0.900000E-01   1.00800           0
     46447 MEMB     374      PMPE     O31      OSL     -0.490000       15.9994           0
     46448 MEMB     374      PMPE     C31      CL       0.900000       12.0110           0
     46449 MEMB     374      PMPE     O32      OBL     -0.630000       15.9994           0
     46450 MEMB     374      PMPE     C32      CTL2    -0.220000       12.0110           0
     46451 MEMB     374      PMPE     H2X      HAL2     0.900000E-01   1.00800           0
     46452 MEMB     374      PMPE     H2Y      HAL2     0.900000E-01   1.00800           0
     46453 MEMB     374      PMPE     C23      CTL2    -0.180000       12.0110           0
     46454 MEMB     374      PMPE     H3R      HAL2     0.900000E-01   1.00800           0
     46455 MEMB     374      PMPE     H3S      HAL2     0.900000E-01   1.00800           0
     46456 MEMB     374      PMPE     C24      CTL2    -0.180000       12.0110           0
     46457 MEMB     374      PMPE     H4R      HAL2     0.900000E-01   1.00800           0
     46458 MEMB     374      PMPE     H4S      HAL2     0.900000E-01   1.00800           0
     46459 MEMB     374      PMPE     C25      CTL2    -0.180000       12.0110           0
     46460 MEMB     374      PMPE     H5R      HAL2     0.900000E-01   1.00800           0
     46461 MEMB     374      PMPE     H5S      HAL2     0.900000E-01   1.00800           0
     46462 MEMB     374      PMPE     C26      CTL2    -0.180000       12.0110           0
     46463 MEMB     374      PMPE     H6R      HAL2     0.900000E-01   1.00800           0
     46464 MEMB     374      PMPE     H6S      HAL2     0.900000E-01   1.00800           0
     46465 MEMB     374      PMPE     C27      CTL2    -0.180000       12.0110           0
     46466 MEMB     374      PMPE     H7R      HAL2     0.900000E-01   1.00800           0
     46467 MEMB     374      PMPE     H7S      HAL2     0.900000E-01   1.00800           0
     46468 MEMB     374      PMPE     C28      CTL2    -0.180000       12.0110           0
     46469 MEMB     374      PMPE     H8R      HAL2     0.900000E-01   1.00800           0
     46470 MEMB     374      PMPE     H8S      HAL2     0.900000E-01   1.00800           0
     46471 MEMB     374      PMPE     C29      CG3RC1  -0.900000E-01   12.0110           0
     46472 MEMB     374      PMPE     H9R      HGA1     0.900000E-01   1.00800           0
     46473 MEMB     374      PMPE     C217     CG3C31  -0.180000       12.0110           0
     46474 MEMB     374      PMPE     H17R     HGA2     0.900000E-01   1.00800           0
     46475 MEMB     374      PMPE     H17S     HGA2     0.900000E-01   1.00800           0
     46476 MEMB     374      PMPE     C210     CG3RC1  -0.900000E-01   12.0110           0
     46477 MEMB     374      PMPE     H10R     HGA1     0.900000E-01   1.00800           0
     46478 MEMB     374      PMPE     C211     CTL2    -0.180000       12.0110           0
     46479 MEMB     374      PMPE     H11R     HAL2     0.900000E-01   1.00800           0
     46480 MEMB     374      PMPE     H11S     HAL2     0.900000E-01   1.00800           0
     46481 MEMB     374      PMPE     C212     CTL2    -0.180000       12.0110           0
     46482 MEMB     374      PMPE     H12R     HAL2     0.900000E-01   1.00800           0
     46483 MEMB     374      PMPE     H12S     HAL2     0.900000E-01   1.00800           0
     46484 MEMB     374      PMPE     C213     CTL2    -0.180000       12.0110           0
     46485 MEMB     374      PMPE     H13R     HAL2     0.900000E-01   1.00800           0
     46486 MEMB     374      PMPE     H13S     HAL2     0.900000E-01   1.00800           0
     46487 MEMB     374      PMPE     C214     CTL2    -0.180000       12.0110           0
     46488 MEMB     374      PMPE     H14R     HAL2     0.900000E-01   1.00800           0
     46489 MEMB     374      PMPE     H14S     HAL2     0.900000E-01   1.00800           0
     46490 MEMB     374      PMPE     C215     CTL2    -0.180000       12.0110           0
     46491 MEMB     374      PMPE     H15R     HAL2     0.900000E-01   1.00800           0
     46492 MEMB     374      PMPE     H15S     HAL2     0.900000E-01   1.00800           0
     46493 MEMB     374      PMPE     C216     CTL3    -0.270000       12.0110           0
     46494 MEMB     374      PMPE     H16R     HAL3     0.900000E-01   1.00800           0
     46495 MEMB     374      PMPE     H16S     HAL3     0.900000E-01   1.00800           0
     46496 MEMB     374      PMPE     H16T     HAL3     0.900000E-01   1.00800           0
     46497 MEMB     374      PMPE     C33      CTL2    -0.180000       12.0110           0
     46498 MEMB     374      PMPE     H3X      HAL2     0.900000E-01   1.00800           0
     46499 MEMB     374      PMPE     H3Y      HAL2     0.900000E-01   1.00800           0
     46500 MEMB     374      PMPE     C34      CTL2    -0.180000       12.0110           0
     46501 MEMB     374      PMPE     H4X      HAL2     0.900000E-01   1.00800           0
     46502 MEMB     374      PMPE     H4Y      HAL2     0.900000E-01   1.00800           0
     46503 MEMB     374      PMPE     C35      CTL2    -0.180000       12.0110           0
     46504 MEMB     374      PMPE     H5X      HAL2     0.900000E-01   1.00800           0
     46505 MEMB     374      PMPE     H5Y      HAL2     0.900000E-01   1.00800           0
     46506 MEMB     374      PMPE     C36      CTL2    -0.180000       12.0110           0
     46507 MEMB     374      PMPE     H6X      HAL2     0.900000E-01   1.00800           0
     46508 MEMB     374      PMPE     H6Y      HAL2     0.900000E-01   1.00800           0
     46509 MEMB     374      PMPE     C37      CTL2    -0.180000       12.0110           0
     46510 MEMB     374      PMPE     H7X      HAL2     0.900000E-01   1.00800           0
     46511 MEMB     374      PMPE     H7Y      HAL2     0.900000E-01   1.00800           0
     46512 MEMB     374      PMPE     C38      CTL2    -0.180000       12.0110           0
     46513 MEMB     374      PMPE     H8X      HAL2     0.900000E-01   1.00800           0
     46514 MEMB     374      PMPE     H8Y      HAL2     0.900000E-01   1.00800           0
     46515 MEMB     374      PMPE     C39      CTL2    -0.180000       12.0110           0
     46516 MEMB     374      PMPE     H9X      HAL2     0.900000E-01   1.00800           0
     46517 MEMB     374      PMPE     H9Y      HAL2     0.900000E-01   1.00800           0
     46518 MEMB     374      PMPE     C310     CTL2    -0.180000       12.0110           0
     46519 MEMB     374      PMPE     H10X     HAL2     0.900000E-01   1.00800           0
     46520 MEMB     374      PMPE     H10Y     HAL2     0.900000E-01   1.00800           0
     46521 MEMB     374      PMPE     C311     CTL2    -0.180000       12.0110           0
     46522 MEMB     374      PMPE     H11X     HAL2     0.900000E-01   1.00800           0
     46523 MEMB     374      PMPE     H11Y     HAL2     0.900000E-01   1.00800           0
     46524 MEMB     374      PMPE     C312     CTL2    -0.180000       12.0110           0
     46525 MEMB     374      PMPE     H12X     HAL2     0.900000E-01   1.00800           0
     46526 MEMB     374      PMPE     H12Y     HAL2     0.900000E-01   1.00800           0
     46527 MEMB     374      PMPE     C313     CTL2    -0.180000       12.0110           0
     46528 MEMB     374      PMPE     H13X     HAL2     0.900000E-01   1.00800           0
     46529 MEMB     374      PMPE     H13Y     HAL2     0.900000E-01   1.00800           0
     46530 MEMB     374      PMPE     C314     CTL2    -0.180000       12.0110           0
     46531 MEMB     374      PMPE     H14X     HAL2     0.900000E-01   1.00800           0
     46532 MEMB     374      PMPE     H14Y     HAL2     0.900000E-01   1.00800           0
     46533 MEMB     374      PMPE     C315     CTL2    -0.180000       12.0110           0
     46534 MEMB     374      PMPE     H15X     HAL2     0.900000E-01   1.00800           0
     46535 MEMB     374      PMPE     H15Y     HAL2     0.900000E-01   1.00800           0
     46536 MEMB     374      PMPE     C316     CTL3    -0.270000       12.0110           0
     46537 MEMB     374      PMPE     H16X     HAL3     0.900000E-01   1.00800           0
     46538 MEMB     374      PMPE     H16Y     HAL3     0.900000E-01   1.00800           0
     46539 MEMB     374      PMPE     H16Z     HAL3     0.900000E-01   1.00800           0
     46540 MEMB     375      QMPE     N        NH3L    -0.300000       14.0070           0
     46541 MEMB     375      QMPE     HN1      HCL      0.330000       1.00800           0
     46542 MEMB     375      QMPE     HN2      HCL      0.330000       1.00800           0
     46543 MEMB     375      QMPE     HN3      HCL      0.330000       1.00800           0
     46544 MEMB     375      QMPE     C12      CTL2     0.130000       12.0110           0
     46545 MEMB     375      QMPE     H12A     HAL2     0.900000E-01   1.00800           0
     46546 MEMB     375      QMPE     H12B     HAL2     0.900000E-01   1.00800           0
     46547 MEMB     375      QMPE     C11      CTL2    -0.800000E-01   12.0110           0
     46548 MEMB     375      QMPE     H11A     HAL2     0.900000E-01   1.00800           0
     46549 MEMB     375      QMPE     H11B     HAL2     0.900000E-01   1.00800           0
     46550 MEMB     375      QMPE     P        PL        1.50000       30.9740           0
     46551 MEMB     375      QMPE     O13      O2L     -0.780000       15.9994           0
     46552 MEMB     375      QMPE     O14      O2L     -0.780000       15.9994           0
     46553 MEMB     375      QMPE     O11      OSLP    -0.570000       15.9994           0
     46554 MEMB     375      QMPE     O12      OSLP    -0.570000       15.9994           0
     46555 MEMB     375      QMPE     C1       CTL2    -0.800000E-01   12.0110           0
     46556 MEMB     375      QMPE     HA       HAL2     0.900000E-01   1.00800           0
     46557 MEMB     375      QMPE     HB       HAL2     0.900000E-01   1.00800           0
     46558 MEMB     375      QMPE     C2       CTL1     0.170000       12.0110           0
     46559 MEMB     375      QMPE     HS       HAL1     0.900000E-01   1.00800           0
     46560 MEMB     375      QMPE     O21      OSL     -0.490000       15.9994           0
     46561 MEMB     375      QMPE     C21      CL       0.900000       12.0110           0
     46562 MEMB     375      QMPE     O22      OBL     -0.630000       15.9994           0
     46563 MEMB     375      QMPE     C22      CTL2    -0.220000       12.0110           0
     46564 MEMB     375      QMPE     H2R      HAL2     0.900000E-01   1.00800           0
     46565 MEMB     375      QMPE     H2S      HAL2     0.900000E-01   1.00800           0
     46566 MEMB     375      QMPE     C3       CTL2     0.800000E-01   12.0110           0
     46567 MEMB     375      QMPE     HX       HAL2     0.900000E-01   1.00800           0
     46568 MEMB     375      QMPE     HY       HAL2     0.900000E-01   1.00800           0
     46569 MEMB     375      QMPE     O31      OSL     -0.490000       15.9994           0
     46570 MEMB     375      QMPE     C31      CL       0.900000       12.0110           0
     46571 MEMB     375      QMPE     O32      OBL     -0.630000       15.9994           0
     46572 MEMB     375      QMPE     C32      CTL2    -0.220000       12.0110           0
     46573 MEMB     375      QMPE     H2X      HAL2     0.900000E-01   1.00800           0
     46574 MEMB     375      QMPE     H2Y      HAL2     0.900000E-01   1.00800           0
     46575 MEMB     375      QMPE     C23      CTL2    -0.180000       12.0110           0
     46576 MEMB     375      QMPE     H3R      HAL2     0.900000E-01   1.00800           0
     46577 MEMB     375      QMPE     H3S      HAL2     0.900000E-01   1.00800           0
     46578 MEMB     375      QMPE     C24      CTL2    -0.180000       12.0110           0
     46579 MEMB     375      QMPE     H4R      HAL2     0.900000E-01   1.00800           0
     46580 MEMB     375      QMPE     H4S      HAL2     0.900000E-01   1.00800           0
     46581 MEMB     375      QMPE     C25      CTL2    -0.180000       12.0110           0
     46582 MEMB     375      QMPE     H5R      HAL2     0.900000E-01   1.00800           0
     46583 MEMB     375      QMPE     H5S      HAL2     0.900000E-01   1.00800           0
     46584 MEMB     375      QMPE     C26      CTL2    -0.180000       12.0110           0
     46585 MEMB     375      QMPE     H6R      HAL2     0.900000E-01   1.00800           0
     46586 MEMB     375      QMPE     H6S      HAL2     0.900000E-01   1.00800           0
     46587 MEMB     375      QMPE     C27      CTL2    -0.180000       12.0110           0
     46588 MEMB     375      QMPE     H7R      HAL2     0.900000E-01   1.00800           0
     46589 MEMB     375      QMPE     H7S      HAL2     0.900000E-01   1.00800           0
     46590 MEMB     375      QMPE     C28      CTL2    -0.180000       12.0110           0
     46591 MEMB     375      QMPE     H8R      HAL2     0.900000E-01   1.00800           0
     46592 MEMB     375      QMPE     H8S      HAL2     0.900000E-01   1.00800           0
     46593 MEMB     375      QMPE     C29      CG3RC1  -0.900000E-01   12.0110           0
     46594 MEMB     375      QMPE     H9R      HGA1     0.900000E-01   1.00800           0
     46595 MEMB     375      QMPE     C217     CG3C31  -0.180000       12.0110           0
     46596 MEMB     375      QMPE     H17R     HGA2     0.900000E-01   1.00800           0
     46597 MEMB     375      QMPE     H17S     HGA2     0.900000E-01   1.00800           0
     46598 MEMB     375      QMPE     C210     CG3RC1  -0.900000E-01   12.0110           0
     46599 MEMB     375      QMPE     H10R     HGA1     0.900000E-01   1.00800           0
     46600 MEMB     375      QMPE     C211     CTL2    -0.180000       12.0110           0
     46601 MEMB     375      QMPE     H11R     HAL2     0.900000E-01   1.00800           0
     46602 MEMB     375      QMPE     H11S     HAL2     0.900000E-01   1.00800           0
     46603 MEMB     375      QMPE     C212     CTL2    -0.180000       12.0110           0
     46604 MEMB     375      QMPE     H12R     HAL2     0.900000E-01   1.00800           0
     46605 MEMB     375      QMPE     H12S     HAL2     0.900000E-01   1.00800           0
     46606 MEMB     375      QMPE     C213     CTL2    -0.180000       12.0110           0
     46607 MEMB     375      QMPE     H13R     HAL2     0.900000E-01   1.00800           0
     46608 MEMB     375      QMPE     H13S     HAL2     0.900000E-01   1.00800           0
     46609 MEMB     375      QMPE     C214     CTL2    -0.180000       12.0110           0
     46610 MEMB     375      QMPE     H14R     HAL2     0.900000E-01   1.00800           0
     46611 MEMB     375      QMPE     H14S     HAL2     0.900000E-01   1.00800           0
     46612 MEMB     375      QMPE     C215     CTL2    -0.180000       12.0110           0
     46613 MEMB     375      QMPE     H15R     HAL2     0.900000E-01   1.00800           0
     46614 MEMB     375      QMPE     H15S     HAL2     0.900000E-01   1.00800           0
     46615 MEMB     375      QMPE     C216     CTL3    -0.270000       12.0110           0
     46616 MEMB     375      QMPE     H16R     HAL3     0.900000E-01   1.00800           0
     46617 MEMB     375      QMPE     H16S     HAL3     0.900000E-01   1.00800           0
     46618 MEMB     375      QMPE     H16T     HAL3     0.900000E-01   1.00800           0
     46619 MEMB     375      QMPE     C33      CTL2    -0.180000       12.0110           0
     46620 MEMB     375      QMPE     H3X      HAL2     0.900000E-01   1.00800           0
     46621 MEMB     375      QMPE     H3Y      HAL2     0.900000E-01   1.00800           0
     46622 MEMB     375      QMPE     C34      CTL2    -0.180000       12.0110           0
     46623 MEMB     375      QMPE     H4X      HAL2     0.900000E-01   1.00800           0
     46624 MEMB     375      QMPE     H4Y      HAL2     0.900000E-01   1.00800           0
     46625 MEMB     375      QMPE     C35      CTL2    -0.180000       12.0110           0
     46626 MEMB     375      QMPE     H5X      HAL2     0.900000E-01   1.00800           0
     46627 MEMB     375      QMPE     H5Y      HAL2     0.900000E-01   1.00800           0
     46628 MEMB     375      QMPE     C36      CTL2    -0.180000       12.0110           0
     46629 MEMB     375      QMPE     H6X      HAL2     0.900000E-01   1.00800           0
     46630 MEMB     375      QMPE     H6Y      HAL2     0.900000E-01   1.00800           0
     46631 MEMB     375      QMPE     C37      CTL2    -0.180000       12.0110           0
     46632 MEMB     375      QMPE     H7X      HAL2     0.900000E-01   1.00800           0
     46633 MEMB     375      QMPE     H7Y      HAL2     0.900000E-01   1.00800           0
     46634 MEMB     375      QMPE     C38      CTL2    -0.180000       12.0110           0
     46635 MEMB     375      QMPE     H8X      HAL2     0.900000E-01   1.00800           0
     46636 MEMB     375      QMPE     H8Y      HAL2     0.900000E-01   1.00800           0
     46637 MEMB     375      QMPE     C39      CTL2    -0.180000       12.0110           0
     46638 MEMB     375      QMPE     H9X      HAL2     0.900000E-01   1.00800           0
     46639 MEMB     375      QMPE     H9Y      HAL2     0.900000E-01   1.00800           0
     46640 MEMB     375      QMPE     C310     CTL2    -0.180000       12.0110           0
     46641 MEMB     375      QMPE     H10X     HAL2     0.900000E-01   1.00800           0
     46642 MEMB     375      QMPE     H10Y     HAL2     0.900000E-01   1.00800           0
     46643 MEMB     375      QMPE     C311     CTL2    -0.180000       12.0110           0
     46644 MEMB     375      QMPE     H11X     HAL2     0.900000E-01   1.00800           0
     46645 MEMB     375      QMPE     H11Y     HAL2     0.900000E-01   1.00800           0
     46646 MEMB     375      QMPE     C312     CTL2    -0.180000       12.0110           0
     46647 MEMB     375      QMPE     H12X     HAL2     0.900000E-01   1.00800           0
     46648 MEMB     375      QMPE     H12Y     HAL2     0.900000E-01   1.00800           0
     46649 MEMB     375      QMPE     C313     CTL2    -0.180000       12.0110           0
     46650 MEMB     375      QMPE     H13X     HAL2     0.900000E-01   1.00800           0
     46651 MEMB     375      QMPE     H13Y     HAL2     0.900000E-01   1.00800           0
     46652 MEMB     375      QMPE     C314     CTL2    -0.180000       12.0110           0
     46653 MEMB     375      QMPE     H14X     HAL2     0.900000E-01   1.00800           0
     46654 MEMB     375      QMPE     H14Y     HAL2     0.900000E-01   1.00800           0
     46655 MEMB     375      QMPE     C315     CTL3    -0.270000       12.0110           0
     46656 MEMB     375      QMPE     H15X     HAL3     0.900000E-01   1.00800           0
     46657 MEMB     375      QMPE     H15Y     HAL3     0.900000E-01   1.00800           0
     46658 MEMB     375      QMPE     H15Z     HAL3     0.900000E-01   1.00800           0
     46659 MEMB     376      OYPE     N        NH3L    -0.300000       14.0070           0
     46660 MEMB     376      OYPE     HN1      HCL      0.330000       1.00800           0
     46661 MEMB     376      OYPE     HN2      HCL      0.330000       1.00800           0
     46662 MEMB     376      OYPE     HN3      HCL      0.330000       1.00800           0
     46663 MEMB     376      OYPE     C12      CTL2     0.130000       12.0110           0
     46664 MEMB     376      OYPE     H12A     HAL2     0.900000E-01   1.00800           0
     46665 MEMB     376      OYPE     H12B     HAL2     0.900000E-01   1.00800           0
     46666 MEMB     376      OYPE     C11      CTL2    -0.800000E-01   12.0110           0
     46667 MEMB     376      OYPE     H11A     HAL2     0.900000E-01   1.00800           0
     46668 MEMB     376      OYPE     H11B     HAL2     0.900000E-01   1.00800           0
     46669 MEMB     376      OYPE     P        PL        1.50000       30.9740           0
     46670 MEMB     376      OYPE     O13      O2L     -0.780000       15.9994           0
     46671 MEMB     376      OYPE     O14      O2L     -0.780000       15.9994           0
     46672 MEMB     376      OYPE     O11      OSLP    -0.570000       15.9994           0
     46673 MEMB     376      OYPE     O12      OSLP    -0.570000       15.9994           0
     46674 MEMB     376      OYPE     C1       CTL2    -0.800000E-01   12.0110           0
     46675 MEMB     376      OYPE     HA       HAL2     0.900000E-01   1.00800           0
     46676 MEMB     376      OYPE     HB       HAL2     0.900000E-01   1.00800           0
     46677 MEMB     376      OYPE     C2       CTL1     0.170000       12.0110           0
     46678 MEMB     376      OYPE     HS       HAL1     0.900000E-01   1.00800           0
     46679 MEMB     376      OYPE     O21      OSL     -0.490000       15.9994           0
     46680 MEMB     376      OYPE     C21      CL       0.900000       12.0110           0
     46681 MEMB     376      OYPE     O22      OBL     -0.630000       15.9994           0
     46682 MEMB     376      OYPE     C22      CTL2    -0.220000       12.0110           0
     46683 MEMB     376      OYPE     H2R      HAL2     0.900000E-01   1.00800           0
     46684 MEMB     376      OYPE     H2S      HAL2     0.900000E-01   1.00800           0
     46685 MEMB     376      OYPE     C3       CTL2     0.800000E-01   12.0110           0
     46686 MEMB     376      OYPE     HX       HAL2     0.900000E-01   1.00800           0
     46687 MEMB     376      OYPE     HY       HAL2     0.900000E-01   1.00800           0
     46688 MEMB     376      OYPE     O31      OSL     -0.490000       15.9994           0
     46689 MEMB     376      OYPE     C31      CL       0.900000       12.0110           0
     46690 MEMB     376      OYPE     O32      OBL     -0.630000       15.9994           0
     46691 MEMB     376      OYPE     C32      CTL2    -0.220000       12.0110           0
     46692 MEMB     376      OYPE     H2X      HAL2     0.900000E-01   1.00800           0
     46693 MEMB     376      OYPE     H2Y      HAL2     0.900000E-01   1.00800           0
     46694 MEMB     376      OYPE     C23      CTL2    -0.180000       12.0110           0
     46695 MEMB     376      OYPE     H3R      HAL2     0.900000E-01   1.00800           0
     46696 MEMB     376      OYPE     H3S      HAL2     0.900000E-01   1.00800           0
     46697 MEMB     376      OYPE     C24      CTL2    -0.180000       12.0110           0
     46698 MEMB     376      OYPE     H4R      HAL2     0.900000E-01   1.00800           0
     46699 MEMB     376      OYPE     H4S      HAL2     0.900000E-01   1.00800           0
     46700 MEMB     376      OYPE     C25      CTL2    -0.180000       12.0110           0
     46701 MEMB     376      OYPE     H5R      HAL2     0.900000E-01   1.00800           0
     46702 MEMB     376      OYPE     H5S      HAL2     0.900000E-01   1.00800           0
     46703 MEMB     376      OYPE     C26      CTL2    -0.180000       12.0110           0
     46704 MEMB     376      OYPE     H6R      HAL2     0.900000E-01   1.00800           0
     46705 MEMB     376      OYPE     H6S      HAL2     0.900000E-01   1.00800           0
     46706 MEMB     376      OYPE     C27      CTL2    -0.180000       12.0110           0
     46707 MEMB     376      OYPE     H7R      HAL2     0.900000E-01   1.00800           0
     46708 MEMB     376      OYPE     H7S      HAL2     0.900000E-01   1.00800           0
     46709 MEMB     376      OYPE     C28      CTL2    -0.180000       12.0110           0
     46710 MEMB     376      OYPE     H8R      HAL2     0.900000E-01   1.00800           0
     46711 MEMB     376      OYPE     H8S      HAL2     0.900000E-01   1.00800           0
     46712 MEMB     376      OYPE     C29      CEL1    -0.150000       12.0110           0
     46713 MEMB     376      OYPE     H9R      HEL1     0.150000       1.00800           0
     46714 MEMB     376      OYPE     C210     CEL1    -0.150000       12.0110           0
     46715 MEMB     376      OYPE     H10R     HEL1     0.150000       1.00800           0
     46716 MEMB     376      OYPE     C211     CTL2    -0.180000       12.0110           0
     46717 MEMB     376      OYPE     H11R     HAL2     0.900000E-01   1.00800           0
     46718 MEMB     376      OYPE     H11S     HAL2     0.900000E-01   1.00800           0
     46719 MEMB     376      OYPE     C212     CTL2    -0.180000       12.0110           0
     46720 MEMB     376      OYPE     H12R     HAL2     0.900000E-01   1.00800           0
     46721 MEMB     376      OYPE     H12S     HAL2     0.900000E-01   1.00800           0
     46722 MEMB     376      OYPE     C213     CTL2    -0.180000       12.0110           0
     46723 MEMB     376      OYPE     H13R     HAL2     0.900000E-01   1.00800           0
     46724 MEMB     376      OYPE     H13S     HAL2     0.900000E-01   1.00800           0
     46725 MEMB     376      OYPE     C214     CTL2    -0.180000       12.0110           0
     46726 MEMB     376      OYPE     H14R     HAL2     0.900000E-01   1.00800           0
     46727 MEMB     376      OYPE     H14S     HAL2     0.900000E-01   1.00800           0
     46728 MEMB     376      OYPE     C215     CTL2    -0.180000       12.0110           0
     46729 MEMB     376      OYPE     H15R     HAL2     0.900000E-01   1.00800           0
     46730 MEMB     376      OYPE     H15S     HAL2     0.900000E-01   1.00800           0
     46731 MEMB     376      OYPE     C216     CTL3    -0.270000       12.0110           0
     46732 MEMB     376      OYPE     H16R     HAL3     0.900000E-01   1.00800           0
     46733 MEMB     376      OYPE     H16S     HAL3     0.900000E-01   1.00800           0
     46734 MEMB     376      OYPE     H16T     HAL3     0.900000E-01   1.00800           0
     46735 MEMB     376      OYPE     C33      CTL2    -0.180000       12.0110           0
     46736 MEMB     376      OYPE     H3X      HAL2     0.900000E-01   1.00800           0
     46737 MEMB     376      OYPE     H3Y      HAL2     0.900000E-01   1.00800           0
     46738 MEMB     376      OYPE     C34      CTL2    -0.180000       12.0110           0
     46739 MEMB     376      OYPE     H4X      HAL2     0.900000E-01   1.00800           0
     46740 MEMB     376      OYPE     H4Y      HAL2     0.900000E-01   1.00800           0
     46741 MEMB     376      OYPE     C35      CTL2    -0.180000       12.0110           0
     46742 MEMB     376      OYPE     H5X      HAL2     0.900000E-01   1.00800           0
     46743 MEMB     376      OYPE     H5Y      HAL2     0.900000E-01   1.00800           0
     46744 MEMB     376      OYPE     C36      CTL2    -0.180000       12.0110           0
     46745 MEMB     376      OYPE     H6X      HAL2     0.900000E-01   1.00800           0
     46746 MEMB     376      OYPE     H6Y      HAL2     0.900000E-01   1.00800           0
     46747 MEMB     376      OYPE     C37      CTL2    -0.180000       12.0110           0
     46748 MEMB     376      OYPE     H7X      HAL2     0.900000E-01   1.00800           0
     46749 MEMB     376      OYPE     H7Y      HAL2     0.900000E-01   1.00800           0
     46750 MEMB     376      OYPE     C38      CTL2    -0.180000       12.0110           0
     46751 MEMB     376      OYPE     H8X      HAL2     0.900000E-01   1.00800           0
     46752 MEMB     376      OYPE     H8Y      HAL2     0.900000E-01   1.00800           0
     46753 MEMB     376      OYPE     C39      CEL1    -0.150000       12.0110           0
     46754 MEMB     376      OYPE     H9X      HEL1     0.150000       1.00800           0
     46755 MEMB     376      OYPE     C310     CEL1    -0.150000       12.0110           0
     46756 MEMB     376      OYPE     H10X     HEL1     0.150000       1.00800           0
     46757 MEMB     376      OYPE     C311     CTL2    -0.180000       12.0110           0
     46758 MEMB     376      OYPE     H11X     HAL2     0.900000E-01   1.00800           0
     46759 MEMB     376      OYPE     H11Y     HAL2     0.900000E-01   1.00800           0
     46760 MEMB     376      OYPE     C312     CTL2    -0.180000       12.0110           0
     46761 MEMB     376      OYPE     H12X     HAL2     0.900000E-01   1.00800           0
     46762 MEMB     376      OYPE     H12Y     HAL2     0.900000E-01   1.00800           0
     46763 MEMB     376      OYPE     C313     CTL2    -0.180000       12.0110           0
     46764 MEMB     376      OYPE     H13X     HAL2     0.900000E-01   1.00800           0
     46765 MEMB     376      OYPE     H13Y     HAL2     0.900000E-01   1.00800           0
     46766 MEMB     376      OYPE     C314     CTL2    -0.180000       12.0110           0
     46767 MEMB     376      OYPE     H14X     HAL2     0.900000E-01   1.00800           0
     46768 MEMB     376      OYPE     H14Y     HAL2     0.900000E-01   1.00800           0
     46769 MEMB     376      OYPE     C315     CTL2    -0.180000       12.0110           0
     46770 MEMB     376      OYPE     H15X     HAL2     0.900000E-01   1.00800           0
     46771 MEMB     376      OYPE     H15Y     HAL2     0.900000E-01   1.00800           0
     46772 MEMB     376      OYPE     C316     CTL2    -0.180000       12.0110           0
     46773 MEMB     376      OYPE     H16X     HAL2     0.900000E-01   1.00800           0
     46774 MEMB     376      OYPE     H16Y     HAL2     0.900000E-01   1.00800           0
     46775 MEMB     376      OYPE     C317     CTL2    -0.180000       12.0110           0
     46776 MEMB     376      OYPE     H17X     HAL2     0.900000E-01   1.00800           0
     46777 MEMB     376      OYPE     H17Y     HAL2     0.900000E-01   1.00800           0
     46778 MEMB     376      OYPE     C318     CTL3    -0.270000       12.0110           0
     46779 MEMB     376      OYPE     H18X     HAL3     0.900000E-01   1.00800           0
     46780 MEMB     376      OYPE     H18Y     HAL3     0.900000E-01   1.00800           0
     46781 MEMB     376      OYPE     H18Z     HAL3     0.900000E-01   1.00800           0
     46782 MEMB     377      PMPE     N        NH3L    -0.300000       14.0070           0
     46783 MEMB     377      PMPE     HN1      HCL      0.330000       1.00800           0
     46784 MEMB     377      PMPE     HN2      HCL      0.330000       1.00800           0
     46785 MEMB     377      PMPE     HN3      HCL      0.330000       1.00800           0
     46786 MEMB     377      PMPE     C12      CTL2     0.130000       12.0110           0
     46787 MEMB     377      PMPE     H12A     HAL2     0.900000E-01   1.00800           0
     46788 MEMB     377      PMPE     H12B     HAL2     0.900000E-01   1.00800           0
     46789 MEMB     377      PMPE     C11      CTL2    -0.800000E-01   12.0110           0
     46790 MEMB     377      PMPE     H11A     HAL2     0.900000E-01   1.00800           0
     46791 MEMB     377      PMPE     H11B     HAL2     0.900000E-01   1.00800           0
     46792 MEMB     377      PMPE     P        PL        1.50000       30.9740           0
     46793 MEMB     377      PMPE     O13      O2L     -0.780000       15.9994           0
     46794 MEMB     377      PMPE     O14      O2L     -0.780000       15.9994           0
     46795 MEMB     377      PMPE     O11      OSLP    -0.570000       15.9994           0
     46796 MEMB     377      PMPE     O12      OSLP    -0.570000       15.9994           0
     46797 MEMB     377      PMPE     C1       CTL2    -0.800000E-01   12.0110           0
     46798 MEMB     377      PMPE     HA       HAL2     0.900000E-01   1.00800           0
     46799 MEMB     377      PMPE     HB       HAL2     0.900000E-01   1.00800           0
     46800 MEMB     377      PMPE     C2       CTL1     0.170000       12.0110           0
     46801 MEMB     377      PMPE     HS       HAL1     0.900000E-01   1.00800           0
     46802 MEMB     377      PMPE     O21      OSL     -0.490000       15.9994           0
     46803 MEMB     377      PMPE     C21      CL       0.900000       12.0110           0
     46804 MEMB     377      PMPE     O22      OBL     -0.630000       15.9994           0
     46805 MEMB     377      PMPE     C22      CTL2    -0.220000       12.0110           0
     46806 MEMB     377      PMPE     H2R      HAL2     0.900000E-01   1.00800           0
     46807 MEMB     377      PMPE     H2S      HAL2     0.900000E-01   1.00800           0
     46808 MEMB     377      PMPE     C3       CTL2     0.800000E-01   12.0110           0
     46809 MEMB     377      PMPE     HX       HAL2     0.900000E-01   1.00800           0
     46810 MEMB     377      PMPE     HY       HAL2     0.900000E-01   1.00800           0
     46811 MEMB     377      PMPE     O31      OSL     -0.490000       15.9994           0
     46812 MEMB     377      PMPE     C31      CL       0.900000       12.0110           0
     46813 MEMB     377      PMPE     O32      OBL     -0.630000       15.9994           0
     46814 MEMB     377      PMPE     C32      CTL2    -0.220000       12.0110           0
     46815 MEMB     377      PMPE     H2X      HAL2     0.900000E-01   1.00800           0
     46816 MEMB     377      PMPE     H2Y      HAL2     0.900000E-01   1.00800           0
     46817 MEMB     377      PMPE     C23      CTL2    -0.180000       12.0110           0
     46818 MEMB     377      PMPE     H3R      HAL2     0.900000E-01   1.00800           0
     46819 MEMB     377      PMPE     H3S      HAL2     0.900000E-01   1.00800           0
     46820 MEMB     377      PMPE     C24      CTL2    -0.180000       12.0110           0
     46821 MEMB     377      PMPE     H4R      HAL2     0.900000E-01   1.00800           0
     46822 MEMB     377      PMPE     H4S      HAL2     0.900000E-01   1.00800           0
     46823 MEMB     377      PMPE     C25      CTL2    -0.180000       12.0110           0
     46824 MEMB     377      PMPE     H5R      HAL2     0.900000E-01   1.00800           0
     46825 MEMB     377      PMPE     H5S      HAL2     0.900000E-01   1.00800           0
     46826 MEMB     377      PMPE     C26      CTL2    -0.180000       12.0110           0
     46827 MEMB     377      PMPE     H6R      HAL2     0.900000E-01   1.00800           0
     46828 MEMB     377      PMPE     H6S      HAL2     0.900000E-01   1.00800           0
     46829 MEMB     377      PMPE     C27      CTL2    -0.180000       12.0110           0
     46830 MEMB     377      PMPE     H7R      HAL2     0.900000E-01   1.00800           0
     46831 MEMB     377      PMPE     H7S      HAL2     0.900000E-01   1.00800           0
     46832 MEMB     377      PMPE     C28      CTL2    -0.180000       12.0110           0
     46833 MEMB     377      PMPE     H8R      HAL2     0.900000E-01   1.00800           0
     46834 MEMB     377      PMPE     H8S      HAL2     0.900000E-01   1.00800           0
     46835 MEMB     377      PMPE     C29      CG3RC1  -0.900000E-01   12.0110           0
     46836 MEMB     377      PMPE     H9R      HGA1     0.900000E-01   1.00800           0
     46837 MEMB     377      PMPE     C217     CG3C31  -0.180000       12.0110           0
     46838 MEMB     377      PMPE     H17R     HGA2     0.900000E-01   1.00800           0
     46839 MEMB     377      PMPE     H17S     HGA2     0.900000E-01   1.00800           0
     46840 MEMB     377      PMPE     C210     CG3RC1  -0.900000E-01   12.0110           0
     46841 MEMB     377      PMPE     H10R     HGA1     0.900000E-01   1.00800           0
     46842 MEMB     377      PMPE     C211     CTL2    -0.180000       12.0110           0
     46843 MEMB     377      PMPE     H11R     HAL2     0.900000E-01   1.00800           0
     46844 MEMB     377      PMPE     H11S     HAL2     0.900000E-01   1.00800           0
     46845 MEMB     377      PMPE     C212     CTL2    -0.180000       12.0110           0
     46846 MEMB     377      PMPE     H12R     HAL2     0.900000E-01   1.00800           0
     46847 MEMB     377      PMPE     H12S     HAL2     0.900000E-01   1.00800           0
     46848 MEMB     377      PMPE     C213     CTL2    -0.180000       12.0110           0
     46849 MEMB     377      PMPE     H13R     HAL2     0.900000E-01   1.00800           0
     46850 MEMB     377      PMPE     H13S     HAL2     0.900000E-01   1.00800           0
     46851 MEMB     377      PMPE     C214     CTL2    -0.180000       12.0110           0
     46852 MEMB     377      PMPE     H14R     HAL2     0.900000E-01   1.00800           0
     46853 MEMB     377      PMPE     H14S     HAL2     0.900000E-01   1.00800           0
     46854 MEMB     377      PMPE     C215     CTL2    -0.180000       12.0110           0
     46855 MEMB     377      PMPE     H15R     HAL2     0.900000E-01   1.00800           0
     46856 MEMB     377      PMPE     H15S     HAL2     0.900000E-01   1.00800           0
     46857 MEMB     377      PMPE     C216     CTL3    -0.270000       12.0110           0
     46858 MEMB     377      PMPE     H16R     HAL3     0.900000E-01   1.00800           0
     46859 MEMB     377      PMPE     H16S     HAL3     0.900000E-01   1.00800           0
     46860 MEMB     377      PMPE     H16T     HAL3     0.900000E-01   1.00800           0
     46861 MEMB     377      PMPE     C33      CTL2    -0.180000       12.0110           0
     46862 MEMB     377      PMPE     H3X      HAL2     0.900000E-01   1.00800           0
     46863 MEMB     377      PMPE     H3Y      HAL2     0.900000E-01   1.00800           0
     46864 MEMB     377      PMPE     C34      CTL2    -0.180000       12.0110           0
     46865 MEMB     377      PMPE     H4X      HAL2     0.900000E-01   1.00800           0
     46866 MEMB     377      PMPE     H4Y      HAL2     0.900000E-01   1.00800           0
     46867 MEMB     377      PMPE     C35      CTL2    -0.180000       12.0110           0
     46868 MEMB     377      PMPE     H5X      HAL2     0.900000E-01   1.00800           0
     46869 MEMB     377      PMPE     H5Y      HAL2     0.900000E-01   1.00800           0
     46870 MEMB     377      PMPE     C36      CTL2    -0.180000       12.0110           0
     46871 MEMB     377      PMPE     H6X      HAL2     0.900000E-01   1.00800           0
     46872 MEMB     377      PMPE     H6Y      HAL2     0.900000E-01   1.00800           0
     46873 MEMB     377      PMPE     C37      CTL2    -0.180000       12.0110           0
     46874 MEMB     377      PMPE     H7X      HAL2     0.900000E-01   1.00800           0
     46875 MEMB     377      PMPE     H7Y      HAL2     0.900000E-01   1.00800           0
     46876 MEMB     377      PMPE     C38      CTL2    -0.180000       12.0110           0
     46877 MEMB     377      PMPE     H8X      HAL2     0.900000E-01   1.00800           0
     46878 MEMB     377      PMPE     H8Y      HAL2     0.900000E-01   1.00800           0
     46879 MEMB     377      PMPE     C39      CTL2    -0.180000       12.0110           0
     46880 MEMB     377      PMPE     H9X      HAL2     0.900000E-01   1.00800           0
     46881 MEMB     377      PMPE     H9Y      HAL2     0.900000E-01   1.00800           0
     46882 MEMB     377      PMPE     C310     CTL2    -0.180000       12.0110           0
     46883 MEMB     377      PMPE     H10X     HAL2     0.900000E-01   1.00800           0
     46884 MEMB     377      PMPE     H10Y     HAL2     0.900000E-01   1.00800           0
     46885 MEMB     377      PMPE     C311     CTL2    -0.180000       12.0110           0
     46886 MEMB     377      PMPE     H11X     HAL2     0.900000E-01   1.00800           0
     46887 MEMB     377      PMPE     H11Y     HAL2     0.900000E-01   1.00800           0
     46888 MEMB     377      PMPE     C312     CTL2    -0.180000       12.0110           0
     46889 MEMB     377      PMPE     H12X     HAL2     0.900000E-01   1.00800           0
     46890 MEMB     377      PMPE     H12Y     HAL2     0.900000E-01   1.00800           0
     46891 MEMB     377      PMPE     C313     CTL2    -0.180000       12.0110           0
     46892 MEMB     377      PMPE     H13X     HAL2     0.900000E-01   1.00800           0
     46893 MEMB     377      PMPE     H13Y     HAL2     0.900000E-01   1.00800           0
     46894 MEMB     377      PMPE     C314     CTL2    -0.180000       12.0110           0
     46895 MEMB     377      PMPE     H14X     HAL2     0.900000E-01   1.00800           0
     46896 MEMB     377      PMPE     H14Y     HAL2     0.900000E-01   1.00800           0
     46897 MEMB     377      PMPE     C315     CTL2    -0.180000       12.0110           0
     46898 MEMB     377      PMPE     H15X     HAL2     0.900000E-01   1.00800           0
     46899 MEMB     377      PMPE     H15Y     HAL2     0.900000E-01   1.00800           0
     46900 MEMB     377      PMPE     C316     CTL3    -0.270000       12.0110           0
     46901 MEMB     377      PMPE     H16X     HAL3     0.900000E-01   1.00800           0
     46902 MEMB     377      PMPE     H16Y     HAL3     0.900000E-01   1.00800           0
     46903 MEMB     377      PMPE     H16Z     HAL3     0.900000E-01   1.00800           0
     46904 MEMB     378      PMPE     N        NH3L    -0.300000       14.0070           0
     46905 MEMB     378      PMPE     HN1      HCL      0.330000       1.00800           0
     46906 MEMB     378      PMPE     HN2      HCL      0.330000       1.00800           0
     46907 MEMB     378      PMPE     HN3      HCL      0.330000       1.00800           0
     46908 MEMB     378      PMPE     C12      CTL2     0.130000       12.0110           0
     46909 MEMB     378      PMPE     H12A     HAL2     0.900000E-01   1.00800           0
     46910 MEMB     378      PMPE     H12B     HAL2     0.900000E-01   1.00800           0
     46911 MEMB     378      PMPE     C11      CTL2    -0.800000E-01   12.0110           0
     46912 MEMB     378      PMPE     H11A     HAL2     0.900000E-01   1.00800           0
     46913 MEMB     378      PMPE     H11B     HAL2     0.900000E-01   1.00800           0
     46914 MEMB     378      PMPE     P        PL        1.50000       30.9740           0
     46915 MEMB     378      PMPE     O13      O2L     -0.780000       15.9994           0
     46916 MEMB     378      PMPE     O14      O2L     -0.780000       15.9994           0
     46917 MEMB     378      PMPE     O11      OSLP    -0.570000       15.9994           0
     46918 MEMB     378      PMPE     O12      OSLP    -0.570000       15.9994           0
     46919 MEMB     378      PMPE     C1       CTL2    -0.800000E-01   12.0110           0
     46920 MEMB     378      PMPE     HA       HAL2     0.900000E-01   1.00800           0
     46921 MEMB     378      PMPE     HB       HAL2     0.900000E-01   1.00800           0
     46922 MEMB     378      PMPE     C2       CTL1     0.170000       12.0110           0
     46923 MEMB     378      PMPE     HS       HAL1     0.900000E-01   1.00800           0
     46924 MEMB     378      PMPE     O21      OSL     -0.490000       15.9994           0
     46925 MEMB     378      PMPE     C21      CL       0.900000       12.0110           0
     46926 MEMB     378      PMPE     O22      OBL     -0.630000       15.9994           0
     46927 MEMB     378      PMPE     C22      CTL2    -0.220000       12.0110           0
     46928 MEMB     378      PMPE     H2R      HAL2     0.900000E-01   1.00800           0
     46929 MEMB     378      PMPE     H2S      HAL2     0.900000E-01   1.00800           0
     46930 MEMB     378      PMPE     C3       CTL2     0.800000E-01   12.0110           0
     46931 MEMB     378      PMPE     HX       HAL2     0.900000E-01   1.00800           0
     46932 MEMB     378      PMPE     HY       HAL2     0.900000E-01   1.00800           0
     46933 MEMB     378      PMPE     O31      OSL     -0.490000       15.9994           0
     46934 MEMB     378      PMPE     C31      CL       0.900000       12.0110           0
     46935 MEMB     378      PMPE     O32      OBL     -0.630000       15.9994           0
     46936 MEMB     378      PMPE     C32      CTL2    -0.220000       12.0110           0
     46937 MEMB     378      PMPE     H2X      HAL2     0.900000E-01   1.00800           0
     46938 MEMB     378      PMPE     H2Y      HAL2     0.900000E-01   1.00800           0
     46939 MEMB     378      PMPE     C23      CTL2    -0.180000       12.0110           0
     46940 MEMB     378      PMPE     H3R      HAL2     0.900000E-01   1.00800           0
     46941 MEMB     378      PMPE     H3S      HAL2     0.900000E-01   1.00800           0
     46942 MEMB     378      PMPE     C24      CTL2    -0.180000       12.0110           0
     46943 MEMB     378      PMPE     H4R      HAL2     0.900000E-01   1.00800           0
     46944 MEMB     378      PMPE     H4S      HAL2     0.900000E-01   1.00800           0
     46945 MEMB     378      PMPE     C25      CTL2    -0.180000       12.0110           0
     46946 MEMB     378      PMPE     H5R      HAL2     0.900000E-01   1.00800           0
     46947 MEMB     378      PMPE     H5S      HAL2     0.900000E-01   1.00800           0
     46948 MEMB     378      PMPE     C26      CTL2    -0.180000       12.0110           0
     46949 MEMB     378      PMPE     H6R      HAL2     0.900000E-01   1.00800           0
     46950 MEMB     378      PMPE     H6S      HAL2     0.900000E-01   1.00800           0
     46951 MEMB     378      PMPE     C27      CTL2    -0.180000       12.0110           0
     46952 MEMB     378      PMPE     H7R      HAL2     0.900000E-01   1.00800           0
     46953 MEMB     378      PMPE     H7S      HAL2     0.900000E-01   1.00800           0
     46954 MEMB     378      PMPE     C28      CTL2    -0.180000       12.0110           0
     46955 MEMB     378      PMPE     H8R      HAL2     0.900000E-01   1.00800           0
     46956 MEMB     378      PMPE     H8S      HAL2     0.900000E-01   1.00800           0
     46957 MEMB     378      PMPE     C29      CG3RC1  -0.900000E-01   12.0110           0
     46958 MEMB     378      PMPE     H9R      HGA1     0.900000E-01   1.00800           0
     46959 MEMB     378      PMPE     C217     CG3C31  -0.180000       12.0110           0
     46960 MEMB     378      PMPE     H17R     HGA2     0.900000E-01   1.00800           0
     46961 MEMB     378      PMPE     H17S     HGA2     0.900000E-01   1.00800           0
     46962 MEMB     378      PMPE     C210     CG3RC1  -0.900000E-01   12.0110           0
     46963 MEMB     378      PMPE     H10R     HGA1     0.900000E-01   1.00800           0
     46964 MEMB     378      PMPE     C211     CTL2    -0.180000       12.0110           0
     46965 MEMB     378      PMPE     H11R     HAL2     0.900000E-01   1.00800           0
     46966 MEMB     378      PMPE     H11S     HAL2     0.900000E-01   1.00800           0
     46967 MEMB     378      PMPE     C212     CTL2    -0.180000       12.0110           0
     46968 MEMB     378      PMPE     H12R     HAL2     0.900000E-01   1.00800           0
     46969 MEMB     378      PMPE     H12S     HAL2     0.900000E-01   1.00800           0
     46970 MEMB     378      PMPE     C213     CTL2    -0.180000       12.0110           0
     46971 MEMB     378      PMPE     H13R     HAL2     0.900000E-01   1.00800           0
     46972 MEMB     378      PMPE     H13S     HAL2     0.900000E-01   1.00800           0
     46973 MEMB     378      PMPE     C214     CTL2    -0.180000       12.0110           0
     46974 MEMB     378      PMPE     H14R     HAL2     0.900000E-01   1.00800           0
     46975 MEMB     378      PMPE     H14S     HAL2     0.900000E-01   1.00800           0
     46976 MEMB     378      PMPE     C215     CTL2    -0.180000       12.0110           0
     46977 MEMB     378      PMPE     H15R     HAL2     0.900000E-01   1.00800           0
     46978 MEMB     378      PMPE     H15S     HAL2     0.900000E-01   1.00800           0
     46979 MEMB     378      PMPE     C216     CTL3    -0.270000       12.0110           0
     46980 MEMB     378      PMPE     H16R     HAL3     0.900000E-01   1.00800           0
     46981 MEMB     378      PMPE     H16S     HAL3     0.900000E-01   1.00800           0
     46982 MEMB     378      PMPE     H16T     HAL3     0.900000E-01   1.00800           0
     46983 MEMB     378      PMPE     C33      CTL2    -0.180000       12.0110           0
     46984 MEMB     378      PMPE     H3X      HAL2     0.900000E-01   1.00800           0
     46985 MEMB     378      PMPE     H3Y      HAL2     0.900000E-01   1.00800           0
     46986 MEMB     378      PMPE     C34      CTL2    -0.180000       12.0110           0
     46987 MEMB     378      PMPE     H4X      HAL2     0.900000E-01   1.00800           0
     46988 MEMB     378      PMPE     H4Y      HAL2     0.900000E-01   1.00800           0
     46989 MEMB     378      PMPE     C35      CTL2    -0.180000       12.0110           0
     46990 MEMB     378      PMPE     H5X      HAL2     0.900000E-01   1.00800           0
     46991 MEMB     378      PMPE     H5Y      HAL2     0.900000E-01   1.00800           0
     46992 MEMB     378      PMPE     C36      CTL2    -0.180000       12.0110           0
     46993 MEMB     378      PMPE     H6X      HAL2     0.900000E-01   1.00800           0
     46994 MEMB     378      PMPE     H6Y      HAL2     0.900000E-01   1.00800           0
     46995 MEMB     378      PMPE     C37      CTL2    -0.180000       12.0110           0
     46996 MEMB     378      PMPE     H7X      HAL2     0.900000E-01   1.00800           0
     46997 MEMB     378      PMPE     H7Y      HAL2     0.900000E-01   1.00800           0
     46998 MEMB     378      PMPE     C38      CTL2    -0.180000       12.0110           0
     46999 MEMB     378      PMPE     H8X      HAL2     0.900000E-01   1.00800           0
     47000 MEMB     378      PMPE     H8Y      HAL2     0.900000E-01   1.00800           0
     47001 MEMB     378      PMPE     C39      CTL2    -0.180000       12.0110           0
     47002 MEMB     378      PMPE     H9X      HAL2     0.900000E-01   1.00800           0
     47003 MEMB     378      PMPE     H9Y      HAL2     0.900000E-01   1.00800           0
     47004 MEMB     378      PMPE     C310     CTL2    -0.180000       12.0110           0
     47005 MEMB     378      PMPE     H10X     HAL2     0.900000E-01   1.00800           0
     47006 MEMB     378      PMPE     H10Y     HAL2     0.900000E-01   1.00800           0
     47007 MEMB     378      PMPE     C311     CTL2    -0.180000       12.0110           0
     47008 MEMB     378      PMPE     H11X     HAL2     0.900000E-01   1.00800           0
     47009 MEMB     378      PMPE     H11Y     HAL2     0.900000E-01   1.00800           0
     47010 MEMB     378      PMPE     C312     CTL2    -0.180000       12.0110           0
     47011 MEMB     378      PMPE     H12X     HAL2     0.900000E-01   1.00800           0
     47012 MEMB     378      PMPE     H12Y     HAL2     0.900000E-01   1.00800           0
     47013 MEMB     378      PMPE     C313     CTL2    -0.180000       12.0110           0
     47014 MEMB     378      PMPE     H13X     HAL2     0.900000E-01   1.00800           0
     47015 MEMB     378      PMPE     H13Y     HAL2     0.900000E-01   1.00800           0
     47016 MEMB     378      PMPE     C314     CTL2    -0.180000       12.0110           0
     47017 MEMB     378      PMPE     H14X     HAL2     0.900000E-01   1.00800           0
     47018 MEMB     378      PMPE     H14Y     HAL2     0.900000E-01   1.00800           0
     47019 MEMB     378      PMPE     C315     CTL2    -0.180000       12.0110           0
     47020 MEMB     378      PMPE     H15X     HAL2     0.900000E-01   1.00800           0
     47021 MEMB     378      PMPE     H15Y     HAL2     0.900000E-01   1.00800           0
     47022 MEMB     378      PMPE     C316     CTL3    -0.270000       12.0110           0
     47023 MEMB     378      PMPE     H16X     HAL3     0.900000E-01   1.00800           0
     47024 MEMB     378      PMPE     H16Y     HAL3     0.900000E-01   1.00800           0
     47025 MEMB     378      PMPE     H16Z     HAL3     0.900000E-01   1.00800           0
     47026 MEMB     379      PMPE     N        NH3L    -0.300000       14.0070           0
     47027 MEMB     379      PMPE     HN1      HCL      0.330000       1.00800           0
     47028 MEMB     379      PMPE     HN2      HCL      0.330000       1.00800           0
     47029 MEMB     379      PMPE     HN3      HCL      0.330000       1.00800           0
     47030 MEMB     379      PMPE     C12      CTL2     0.130000       12.0110           0
     47031 MEMB     379      PMPE     H12A     HAL2     0.900000E-01   1.00800           0
     47032 MEMB     379      PMPE     H12B     HAL2     0.900000E-01   1.00800           0
     47033 MEMB     379      PMPE     C11      CTL2    -0.800000E-01   12.0110           0
     47034 MEMB     379      PMPE     H11A     HAL2     0.900000E-01   1.00800           0
     47035 MEMB     379      PMPE     H11B     HAL2     0.900000E-01   1.00800           0
     47036 MEMB     379      PMPE     P        PL        1.50000       30.9740           0
     47037 MEMB     379      PMPE     O13      O2L     -0.780000       15.9994           0
     47038 MEMB     379      PMPE     O14      O2L     -0.780000       15.9994           0
     47039 MEMB     379      PMPE     O11      OSLP    -0.570000       15.9994           0
     47040 MEMB     379      PMPE     O12      OSLP    -0.570000       15.9994           0
     47041 MEMB     379      PMPE     C1       CTL2    -0.800000E-01   12.0110           0
     47042 MEMB     379      PMPE     HA       HAL2     0.900000E-01   1.00800           0
     47043 MEMB     379      PMPE     HB       HAL2     0.900000E-01   1.00800           0
     47044 MEMB     379      PMPE     C2       CTL1     0.170000       12.0110           0
     47045 MEMB     379      PMPE     HS       HAL1     0.900000E-01   1.00800           0
     47046 MEMB     379      PMPE     O21      OSL     -0.490000       15.9994           0
     47047 MEMB     379      PMPE     C21      CL       0.900000       12.0110           0
     47048 MEMB     379      PMPE     O22      OBL     -0.630000       15.9994           0
     47049 MEMB     379      PMPE     C22      CTL2    -0.220000       12.0110           0
     47050 MEMB     379      PMPE     H2R      HAL2     0.900000E-01   1.00800           0
     47051 MEMB     379      PMPE     H2S      HAL2     0.900000E-01   1.00800           0
     47052 MEMB     379      PMPE     C3       CTL2     0.800000E-01   12.0110           0
     47053 MEMB     379      PMPE     HX       HAL2     0.900000E-01   1.00800           0
     47054 MEMB     379      PMPE     HY       HAL2     0.900000E-01   1.00800           0
     47055 MEMB     379      PMPE     O31      OSL     -0.490000       15.9994           0
     47056 MEMB     379      PMPE     C31      CL       0.900000       12.0110           0
     47057 MEMB     379      PMPE     O32      OBL     -0.630000       15.9994           0
     47058 MEMB     379      PMPE     C32      CTL2    -0.220000       12.0110           0
     47059 MEMB     379      PMPE     H2X      HAL2     0.900000E-01   1.00800           0
     47060 MEMB     379      PMPE     H2Y      HAL2     0.900000E-01   1.00800           0
     47061 MEMB     379      PMPE     C23      CTL2    -0.180000       12.0110           0
     47062 MEMB     379      PMPE     H3R      HAL2     0.900000E-01   1.00800           0
     47063 MEMB     379      PMPE     H3S      HAL2     0.900000E-01   1.00800           0
     47064 MEMB     379      PMPE     C24      CTL2    -0.180000       12.0110           0
     47065 MEMB     379      PMPE     H4R      HAL2     0.900000E-01   1.00800           0
     47066 MEMB     379      PMPE     H4S      HAL2     0.900000E-01   1.00800           0
     47067 MEMB     379      PMPE     C25      CTL2    -0.180000       12.0110           0
     47068 MEMB     379      PMPE     H5R      HAL2     0.900000E-01   1.00800           0
     47069 MEMB     379      PMPE     H5S      HAL2     0.900000E-01   1.00800           0
     47070 MEMB     379      PMPE     C26      CTL2    -0.180000       12.0110           0
     47071 MEMB     379      PMPE     H6R      HAL2     0.900000E-01   1.00800           0
     47072 MEMB     379      PMPE     H6S      HAL2     0.900000E-01   1.00800           0
     47073 MEMB     379      PMPE     C27      CTL2    -0.180000       12.0110           0
     47074 MEMB     379      PMPE     H7R      HAL2     0.900000E-01   1.00800           0
     47075 MEMB     379      PMPE     H7S      HAL2     0.900000E-01   1.00800           0
     47076 MEMB     379      PMPE     C28      CTL2    -0.180000       12.0110           0
     47077 MEMB     379      PMPE     H8R      HAL2     0.900000E-01   1.00800           0
     47078 MEMB     379      PMPE     H8S      HAL2     0.900000E-01   1.00800           0
     47079 MEMB     379      PMPE     C29      CG3RC1  -0.900000E-01   12.0110           0
     47080 MEMB     379      PMPE     H9R      HGA1     0.900000E-01   1.00800           0
     47081 MEMB     379      PMPE     C217     CG3C31  -0.180000       12.0110           0
     47082 MEMB     379      PMPE     H17R     HGA2     0.900000E-01   1.00800           0
     47083 MEMB     379      PMPE     H17S     HGA2     0.900000E-01   1.00800           0
     47084 MEMB     379      PMPE     C210     CG3RC1  -0.900000E-01   12.0110           0
     47085 MEMB     379      PMPE     H10R     HGA1     0.900000E-01   1.00800           0
     47086 MEMB     379      PMPE     C211     CTL2    -0.180000       12.0110           0
     47087 MEMB     379      PMPE     H11R     HAL2     0.900000E-01   1.00800           0
     47088 MEMB     379      PMPE     H11S     HAL2     0.900000E-01   1.00800           0
     47089 MEMB     379      PMPE     C212     CTL2    -0.180000       12.0110           0
     47090 MEMB     379      PMPE     H12R     HAL2     0.900000E-01   1.00800           0
     47091 MEMB     379      PMPE     H12S     HAL2     0.900000E-01   1.00800           0
     47092 MEMB     379      PMPE     C213     CTL2    -0.180000       12.0110           0
     47093 MEMB     379      PMPE     H13R     HAL2     0.900000E-01   1.00800           0
     47094 MEMB     379      PMPE     H13S     HAL2     0.900000E-01   1.00800           0
     47095 MEMB     379      PMPE     C214     CTL2    -0.180000       12.0110           0
     47096 MEMB     379      PMPE     H14R     HAL2     0.900000E-01   1.00800           0
     47097 MEMB     379      PMPE     H14S     HAL2     0.900000E-01   1.00800           0
     47098 MEMB     379      PMPE     C215     CTL2    -0.180000       12.0110           0
     47099 MEMB     379      PMPE     H15R     HAL2     0.900000E-01   1.00800           0
     47100 MEMB     379      PMPE     H15S     HAL2     0.900000E-01   1.00800           0
     47101 MEMB     379      PMPE     C216     CTL3    -0.270000       12.0110           0
     47102 MEMB     379      PMPE     H16R     HAL3     0.900000E-01   1.00800           0
     47103 MEMB     379      PMPE     H16S     HAL3     0.900000E-01   1.00800           0
     47104 MEMB     379      PMPE     H16T     HAL3     0.900000E-01   1.00800           0
     47105 MEMB     379      PMPE     C33      CTL2    -0.180000       12.0110           0
     47106 MEMB     379      PMPE     H3X      HAL2     0.900000E-01   1.00800           0
     47107 MEMB     379      PMPE     H3Y      HAL2     0.900000E-01   1.00800           0
     47108 MEMB     379      PMPE     C34      CTL2    -0.180000       12.0110           0
     47109 MEMB     379      PMPE     H4X      HAL2     0.900000E-01   1.00800           0
     47110 MEMB     379      PMPE     H4Y      HAL2     0.900000E-01   1.00800           0
     47111 MEMB     379      PMPE     C35      CTL2    -0.180000       12.0110           0
     47112 MEMB     379      PMPE     H5X      HAL2     0.900000E-01   1.00800           0
     47113 MEMB     379      PMPE     H5Y      HAL2     0.900000E-01   1.00800           0
     47114 MEMB     379      PMPE     C36      CTL2    -0.180000       12.0110           0
     47115 MEMB     379      PMPE     H6X      HAL2     0.900000E-01   1.00800           0
     47116 MEMB     379      PMPE     H6Y      HAL2     0.900000E-01   1.00800           0
     47117 MEMB     379      PMPE     C37      CTL2    -0.180000       12.0110           0
     47118 MEMB     379      PMPE     H7X      HAL2     0.900000E-01   1.00800           0
     47119 MEMB     379      PMPE     H7Y      HAL2     0.900000E-01   1.00800           0
     47120 MEMB     379      PMPE     C38      CTL2    -0.180000       12.0110           0
     47121 MEMB     379      PMPE     H8X      HAL2     0.900000E-01   1.00800           0
     47122 MEMB     379      PMPE     H8Y      HAL2     0.900000E-01   1.00800           0
     47123 MEMB     379      PMPE     C39      CTL2    -0.180000       12.0110           0
     47124 MEMB     379      PMPE     H9X      HAL2     0.900000E-01   1.00800           0
     47125 MEMB     379      PMPE     H9Y      HAL2     0.900000E-01   1.00800           0
     47126 MEMB     379      PMPE     C310     CTL2    -0.180000       12.0110           0
     47127 MEMB     379      PMPE     H10X     HAL2     0.900000E-01   1.00800           0
     47128 MEMB     379      PMPE     H10Y     HAL2     0.900000E-01   1.00800           0
     47129 MEMB     379      PMPE     C311     CTL2    -0.180000       12.0110           0
     47130 MEMB     379      PMPE     H11X     HAL2     0.900000E-01   1.00800           0
     47131 MEMB     379      PMPE     H11Y     HAL2     0.900000E-01   1.00800           0
     47132 MEMB     379      PMPE     C312     CTL2    -0.180000       12.0110           0
     47133 MEMB     379      PMPE     H12X     HAL2     0.900000E-01   1.00800           0
     47134 MEMB     379      PMPE     H12Y     HAL2     0.900000E-01   1.00800           0
     47135 MEMB     379      PMPE     C313     CTL2    -0.180000       12.0110           0
     47136 MEMB     379      PMPE     H13X     HAL2     0.900000E-01   1.00800           0
     47137 MEMB     379      PMPE     H13Y     HAL2     0.900000E-01   1.00800           0
     47138 MEMB     379      PMPE     C314     CTL2    -0.180000       12.0110           0
     47139 MEMB     379      PMPE     H14X     HAL2     0.900000E-01   1.00800           0
     47140 MEMB     379      PMPE     H14Y     HAL2     0.900000E-01   1.00800           0
     47141 MEMB     379      PMPE     C315     CTL2    -0.180000       12.0110           0
     47142 MEMB     379      PMPE     H15X     HAL2     0.900000E-01   1.00800           0
     47143 MEMB     379      PMPE     H15Y     HAL2     0.900000E-01   1.00800           0
     47144 MEMB     379      PMPE     C316     CTL3    -0.270000       12.0110           0
     47145 MEMB     379      PMPE     H16X     HAL3     0.900000E-01   1.00800           0
     47146 MEMB     379      PMPE     H16Y     HAL3     0.900000E-01   1.00800           0
     47147 MEMB     379      PMPE     H16Z     HAL3     0.900000E-01   1.00800           0
     47148 MEMB     380      POPE     N        NH3L    -0.300000       14.0070           0
     47149 MEMB     380      POPE     HN1      HCL      0.330000       1.00800           0
     47150 MEMB     380      POPE     HN2      HCL      0.330000       1.00800           0
     47151 MEMB     380      POPE     HN3      HCL      0.330000       1.00800           0
     47152 MEMB     380      POPE     C12      CTL2     0.130000       12.0110           0
     47153 MEMB     380      POPE     H12A     HAL2     0.900000E-01   1.00800           0
     47154 MEMB     380      POPE     H12B     HAL2     0.900000E-01   1.00800           0
     47155 MEMB     380      POPE     C11      CTL2    -0.800000E-01   12.0110           0
     47156 MEMB     380      POPE     H11A     HAL2     0.900000E-01   1.00800           0
     47157 MEMB     380      POPE     H11B     HAL2     0.900000E-01   1.00800           0
     47158 MEMB     380      POPE     P        PL        1.50000       30.9740           0
     47159 MEMB     380      POPE     O13      O2L     -0.780000       15.9994           0
     47160 MEMB     380      POPE     O14      O2L     -0.780000       15.9994           0
     47161 MEMB     380      POPE     O11      OSLP    -0.570000       15.9994           0
     47162 MEMB     380      POPE     O12      OSLP    -0.570000       15.9994           0
     47163 MEMB     380      POPE     C1       CTL2    -0.800000E-01   12.0110           0
     47164 MEMB     380      POPE     HA       HAL2     0.900000E-01   1.00800           0
     47165 MEMB     380      POPE     HB       HAL2     0.900000E-01   1.00800           0
     47166 MEMB     380      POPE     C2       CTL1     0.170000       12.0110           0
     47167 MEMB     380      POPE     HS       HAL1     0.900000E-01   1.00800           0
     47168 MEMB     380      POPE     O21      OSL     -0.490000       15.9994           0
     47169 MEMB     380      POPE     C21      CL       0.900000       12.0110           0
     47170 MEMB     380      POPE     O22      OBL     -0.630000       15.9994           0
     47171 MEMB     380      POPE     C22      CTL2    -0.220000       12.0110           0
     47172 MEMB     380      POPE     H2R      HAL2     0.900000E-01   1.00800           0
     47173 MEMB     380      POPE     H2S      HAL2     0.900000E-01   1.00800           0
     47174 MEMB     380      POPE     C3       CTL2     0.800000E-01   12.0110           0
     47175 MEMB     380      POPE     HX       HAL2     0.900000E-01   1.00800           0
     47176 MEMB     380      POPE     HY       HAL2     0.900000E-01   1.00800           0
     47177 MEMB     380      POPE     O31      OSL     -0.490000       15.9994           0
     47178 MEMB     380      POPE     C31      CL       0.900000       12.0110           0
     47179 MEMB     380      POPE     O32      OBL     -0.630000       15.9994           0
     47180 MEMB     380      POPE     C32      CTL2    -0.220000       12.0110           0
     47181 MEMB     380      POPE     H2X      HAL2     0.900000E-01   1.00800           0
     47182 MEMB     380      POPE     H2Y      HAL2     0.900000E-01   1.00800           0
     47183 MEMB     380      POPE     C23      CTL2    -0.180000       12.0110           0
     47184 MEMB     380      POPE     H3R      HAL2     0.900000E-01   1.00800           0
     47185 MEMB     380      POPE     H3S      HAL2     0.900000E-01   1.00800           0
     47186 MEMB     380      POPE     C24      CTL2    -0.180000       12.0110           0
     47187 MEMB     380      POPE     H4R      HAL2     0.900000E-01   1.00800           0
     47188 MEMB     380      POPE     H4S      HAL2     0.900000E-01   1.00800           0
     47189 MEMB     380      POPE     C25      CTL2    -0.180000       12.0110           0
     47190 MEMB     380      POPE     H5R      HAL2     0.900000E-01   1.00800           0
     47191 MEMB     380      POPE     H5S      HAL2     0.900000E-01   1.00800           0
     47192 MEMB     380      POPE     C26      CTL2    -0.180000       12.0110           0
     47193 MEMB     380      POPE     H6R      HAL2     0.900000E-01   1.00800           0
     47194 MEMB     380      POPE     H6S      HAL2     0.900000E-01   1.00800           0
     47195 MEMB     380      POPE     C27      CTL2    -0.180000       12.0110           0
     47196 MEMB     380      POPE     H7R      HAL2     0.900000E-01   1.00800           0
     47197 MEMB     380      POPE     H7S      HAL2     0.900000E-01   1.00800           0
     47198 MEMB     380      POPE     C28      CTL2    -0.180000       12.0110           0
     47199 MEMB     380      POPE     H8R      HAL2     0.900000E-01   1.00800           0
     47200 MEMB     380      POPE     H8S      HAL2     0.900000E-01   1.00800           0
     47201 MEMB     380      POPE     C29      CEL1    -0.150000       12.0110           0
     47202 MEMB     380      POPE     H91      HEL1     0.150000       1.00800           0
     47203 MEMB     380      POPE     C210     CEL1    -0.150000       12.0110           0
     47204 MEMB     380      POPE     H101     HEL1     0.150000       1.00800           0
     47205 MEMB     380      POPE     C211     CTL2    -0.180000       12.0110           0
     47206 MEMB     380      POPE     H11R     HAL2     0.900000E-01   1.00800           0
     47207 MEMB     380      POPE     H11S     HAL2     0.900000E-01   1.00800           0
     47208 MEMB     380      POPE     C212     CTL2    -0.180000       12.0110           0
     47209 MEMB     380      POPE     H12R     HAL2     0.900000E-01   1.00800           0
     47210 MEMB     380      POPE     H12S     HAL2     0.900000E-01   1.00800           0
     47211 MEMB     380      POPE     C213     CTL2    -0.180000       12.0110           0
     47212 MEMB     380      POPE     H13R     HAL2     0.900000E-01   1.00800           0
     47213 MEMB     380      POPE     H13S     HAL2     0.900000E-01   1.00800           0
     47214 MEMB     380      POPE     C214     CTL2    -0.180000       12.0110           0
     47215 MEMB     380      POPE     H14R     HAL2     0.900000E-01   1.00800           0
     47216 MEMB     380      POPE     H14S     HAL2     0.900000E-01   1.00800           0
     47217 MEMB     380      POPE     C215     CTL2    -0.180000       12.0110           0
     47218 MEMB     380      POPE     H15R     HAL2     0.900000E-01   1.00800           0
     47219 MEMB     380      POPE     H15S     HAL2     0.900000E-01   1.00800           0
     47220 MEMB     380      POPE     C216     CTL2    -0.180000       12.0110           0
     47221 MEMB     380      POPE     H16R     HAL2     0.900000E-01   1.00800           0
     47222 MEMB     380      POPE     H16S     HAL2     0.900000E-01   1.00800           0
     47223 MEMB     380      POPE     C217     CTL2    -0.180000       12.0110           0
     47224 MEMB     380      POPE     H17R     HAL2     0.900000E-01   1.00800           0
     47225 MEMB     380      POPE     H17S     HAL2     0.900000E-01   1.00800           0
     47226 MEMB     380      POPE     C218     CTL3    -0.270000       12.0110           0
     47227 MEMB     380      POPE     H18R     HAL3     0.900000E-01   1.00800           0
     47228 MEMB     380      POPE     H18S     HAL3     0.900000E-01   1.00800           0
     47229 MEMB     380      POPE     H18T     HAL3     0.900000E-01   1.00800           0
     47230 MEMB     380      POPE     C33      CTL2    -0.180000       12.0110           0
     47231 MEMB     380      POPE     H3X      HAL2     0.900000E-01   1.00800           0
     47232 MEMB     380      POPE     H3Y      HAL2     0.900000E-01   1.00800           0
     47233 MEMB     380      POPE     C34      CTL2    -0.180000       12.0110           0
     47234 MEMB     380      POPE     H4X      HAL2     0.900000E-01   1.00800           0
     47235 MEMB     380      POPE     H4Y      HAL2     0.900000E-01   1.00800           0
     47236 MEMB     380      POPE     C35      CTL2    -0.180000       12.0110           0
     47237 MEMB     380      POPE     H5X      HAL2     0.900000E-01   1.00800           0
     47238 MEMB     380      POPE     H5Y      HAL2     0.900000E-01   1.00800           0
     47239 MEMB     380      POPE     C36      CTL2    -0.180000       12.0110           0
     47240 MEMB     380      POPE     H6X      HAL2     0.900000E-01   1.00800           0
     47241 MEMB     380      POPE     H6Y      HAL2     0.900000E-01   1.00800           0
     47242 MEMB     380      POPE     C37      CTL2    -0.180000       12.0110           0
     47243 MEMB     380      POPE     H7X      HAL2     0.900000E-01   1.00800           0
     47244 MEMB     380      POPE     H7Y      HAL2     0.900000E-01   1.00800           0
     47245 MEMB     380      POPE     C38      CTL2    -0.180000       12.0110           0
     47246 MEMB     380      POPE     H8X      HAL2     0.900000E-01   1.00800           0
     47247 MEMB     380      POPE     H8Y      HAL2     0.900000E-01   1.00800           0
     47248 MEMB     380      POPE     C39      CTL2    -0.180000       12.0110           0
     47249 MEMB     380      POPE     H9X      HAL2     0.900000E-01   1.00800           0
     47250 MEMB     380      POPE     H9Y      HAL2     0.900000E-01   1.00800           0
     47251 MEMB     380      POPE     C310     CTL2    -0.180000       12.0110           0
     47252 MEMB     380      POPE     H10X     HAL2     0.900000E-01   1.00800           0
     47253 MEMB     380      POPE     H10Y     HAL2     0.900000E-01   1.00800           0
     47254 MEMB     380      POPE     C311     CTL2    -0.180000       12.0110           0
     47255 MEMB     380      POPE     H11X     HAL2     0.900000E-01   1.00800           0
     47256 MEMB     380      POPE     H11Y     HAL2     0.900000E-01   1.00800           0
     47257 MEMB     380      POPE     C312     CTL2    -0.180000       12.0110           0
     47258 MEMB     380      POPE     H12X     HAL2     0.900000E-01   1.00800           0
     47259 MEMB     380      POPE     H12Y     HAL2     0.900000E-01   1.00800           0
     47260 MEMB     380      POPE     C313     CTL2    -0.180000       12.0110           0
     47261 MEMB     380      POPE     H13X     HAL2     0.900000E-01   1.00800           0
     47262 MEMB     380      POPE     H13Y     HAL2     0.900000E-01   1.00800           0
     47263 MEMB     380      POPE     C314     CTL2    -0.180000       12.0110           0
     47264 MEMB     380      POPE     H14X     HAL2     0.900000E-01   1.00800           0
     47265 MEMB     380      POPE     H14Y     HAL2     0.900000E-01   1.00800           0
     47266 MEMB     380      POPE     C315     CTL2    -0.180000       12.0110           0
     47267 MEMB     380      POPE     H15X     HAL2     0.900000E-01   1.00800           0
     47268 MEMB     380      POPE     H15Y     HAL2     0.900000E-01   1.00800           0
     47269 MEMB     380      POPE     C316     CTL3    -0.270000       12.0110           0
     47270 MEMB     380      POPE     H16X     HAL3     0.900000E-01   1.00800           0
     47271 MEMB     380      POPE     H16Y     HAL3     0.900000E-01   1.00800           0
     47272 MEMB     380      POPE     H16Z     HAL3     0.900000E-01   1.00800           0
     47273 MEMB     381      PMPE     N        NH3L    -0.300000       14.0070           0
     47274 MEMB     381      PMPE     HN1      HCL      0.330000       1.00800           0
     47275 MEMB     381      PMPE     HN2      HCL      0.330000       1.00800           0
     47276 MEMB     381      PMPE     HN3      HCL      0.330000       1.00800           0
     47277 MEMB     381      PMPE     C12      CTL2     0.130000       12.0110           0
     47278 MEMB     381      PMPE     H12A     HAL2     0.900000E-01   1.00800           0
     47279 MEMB     381      PMPE     H12B     HAL2     0.900000E-01   1.00800           0
     47280 MEMB     381      PMPE     C11      CTL2    -0.800000E-01   12.0110           0
     47281 MEMB     381      PMPE     H11A     HAL2     0.900000E-01   1.00800           0
     47282 MEMB     381      PMPE     H11B     HAL2     0.900000E-01   1.00800           0
     47283 MEMB     381      PMPE     P        PL        1.50000       30.9740           0
     47284 MEMB     381      PMPE     O13      O2L     -0.780000       15.9994           0
     47285 MEMB     381      PMPE     O14      O2L     -0.780000       15.9994           0
     47286 MEMB     381      PMPE     O11      OSLP    -0.570000       15.9994           0
     47287 MEMB     381      PMPE     O12      OSLP    -0.570000       15.9994           0
     47288 MEMB     381      PMPE     C1       CTL2    -0.800000E-01   12.0110           0
     47289 MEMB     381      PMPE     HA       HAL2     0.900000E-01   1.00800           0
     47290 MEMB     381      PMPE     HB       HAL2     0.900000E-01   1.00800           0
     47291 MEMB     381      PMPE     C2       CTL1     0.170000       12.0110           0
     47292 MEMB     381      PMPE     HS       HAL1     0.900000E-01   1.00800           0
     47293 MEMB     381      PMPE     O21      OSL     -0.490000       15.9994           0
     47294 MEMB     381      PMPE     C21      CL       0.900000       12.0110           0
     47295 MEMB     381      PMPE     O22      OBL     -0.630000       15.9994           0
     47296 MEMB     381      PMPE     C22      CTL2    -0.220000       12.0110           0
     47297 MEMB     381      PMPE     H2R      HAL2     0.900000E-01   1.00800           0
     47298 MEMB     381      PMPE     H2S      HAL2     0.900000E-01   1.00800           0
     47299 MEMB     381      PMPE     C3       CTL2     0.800000E-01   12.0110           0
     47300 MEMB     381      PMPE     HX       HAL2     0.900000E-01   1.00800           0
     47301 MEMB     381      PMPE     HY       HAL2     0.900000E-01   1.00800           0
     47302 MEMB     381      PMPE     O31      OSL     -0.490000       15.9994           0
     47303 MEMB     381      PMPE     C31      CL       0.900000       12.0110           0
     47304 MEMB     381      PMPE     O32      OBL     -0.630000       15.9994           0
     47305 MEMB     381      PMPE     C32      CTL2    -0.220000       12.0110           0
     47306 MEMB     381      PMPE     H2X      HAL2     0.900000E-01   1.00800           0
     47307 MEMB     381      PMPE     H2Y      HAL2     0.900000E-01   1.00800           0
     47308 MEMB     381      PMPE     C23      CTL2    -0.180000       12.0110           0
     47309 MEMB     381      PMPE     H3R      HAL2     0.900000E-01   1.00800           0
     47310 MEMB     381      PMPE     H3S      HAL2     0.900000E-01   1.00800           0
     47311 MEMB     381      PMPE     C24      CTL2    -0.180000       12.0110           0
     47312 MEMB     381      PMPE     H4R      HAL2     0.900000E-01   1.00800           0
     47313 MEMB     381      PMPE     H4S      HAL2     0.900000E-01   1.00800           0
     47314 MEMB     381      PMPE     C25      CTL2    -0.180000       12.0110           0
     47315 MEMB     381      PMPE     H5R      HAL2     0.900000E-01   1.00800           0
     47316 MEMB     381      PMPE     H5S      HAL2     0.900000E-01   1.00800           0
     47317 MEMB     381      PMPE     C26      CTL2    -0.180000       12.0110           0
     47318 MEMB     381      PMPE     H6R      HAL2     0.900000E-01   1.00800           0
     47319 MEMB     381      PMPE     H6S      HAL2     0.900000E-01   1.00800           0
     47320 MEMB     381      PMPE     C27      CTL2    -0.180000       12.0110           0
     47321 MEMB     381      PMPE     H7R      HAL2     0.900000E-01   1.00800           0
     47322 MEMB     381      PMPE     H7S      HAL2     0.900000E-01   1.00800           0
     47323 MEMB     381      PMPE     C28      CTL2    -0.180000       12.0110           0
     47324 MEMB     381      PMPE     H8R      HAL2     0.900000E-01   1.00800           0
     47325 MEMB     381      PMPE     H8S      HAL2     0.900000E-01   1.00800           0
     47326 MEMB     381      PMPE     C29      CG3RC1  -0.900000E-01   12.0110           0
     47327 MEMB     381      PMPE     H9R      HGA1     0.900000E-01   1.00800           0
     47328 MEMB     381      PMPE     C217     CG3C31  -0.180000       12.0110           0
     47329 MEMB     381      PMPE     H17R     HGA2     0.900000E-01   1.00800           0
     47330 MEMB     381      PMPE     H17S     HGA2     0.900000E-01   1.00800           0
     47331 MEMB     381      PMPE     C210     CG3RC1  -0.900000E-01   12.0110           0
     47332 MEMB     381      PMPE     H10R     HGA1     0.900000E-01   1.00800           0
     47333 MEMB     381      PMPE     C211     CTL2    -0.180000       12.0110           0
     47334 MEMB     381      PMPE     H11R     HAL2     0.900000E-01   1.00800           0
     47335 MEMB     381      PMPE     H11S     HAL2     0.900000E-01   1.00800           0
     47336 MEMB     381      PMPE     C212     CTL2    -0.180000       12.0110           0
     47337 MEMB     381      PMPE     H12R     HAL2     0.900000E-01   1.00800           0
     47338 MEMB     381      PMPE     H12S     HAL2     0.900000E-01   1.00800           0
     47339 MEMB     381      PMPE     C213     CTL2    -0.180000       12.0110           0
     47340 MEMB     381      PMPE     H13R     HAL2     0.900000E-01   1.00800           0
     47341 MEMB     381      PMPE     H13S     HAL2     0.900000E-01   1.00800           0
     47342 MEMB     381      PMPE     C214     CTL2    -0.180000       12.0110           0
     47343 MEMB     381      PMPE     H14R     HAL2     0.900000E-01   1.00800           0
     47344 MEMB     381      PMPE     H14S     HAL2     0.900000E-01   1.00800           0
     47345 MEMB     381      PMPE     C215     CTL2    -0.180000       12.0110           0
     47346 MEMB     381      PMPE     H15R     HAL2     0.900000E-01   1.00800           0
     47347 MEMB     381      PMPE     H15S     HAL2     0.900000E-01   1.00800           0
     47348 MEMB     381      PMPE     C216     CTL3    -0.270000       12.0110           0
     47349 MEMB     381      PMPE     H16R     HAL3     0.900000E-01   1.00800           0
     47350 MEMB     381      PMPE     H16S     HAL3     0.900000E-01   1.00800           0
     47351 MEMB     381      PMPE     H16T     HAL3     0.900000E-01   1.00800           0
     47352 MEMB     381      PMPE     C33      CTL2    -0.180000       12.0110           0
     47353 MEMB     381      PMPE     H3X      HAL2     0.900000E-01   1.00800           0
     47354 MEMB     381      PMPE     H3Y      HAL2     0.900000E-01   1.00800           0
     47355 MEMB     381      PMPE     C34      CTL2    -0.180000       12.0110           0
     47356 MEMB     381      PMPE     H4X      HAL2     0.900000E-01   1.00800           0
     47357 MEMB     381      PMPE     H4Y      HAL2     0.900000E-01   1.00800           0
     47358 MEMB     381      PMPE     C35      CTL2    -0.180000       12.0110           0
     47359 MEMB     381      PMPE     H5X      HAL2     0.900000E-01   1.00800           0
     47360 MEMB     381      PMPE     H5Y      HAL2     0.900000E-01   1.00800           0
     47361 MEMB     381      PMPE     C36      CTL2    -0.180000       12.0110           0
     47362 MEMB     381      PMPE     H6X      HAL2     0.900000E-01   1.00800           0
     47363 MEMB     381      PMPE     H6Y      HAL2     0.900000E-01   1.00800           0
     47364 MEMB     381      PMPE     C37      CTL2    -0.180000       12.0110           0
     47365 MEMB     381      PMPE     H7X      HAL2     0.900000E-01   1.00800           0
     47366 MEMB     381      PMPE     H7Y      HAL2     0.900000E-01   1.00800           0
     47367 MEMB     381      PMPE     C38      CTL2    -0.180000       12.0110           0
     47368 MEMB     381      PMPE     H8X      HAL2     0.900000E-01   1.00800           0
     47369 MEMB     381      PMPE     H8Y      HAL2     0.900000E-01   1.00800           0
     47370 MEMB     381      PMPE     C39      CTL2    -0.180000       12.0110           0
     47371 MEMB     381      PMPE     H9X      HAL2     0.900000E-01   1.00800           0
     47372 MEMB     381      PMPE     H9Y      HAL2     0.900000E-01   1.00800           0
     47373 MEMB     381      PMPE     C310     CTL2    -0.180000       12.0110           0
     47374 MEMB     381      PMPE     H10X     HAL2     0.900000E-01   1.00800           0
     47375 MEMB     381      PMPE     H10Y     HAL2     0.900000E-01   1.00800           0
     47376 MEMB     381      PMPE     C311     CTL2    -0.180000       12.0110           0
     47377 MEMB     381      PMPE     H11X     HAL2     0.900000E-01   1.00800           0
     47378 MEMB     381      PMPE     H11Y     HAL2     0.900000E-01   1.00800           0
     47379 MEMB     381      PMPE     C312     CTL2    -0.180000       12.0110           0
     47380 MEMB     381      PMPE     H12X     HAL2     0.900000E-01   1.00800           0
     47381 MEMB     381      PMPE     H12Y     HAL2     0.900000E-01   1.00800           0
     47382 MEMB     381      PMPE     C313     CTL2    -0.180000       12.0110           0
     47383 MEMB     381      PMPE     H13X     HAL2     0.900000E-01   1.00800           0
     47384 MEMB     381      PMPE     H13Y     HAL2     0.900000E-01   1.00800           0
     47385 MEMB     381      PMPE     C314     CTL2    -0.180000       12.0110           0
     47386 MEMB     381      PMPE     H14X     HAL2     0.900000E-01   1.00800           0
     47387 MEMB     381      PMPE     H14Y     HAL2     0.900000E-01   1.00800           0
     47388 MEMB     381      PMPE     C315     CTL2    -0.180000       12.0110           0
     47389 MEMB     381      PMPE     H15X     HAL2     0.900000E-01   1.00800           0
     47390 MEMB     381      PMPE     H15Y     HAL2     0.900000E-01   1.00800           0
     47391 MEMB     381      PMPE     C316     CTL3    -0.270000       12.0110           0
     47392 MEMB     381      PMPE     H16X     HAL3     0.900000E-01   1.00800           0
     47393 MEMB     381      PMPE     H16Y     HAL3     0.900000E-01   1.00800           0
     47394 MEMB     381      PMPE     H16Z     HAL3     0.900000E-01   1.00800           0
     47395 MEMB     382      PVCL2    C3       CTL2    -0.800000E-01   12.0110           0
     47396 MEMB     382      PVCL2    HG31     HAL2     0.900000E-01   1.00800           0
     47397 MEMB     382      PVCL2    HG32     HAL2     0.900000E-01   1.00800           0
     47398 MEMB     382      PVCL2    P3       PL        1.50000       30.9740           0
     47399 MEMB     382      PVCL2    OP33     O2L     -0.780000       15.9994           0
     47400 MEMB     382      PVCL2    OP34     O2L     -0.780000       15.9994           0
     47401 MEMB     382      PVCL2    OP31     OSLP    -0.570000       15.9994           0
     47402 MEMB     382      PVCL2    OP32     OSLP    -0.570000       15.9994           0
     47403 MEMB     382      PVCL2    C31      CTL2    -0.800000E-01   12.0110           0
     47404 MEMB     382      PVCL2    H31J     HAL2     0.900000E-01   1.00800           0
     47405 MEMB     382      PVCL2    H31K     HAL2     0.900000E-01   1.00800           0
     47406 MEMB     382      PVCL2    C2       CTL1     0.140000       12.0110           0
     47407 MEMB     382      PVCL2    HG22     HAL1     0.900000E-01   1.00800           0
     47408 MEMB     382      PVCL2    OG12     OHL     -0.650000       15.9994           0
     47409 MEMB     382      PVCL2    HO12     HOL      0.420000       1.00800           0
     47410 MEMB     382      PVCL2    C1       CTL2    -0.800000E-01   12.0110           0
     47411 MEMB     382      PVCL2    HG11     HAL2     0.900000E-01   1.00800           0
     47412 MEMB     382      PVCL2    HG12     HAL2     0.900000E-01   1.00800           0
     47413 MEMB     382      PVCL2    P1       PL        1.50000       30.9740           0
     47414 MEMB     382      PVCL2    OP13     O2L     -0.780000       15.9994           0
     47415 MEMB     382      PVCL2    OP14     O2L     -0.780000       15.9994           0
     47416 MEMB     382      PVCL2    OP11     OSLP    -0.570000       15.9994           0
     47417 MEMB     382      PVCL2    OP12     OSLP    -0.570000       15.9994           0
     47418 MEMB     382      PVCL2    C11      CTL2    -0.800000E-01   12.0110           0
     47419 MEMB     382      PVCL2    H11J     HAL2     0.900000E-01   1.00800           0
     47420 MEMB     382      PVCL2    H11K     HAL2     0.900000E-01   1.00800           0
     47421 MEMB     382      PVCL2    C12      CTL1     0.170000       12.0110           0
     47422 MEMB     382      PVCL2    H12J     HAL1     0.900000E-01   1.00800           0
     47423 MEMB     382      PVCL2    O12      OSL     -0.490000       15.9994           0
     47424 MEMB     382      PVCL2    CA1      CL       0.900000       12.0110           0
     47425 MEMB     382      PVCL2    OA1      OBL     -0.630000       15.9994           0
     47426 MEMB     382      PVCL2    CA2      CTL2    -0.220000       12.0110           0
     47427 MEMB     382      PVCL2    H2A      HAL2     0.900000E-01   1.00800           0
     47428 MEMB     382      PVCL2    H2B      HAL2     0.900000E-01   1.00800           0
     47429 MEMB     382      PVCL2    C13      CTL2     0.800000E-01   12.0110           0
     47430 MEMB     382      PVCL2    H13J     HAL2     0.900000E-01   1.00800           0
     47431 MEMB     382      PVCL2    H13K     HAL2     0.900000E-01   1.00800           0
     47432 MEMB     382      PVCL2    O13      OSL     -0.490000       15.9994           0
     47433 MEMB     382      PVCL2    CB1      CL       0.900000       12.0110           0
     47434 MEMB     382      PVCL2    OB1      OBL     -0.630000       15.9994           0
     47435 MEMB     382      PVCL2    CB2      CTL2    -0.220000       12.0110           0
     47436 MEMB     382      PVCL2    H2D      HAL2     0.900000E-01   1.00800           0
     47437 MEMB     382      PVCL2    H2E      HAL2     0.900000E-01   1.00800           0
     47438 MEMB     382      PVCL2    C32      CTL1     0.170000       12.0110           0
     47439 MEMB     382      PVCL2    H32J     HAL1     0.900000E-01   1.00800           0
     47440 MEMB     382      PVCL2    O32      OSL     -0.490000       15.9994           0
     47441 MEMB     382      PVCL2    CC1      CL       0.900000       12.0110           0
     47442 MEMB     382      PVCL2    OC1      OBL     -0.630000       15.9994           0
     47443 MEMB     382      PVCL2    CC2      CTL2    -0.220000       12.0110           0
     47444 MEMB     382      PVCL2    H2R      HAL2     0.900000E-01   1.00800           0
     47445 MEMB     382      PVCL2    H2S      HAL2     0.900000E-01   1.00800           0
     47446 MEMB     382      PVCL2    C33      CTL2     0.800000E-01   12.0110           0
     47447 MEMB     382      PVCL2    H33J     HAL2     0.900000E-01   1.00800           0
     47448 MEMB     382      PVCL2    H33K     HAL2     0.900000E-01   1.00800           0
     47449 MEMB     382      PVCL2    O33      OSL     -0.490000       15.9994           0
     47450 MEMB     382      PVCL2    CD1      CL       0.900000       12.0110           0
     47451 MEMB     382      PVCL2    OD1      OBL     -0.630000       15.9994           0
     47452 MEMB     382      PVCL2    CD2      CTL2    -0.220000       12.0110           0
     47453 MEMB     382      PVCL2    H2X      HAL2     0.900000E-01   1.00800           0
     47454 MEMB     382      PVCL2    H2Y      HAL2     0.900000E-01   1.00800           0
     47455 MEMB     382      PVCL2    CA3      CTL2    -0.180000       12.0110           0
     47456 MEMB     382      PVCL2    H3A      HAL2     0.900000E-01   1.00800           0
     47457 MEMB     382      PVCL2    H3B      HAL2     0.900000E-01   1.00800           0
     47458 MEMB     382      PVCL2    CA4      CTL2    -0.180000       12.0110           0
     47459 MEMB     382      PVCL2    H4A      HAL2     0.900000E-01   1.00800           0
     47460 MEMB     382      PVCL2    H4B      HAL2     0.900000E-01   1.00800           0
     47461 MEMB     382      PVCL2    CA5      CTL2    -0.180000       12.0110           0
     47462 MEMB     382      PVCL2    H5A      HAL2     0.900000E-01   1.00800           0
     47463 MEMB     382      PVCL2    H5B      HAL2     0.900000E-01   1.00800           0
     47464 MEMB     382      PVCL2    CA6      CTL2    -0.180000       12.0110           0
     47465 MEMB     382      PVCL2    H6A      HAL2     0.900000E-01   1.00800           0
     47466 MEMB     382      PVCL2    H6B      HAL2     0.900000E-01   1.00800           0
     47467 MEMB     382      PVCL2    CA7      CTL2    -0.180000       12.0110           0
     47468 MEMB     382      PVCL2    H7A      HAL2     0.900000E-01   1.00800           0
     47469 MEMB     382      PVCL2    H7B      HAL2     0.900000E-01   1.00800           0
     47470 MEMB     382      PVCL2    CA8      CTL2    -0.180000       12.0110           0
     47471 MEMB     382      PVCL2    H8A      HAL2     0.900000E-01   1.00800           0
     47472 MEMB     382      PVCL2    H8B      HAL2     0.900000E-01   1.00800           0
     47473 MEMB     382      PVCL2    CA9      CTL2    -0.180000       12.0110           0
     47474 MEMB     382      PVCL2    H9A      HAL2     0.900000E-01   1.00800           0
     47475 MEMB     382      PVCL2    H9B      HAL2     0.900000E-01   1.00800           0
     47476 MEMB     382      PVCL2    CA10     CTL2    -0.180000       12.0110           0
     47477 MEMB     382      PVCL2    H10A     HAL2     0.900000E-01   1.00800           0
     47478 MEMB     382      PVCL2    H10B     HAL2     0.900000E-01   1.00800           0
     47479 MEMB     382      PVCL2    CA11     CEL1    -0.150000       12.0110           0
     47480 MEMB     382      PVCL2    H11A     HEL1     0.150000       1.00800           0
     47481 MEMB     382      PVCL2    CA12     CEL1    -0.150000       12.0110           0
     47482 MEMB     382      PVCL2    H12A     HEL1     0.150000       1.00800           0
     47483 MEMB     382      PVCL2    CA13     CTL2    -0.180000       12.0110           0
     47484 MEMB     382      PVCL2    H13A     HAL2     0.900000E-01   1.00800           0
     47485 MEMB     382      PVCL2    H13B     HAL2     0.900000E-01   1.00800           0
     47486 MEMB     382      PVCL2    CA14     CTL2    -0.180000       12.0110           0
     47487 MEMB     382      PVCL2    H14A     HAL2     0.900000E-01   1.00800           0
     47488 MEMB     382      PVCL2    H14B     HAL2     0.900000E-01   1.00800           0
     47489 MEMB     382      PVCL2    CA15     CTL2    -0.180000       12.0110           0
     47490 MEMB     382      PVCL2    H15A     HAL2     0.900000E-01   1.00800           0
     47491 MEMB     382      PVCL2    H15B     HAL2     0.900000E-01   1.00800           0
     47492 MEMB     382      PVCL2    CA16     CTL2    -0.180000       12.0110           0
     47493 MEMB     382      PVCL2    H16A     HAL2     0.900000E-01   1.00800           0
     47494 MEMB     382      PVCL2    H16B     HAL2     0.900000E-01   1.00800           0
     47495 MEMB     382      PVCL2    CA17     CTL2    -0.180000       12.0110           0
     47496 MEMB     382      PVCL2    H17A     HAL2     0.900000E-01   1.00800           0
     47497 MEMB     382      PVCL2    H17B     HAL2     0.900000E-01   1.00800           0
     47498 MEMB     382      PVCL2    CA18     CTL3    -0.270000       12.0110           0
     47499 MEMB     382      PVCL2    H18A     HAL3     0.900000E-01   1.00800           0
     47500 MEMB     382      PVCL2    H18B     HAL3     0.900000E-01   1.00800           0
     47501 MEMB     382      PVCL2    H18C     HAL3     0.900000E-01   1.00800           0
     47502 MEMB     382      PVCL2    CB3      CTL2    -0.180000       12.0110           0
     47503 MEMB     382      PVCL2    H3D      HAL2     0.900000E-01   1.00800           0
     47504 MEMB     382      PVCL2    H3E      HAL2     0.900000E-01   1.00800           0
     47505 MEMB     382      PVCL2    CB4      CTL2    -0.180000       12.0110           0
     47506 MEMB     382      PVCL2    H4D      HAL2     0.900000E-01   1.00800           0
     47507 MEMB     382      PVCL2    H4E      HAL2     0.900000E-01   1.00800           0
     47508 MEMB     382      PVCL2    CB5      CTL2    -0.180000       12.0110           0
     47509 MEMB     382      PVCL2    H5D      HAL2     0.900000E-01   1.00800           0
     47510 MEMB     382      PVCL2    H5E      HAL2     0.900000E-01   1.00800           0
     47511 MEMB     382      PVCL2    CB6      CTL2    -0.180000       12.0110           0
     47512 MEMB     382      PVCL2    H6D      HAL2     0.900000E-01   1.00800           0
     47513 MEMB     382      PVCL2    H6E      HAL2     0.900000E-01   1.00800           0
     47514 MEMB     382      PVCL2    CB7      CTL2    -0.180000       12.0110           0
     47515 MEMB     382      PVCL2    H7D      HAL2     0.900000E-01   1.00800           0
     47516 MEMB     382      PVCL2    H7E      HAL2     0.900000E-01   1.00800           0
     47517 MEMB     382      PVCL2    CB8      CTL2    -0.180000       12.0110           0
     47518 MEMB     382      PVCL2    H8D      HAL2     0.900000E-01   1.00800           0
     47519 MEMB     382      PVCL2    H8E      HAL2     0.900000E-01   1.00800           0
     47520 MEMB     382      PVCL2    CB9      CTL2    -0.180000       12.0110           0
     47521 MEMB     382      PVCL2    H9D      HAL2     0.900000E-01   1.00800           0
     47522 MEMB     382      PVCL2    H9E      HAL2     0.900000E-01   1.00800           0
     47523 MEMB     382      PVCL2    CB10     CTL2    -0.180000       12.0110           0
     47524 MEMB     382      PVCL2    H10D     HAL2     0.900000E-01   1.00800           0
     47525 MEMB     382      PVCL2    H10E     HAL2     0.900000E-01   1.00800           0
     47526 MEMB     382      PVCL2    CB11     CTL2    -0.180000       12.0110           0
     47527 MEMB     382      PVCL2    H11D     HAL2     0.900000E-01   1.00800           0
     47528 MEMB     382      PVCL2    H11E     HAL2     0.900000E-01   1.00800           0
     47529 MEMB     382      PVCL2    CB12     CTL2    -0.180000       12.0110           0
     47530 MEMB     382      PVCL2    H12D     HAL2     0.900000E-01   1.00800           0
     47531 MEMB     382      PVCL2    H12E     HAL2     0.900000E-01   1.00800           0
     47532 MEMB     382      PVCL2    CB13     CTL2    -0.180000       12.0110           0
     47533 MEMB     382      PVCL2    H13D     HAL2     0.900000E-01   1.00800           0
     47534 MEMB     382      PVCL2    H13E     HAL2     0.900000E-01   1.00800           0
     47535 MEMB     382      PVCL2    CB14     CTL2    -0.180000       12.0110           0
     47536 MEMB     382      PVCL2    H14D     HAL2     0.900000E-01   1.00800           0
     47537 MEMB     382      PVCL2    H14E     HAL2     0.900000E-01   1.00800           0
     47538 MEMB     382      PVCL2    CB15     CTL2    -0.180000       12.0110           0
     47539 MEMB     382      PVCL2    H15D     HAL2     0.900000E-01   1.00800           0
     47540 MEMB     382      PVCL2    H15E     HAL2     0.900000E-01   1.00800           0
     47541 MEMB     382      PVCL2    CB16     CTL3    -0.270000       12.0110           0
     47542 MEMB     382      PVCL2    H16D     HAL3     0.900000E-01   1.00800           0
     47543 MEMB     382      PVCL2    H16E     HAL3     0.900000E-01   1.00800           0
     47544 MEMB     382      PVCL2    H16F     HAL3     0.900000E-01   1.00800           0
     47545 MEMB     382      PVCL2    CC3      CTL2    -0.180000       12.0110           0
     47546 MEMB     382      PVCL2    H3R      HAL2     0.900000E-01   1.00800           0
     47547 MEMB     382      PVCL2    H3S      HAL2     0.900000E-01   1.00800           0
     47548 MEMB     382      PVCL2    CC4      CTL2    -0.180000       12.0110           0
     47549 MEMB     382      PVCL2    H4R      HAL2     0.900000E-01   1.00800           0
     47550 MEMB     382      PVCL2    H4S      HAL2     0.900000E-01   1.00800           0
     47551 MEMB     382      PVCL2    CC5      CTL2    -0.180000       12.0110           0
     47552 MEMB     382      PVCL2    H5R      HAL2     0.900000E-01   1.00800           0
     47553 MEMB     382      PVCL2    H5S      HAL2     0.900000E-01   1.00800           0
     47554 MEMB     382      PVCL2    CC6      CTL2    -0.180000       12.0110           0
     47555 MEMB     382      PVCL2    H6R      HAL2     0.900000E-01   1.00800           0
     47556 MEMB     382      PVCL2    H6S      HAL2     0.900000E-01   1.00800           0
     47557 MEMB     382      PVCL2    CC7      CTL2    -0.180000       12.0110           0
     47558 MEMB     382      PVCL2    H7R      HAL2     0.900000E-01   1.00800           0
     47559 MEMB     382      PVCL2    H7S      HAL2     0.900000E-01   1.00800           0
     47560 MEMB     382      PVCL2    CC8      CTL2    -0.180000       12.0110           0
     47561 MEMB     382      PVCL2    H8R      HAL2     0.900000E-01   1.00800           0
     47562 MEMB     382      PVCL2    H8S      HAL2     0.900000E-01   1.00800           0
     47563 MEMB     382      PVCL2    CC9      CTL2    -0.180000       12.0110           0
     47564 MEMB     382      PVCL2    H9R      HAL2     0.900000E-01   1.00800           0
     47565 MEMB     382      PVCL2    H9S      HAL2     0.900000E-01   1.00800           0
     47566 MEMB     382      PVCL2    CC10     CTL2    -0.180000       12.0110           0
     47567 MEMB     382      PVCL2    H10R     HAL2     0.900000E-01   1.00800           0
     47568 MEMB     382      PVCL2    H10S     HAL2     0.900000E-01   1.00800           0
     47569 MEMB     382      PVCL2    CC11     CEL1    -0.150000       12.0110           0
     47570 MEMB     382      PVCL2    H11R     HEL1     0.150000       1.00800           0
     47571 MEMB     382      PVCL2    CC12     CEL1    -0.150000       12.0110           0
     47572 MEMB     382      PVCL2    H12R     HEL1     0.150000       1.00800           0
     47573 MEMB     382      PVCL2    CC13     CTL2    -0.180000       12.0110           0
     47574 MEMB     382      PVCL2    H13R     HAL2     0.900000E-01   1.00800           0
     47575 MEMB     382      PVCL2    H13S     HAL2     0.900000E-01   1.00800           0
     47576 MEMB     382      PVCL2    CC14     CTL2    -0.180000       12.0110           0
     47577 MEMB     382      PVCL2    H14R     HAL2     0.900000E-01   1.00800           0
     47578 MEMB     382      PVCL2    H14S     HAL2     0.900000E-01   1.00800           0
     47579 MEMB     382      PVCL2    CC15     CTL2    -0.180000       12.0110           0
     47580 MEMB     382      PVCL2    H15R     HAL2     0.900000E-01   1.00800           0
     47581 MEMB     382      PVCL2    H15S     HAL2     0.900000E-01   1.00800           0
     47582 MEMB     382      PVCL2    CC16     CTL2    -0.180000       12.0110           0
     47583 MEMB     382      PVCL2    H16R     HAL2     0.900000E-01   1.00800           0
     47584 MEMB     382      PVCL2    H16S     HAL2     0.900000E-01   1.00800           0
     47585 MEMB     382      PVCL2    CC17     CTL2    -0.180000       12.0110           0
     47586 MEMB     382      PVCL2    H17R     HAL2     0.900000E-01   1.00800           0
     47587 MEMB     382      PVCL2    H17S     HAL2     0.900000E-01   1.00800           0
     47588 MEMB     382      PVCL2    CC18     CTL3    -0.270000       12.0110           0
     47589 MEMB     382      PVCL2    H18R     HAL3     0.900000E-01   1.00800           0
     47590 MEMB     382      PVCL2    H18S     HAL3     0.900000E-01   1.00800           0
     47591 MEMB     382      PVCL2    H18T     HAL3     0.900000E-01   1.00800           0
     47592 MEMB     382      PVCL2    CD3      CTL2    -0.180000       12.0110           0
     47593 MEMB     382      PVCL2    H3X      HAL2     0.900000E-01   1.00800           0
     47594 MEMB     382      PVCL2    H3Y      HAL2     0.900000E-01   1.00800           0
     47595 MEMB     382      PVCL2    CD4      CTL2    -0.180000       12.0110           0
     47596 MEMB     382      PVCL2    H4X      HAL2     0.900000E-01   1.00800           0
     47597 MEMB     382      PVCL2    H4Y      HAL2     0.900000E-01   1.00800           0
     47598 MEMB     382      PVCL2    CD5      CTL2    -0.180000       12.0110           0
     47599 MEMB     382      PVCL2    H5X      HAL2     0.900000E-01   1.00800           0
     47600 MEMB     382      PVCL2    H5Y      HAL2     0.900000E-01   1.00800           0
     47601 MEMB     382      PVCL2    CD6      CTL2    -0.180000       12.0110           0
     47602 MEMB     382      PVCL2    H6X      HAL2     0.900000E-01   1.00800           0
     47603 MEMB     382      PVCL2    H6Y      HAL2     0.900000E-01   1.00800           0
     47604 MEMB     382      PVCL2    CD7      CTL2    -0.180000       12.0110           0
     47605 MEMB     382      PVCL2    H7X      HAL2     0.900000E-01   1.00800           0
     47606 MEMB     382      PVCL2    H7Y      HAL2     0.900000E-01   1.00800           0
     47607 MEMB     382      PVCL2    CD8      CTL2    -0.180000       12.0110           0
     47608 MEMB     382      PVCL2    H8X      HAL2     0.900000E-01   1.00800           0
     47609 MEMB     382      PVCL2    H8Y      HAL2     0.900000E-01   1.00800           0
     47610 MEMB     382      PVCL2    CD9      CTL2    -0.180000       12.0110           0
     47611 MEMB     382      PVCL2    H9X      HAL2     0.900000E-01   1.00800           0
     47612 MEMB     382      PVCL2    H9Y      HAL2     0.900000E-01   1.00800           0
     47613 MEMB     382      PVCL2    CD10     CTL2    -0.180000       12.0110           0
     47614 MEMB     382      PVCL2    H10X     HAL2     0.900000E-01   1.00800           0
     47615 MEMB     382      PVCL2    H10Y     HAL2     0.900000E-01   1.00800           0
     47616 MEMB     382      PVCL2    CD11     CTL2    -0.180000       12.0110           0
     47617 MEMB     382      PVCL2    H11X     HAL2     0.900000E-01   1.00800           0
     47618 MEMB     382      PVCL2    H11Y     HAL2     0.900000E-01   1.00800           0
     47619 MEMB     382      PVCL2    CD12     CTL2    -0.180000       12.0110           0
     47620 MEMB     382      PVCL2    H12X     HAL2     0.900000E-01   1.00800           0
     47621 MEMB     382      PVCL2    H12Y     HAL2     0.900000E-01   1.00800           0
     47622 MEMB     382      PVCL2    CD13     CTL2    -0.180000       12.0110           0
     47623 MEMB     382      PVCL2    H13X     HAL2     0.900000E-01   1.00800           0
     47624 MEMB     382      PVCL2    H13Y     HAL2     0.900000E-01   1.00800           0
     47625 MEMB     382      PVCL2    CD14     CTL2    -0.180000       12.0110           0
     47626 MEMB     382      PVCL2    H14X     HAL2     0.900000E-01   1.00800           0
     47627 MEMB     382      PVCL2    H14Y     HAL2     0.900000E-01   1.00800           0
     47628 MEMB     382      PVCL2    CD15     CTL2    -0.180000       12.0110           0
     47629 MEMB     382      PVCL2    H15X     HAL2     0.900000E-01   1.00800           0
     47630 MEMB     382      PVCL2    H15Y     HAL2     0.900000E-01   1.00800           0
     47631 MEMB     382      PVCL2    CD16     CTL3    -0.270000       12.0110           0
     47632 MEMB     382      PVCL2    H16X     HAL3     0.900000E-01   1.00800           0
     47633 MEMB     382      PVCL2    H16Y     HAL3     0.900000E-01   1.00800           0
     47634 MEMB     382      PVCL2    H16Z     HAL3     0.900000E-01   1.00800           0
     47635 MEMB     383      PMPE     N        NH3L    -0.300000       14.0070           0
     47636 MEMB     383      PMPE     HN1      HCL      0.330000       1.00800           0
     47637 MEMB     383      PMPE     HN2      HCL      0.330000       1.00800           0
     47638 MEMB     383      PMPE     HN3      HCL      0.330000       1.00800           0
     47639 MEMB     383      PMPE     C12      CTL2     0.130000       12.0110           0
     47640 MEMB     383      PMPE     H12A     HAL2     0.900000E-01   1.00800           0
     47641 MEMB     383      PMPE     H12B     HAL2     0.900000E-01   1.00800           0
     47642 MEMB     383      PMPE     C11      CTL2    -0.800000E-01   12.0110           0
     47643 MEMB     383      PMPE     H11A     HAL2     0.900000E-01   1.00800           0
     47644 MEMB     383      PMPE     H11B     HAL2     0.900000E-01   1.00800           0
     47645 MEMB     383      PMPE     P        PL        1.50000       30.9740           0
     47646 MEMB     383      PMPE     O13      O2L     -0.780000       15.9994           0
     47647 MEMB     383      PMPE     O14      O2L     -0.780000       15.9994           0
     47648 MEMB     383      PMPE     O11      OSLP    -0.570000       15.9994           0
     47649 MEMB     383      PMPE     O12      OSLP    -0.570000       15.9994           0
     47650 MEMB     383      PMPE     C1       CTL2    -0.800000E-01   12.0110           0
     47651 MEMB     383      PMPE     HA       HAL2     0.900000E-01   1.00800           0
     47652 MEMB     383      PMPE     HB       HAL2     0.900000E-01   1.00800           0
     47653 MEMB     383      PMPE     C2       CTL1     0.170000       12.0110           0
     47654 MEMB     383      PMPE     HS       HAL1     0.900000E-01   1.00800           0
     47655 MEMB     383      PMPE     O21      OSL     -0.490000       15.9994           0
     47656 MEMB     383      PMPE     C21      CL       0.900000       12.0110           0
     47657 MEMB     383      PMPE     O22      OBL     -0.630000       15.9994           0
     47658 MEMB     383      PMPE     C22      CTL2    -0.220000       12.0110           0
     47659 MEMB     383      PMPE     H2R      HAL2     0.900000E-01   1.00800           0
     47660 MEMB     383      PMPE     H2S      HAL2     0.900000E-01   1.00800           0
     47661 MEMB     383      PMPE     C3       CTL2     0.800000E-01   12.0110           0
     47662 MEMB     383      PMPE     HX       HAL2     0.900000E-01   1.00800           0
     47663 MEMB     383      PMPE     HY       HAL2     0.900000E-01   1.00800           0
     47664 MEMB     383      PMPE     O31      OSL     -0.490000       15.9994           0
     47665 MEMB     383      PMPE     C31      CL       0.900000       12.0110           0
     47666 MEMB     383      PMPE     O32      OBL     -0.630000       15.9994           0
     47667 MEMB     383      PMPE     C32      CTL2    -0.220000       12.0110           0
     47668 MEMB     383      PMPE     H2X      HAL2     0.900000E-01   1.00800           0
     47669 MEMB     383      PMPE     H2Y      HAL2     0.900000E-01   1.00800           0
     47670 MEMB     383      PMPE     C23      CTL2    -0.180000       12.0110           0
     47671 MEMB     383      PMPE     H3R      HAL2     0.900000E-01   1.00800           0
     47672 MEMB     383      PMPE     H3S      HAL2     0.900000E-01   1.00800           0
     47673 MEMB     383      PMPE     C24      CTL2    -0.180000       12.0110           0
     47674 MEMB     383      PMPE     H4R      HAL2     0.900000E-01   1.00800           0
     47675 MEMB     383      PMPE     H4S      HAL2     0.900000E-01   1.00800           0
     47676 MEMB     383      PMPE     C25      CTL2    -0.180000       12.0110           0
     47677 MEMB     383      PMPE     H5R      HAL2     0.900000E-01   1.00800           0
     47678 MEMB     383      PMPE     H5S      HAL2     0.900000E-01   1.00800           0
     47679 MEMB     383      PMPE     C26      CTL2    -0.180000       12.0110           0
     47680 MEMB     383      PMPE     H6R      HAL2     0.900000E-01   1.00800           0
     47681 MEMB     383      PMPE     H6S      HAL2     0.900000E-01   1.00800           0
     47682 MEMB     383      PMPE     C27      CTL2    -0.180000       12.0110           0
     47683 MEMB     383      PMPE     H7R      HAL2     0.900000E-01   1.00800           0
     47684 MEMB     383      PMPE     H7S      HAL2     0.900000E-01   1.00800           0
     47685 MEMB     383      PMPE     C28      CTL2    -0.180000       12.0110           0
     47686 MEMB     383      PMPE     H8R      HAL2     0.900000E-01   1.00800           0
     47687 MEMB     383      PMPE     H8S      HAL2     0.900000E-01   1.00800           0
     47688 MEMB     383      PMPE     C29      CG3RC1  -0.900000E-01   12.0110           0
     47689 MEMB     383      PMPE     H9R      HGA1     0.900000E-01   1.00800           0
     47690 MEMB     383      PMPE     C217     CG3C31  -0.180000       12.0110           0
     47691 MEMB     383      PMPE     H17R     HGA2     0.900000E-01   1.00800           0
     47692 MEMB     383      PMPE     H17S     HGA2     0.900000E-01   1.00800           0
     47693 MEMB     383      PMPE     C210     CG3RC1  -0.900000E-01   12.0110           0
     47694 MEMB     383      PMPE     H10R     HGA1     0.900000E-01   1.00800           0
     47695 MEMB     383      PMPE     C211     CTL2    -0.180000       12.0110           0
     47696 MEMB     383      PMPE     H11R     HAL2     0.900000E-01   1.00800           0
     47697 MEMB     383      PMPE     H11S     HAL2     0.900000E-01   1.00800           0
     47698 MEMB     383      PMPE     C212     CTL2    -0.180000       12.0110           0
     47699 MEMB     383      PMPE     H12R     HAL2     0.900000E-01   1.00800           0
     47700 MEMB     383      PMPE     H12S     HAL2     0.900000E-01   1.00800           0
     47701 MEMB     383      PMPE     C213     CTL2    -0.180000       12.0110           0
     47702 MEMB     383      PMPE     H13R     HAL2     0.900000E-01   1.00800           0
     47703 MEMB     383      PMPE     H13S     HAL2     0.900000E-01   1.00800           0
     47704 MEMB     383      PMPE     C214     CTL2    -0.180000       12.0110           0
     47705 MEMB     383      PMPE     H14R     HAL2     0.900000E-01   1.00800           0
     47706 MEMB     383      PMPE     H14S     HAL2     0.900000E-01   1.00800           0
     47707 MEMB     383      PMPE     C215     CTL2    -0.180000       12.0110           0
     47708 MEMB     383      PMPE     H15R     HAL2     0.900000E-01   1.00800           0
     47709 MEMB     383      PMPE     H15S     HAL2     0.900000E-01   1.00800           0
     47710 MEMB     383      PMPE     C216     CTL3    -0.270000       12.0110           0
     47711 MEMB     383      PMPE     H16R     HAL3     0.900000E-01   1.00800           0
     47712 MEMB     383      PMPE     H16S     HAL3     0.900000E-01   1.00800           0
     47713 MEMB     383      PMPE     H16T     HAL3     0.900000E-01   1.00800           0
     47714 MEMB     383      PMPE     C33      CTL2    -0.180000       12.0110           0
     47715 MEMB     383      PMPE     H3X      HAL2     0.900000E-01   1.00800           0
     47716 MEMB     383      PMPE     H3Y      HAL2     0.900000E-01   1.00800           0
     47717 MEMB     383      PMPE     C34      CTL2    -0.180000       12.0110           0
     47718 MEMB     383      PMPE     H4X      HAL2     0.900000E-01   1.00800           0
     47719 MEMB     383      PMPE     H4Y      HAL2     0.900000E-01   1.00800           0
     47720 MEMB     383      PMPE     C35      CTL2    -0.180000       12.0110           0
     47721 MEMB     383      PMPE     H5X      HAL2     0.900000E-01   1.00800           0
     47722 MEMB     383      PMPE     H5Y      HAL2     0.900000E-01   1.00800           0
     47723 MEMB     383      PMPE     C36      CTL2    -0.180000       12.0110           0
     47724 MEMB     383      PMPE     H6X      HAL2     0.900000E-01   1.00800           0
     47725 MEMB     383      PMPE     H6Y      HAL2     0.900000E-01   1.00800           0
     47726 MEMB     383      PMPE     C37      CTL2    -0.180000       12.0110           0
     47727 MEMB     383      PMPE     H7X      HAL2     0.900000E-01   1.00800           0
     47728 MEMB     383      PMPE     H7Y      HAL2     0.900000E-01   1.00800           0
     47729 MEMB     383      PMPE     C38      CTL2    -0.180000       12.0110           0
     47730 MEMB     383      PMPE     H8X      HAL2     0.900000E-01   1.00800           0
     47731 MEMB     383      PMPE     H8Y      HAL2     0.900000E-01   1.00800           0
     47732 MEMB     383      PMPE     C39      CTL2    -0.180000       12.0110           0
     47733 MEMB     383      PMPE     H9X      HAL2     0.900000E-01   1.00800           0
     47734 MEMB     383      PMPE     H9Y      HAL2     0.900000E-01   1.00800           0
     47735 MEMB     383      PMPE     C310     CTL2    -0.180000       12.0110           0
     47736 MEMB     383      PMPE     H10X     HAL2     0.900000E-01   1.00800           0
     47737 MEMB     383      PMPE     H10Y     HAL2     0.900000E-01   1.00800           0
     47738 MEMB     383      PMPE     C311     CTL2    -0.180000       12.0110           0
     47739 MEMB     383      PMPE     H11X     HAL2     0.900000E-01   1.00800           0
     47740 MEMB     383      PMPE     H11Y     HAL2     0.900000E-01   1.00800           0
     47741 MEMB     383      PMPE     C312     CTL2    -0.180000       12.0110           0
     47742 MEMB     383      PMPE     H12X     HAL2     0.900000E-01   1.00800           0
     47743 MEMB     383      PMPE     H12Y     HAL2     0.900000E-01   1.00800           0
     47744 MEMB     383      PMPE     C313     CTL2    -0.180000       12.0110           0
     47745 MEMB     383      PMPE     H13X     HAL2     0.900000E-01   1.00800           0
     47746 MEMB     383      PMPE     H13Y     HAL2     0.900000E-01   1.00800           0
     47747 MEMB     383      PMPE     C314     CTL2    -0.180000       12.0110           0
     47748 MEMB     383      PMPE     H14X     HAL2     0.900000E-01   1.00800           0
     47749 MEMB     383      PMPE     H14Y     HAL2     0.900000E-01   1.00800           0
     47750 MEMB     383      PMPE     C315     CTL2    -0.180000       12.0110           0
     47751 MEMB     383      PMPE     H15X     HAL2     0.900000E-01   1.00800           0
     47752 MEMB     383      PMPE     H15Y     HAL2     0.900000E-01   1.00800           0
     47753 MEMB     383      PMPE     C316     CTL3    -0.270000       12.0110           0
     47754 MEMB     383      PMPE     H16X     HAL3     0.900000E-01   1.00800           0
     47755 MEMB     383      PMPE     H16Y     HAL3     0.900000E-01   1.00800           0
     47756 MEMB     383      PMPE     H16Z     HAL3     0.900000E-01   1.00800           0
     47757 MEMB     384      PMPE     N        NH3L    -0.300000       14.0070           0
     47758 MEMB     384      PMPE     HN1      HCL      0.330000       1.00800           0
     47759 MEMB     384      PMPE     HN2      HCL      0.330000       1.00800           0
     47760 MEMB     384      PMPE     HN3      HCL      0.330000       1.00800           0
     47761 MEMB     384      PMPE     C12      CTL2     0.130000       12.0110           0
     47762 MEMB     384      PMPE     H12A     HAL2     0.900000E-01   1.00800           0
     47763 MEMB     384      PMPE     H12B     HAL2     0.900000E-01   1.00800           0
     47764 MEMB     384      PMPE     C11      CTL2    -0.800000E-01   12.0110           0
     47765 MEMB     384      PMPE     H11A     HAL2     0.900000E-01   1.00800           0
     47766 MEMB     384      PMPE     H11B     HAL2     0.900000E-01   1.00800           0
     47767 MEMB     384      PMPE     P        PL        1.50000       30.9740           0
     47768 MEMB     384      PMPE     O13      O2L     -0.780000       15.9994           0
     47769 MEMB     384      PMPE     O14      O2L     -0.780000       15.9994           0
     47770 MEMB     384      PMPE     O11      OSLP    -0.570000       15.9994           0
     47771 MEMB     384      PMPE     O12      OSLP    -0.570000       15.9994           0
     47772 MEMB     384      PMPE     C1       CTL2    -0.800000E-01   12.0110           0
     47773 MEMB     384      PMPE     HA       HAL2     0.900000E-01   1.00800           0
     47774 MEMB     384      PMPE     HB       HAL2     0.900000E-01   1.00800           0
     47775 MEMB     384      PMPE     C2       CTL1     0.170000       12.0110           0
     47776 MEMB     384      PMPE     HS       HAL1     0.900000E-01   1.00800           0
     47777 MEMB     384      PMPE     O21      OSL     -0.490000       15.9994           0
     47778 MEMB     384      PMPE     C21      CL       0.900000       12.0110           0
     47779 MEMB     384      PMPE     O22      OBL     -0.630000       15.9994           0
     47780 MEMB     384      PMPE     C22      CTL2    -0.220000       12.0110           0
     47781 MEMB     384      PMPE     H2R      HAL2     0.900000E-01   1.00800           0
     47782 MEMB     384      PMPE     H2S      HAL2     0.900000E-01   1.00800           0
     47783 MEMB     384      PMPE     C3       CTL2     0.800000E-01   12.0110           0
     47784 MEMB     384      PMPE     HX       HAL2     0.900000E-01   1.00800           0
     47785 MEMB     384      PMPE     HY       HAL2     0.900000E-01   1.00800           0
     47786 MEMB     384      PMPE     O31      OSL     -0.490000       15.9994           0
     47787 MEMB     384      PMPE     C31      CL       0.900000       12.0110           0
     47788 MEMB     384      PMPE     O32      OBL     -0.630000       15.9994           0
     47789 MEMB     384      PMPE     C32      CTL2    -0.220000       12.0110           0
     47790 MEMB     384      PMPE     H2X      HAL2     0.900000E-01   1.00800           0
     47791 MEMB     384      PMPE     H2Y      HAL2     0.900000E-01   1.00800           0
     47792 MEMB     384      PMPE     C23      CTL2    -0.180000       12.0110           0
     47793 MEMB     384      PMPE     H3R      HAL2     0.900000E-01   1.00800           0
     47794 MEMB     384      PMPE     H3S      HAL2     0.900000E-01   1.00800           0
     47795 MEMB     384      PMPE     C24      CTL2    -0.180000       12.0110           0
     47796 MEMB     384      PMPE     H4R      HAL2     0.900000E-01   1.00800           0
     47797 MEMB     384      PMPE     H4S      HAL2     0.900000E-01   1.00800           0
     47798 MEMB     384      PMPE     C25      CTL2    -0.180000       12.0110           0
     47799 MEMB     384      PMPE     H5R      HAL2     0.900000E-01   1.00800           0
     47800 MEMB     384      PMPE     H5S      HAL2     0.900000E-01   1.00800           0
     47801 MEMB     384      PMPE     C26      CTL2    -0.180000       12.0110           0
     47802 MEMB     384      PMPE     H6R      HAL2     0.900000E-01   1.00800           0
     47803 MEMB     384      PMPE     H6S      HAL2     0.900000E-01   1.00800           0
     47804 MEMB     384      PMPE     C27      CTL2    -0.180000       12.0110           0
     47805 MEMB     384      PMPE     H7R      HAL2     0.900000E-01   1.00800           0
     47806 MEMB     384      PMPE     H7S      HAL2     0.900000E-01   1.00800           0
     47807 MEMB     384      PMPE     C28      CTL2    -0.180000       12.0110           0
     47808 MEMB     384      PMPE     H8R      HAL2     0.900000E-01   1.00800           0
     47809 MEMB     384      PMPE     H8S      HAL2     0.900000E-01   1.00800           0
     47810 MEMB     384      PMPE     C29      CG3RC1  -0.900000E-01   12.0110           0
     47811 MEMB     384      PMPE     H9R      HGA1     0.900000E-01   1.00800           0
     47812 MEMB     384      PMPE     C217     CG3C31  -0.180000       12.0110           0
     47813 MEMB     384      PMPE     H17R     HGA2     0.900000E-01   1.00800           0
     47814 MEMB     384      PMPE     H17S     HGA2     0.900000E-01   1.00800           0
     47815 MEMB     384      PMPE     C210     CG3RC1  -0.900000E-01   12.0110           0
     47816 MEMB     384      PMPE     H10R     HGA1     0.900000E-01   1.00800           0
     47817 MEMB     384      PMPE     C211     CTL2    -0.180000       12.0110           0
     47818 MEMB     384      PMPE     H11R     HAL2     0.900000E-01   1.00800           0
     47819 MEMB     384      PMPE     H11S     HAL2     0.900000E-01   1.00800           0
     47820 MEMB     384      PMPE     C212     CTL2    -0.180000       12.0110           0
     47821 MEMB     384      PMPE     H12R     HAL2     0.900000E-01   1.00800           0
     47822 MEMB     384      PMPE     H12S     HAL2     0.900000E-01   1.00800           0
     47823 MEMB     384      PMPE     C213     CTL2    -0.180000       12.0110           0
     47824 MEMB     384      PMPE     H13R     HAL2     0.900000E-01   1.00800           0
     47825 MEMB     384      PMPE     H13S     HAL2     0.900000E-01   1.00800           0
     47826 MEMB     384      PMPE     C214     CTL2    -0.180000       12.0110           0
     47827 MEMB     384      PMPE     H14R     HAL2     0.900000E-01   1.00800           0
     47828 MEMB     384      PMPE     H14S     HAL2     0.900000E-01   1.00800           0
     47829 MEMB     384      PMPE     C215     CTL2    -0.180000       12.0110           0
     47830 MEMB     384      PMPE     H15R     HAL2     0.900000E-01   1.00800           0
     47831 MEMB     384      PMPE     H15S     HAL2     0.900000E-01   1.00800           0
     47832 MEMB     384      PMPE     C216     CTL3    -0.270000       12.0110           0
     47833 MEMB     384      PMPE     H16R     HAL3     0.900000E-01   1.00800           0
     47834 MEMB     384      PMPE     H16S     HAL3     0.900000E-01   1.00800           0
     47835 MEMB     384      PMPE     H16T     HAL3     0.900000E-01   1.00800           0
     47836 MEMB     384      PMPE     C33      CTL2    -0.180000       12.0110           0
     47837 MEMB     384      PMPE     H3X      HAL2     0.900000E-01   1.00800           0
     47838 MEMB     384      PMPE     H3Y      HAL2     0.900000E-01   1.00800           0
     47839 MEMB     384      PMPE     C34      CTL2    -0.180000       12.0110           0
     47840 MEMB     384      PMPE     H4X      HAL2     0.900000E-01   1.00800           0
     47841 MEMB     384      PMPE     H4Y      HAL2     0.900000E-01   1.00800           0
     47842 MEMB     384      PMPE     C35      CTL2    -0.180000       12.0110           0
     47843 MEMB     384      PMPE     H5X      HAL2     0.900000E-01   1.00800           0
     47844 MEMB     384      PMPE     H5Y      HAL2     0.900000E-01   1.00800           0
     47845 MEMB     384      PMPE     C36      CTL2    -0.180000       12.0110           0
     47846 MEMB     384      PMPE     H6X      HAL2     0.900000E-01   1.00800           0
     47847 MEMB     384      PMPE     H6Y      HAL2     0.900000E-01   1.00800           0
     47848 MEMB     384      PMPE     C37      CTL2    -0.180000       12.0110           0
     47849 MEMB     384      PMPE     H7X      HAL2     0.900000E-01   1.00800           0
     47850 MEMB     384      PMPE     H7Y      HAL2     0.900000E-01   1.00800           0
     47851 MEMB     384      PMPE     C38      CTL2    -0.180000       12.0110           0
     47852 MEMB     384      PMPE     H8X      HAL2     0.900000E-01   1.00800           0
     47853 MEMB     384      PMPE     H8Y      HAL2     0.900000E-01   1.00800           0
     47854 MEMB     384      PMPE     C39      CTL2    -0.180000       12.0110           0
     47855 MEMB     384      PMPE     H9X      HAL2     0.900000E-01   1.00800           0
     47856 MEMB     384      PMPE     H9Y      HAL2     0.900000E-01   1.00800           0
     47857 MEMB     384      PMPE     C310     CTL2    -0.180000       12.0110           0
     47858 MEMB     384      PMPE     H10X     HAL2     0.900000E-01   1.00800           0
     47859 MEMB     384      PMPE     H10Y     HAL2     0.900000E-01   1.00800           0
     47860 MEMB     384      PMPE     C311     CTL2    -0.180000       12.0110           0
     47861 MEMB     384      PMPE     H11X     HAL2     0.900000E-01   1.00800           0
     47862 MEMB     384      PMPE     H11Y     HAL2     0.900000E-01   1.00800           0
     47863 MEMB     384      PMPE     C312     CTL2    -0.180000       12.0110           0
     47864 MEMB     384      PMPE     H12X     HAL2     0.900000E-01   1.00800           0
     47865 MEMB     384      PMPE     H12Y     HAL2     0.900000E-01   1.00800           0
     47866 MEMB     384      PMPE     C313     CTL2    -0.180000       12.0110           0
     47867 MEMB     384      PMPE     H13X     HAL2     0.900000E-01   1.00800           0
     47868 MEMB     384      PMPE     H13Y     HAL2     0.900000E-01   1.00800           0
     47869 MEMB     384      PMPE     C314     CTL2    -0.180000       12.0110           0
     47870 MEMB     384      PMPE     H14X     HAL2     0.900000E-01   1.00800           0
     47871 MEMB     384      PMPE     H14Y     HAL2     0.900000E-01   1.00800           0
     47872 MEMB     384      PMPE     C315     CTL2    -0.180000       12.0110           0
     47873 MEMB     384      PMPE     H15X     HAL2     0.900000E-01   1.00800           0
     47874 MEMB     384      PMPE     H15Y     HAL2     0.900000E-01   1.00800           0
     47875 MEMB     384      PMPE     C316     CTL3    -0.270000       12.0110           0
     47876 MEMB     384      PMPE     H16X     HAL3     0.900000E-01   1.00800           0
     47877 MEMB     384      PMPE     H16Y     HAL3     0.900000E-01   1.00800           0
     47878 MEMB     384      PMPE     H16Z     HAL3     0.900000E-01   1.00800           0
     47879 MEMB     385      PMPE     N        NH3L    -0.300000       14.0070           0
     47880 MEMB     385      PMPE     HN1      HCL      0.330000       1.00800           0
     47881 MEMB     385      PMPE     HN2      HCL      0.330000       1.00800           0
     47882 MEMB     385      PMPE     HN3      HCL      0.330000       1.00800           0
     47883 MEMB     385      PMPE     C12      CTL2     0.130000       12.0110           0
     47884 MEMB     385      PMPE     H12A     HAL2     0.900000E-01   1.00800           0
     47885 MEMB     385      PMPE     H12B     HAL2     0.900000E-01   1.00800           0
     47886 MEMB     385      PMPE     C11      CTL2    -0.800000E-01   12.0110           0
     47887 MEMB     385      PMPE     H11A     HAL2     0.900000E-01   1.00800           0
     47888 MEMB     385      PMPE     H11B     HAL2     0.900000E-01   1.00800           0
     47889 MEMB     385      PMPE     P        PL        1.50000       30.9740           0
     47890 MEMB     385      PMPE     O13      O2L     -0.780000       15.9994           0
     47891 MEMB     385      PMPE     O14      O2L     -0.780000       15.9994           0
     47892 MEMB     385      PMPE     O11      OSLP    -0.570000       15.9994           0
     47893 MEMB     385      PMPE     O12      OSLP    -0.570000       15.9994           0
     47894 MEMB     385      PMPE     C1       CTL2    -0.800000E-01   12.0110           0
     47895 MEMB     385      PMPE     HA       HAL2     0.900000E-01   1.00800           0
     47896 MEMB     385      PMPE     HB       HAL2     0.900000E-01   1.00800           0
     47897 MEMB     385      PMPE     C2       CTL1     0.170000       12.0110           0
     47898 MEMB     385      PMPE     HS       HAL1     0.900000E-01   1.00800           0
     47899 MEMB     385      PMPE     O21      OSL     -0.490000       15.9994           0
     47900 MEMB     385      PMPE     C21      CL       0.900000       12.0110           0
     47901 MEMB     385      PMPE     O22      OBL     -0.630000       15.9994           0
     47902 MEMB     385      PMPE     C22      CTL2    -0.220000       12.0110           0
     47903 MEMB     385      PMPE     H2R      HAL2     0.900000E-01   1.00800           0
     47904 MEMB     385      PMPE     H2S      HAL2     0.900000E-01   1.00800           0
     47905 MEMB     385      PMPE     C3       CTL2     0.800000E-01   12.0110           0
     47906 MEMB     385      PMPE     HX       HAL2     0.900000E-01   1.00800           0
     47907 MEMB     385      PMPE     HY       HAL2     0.900000E-01   1.00800           0
     47908 MEMB     385      PMPE     O31      OSL     -0.490000       15.9994           0
     47909 MEMB     385      PMPE     C31      CL       0.900000       12.0110           0
     47910 MEMB     385      PMPE     O32      OBL     -0.630000       15.9994           0
     47911 MEMB     385      PMPE     C32      CTL2    -0.220000       12.0110           0
     47912 MEMB     385      PMPE     H2X      HAL2     0.900000E-01   1.00800           0
     47913 MEMB     385      PMPE     H2Y      HAL2     0.900000E-01   1.00800           0
     47914 MEMB     385      PMPE     C23      CTL2    -0.180000       12.0110           0
     47915 MEMB     385      PMPE     H3R      HAL2     0.900000E-01   1.00800           0
     47916 MEMB     385      PMPE     H3S      HAL2     0.900000E-01   1.00800           0
     47917 MEMB     385      PMPE     C24      CTL2    -0.180000       12.0110           0
     47918 MEMB     385      PMPE     H4R      HAL2     0.900000E-01   1.00800           0
     47919 MEMB     385      PMPE     H4S      HAL2     0.900000E-01   1.00800           0
     47920 MEMB     385      PMPE     C25      CTL2    -0.180000       12.0110           0
     47921 MEMB     385      PMPE     H5R      HAL2     0.900000E-01   1.00800           0
     47922 MEMB     385      PMPE     H5S      HAL2     0.900000E-01   1.00800           0
     47923 MEMB     385      PMPE     C26      CTL2    -0.180000       12.0110           0
     47924 MEMB     385      PMPE     H6R      HAL2     0.900000E-01   1.00800           0
     47925 MEMB     385      PMPE     H6S      HAL2     0.900000E-01   1.00800           0
     47926 MEMB     385      PMPE     C27      CTL2    -0.180000       12.0110           0
     47927 MEMB     385      PMPE     H7R      HAL2     0.900000E-01   1.00800           0
     47928 MEMB     385      PMPE     H7S      HAL2     0.900000E-01   1.00800           0
     47929 MEMB     385      PMPE     C28      CTL2    -0.180000       12.0110           0
     47930 MEMB     385      PMPE     H8R      HAL2     0.900000E-01   1.00800           0
     47931 MEMB     385      PMPE     H8S      HAL2     0.900000E-01   1.00800           0
     47932 MEMB     385      PMPE     C29      CG3RC1  -0.900000E-01   12.0110           0
     47933 MEMB     385      PMPE     H9R      HGA1     0.900000E-01   1.00800           0
     47934 MEMB     385      PMPE     C217     CG3C31  -0.180000       12.0110           0
     47935 MEMB     385      PMPE     H17R     HGA2     0.900000E-01   1.00800           0
     47936 MEMB     385      PMPE     H17S     HGA2     0.900000E-01   1.00800           0
     47937 MEMB     385      PMPE     C210     CG3RC1  -0.900000E-01   12.0110           0
     47938 MEMB     385      PMPE     H10R     HGA1     0.900000E-01   1.00800           0
     47939 MEMB     385      PMPE     C211     CTL2    -0.180000       12.0110           0
     47940 MEMB     385      PMPE     H11R     HAL2     0.900000E-01   1.00800           0
     47941 MEMB     385      PMPE     H11S     HAL2     0.900000E-01   1.00800           0
     47942 MEMB     385      PMPE     C212     CTL2    -0.180000       12.0110           0
     47943 MEMB     385      PMPE     H12R     HAL2     0.900000E-01   1.00800           0
     47944 MEMB     385      PMPE     H12S     HAL2     0.900000E-01   1.00800           0
     47945 MEMB     385      PMPE     C213     CTL2    -0.180000       12.0110           0
     47946 MEMB     385      PMPE     H13R     HAL2     0.900000E-01   1.00800           0
     47947 MEMB     385      PMPE     H13S     HAL2     0.900000E-01   1.00800           0
     47948 MEMB     385      PMPE     C214     CTL2    -0.180000       12.0110           0
     47949 MEMB     385      PMPE     H14R     HAL2     0.900000E-01   1.00800           0
     47950 MEMB     385      PMPE     H14S     HAL2     0.900000E-01   1.00800           0
     47951 MEMB     385      PMPE     C215     CTL2    -0.180000       12.0110           0
     47952 MEMB     385      PMPE     H15R     HAL2     0.900000E-01   1.00800           0
     47953 MEMB     385      PMPE     H15S     HAL2     0.900000E-01   1.00800           0
     47954 MEMB     385      PMPE     C216     CTL3    -0.270000       12.0110           0
     47955 MEMB     385      PMPE     H16R     HAL3     0.900000E-01   1.00800           0
     47956 MEMB     385      PMPE     H16S     HAL3     0.900000E-01   1.00800           0
     47957 MEMB     385      PMPE     H16T     HAL3     0.900000E-01   1.00800           0
     47958 MEMB     385      PMPE     C33      CTL2    -0.180000       12.0110           0
     47959 MEMB     385      PMPE     H3X      HAL2     0.900000E-01   1.00800           0
     47960 MEMB     385      PMPE     H3Y      HAL2     0.900000E-01   1.00800           0
     47961 MEMB     385      PMPE     C34      CTL2    -0.180000       12.0110           0
     47962 MEMB     385      PMPE     H4X      HAL2     0.900000E-01   1.00800           0
     47963 MEMB     385      PMPE     H4Y      HAL2     0.900000E-01   1.00800           0
     47964 MEMB     385      PMPE     C35      CTL2    -0.180000       12.0110           0
     47965 MEMB     385      PMPE     H5X      HAL2     0.900000E-01   1.00800           0
     47966 MEMB     385      PMPE     H5Y      HAL2     0.900000E-01   1.00800           0
     47967 MEMB     385      PMPE     C36      CTL2    -0.180000       12.0110           0
     47968 MEMB     385      PMPE     H6X      HAL2     0.900000E-01   1.00800           0
     47969 MEMB     385      PMPE     H6Y      HAL2     0.900000E-01   1.00800           0
     47970 MEMB     385      PMPE     C37      CTL2    -0.180000       12.0110           0
     47971 MEMB     385      PMPE     H7X      HAL2     0.900000E-01   1.00800           0
     47972 MEMB     385      PMPE     H7Y      HAL2     0.900000E-01   1.00800           0
     47973 MEMB     385      PMPE     C38      CTL2    -0.180000       12.0110           0
     47974 MEMB     385      PMPE     H8X      HAL2     0.900000E-01   1.00800           0
     47975 MEMB     385      PMPE     H8Y      HAL2     0.900000E-01   1.00800           0
     47976 MEMB     385      PMPE     C39      CTL2    -0.180000       12.0110           0
     47977 MEMB     385      PMPE     H9X      HAL2     0.900000E-01   1.00800           0
     47978 MEMB     385      PMPE     H9Y      HAL2     0.900000E-01   1.00800           0
     47979 MEMB     385      PMPE     C310     CTL2    -0.180000       12.0110           0
     47980 MEMB     385      PMPE     H10X     HAL2     0.900000E-01   1.00800           0
     47981 MEMB     385      PMPE     H10Y     HAL2     0.900000E-01   1.00800           0
     47982 MEMB     385      PMPE     C311     CTL2    -0.180000       12.0110           0
     47983 MEMB     385      PMPE     H11X     HAL2     0.900000E-01   1.00800           0
     47984 MEMB     385      PMPE     H11Y     HAL2     0.900000E-01   1.00800           0
     47985 MEMB     385      PMPE     C312     CTL2    -0.180000       12.0110           0
     47986 MEMB     385      PMPE     H12X     HAL2     0.900000E-01   1.00800           0
     47987 MEMB     385      PMPE     H12Y     HAL2     0.900000E-01   1.00800           0
     47988 MEMB     385      PMPE     C313     CTL2    -0.180000       12.0110           0
     47989 MEMB     385      PMPE     H13X     HAL2     0.900000E-01   1.00800           0
     47990 MEMB     385      PMPE     H13Y     HAL2     0.900000E-01   1.00800           0
     47991 MEMB     385      PMPE     C314     CTL2    -0.180000       12.0110           0
     47992 MEMB     385      PMPE     H14X     HAL2     0.900000E-01   1.00800           0
     47993 MEMB     385      PMPE     H14Y     HAL2     0.900000E-01   1.00800           0
     47994 MEMB     385      PMPE     C315     CTL2    -0.180000       12.0110           0
     47995 MEMB     385      PMPE     H15X     HAL2     0.900000E-01   1.00800           0
     47996 MEMB     385      PMPE     H15Y     HAL2     0.900000E-01   1.00800           0
     47997 MEMB     385      PMPE     C316     CTL3    -0.270000       12.0110           0
     47998 MEMB     385      PMPE     H16X     HAL3     0.900000E-01   1.00800           0
     47999 MEMB     385      PMPE     H16Y     HAL3     0.900000E-01   1.00800           0
     48000 MEMB     385      PMPE     H16Z     HAL3     0.900000E-01   1.00800           0
     48001 MEMB     386      POPE     N        NH3L    -0.300000       14.0070           0
     48002 MEMB     386      POPE     HN1      HCL      0.330000       1.00800           0
     48003 MEMB     386      POPE     HN2      HCL      0.330000       1.00800           0
     48004 MEMB     386      POPE     HN3      HCL      0.330000       1.00800           0
     48005 MEMB     386      POPE     C12      CTL2     0.130000       12.0110           0
     48006 MEMB     386      POPE     H12A     HAL2     0.900000E-01   1.00800           0
     48007 MEMB     386      POPE     H12B     HAL2     0.900000E-01   1.00800           0
     48008 MEMB     386      POPE     C11      CTL2    -0.800000E-01   12.0110           0
     48009 MEMB     386      POPE     H11A     HAL2     0.900000E-01   1.00800           0
     48010 MEMB     386      POPE     H11B     HAL2     0.900000E-01   1.00800           0
     48011 MEMB     386      POPE     P        PL        1.50000       30.9740           0
     48012 MEMB     386      POPE     O13      O2L     -0.780000       15.9994           0
     48013 MEMB     386      POPE     O14      O2L     -0.780000       15.9994           0
     48014 MEMB     386      POPE     O11      OSLP    -0.570000       15.9994           0
     48015 MEMB     386      POPE     O12      OSLP    -0.570000       15.9994           0
     48016 MEMB     386      POPE     C1       CTL2    -0.800000E-01   12.0110           0
     48017 MEMB     386      POPE     HA       HAL2     0.900000E-01   1.00800           0
     48018 MEMB     386      POPE     HB       HAL2     0.900000E-01   1.00800           0
     48019 MEMB     386      POPE     C2       CTL1     0.170000       12.0110           0
     48020 MEMB     386      POPE     HS       HAL1     0.900000E-01   1.00800           0
     48021 MEMB     386      POPE     O21      OSL     -0.490000       15.9994           0
     48022 MEMB     386      POPE     C21      CL       0.900000       12.0110           0
     48023 MEMB     386      POPE     O22      OBL     -0.630000       15.9994           0
     48024 MEMB     386      POPE     C22      CTL2    -0.220000       12.0110           0
     48025 MEMB     386      POPE     H2R      HAL2     0.900000E-01   1.00800           0
     48026 MEMB     386      POPE     H2S      HAL2     0.900000E-01   1.00800           0
     48027 MEMB     386      POPE     C3       CTL2     0.800000E-01   12.0110           0
     48028 MEMB     386      POPE     HX       HAL2     0.900000E-01   1.00800           0
     48029 MEMB     386      POPE     HY       HAL2     0.900000E-01   1.00800           0
     48030 MEMB     386      POPE     O31      OSL     -0.490000       15.9994           0
     48031 MEMB     386      POPE     C31      CL       0.900000       12.0110           0
     48032 MEMB     386      POPE     O32      OBL     -0.630000       15.9994           0
     48033 MEMB     386      POPE     C32      CTL2    -0.220000       12.0110           0
     48034 MEMB     386      POPE     H2X      HAL2     0.900000E-01   1.00800           0
     48035 MEMB     386      POPE     H2Y      HAL2     0.900000E-01   1.00800           0
     48036 MEMB     386      POPE     C23      CTL2    -0.180000       12.0110           0
     48037 MEMB     386      POPE     H3R      HAL2     0.900000E-01   1.00800           0
     48038 MEMB     386      POPE     H3S      HAL2     0.900000E-01   1.00800           0
     48039 MEMB     386      POPE     C24      CTL2    -0.180000       12.0110           0
     48040 MEMB     386      POPE     H4R      HAL2     0.900000E-01   1.00800           0
     48041 MEMB     386      POPE     H4S      HAL2     0.900000E-01   1.00800           0
     48042 MEMB     386      POPE     C25      CTL2    -0.180000       12.0110           0
     48043 MEMB     386      POPE     H5R      HAL2     0.900000E-01   1.00800           0
     48044 MEMB     386      POPE     H5S      HAL2     0.900000E-01   1.00800           0
     48045 MEMB     386      POPE     C26      CTL2    -0.180000       12.0110           0
     48046 MEMB     386      POPE     H6R      HAL2     0.900000E-01   1.00800           0
     48047 MEMB     386      POPE     H6S      HAL2     0.900000E-01   1.00800           0
     48048 MEMB     386      POPE     C27      CTL2    -0.180000       12.0110           0
     48049 MEMB     386      POPE     H7R      HAL2     0.900000E-01   1.00800           0
     48050 MEMB     386      POPE     H7S      HAL2     0.900000E-01   1.00800           0
     48051 MEMB     386      POPE     C28      CTL2    -0.180000       12.0110           0
     48052 MEMB     386      POPE     H8R      HAL2     0.900000E-01   1.00800           0
     48053 MEMB     386      POPE     H8S      HAL2     0.900000E-01   1.00800           0
     48054 MEMB     386      POPE     C29      CEL1    -0.150000       12.0110           0
     48055 MEMB     386      POPE     H91      HEL1     0.150000       1.00800           0
     48056 MEMB     386      POPE     C210     CEL1    -0.150000       12.0110           0
     48057 MEMB     386      POPE     H101     HEL1     0.150000       1.00800           0
     48058 MEMB     386      POPE     C211     CTL2    -0.180000       12.0110           0
     48059 MEMB     386      POPE     H11R     HAL2     0.900000E-01   1.00800           0
     48060 MEMB     386      POPE     H11S     HAL2     0.900000E-01   1.00800           0
     48061 MEMB     386      POPE     C212     CTL2    -0.180000       12.0110           0
     48062 MEMB     386      POPE     H12R     HAL2     0.900000E-01   1.00800           0
     48063 MEMB     386      POPE     H12S     HAL2     0.900000E-01   1.00800           0
     48064 MEMB     386      POPE     C213     CTL2    -0.180000       12.0110           0
     48065 MEMB     386      POPE     H13R     HAL2     0.900000E-01   1.00800           0
     48066 MEMB     386      POPE     H13S     HAL2     0.900000E-01   1.00800           0
     48067 MEMB     386      POPE     C214     CTL2    -0.180000       12.0110           0
     48068 MEMB     386      POPE     H14R     HAL2     0.900000E-01   1.00800           0
     48069 MEMB     386      POPE     H14S     HAL2     0.900000E-01   1.00800           0
     48070 MEMB     386      POPE     C215     CTL2    -0.180000       12.0110           0
     48071 MEMB     386      POPE     H15R     HAL2     0.900000E-01   1.00800           0
     48072 MEMB     386      POPE     H15S     HAL2     0.900000E-01   1.00800           0
     48073 MEMB     386      POPE     C216     CTL2    -0.180000       12.0110           0
     48074 MEMB     386      POPE     H16R     HAL2     0.900000E-01   1.00800           0
     48075 MEMB     386      POPE     H16S     HAL2     0.900000E-01   1.00800           0
     48076 MEMB     386      POPE     C217     CTL2    -0.180000       12.0110           0
     48077 MEMB     386      POPE     H17R     HAL2     0.900000E-01   1.00800           0
     48078 MEMB     386      POPE     H17S     HAL2     0.900000E-01   1.00800           0
     48079 MEMB     386      POPE     C218     CTL3    -0.270000       12.0110           0
     48080 MEMB     386      POPE     H18R     HAL3     0.900000E-01   1.00800           0
     48081 MEMB     386      POPE     H18S     HAL3     0.900000E-01   1.00800           0
     48082 MEMB     386      POPE     H18T     HAL3     0.900000E-01   1.00800           0
     48083 MEMB     386      POPE     C33      CTL2    -0.180000       12.0110           0
     48084 MEMB     386      POPE     H3X      HAL2     0.900000E-01   1.00800           0
     48085 MEMB     386      POPE     H3Y      HAL2     0.900000E-01   1.00800           0
     48086 MEMB     386      POPE     C34      CTL2    -0.180000       12.0110           0
     48087 MEMB     386      POPE     H4X      HAL2     0.900000E-01   1.00800           0
     48088 MEMB     386      POPE     H4Y      HAL2     0.900000E-01   1.00800           0
     48089 MEMB     386      POPE     C35      CTL2    -0.180000       12.0110           0
     48090 MEMB     386      POPE     H5X      HAL2     0.900000E-01   1.00800           0
     48091 MEMB     386      POPE     H5Y      HAL2     0.900000E-01   1.00800           0
     48092 MEMB     386      POPE     C36      CTL2    -0.180000       12.0110           0
     48093 MEMB     386      POPE     H6X      HAL2     0.900000E-01   1.00800           0
     48094 MEMB     386      POPE     H6Y      HAL2     0.900000E-01   1.00800           0
     48095 MEMB     386      POPE     C37      CTL2    -0.180000       12.0110           0
     48096 MEMB     386      POPE     H7X      HAL2     0.900000E-01   1.00800           0
     48097 MEMB     386      POPE     H7Y      HAL2     0.900000E-01   1.00800           0
     48098 MEMB     386      POPE     C38      CTL2    -0.180000       12.0110           0
     48099 MEMB     386      POPE     H8X      HAL2     0.900000E-01   1.00800           0
     48100 MEMB     386      POPE     H8Y      HAL2     0.900000E-01   1.00800           0
     48101 MEMB     386      POPE     C39      CTL2    -0.180000       12.0110           0
     48102 MEMB     386      POPE     H9X      HAL2     0.900000E-01   1.00800           0
     48103 MEMB     386      POPE     H9Y      HAL2     0.900000E-01   1.00800           0
     48104 MEMB     386      POPE     C310     CTL2    -0.180000       12.0110           0
     48105 MEMB     386      POPE     H10X     HAL2     0.900000E-01   1.00800           0
     48106 MEMB     386      POPE     H10Y     HAL2     0.900000E-01   1.00800           0
     48107 MEMB     386      POPE     C311     CTL2    -0.180000       12.0110           0
     48108 MEMB     386      POPE     H11X     HAL2     0.900000E-01   1.00800           0
     48109 MEMB     386      POPE     H11Y     HAL2     0.900000E-01   1.00800           0
     48110 MEMB     386      POPE     C312     CTL2    -0.180000       12.0110           0
     48111 MEMB     386      POPE     H12X     HAL2     0.900000E-01   1.00800           0
     48112 MEMB     386      POPE     H12Y     HAL2     0.900000E-01   1.00800           0
     48113 MEMB     386      POPE     C313     CTL2    -0.180000       12.0110           0
     48114 MEMB     386      POPE     H13X     HAL2     0.900000E-01   1.00800           0
     48115 MEMB     386      POPE     H13Y     HAL2     0.900000E-01   1.00800           0
     48116 MEMB     386      POPE     C314     CTL2    -0.180000       12.0110           0
     48117 MEMB     386      POPE     H14X     HAL2     0.900000E-01   1.00800           0
     48118 MEMB     386      POPE     H14Y     HAL2     0.900000E-01   1.00800           0
     48119 MEMB     386      POPE     C315     CTL2    -0.180000       12.0110           0
     48120 MEMB     386      POPE     H15X     HAL2     0.900000E-01   1.00800           0
     48121 MEMB     386      POPE     H15Y     HAL2     0.900000E-01   1.00800           0
     48122 MEMB     386      POPE     C316     CTL3    -0.270000       12.0110           0
     48123 MEMB     386      POPE     H16X     HAL3     0.900000E-01   1.00800           0
     48124 MEMB     386      POPE     H16Y     HAL3     0.900000E-01   1.00800           0
     48125 MEMB     386      POPE     H16Z     HAL3     0.900000E-01   1.00800           0
     48126 MEMB     387      QMPE     N        NH3L    -0.300000       14.0070           0
     48127 MEMB     387      QMPE     HN1      HCL      0.330000       1.00800           0
     48128 MEMB     387      QMPE     HN2      HCL      0.330000       1.00800           0
     48129 MEMB     387      QMPE     HN3      HCL      0.330000       1.00800           0
     48130 MEMB     387      QMPE     C12      CTL2     0.130000       12.0110           0
     48131 MEMB     387      QMPE     H12A     HAL2     0.900000E-01   1.00800           0
     48132 MEMB     387      QMPE     H12B     HAL2     0.900000E-01   1.00800           0
     48133 MEMB     387      QMPE     C11      CTL2    -0.800000E-01   12.0110           0
     48134 MEMB     387      QMPE     H11A     HAL2     0.900000E-01   1.00800           0
     48135 MEMB     387      QMPE     H11B     HAL2     0.900000E-01   1.00800           0
     48136 MEMB     387      QMPE     P        PL        1.50000       30.9740           0
     48137 MEMB     387      QMPE     O13      O2L     -0.780000       15.9994           0
     48138 MEMB     387      QMPE     O14      O2L     -0.780000       15.9994           0
     48139 MEMB     387      QMPE     O11      OSLP    -0.570000       15.9994           0
     48140 MEMB     387      QMPE     O12      OSLP    -0.570000       15.9994           0
     48141 MEMB     387      QMPE     C1       CTL2    -0.800000E-01   12.0110           0
     48142 MEMB     387      QMPE     HA       HAL2     0.900000E-01   1.00800           0
     48143 MEMB     387      QMPE     HB       HAL2     0.900000E-01   1.00800           0
     48144 MEMB     387      QMPE     C2       CTL1     0.170000       12.0110           0
     48145 MEMB     387      QMPE     HS       HAL1     0.900000E-01   1.00800           0
     48146 MEMB     387      QMPE     O21      OSL     -0.490000       15.9994           0
     48147 MEMB     387      QMPE     C21      CL       0.900000       12.0110           0
     48148 MEMB     387      QMPE     O22      OBL     -0.630000       15.9994           0
     48149 MEMB     387      QMPE     C22      CTL2    -0.220000       12.0110           0
     48150 MEMB     387      QMPE     H2R      HAL2     0.900000E-01   1.00800           0
     48151 MEMB     387      QMPE     H2S      HAL2     0.900000E-01   1.00800           0
     48152 MEMB     387      QMPE     C3       CTL2     0.800000E-01   12.0110           0
     48153 MEMB     387      QMPE     HX       HAL2     0.900000E-01   1.00800           0
     48154 MEMB     387      QMPE     HY       HAL2     0.900000E-01   1.00800           0
     48155 MEMB     387      QMPE     O31      OSL     -0.490000       15.9994           0
     48156 MEMB     387      QMPE     C31      CL       0.900000       12.0110           0
     48157 MEMB     387      QMPE     O32      OBL     -0.630000       15.9994           0
     48158 MEMB     387      QMPE     C32      CTL2    -0.220000       12.0110           0
     48159 MEMB     387      QMPE     H2X      HAL2     0.900000E-01   1.00800           0
     48160 MEMB     387      QMPE     H2Y      HAL2     0.900000E-01   1.00800           0
     48161 MEMB     387      QMPE     C23      CTL2    -0.180000       12.0110           0
     48162 MEMB     387      QMPE     H3R      HAL2     0.900000E-01   1.00800           0
     48163 MEMB     387      QMPE     H3S      HAL2     0.900000E-01   1.00800           0
     48164 MEMB     387      QMPE     C24      CTL2    -0.180000       12.0110           0
     48165 MEMB     387      QMPE     H4R      HAL2     0.900000E-01   1.00800           0
     48166 MEMB     387      QMPE     H4S      HAL2     0.900000E-01   1.00800           0
     48167 MEMB     387      QMPE     C25      CTL2    -0.180000       12.0110           0
     48168 MEMB     387      QMPE     H5R      HAL2     0.900000E-01   1.00800           0
     48169 MEMB     387      QMPE     H5S      HAL2     0.900000E-01   1.00800           0
     48170 MEMB     387      QMPE     C26      CTL2    -0.180000       12.0110           0
     48171 MEMB     387      QMPE     H6R      HAL2     0.900000E-01   1.00800           0
     48172 MEMB     387      QMPE     H6S      HAL2     0.900000E-01   1.00800           0
     48173 MEMB     387      QMPE     C27      CTL2    -0.180000       12.0110           0
     48174 MEMB     387      QMPE     H7R      HAL2     0.900000E-01   1.00800           0
     48175 MEMB     387      QMPE     H7S      HAL2     0.900000E-01   1.00800           0
     48176 MEMB     387      QMPE     C28      CTL2    -0.180000       12.0110           0
     48177 MEMB     387      QMPE     H8R      HAL2     0.900000E-01   1.00800           0
     48178 MEMB     387      QMPE     H8S      HAL2     0.900000E-01   1.00800           0
     48179 MEMB     387      QMPE     C29      CG3RC1  -0.900000E-01   12.0110           0
     48180 MEMB     387      QMPE     H9R      HGA1     0.900000E-01   1.00800           0
     48181 MEMB     387      QMPE     C217     CG3C31  -0.180000       12.0110           0
     48182 MEMB     387      QMPE     H17R     HGA2     0.900000E-01   1.00800           0
     48183 MEMB     387      QMPE     H17S     HGA2     0.900000E-01   1.00800           0
     48184 MEMB     387      QMPE     C210     CG3RC1  -0.900000E-01   12.0110           0
     48185 MEMB     387      QMPE     H10R     HGA1     0.900000E-01   1.00800           0
     48186 MEMB     387      QMPE     C211     CTL2    -0.180000       12.0110           0
     48187 MEMB     387      QMPE     H11R     HAL2     0.900000E-01   1.00800           0
     48188 MEMB     387      QMPE     H11S     HAL2     0.900000E-01   1.00800           0
     48189 MEMB     387      QMPE     C212     CTL2    -0.180000       12.0110           0
     48190 MEMB     387      QMPE     H12R     HAL2     0.900000E-01   1.00800           0
     48191 MEMB     387      QMPE     H12S     HAL2     0.900000E-01   1.00800           0
     48192 MEMB     387      QMPE     C213     CTL2    -0.180000       12.0110           0
     48193 MEMB     387      QMPE     H13R     HAL2     0.900000E-01   1.00800           0
     48194 MEMB     387      QMPE     H13S     HAL2     0.900000E-01   1.00800           0
     48195 MEMB     387      QMPE     C214     CTL2    -0.180000       12.0110           0
     48196 MEMB     387      QMPE     H14R     HAL2     0.900000E-01   1.00800           0
     48197 MEMB     387      QMPE     H14S     HAL2     0.900000E-01   1.00800           0
     48198 MEMB     387      QMPE     C215     CTL2    -0.180000       12.0110           0
     48199 MEMB     387      QMPE     H15R     HAL2     0.900000E-01   1.00800           0
     48200 MEMB     387      QMPE     H15S     HAL2     0.900000E-01   1.00800           0
     48201 MEMB     387      QMPE     C216     CTL3    -0.270000       12.0110           0
     48202 MEMB     387      QMPE     H16R     HAL3     0.900000E-01   1.00800           0
     48203 MEMB     387      QMPE     H16S     HAL3     0.900000E-01   1.00800           0
     48204 MEMB     387      QMPE     H16T     HAL3     0.900000E-01   1.00800           0
     48205 MEMB     387      QMPE     C33      CTL2    -0.180000       12.0110           0
     48206 MEMB     387      QMPE     H3X      HAL2     0.900000E-01   1.00800           0
     48207 MEMB     387      QMPE     H3Y      HAL2     0.900000E-01   1.00800           0
     48208 MEMB     387      QMPE     C34      CTL2    -0.180000       12.0110           0
     48209 MEMB     387      QMPE     H4X      HAL2     0.900000E-01   1.00800           0
     48210 MEMB     387      QMPE     H4Y      HAL2     0.900000E-01   1.00800           0
     48211 MEMB     387      QMPE     C35      CTL2    -0.180000       12.0110           0
     48212 MEMB     387      QMPE     H5X      HAL2     0.900000E-01   1.00800           0
     48213 MEMB     387      QMPE     H5Y      HAL2     0.900000E-01   1.00800           0
     48214 MEMB     387      QMPE     C36      CTL2    -0.180000       12.0110           0
     48215 MEMB     387      QMPE     H6X      HAL2     0.900000E-01   1.00800           0
     48216 MEMB     387      QMPE     H6Y      HAL2     0.900000E-01   1.00800           0
     48217 MEMB     387      QMPE     C37      CTL2    -0.180000       12.0110           0
     48218 MEMB     387      QMPE     H7X      HAL2     0.900000E-01   1.00800           0
     48219 MEMB     387      QMPE     H7Y      HAL2     0.900000E-01   1.00800           0
     48220 MEMB     387      QMPE     C38      CTL2    -0.180000       12.0110           0
     48221 MEMB     387      QMPE     H8X      HAL2     0.900000E-01   1.00800           0
     48222 MEMB     387      QMPE     H8Y      HAL2     0.900000E-01   1.00800           0
     48223 MEMB     387      QMPE     C39      CTL2    -0.180000       12.0110           0
     48224 MEMB     387      QMPE     H9X      HAL2     0.900000E-01   1.00800           0
     48225 MEMB     387      QMPE     H9Y      HAL2     0.900000E-01   1.00800           0
     48226 MEMB     387      QMPE     C310     CTL2    -0.180000       12.0110           0
     48227 MEMB     387      QMPE     H10X     HAL2     0.900000E-01   1.00800           0
     48228 MEMB     387      QMPE     H10Y     HAL2     0.900000E-01   1.00800           0
     48229 MEMB     387      QMPE     C311     CTL2    -0.180000       12.0110           0
     48230 MEMB     387      QMPE     H11X     HAL2     0.900000E-01   1.00800           0
     48231 MEMB     387      QMPE     H11Y     HAL2     0.900000E-01   1.00800           0
     48232 MEMB     387      QMPE     C312     CTL2    -0.180000       12.0110           0
     48233 MEMB     387      QMPE     H12X     HAL2     0.900000E-01   1.00800           0
     48234 MEMB     387      QMPE     H12Y     HAL2     0.900000E-01   1.00800           0
     48235 MEMB     387      QMPE     C313     CTL2    -0.180000       12.0110           0
     48236 MEMB     387      QMPE     H13X     HAL2     0.900000E-01   1.00800           0
     48237 MEMB     387      QMPE     H13Y     HAL2     0.900000E-01   1.00800           0
     48238 MEMB     387      QMPE     C314     CTL2    -0.180000       12.0110           0
     48239 MEMB     387      QMPE     H14X     HAL2     0.900000E-01   1.00800           0
     48240 MEMB     387      QMPE     H14Y     HAL2     0.900000E-01   1.00800           0
     48241 MEMB     387      QMPE     C315     CTL3    -0.270000       12.0110           0
     48242 MEMB     387      QMPE     H15X     HAL3     0.900000E-01   1.00800           0
     48243 MEMB     387      QMPE     H15Y     HAL3     0.900000E-01   1.00800           0
     48244 MEMB     387      QMPE     H15Z     HAL3     0.900000E-01   1.00800           0
     48245 MEMB     388      PMPG     C13      CTL2     0.500000E-01   12.0110           0
     48246 MEMB     388      PMPG     H13A     HAL2     0.900000E-01   1.00800           0
     48247 MEMB     388      PMPG     H13B     HAL2     0.900000E-01   1.00800           0
     48248 MEMB     388      PMPG     OC3      OHL     -0.660000       15.9994           0
     48249 MEMB     388      PMPG     HO3      HOL      0.430000       1.00800           0
     48250 MEMB     388      PMPG     C12      CTL1     0.140000       12.0110           0
     48251 MEMB     388      PMPG     H12A     HAL1     0.900000E-01   1.00800           0
     48252 MEMB     388      PMPG     OC2      OHL     -0.660000       15.9994           0
     48253 MEMB     388      PMPG     HO2      HOL      0.430000       1.00800           0
     48254 MEMB     388      PMPG     C11      CTL2    -0.800000E-01   12.0110           0
     48255 MEMB     388      PMPG     H11A     HAL2     0.900000E-01   1.00800           0
     48256 MEMB     388      PMPG     H11B     HAL2     0.900000E-01   1.00800           0
     48257 MEMB     388      PMPG     P        PL        1.50000       30.9740           0
     48258 MEMB     388      PMPG     O13      O2L     -0.780000       15.9994           0
     48259 MEMB     388      PMPG     O14      O2L     -0.780000       15.9994           0
     48260 MEMB     388      PMPG     O11      OSLP    -0.570000       15.9994           0
     48261 MEMB     388      PMPG     O12      OSLP    -0.570000       15.9994           0
     48262 MEMB     388      PMPG     C1       CTL2    -0.800000E-01   12.0110           0
     48263 MEMB     388      PMPG     HA       HAL2     0.900000E-01   1.00800           0
     48264 MEMB     388      PMPG     HB       HAL2     0.900000E-01   1.00800           0
     48265 MEMB     388      PMPG     C2       CTL1     0.170000       12.0110           0
     48266 MEMB     388      PMPG     HS       HAL1     0.900000E-01   1.00800           0
     48267 MEMB     388      PMPG     O21      OSL     -0.490000       15.9994           0
     48268 MEMB     388      PMPG     C21      CL       0.900000       12.0110           0
     48269 MEMB     388      PMPG     O22      OBL     -0.630000       15.9994           0
     48270 MEMB     388      PMPG     C22      CTL2    -0.220000       12.0110           0
     48271 MEMB     388      PMPG     H2R      HAL2     0.900000E-01   1.00800           0
     48272 MEMB     388      PMPG     H2S      HAL2     0.900000E-01   1.00800           0
     48273 MEMB     388      PMPG     C3       CTL2     0.800000E-01   12.0110           0
     48274 MEMB     388      PMPG     HX       HAL2     0.900000E-01   1.00800           0
     48275 MEMB     388      PMPG     HY       HAL2     0.900000E-01   1.00800           0
     48276 MEMB     388      PMPG     O31      OSL     -0.490000       15.9994           0
     48277 MEMB     388      PMPG     C31      CL       0.900000       12.0110           0
     48278 MEMB     388      PMPG     O32      OBL     -0.630000       15.9994           0
     48279 MEMB     388      PMPG     C32      CTL2    -0.220000       12.0110           0
     48280 MEMB     388      PMPG     H2X      HAL2     0.900000E-01   1.00800           0
     48281 MEMB     388      PMPG     H2Y      HAL2     0.900000E-01   1.00800           0
     48282 MEMB     388      PMPG     C23      CTL2    -0.180000       12.0110           0
     48283 MEMB     388      PMPG     H3R      HAL2     0.900000E-01   1.00800           0
     48284 MEMB     388      PMPG     H3S      HAL2     0.900000E-01   1.00800           0
     48285 MEMB     388      PMPG     C24      CTL2    -0.180000       12.0110           0
     48286 MEMB     388      PMPG     H4R      HAL2     0.900000E-01   1.00800           0
     48287 MEMB     388      PMPG     H4S      HAL2     0.900000E-01   1.00800           0
     48288 MEMB     388      PMPG     C25      CTL2    -0.180000       12.0110           0
     48289 MEMB     388      PMPG     H5R      HAL2     0.900000E-01   1.00800           0
     48290 MEMB     388      PMPG     H5S      HAL2     0.900000E-01   1.00800           0
     48291 MEMB     388      PMPG     C26      CTL2    -0.180000       12.0110           0
     48292 MEMB     388      PMPG     H6R      HAL2     0.900000E-01   1.00800           0
     48293 MEMB     388      PMPG     H6S      HAL2     0.900000E-01   1.00800           0
     48294 MEMB     388      PMPG     C27      CTL2    -0.180000       12.0110           0
     48295 MEMB     388      PMPG     H7R      HAL2     0.900000E-01   1.00800           0
     48296 MEMB     388      PMPG     H7S      HAL2     0.900000E-01   1.00800           0
     48297 MEMB     388      PMPG     C28      CTL2    -0.180000       12.0110           0
     48298 MEMB     388      PMPG     H8R      HAL2     0.900000E-01   1.00800           0
     48299 MEMB     388      PMPG     H8S      HAL2     0.900000E-01   1.00800           0
     48300 MEMB     388      PMPG     C29      CG3RC1  -0.900000E-01   12.0110           0
     48301 MEMB     388      PMPG     H9R      HGA1     0.900000E-01   1.00800           0
     48302 MEMB     388      PMPG     C217     CG3C31  -0.180000       12.0110           0
     48303 MEMB     388      PMPG     H17R     HGA2     0.900000E-01   1.00800           0
     48304 MEMB     388      PMPG     H17S     HGA2     0.900000E-01   1.00800           0
     48305 MEMB     388      PMPG     C210     CG3RC1  -0.900000E-01   12.0110           0
     48306 MEMB     388      PMPG     H10R     HGA1     0.900000E-01   1.00800           0
     48307 MEMB     388      PMPG     C211     CTL2    -0.180000       12.0110           0
     48308 MEMB     388      PMPG     H11R     HAL2     0.900000E-01   1.00800           0
     48309 MEMB     388      PMPG     H11S     HAL2     0.900000E-01   1.00800           0
     48310 MEMB     388      PMPG     C212     CTL2    -0.180000       12.0110           0
     48311 MEMB     388      PMPG     H12R     HAL2     0.900000E-01   1.00800           0
     48312 MEMB     388      PMPG     H12S     HAL2     0.900000E-01   1.00800           0
     48313 MEMB     388      PMPG     C213     CTL2    -0.180000       12.0110           0
     48314 MEMB     388      PMPG     H13R     HAL2     0.900000E-01   1.00800           0
     48315 MEMB     388      PMPG     H13S     HAL2     0.900000E-01   1.00800           0
     48316 MEMB     388      PMPG     C214     CTL2    -0.180000       12.0110           0
     48317 MEMB     388      PMPG     H14R     HAL2     0.900000E-01   1.00800           0
     48318 MEMB     388      PMPG     H14S     HAL2     0.900000E-01   1.00800           0
     48319 MEMB     388      PMPG     C215     CTL2    -0.180000       12.0110           0
     48320 MEMB     388      PMPG     H15R     HAL2     0.900000E-01   1.00800           0
     48321 MEMB     388      PMPG     H15S     HAL2     0.900000E-01   1.00800           0
     48322 MEMB     388      PMPG     C216     CTL3    -0.270000       12.0110           0
     48323 MEMB     388      PMPG     H16R     HAL3     0.900000E-01   1.00800           0
     48324 MEMB     388      PMPG     H16S     HAL3     0.900000E-01   1.00800           0
     48325 MEMB     388      PMPG     H16T     HAL3     0.900000E-01   1.00800           0
     48326 MEMB     388      PMPG     C33      CTL2    -0.180000       12.0110           0
     48327 MEMB     388      PMPG     H3X      HAL2     0.900000E-01   1.00800           0
     48328 MEMB     388      PMPG     H3Y      HAL2     0.900000E-01   1.00800           0
     48329 MEMB     388      PMPG     C34      CTL2    -0.180000       12.0110           0
     48330 MEMB     388      PMPG     H4X      HAL2     0.900000E-01   1.00800           0
     48331 MEMB     388      PMPG     H4Y      HAL2     0.900000E-01   1.00800           0
     48332 MEMB     388      PMPG     C35      CTL2    -0.180000       12.0110           0
     48333 MEMB     388      PMPG     H5X      HAL2     0.900000E-01   1.00800           0
     48334 MEMB     388      PMPG     H5Y      HAL2     0.900000E-01   1.00800           0
     48335 MEMB     388      PMPG     C36      CTL2    -0.180000       12.0110           0
     48336 MEMB     388      PMPG     H6X      HAL2     0.900000E-01   1.00800           0
     48337 MEMB     388      PMPG     H6Y      HAL2     0.900000E-01   1.00800           0
     48338 MEMB     388      PMPG     C37      CTL2    -0.180000       12.0110           0
     48339 MEMB     388      PMPG     H7X      HAL2     0.900000E-01   1.00800           0
     48340 MEMB     388      PMPG     H7Y      HAL2     0.900000E-01   1.00800           0
     48341 MEMB     388      PMPG     C38      CTL2    -0.180000       12.0110           0
     48342 MEMB     388      PMPG     H8X      HAL2     0.900000E-01   1.00800           0
     48343 MEMB     388      PMPG     H8Y      HAL2     0.900000E-01   1.00800           0
     48344 MEMB     388      PMPG     C39      CTL2    -0.180000       12.0110           0
     48345 MEMB     388      PMPG     H9X      HAL2     0.900000E-01   1.00800           0
     48346 MEMB     388      PMPG     H9Y      HAL2     0.900000E-01   1.00800           0
     48347 MEMB     388      PMPG     C310     CTL2    -0.180000       12.0110           0
     48348 MEMB     388      PMPG     H10X     HAL2     0.900000E-01   1.00800           0
     48349 MEMB     388      PMPG     H10Y     HAL2     0.900000E-01   1.00800           0
     48350 MEMB     388      PMPG     C311     CTL2    -0.180000       12.0110           0
     48351 MEMB     388      PMPG     H11X     HAL2     0.900000E-01   1.00800           0
     48352 MEMB     388      PMPG     H11Y     HAL2     0.900000E-01   1.00800           0
     48353 MEMB     388      PMPG     C312     CTL2    -0.180000       12.0110           0
     48354 MEMB     388      PMPG     H12X     HAL2     0.900000E-01   1.00800           0
     48355 MEMB     388      PMPG     H12Y     HAL2     0.900000E-01   1.00800           0
     48356 MEMB     388      PMPG     C313     CTL2    -0.180000       12.0110           0
     48357 MEMB     388      PMPG     H13X     HAL2     0.900000E-01   1.00800           0
     48358 MEMB     388      PMPG     H13Y     HAL2     0.900000E-01   1.00800           0
     48359 MEMB     388      PMPG     C314     CTL2    -0.180000       12.0110           0
     48360 MEMB     388      PMPG     H14X     HAL2     0.900000E-01   1.00800           0
     48361 MEMB     388      PMPG     H14Y     HAL2     0.900000E-01   1.00800           0
     48362 MEMB     388      PMPG     C315     CTL2    -0.180000       12.0110           0
     48363 MEMB     388      PMPG     H15X     HAL2     0.900000E-01   1.00800           0
     48364 MEMB     388      PMPG     H15Y     HAL2     0.900000E-01   1.00800           0
     48365 MEMB     388      PMPG     C316     CTL3    -0.270000       12.0110           0
     48366 MEMB     388      PMPG     H16X     HAL3     0.900000E-01   1.00800           0
     48367 MEMB     388      PMPG     H16Y     HAL3     0.900000E-01   1.00800           0
     48368 MEMB     388      PMPG     H16Z     HAL3     0.900000E-01   1.00800           0
     48369 MEMB     389      PMPG     C13      CTL2     0.500000E-01   12.0110           0
     48370 MEMB     389      PMPG     H13A     HAL2     0.900000E-01   1.00800           0
     48371 MEMB     389      PMPG     H13B     HAL2     0.900000E-01   1.00800           0
     48372 MEMB     389      PMPG     OC3      OHL     -0.660000       15.9994           0
     48373 MEMB     389      PMPG     HO3      HOL      0.430000       1.00800           0
     48374 MEMB     389      PMPG     C12      CTL1     0.140000       12.0110           0
     48375 MEMB     389      PMPG     H12A     HAL1     0.900000E-01   1.00800           0
     48376 MEMB     389      PMPG     OC2      OHL     -0.660000       15.9994           0
     48377 MEMB     389      PMPG     HO2      HOL      0.430000       1.00800           0
     48378 MEMB     389      PMPG     C11      CTL2    -0.800000E-01   12.0110           0
     48379 MEMB     389      PMPG     H11A     HAL2     0.900000E-01   1.00800           0
     48380 MEMB     389      PMPG     H11B     HAL2     0.900000E-01   1.00800           0
     48381 MEMB     389      PMPG     P        PL        1.50000       30.9740           0
     48382 MEMB     389      PMPG     O13      O2L     -0.780000       15.9994           0
     48383 MEMB     389      PMPG     O14      O2L     -0.780000       15.9994           0
     48384 MEMB     389      PMPG     O11      OSLP    -0.570000       15.9994           0
     48385 MEMB     389      PMPG     O12      OSLP    -0.570000       15.9994           0
     48386 MEMB     389      PMPG     C1       CTL2    -0.800000E-01   12.0110           0
     48387 MEMB     389      PMPG     HA       HAL2     0.900000E-01   1.00800           0
     48388 MEMB     389      PMPG     HB       HAL2     0.900000E-01   1.00800           0
     48389 MEMB     389      PMPG     C2       CTL1     0.170000       12.0110           0
     48390 MEMB     389      PMPG     HS       HAL1     0.900000E-01   1.00800           0
     48391 MEMB     389      PMPG     O21      OSL     -0.490000       15.9994           0
     48392 MEMB     389      PMPG     C21      CL       0.900000       12.0110           0
     48393 MEMB     389      PMPG     O22      OBL     -0.630000       15.9994           0
     48394 MEMB     389      PMPG     C22      CTL2    -0.220000       12.0110           0
     48395 MEMB     389      PMPG     H2R      HAL2     0.900000E-01   1.00800           0
     48396 MEMB     389      PMPG     H2S      HAL2     0.900000E-01   1.00800           0
     48397 MEMB     389      PMPG     C3       CTL2     0.800000E-01   12.0110           0
     48398 MEMB     389      PMPG     HX       HAL2     0.900000E-01   1.00800           0
     48399 MEMB     389      PMPG     HY       HAL2     0.900000E-01   1.00800           0
     48400 MEMB     389      PMPG     O31      OSL     -0.490000       15.9994           0
     48401 MEMB     389      PMPG     C31      CL       0.900000       12.0110           0
     48402 MEMB     389      PMPG     O32      OBL     -0.630000       15.9994           0
     48403 MEMB     389      PMPG     C32      CTL2    -0.220000       12.0110           0
     48404 MEMB     389      PMPG     H2X      HAL2     0.900000E-01   1.00800           0
     48405 MEMB     389      PMPG     H2Y      HAL2     0.900000E-01   1.00800           0
     48406 MEMB     389      PMPG     C23      CTL2    -0.180000       12.0110           0
     48407 MEMB     389      PMPG     H3R      HAL2     0.900000E-01   1.00800           0
     48408 MEMB     389      PMPG     H3S      HAL2     0.900000E-01   1.00800           0
     48409 MEMB     389      PMPG     C24      CTL2    -0.180000       12.0110           0
     48410 MEMB     389      PMPG     H4R      HAL2     0.900000E-01   1.00800           0
     48411 MEMB     389      PMPG     H4S      HAL2     0.900000E-01   1.00800           0
     48412 MEMB     389      PMPG     C25      CTL2    -0.180000       12.0110           0
     48413 MEMB     389      PMPG     H5R      HAL2     0.900000E-01   1.00800           0
     48414 MEMB     389      PMPG     H5S      HAL2     0.900000E-01   1.00800           0
     48415 MEMB     389      PMPG     C26      CTL2    -0.180000       12.0110           0
     48416 MEMB     389      PMPG     H6R      HAL2     0.900000E-01   1.00800           0
     48417 MEMB     389      PMPG     H6S      HAL2     0.900000E-01   1.00800           0
     48418 MEMB     389      PMPG     C27      CTL2    -0.180000       12.0110           0
     48419 MEMB     389      PMPG     H7R      HAL2     0.900000E-01   1.00800           0
     48420 MEMB     389      PMPG     H7S      HAL2     0.900000E-01   1.00800           0
     48421 MEMB     389      PMPG     C28      CTL2    -0.180000       12.0110           0
     48422 MEMB     389      PMPG     H8R      HAL2     0.900000E-01   1.00800           0
     48423 MEMB     389      PMPG     H8S      HAL2     0.900000E-01   1.00800           0
     48424 MEMB     389      PMPG     C29      CG3RC1  -0.900000E-01   12.0110           0
     48425 MEMB     389      PMPG     H9R      HGA1     0.900000E-01   1.00800           0
     48426 MEMB     389      PMPG     C217     CG3C31  -0.180000       12.0110           0
     48427 MEMB     389      PMPG     H17R     HGA2     0.900000E-01   1.00800           0
     48428 MEMB     389      PMPG     H17S     HGA2     0.900000E-01   1.00800           0
     48429 MEMB     389      PMPG     C210     CG3RC1  -0.900000E-01   12.0110           0
     48430 MEMB     389      PMPG     H10R     HGA1     0.900000E-01   1.00800           0
     48431 MEMB     389      PMPG     C211     CTL2    -0.180000       12.0110           0
     48432 MEMB     389      PMPG     H11R     HAL2     0.900000E-01   1.00800           0
     48433 MEMB     389      PMPG     H11S     HAL2     0.900000E-01   1.00800           0
     48434 MEMB     389      PMPG     C212     CTL2    -0.180000       12.0110           0
     48435 MEMB     389      PMPG     H12R     HAL2     0.900000E-01   1.00800           0
     48436 MEMB     389      PMPG     H12S     HAL2     0.900000E-01   1.00800           0
     48437 MEMB     389      PMPG     C213     CTL2    -0.180000       12.0110           0
     48438 MEMB     389      PMPG     H13R     HAL2     0.900000E-01   1.00800           0
     48439 MEMB     389      PMPG     H13S     HAL2     0.900000E-01   1.00800           0
     48440 MEMB     389      PMPG     C214     CTL2    -0.180000       12.0110           0
     48441 MEMB     389      PMPG     H14R     HAL2     0.900000E-01   1.00800           0
     48442 MEMB     389      PMPG     H14S     HAL2     0.900000E-01   1.00800           0
     48443 MEMB     389      PMPG     C215     CTL2    -0.180000       12.0110           0
     48444 MEMB     389      PMPG     H15R     HAL2     0.900000E-01   1.00800           0
     48445 MEMB     389      PMPG     H15S     HAL2     0.900000E-01   1.00800           0
     48446 MEMB     389      PMPG     C216     CTL3    -0.270000       12.0110           0
     48447 MEMB     389      PMPG     H16R     HAL3     0.900000E-01   1.00800           0
     48448 MEMB     389      PMPG     H16S     HAL3     0.900000E-01   1.00800           0
     48449 MEMB     389      PMPG     H16T     HAL3     0.900000E-01   1.00800           0
     48450 MEMB     389      PMPG     C33      CTL2    -0.180000       12.0110           0
     48451 MEMB     389      PMPG     H3X      HAL2     0.900000E-01   1.00800           0
     48452 MEMB     389      PMPG     H3Y      HAL2     0.900000E-01   1.00800           0
     48453 MEMB     389      PMPG     C34      CTL2    -0.180000       12.0110           0
     48454 MEMB     389      PMPG     H4X      HAL2     0.900000E-01   1.00800           0
     48455 MEMB     389      PMPG     H4Y      HAL2     0.900000E-01   1.00800           0
     48456 MEMB     389      PMPG     C35      CTL2    -0.180000       12.0110           0
     48457 MEMB     389      PMPG     H5X      HAL2     0.900000E-01   1.00800           0
     48458 MEMB     389      PMPG     H5Y      HAL2     0.900000E-01   1.00800           0
     48459 MEMB     389      PMPG     C36      CTL2    -0.180000       12.0110           0
     48460 MEMB     389      PMPG     H6X      HAL2     0.900000E-01   1.00800           0
     48461 MEMB     389      PMPG     H6Y      HAL2     0.900000E-01   1.00800           0
     48462 MEMB     389      PMPG     C37      CTL2    -0.180000       12.0110           0
     48463 MEMB     389      PMPG     H7X      HAL2     0.900000E-01   1.00800           0
     48464 MEMB     389      PMPG     H7Y      HAL2     0.900000E-01   1.00800           0
     48465 MEMB     389      PMPG     C38      CTL2    -0.180000       12.0110           0
     48466 MEMB     389      PMPG     H8X      HAL2     0.900000E-01   1.00800           0
     48467 MEMB     389      PMPG     H8Y      HAL2     0.900000E-01   1.00800           0
     48468 MEMB     389      PMPG     C39      CTL2    -0.180000       12.0110           0
     48469 MEMB     389      PMPG     H9X      HAL2     0.900000E-01   1.00800           0
     48470 MEMB     389      PMPG     H9Y      HAL2     0.900000E-01   1.00800           0
     48471 MEMB     389      PMPG     C310     CTL2    -0.180000       12.0110           0
     48472 MEMB     389      PMPG     H10X     HAL2     0.900000E-01   1.00800           0
     48473 MEMB     389      PMPG     H10Y     HAL2     0.900000E-01   1.00800           0
     48474 MEMB     389      PMPG     C311     CTL2    -0.180000       12.0110           0
     48475 MEMB     389      PMPG     H11X     HAL2     0.900000E-01   1.00800           0
     48476 MEMB     389      PMPG     H11Y     HAL2     0.900000E-01   1.00800           0
     48477 MEMB     389      PMPG     C312     CTL2    -0.180000       12.0110           0
     48478 MEMB     389      PMPG     H12X     HAL2     0.900000E-01   1.00800           0
     48479 MEMB     389      PMPG     H12Y     HAL2     0.900000E-01   1.00800           0
     48480 MEMB     389      PMPG     C313     CTL2    -0.180000       12.0110           0
     48481 MEMB     389      PMPG     H13X     HAL2     0.900000E-01   1.00800           0
     48482 MEMB     389      PMPG     H13Y     HAL2     0.900000E-01   1.00800           0
     48483 MEMB     389      PMPG     C314     CTL2    -0.180000       12.0110           0
     48484 MEMB     389      PMPG     H14X     HAL2     0.900000E-01   1.00800           0
     48485 MEMB     389      PMPG     H14Y     HAL2     0.900000E-01   1.00800           0
     48486 MEMB     389      PMPG     C315     CTL2    -0.180000       12.0110           0
     48487 MEMB     389      PMPG     H15X     HAL2     0.900000E-01   1.00800           0
     48488 MEMB     389      PMPG     H15Y     HAL2     0.900000E-01   1.00800           0
     48489 MEMB     389      PMPG     C316     CTL3    -0.270000       12.0110           0
     48490 MEMB     389      PMPG     H16X     HAL3     0.900000E-01   1.00800           0
     48491 MEMB     389      PMPG     H16Y     HAL3     0.900000E-01   1.00800           0
     48492 MEMB     389      PMPG     H16Z     HAL3     0.900000E-01   1.00800           0
     48493 MEMB     390      PMPG     C13      CTL2     0.500000E-01   12.0110           0
     48494 MEMB     390      PMPG     H13A     HAL2     0.900000E-01   1.00800           0
     48495 MEMB     390      PMPG     H13B     HAL2     0.900000E-01   1.00800           0
     48496 MEMB     390      PMPG     OC3      OHL     -0.660000       15.9994           0
     48497 MEMB     390      PMPG     HO3      HOL      0.430000       1.00800           0
     48498 MEMB     390      PMPG     C12      CTL1     0.140000       12.0110           0
     48499 MEMB     390      PMPG     H12A     HAL1     0.900000E-01   1.00800           0
     48500 MEMB     390      PMPG     OC2      OHL     -0.660000       15.9994           0
     48501 MEMB     390      PMPG     HO2      HOL      0.430000       1.00800           0
     48502 MEMB     390      PMPG     C11      CTL2    -0.800000E-01   12.0110           0
     48503 MEMB     390      PMPG     H11A     HAL2     0.900000E-01   1.00800           0
     48504 MEMB     390      PMPG     H11B     HAL2     0.900000E-01   1.00800           0
     48505 MEMB     390      PMPG     P        PL        1.50000       30.9740           0
     48506 MEMB     390      PMPG     O13      O2L     -0.780000       15.9994           0
     48507 MEMB     390      PMPG     O14      O2L     -0.780000       15.9994           0
     48508 MEMB     390      PMPG     O11      OSLP    -0.570000       15.9994           0
     48509 MEMB     390      PMPG     O12      OSLP    -0.570000       15.9994           0
     48510 MEMB     390      PMPG     C1       CTL2    -0.800000E-01   12.0110           0
     48511 MEMB     390      PMPG     HA       HAL2     0.900000E-01   1.00800           0
     48512 MEMB     390      PMPG     HB       HAL2     0.900000E-01   1.00800           0
     48513 MEMB     390      PMPG     C2       CTL1     0.170000       12.0110           0
     48514 MEMB     390      PMPG     HS       HAL1     0.900000E-01   1.00800           0
     48515 MEMB     390      PMPG     O21      OSL     -0.490000       15.9994           0
     48516 MEMB     390      PMPG     C21      CL       0.900000       12.0110           0
     48517 MEMB     390      PMPG     O22      OBL     -0.630000       15.9994           0
     48518 MEMB     390      PMPG     C22      CTL2    -0.220000       12.0110           0
     48519 MEMB     390      PMPG     H2R      HAL2     0.900000E-01   1.00800           0
     48520 MEMB     390      PMPG     H2S      HAL2     0.900000E-01   1.00800           0
     48521 MEMB     390      PMPG     C3       CTL2     0.800000E-01   12.0110           0
     48522 MEMB     390      PMPG     HX       HAL2     0.900000E-01   1.00800           0
     48523 MEMB     390      PMPG     HY       HAL2     0.900000E-01   1.00800           0
     48524 MEMB     390      PMPG     O31      OSL     -0.490000       15.9994           0
     48525 MEMB     390      PMPG     C31      CL       0.900000       12.0110           0
     48526 MEMB     390      PMPG     O32      OBL     -0.630000       15.9994           0
     48527 MEMB     390      PMPG     C32      CTL2    -0.220000       12.0110           0
     48528 MEMB     390      PMPG     H2X      HAL2     0.900000E-01   1.00800           0
     48529 MEMB     390      PMPG     H2Y      HAL2     0.900000E-01   1.00800           0
     48530 MEMB     390      PMPG     C23      CTL2    -0.180000       12.0110           0
     48531 MEMB     390      PMPG     H3R      HAL2     0.900000E-01   1.00800           0
     48532 MEMB     390      PMPG     H3S      HAL2     0.900000E-01   1.00800           0
     48533 MEMB     390      PMPG     C24      CTL2    -0.180000       12.0110           0
     48534 MEMB     390      PMPG     H4R      HAL2     0.900000E-01   1.00800           0
     48535 MEMB     390      PMPG     H4S      HAL2     0.900000E-01   1.00800           0
     48536 MEMB     390      PMPG     C25      CTL2    -0.180000       12.0110           0
     48537 MEMB     390      PMPG     H5R      HAL2     0.900000E-01   1.00800           0
     48538 MEMB     390      PMPG     H5S      HAL2     0.900000E-01   1.00800           0
     48539 MEMB     390      PMPG     C26      CTL2    -0.180000       12.0110           0
     48540 MEMB     390      PMPG     H6R      HAL2     0.900000E-01   1.00800           0
     48541 MEMB     390      PMPG     H6S      HAL2     0.900000E-01   1.00800           0
     48542 MEMB     390      PMPG     C27      CTL2    -0.180000       12.0110           0
     48543 MEMB     390      PMPG     H7R      HAL2     0.900000E-01   1.00800           0
     48544 MEMB     390      PMPG     H7S      HAL2     0.900000E-01   1.00800           0
     48545 MEMB     390      PMPG     C28      CTL2    -0.180000       12.0110           0
     48546 MEMB     390      PMPG     H8R      HAL2     0.900000E-01   1.00800           0
     48547 MEMB     390      PMPG     H8S      HAL2     0.900000E-01   1.00800           0
     48548 MEMB     390      PMPG     C29      CG3RC1  -0.900000E-01   12.0110           0
     48549 MEMB     390      PMPG     H9R      HGA1     0.900000E-01   1.00800           0
     48550 MEMB     390      PMPG     C217     CG3C31  -0.180000       12.0110           0
     48551 MEMB     390      PMPG     H17R     HGA2     0.900000E-01   1.00800           0
     48552 MEMB     390      PMPG     H17S     HGA2     0.900000E-01   1.00800           0
     48553 MEMB     390      PMPG     C210     CG3RC1  -0.900000E-01   12.0110           0
     48554 MEMB     390      PMPG     H10R     HGA1     0.900000E-01   1.00800           0
     48555 MEMB     390      PMPG     C211     CTL2    -0.180000       12.0110           0
     48556 MEMB     390      PMPG     H11R     HAL2     0.900000E-01   1.00800           0
     48557 MEMB     390      PMPG     H11S     HAL2     0.900000E-01   1.00800           0
     48558 MEMB     390      PMPG     C212     CTL2    -0.180000       12.0110           0
     48559 MEMB     390      PMPG     H12R     HAL2     0.900000E-01   1.00800           0
     48560 MEMB     390      PMPG     H12S     HAL2     0.900000E-01   1.00800           0
     48561 MEMB     390      PMPG     C213     CTL2    -0.180000       12.0110           0
     48562 MEMB     390      PMPG     H13R     HAL2     0.900000E-01   1.00800           0
     48563 MEMB     390      PMPG     H13S     HAL2     0.900000E-01   1.00800           0
     48564 MEMB     390      PMPG     C214     CTL2    -0.180000       12.0110           0
     48565 MEMB     390      PMPG     H14R     HAL2     0.900000E-01   1.00800           0
     48566 MEMB     390      PMPG     H14S     HAL2     0.900000E-01   1.00800           0
     48567 MEMB     390      PMPG     C215     CTL2    -0.180000       12.0110           0
     48568 MEMB     390      PMPG     H15R     HAL2     0.900000E-01   1.00800           0
     48569 MEMB     390      PMPG     H15S     HAL2     0.900000E-01   1.00800           0
     48570 MEMB     390      PMPG     C216     CTL3    -0.270000       12.0110           0
     48571 MEMB     390      PMPG     H16R     HAL3     0.900000E-01   1.00800           0
     48572 MEMB     390      PMPG     H16S     HAL3     0.900000E-01   1.00800           0
     48573 MEMB     390      PMPG     H16T     HAL3     0.900000E-01   1.00800           0
     48574 MEMB     390      PMPG     C33      CTL2    -0.180000       12.0110           0
     48575 MEMB     390      PMPG     H3X      HAL2     0.900000E-01   1.00800           0
     48576 MEMB     390      PMPG     H3Y      HAL2     0.900000E-01   1.00800           0
     48577 MEMB     390      PMPG     C34      CTL2    -0.180000       12.0110           0
     48578 MEMB     390      PMPG     H4X      HAL2     0.900000E-01   1.00800           0
     48579 MEMB     390      PMPG     H4Y      HAL2     0.900000E-01   1.00800           0
     48580 MEMB     390      PMPG     C35      CTL2    -0.180000       12.0110           0
     48581 MEMB     390      PMPG     H5X      HAL2     0.900000E-01   1.00800           0
     48582 MEMB     390      PMPG     H5Y      HAL2     0.900000E-01   1.00800           0
     48583 MEMB     390      PMPG     C36      CTL2    -0.180000       12.0110           0
     48584 MEMB     390      PMPG     H6X      HAL2     0.900000E-01   1.00800           0
     48585 MEMB     390      PMPG     H6Y      HAL2     0.900000E-01   1.00800           0
     48586 MEMB     390      PMPG     C37      CTL2    -0.180000       12.0110           0
     48587 MEMB     390      PMPG     H7X      HAL2     0.900000E-01   1.00800           0
     48588 MEMB     390      PMPG     H7Y      HAL2     0.900000E-01   1.00800           0
     48589 MEMB     390      PMPG     C38      CTL2    -0.180000       12.0110           0
     48590 MEMB     390      PMPG     H8X      HAL2     0.900000E-01   1.00800           0
     48591 MEMB     390      PMPG     H8Y      HAL2     0.900000E-01   1.00800           0
     48592 MEMB     390      PMPG     C39      CTL2    -0.180000       12.0110           0
     48593 MEMB     390      PMPG     H9X      HAL2     0.900000E-01   1.00800           0
     48594 MEMB     390      PMPG     H9Y      HAL2     0.900000E-01   1.00800           0
     48595 MEMB     390      PMPG     C310     CTL2    -0.180000       12.0110           0
     48596 MEMB     390      PMPG     H10X     HAL2     0.900000E-01   1.00800           0
     48597 MEMB     390      PMPG     H10Y     HAL2     0.900000E-01   1.00800           0
     48598 MEMB     390      PMPG     C311     CTL2    -0.180000       12.0110           0
     48599 MEMB     390      PMPG     H11X     HAL2     0.900000E-01   1.00800           0
     48600 MEMB     390      PMPG     H11Y     HAL2     0.900000E-01   1.00800           0
     48601 MEMB     390      PMPG     C312     CTL2    -0.180000       12.0110           0
     48602 MEMB     390      PMPG     H12X     HAL2     0.900000E-01   1.00800           0
     48603 MEMB     390      PMPG     H12Y     HAL2     0.900000E-01   1.00800           0
     48604 MEMB     390      PMPG     C313     CTL2    -0.180000       12.0110           0
     48605 MEMB     390      PMPG     H13X     HAL2     0.900000E-01   1.00800           0
     48606 MEMB     390      PMPG     H13Y     HAL2     0.900000E-01   1.00800           0
     48607 MEMB     390      PMPG     C314     CTL2    -0.180000       12.0110           0
     48608 MEMB     390      PMPG     H14X     HAL2     0.900000E-01   1.00800           0
     48609 MEMB     390      PMPG     H14Y     HAL2     0.900000E-01   1.00800           0
     48610 MEMB     390      PMPG     C315     CTL2    -0.180000       12.0110           0
     48611 MEMB     390      PMPG     H15X     HAL2     0.900000E-01   1.00800           0
     48612 MEMB     390      PMPG     H15Y     HAL2     0.900000E-01   1.00800           0
     48613 MEMB     390      PMPG     C316     CTL3    -0.270000       12.0110           0
     48614 MEMB     390      PMPG     H16X     HAL3     0.900000E-01   1.00800           0
     48615 MEMB     390      PMPG     H16Y     HAL3     0.900000E-01   1.00800           0
     48616 MEMB     390      PMPG     H16Z     HAL3     0.900000E-01   1.00800           0
     48617 MEMB     391      PMPE     N        NH3L    -0.300000       14.0070           0
     48618 MEMB     391      PMPE     HN1      HCL      0.330000       1.00800           0
     48619 MEMB     391      PMPE     HN2      HCL      0.330000       1.00800           0
     48620 MEMB     391      PMPE     HN3      HCL      0.330000       1.00800           0
     48621 MEMB     391      PMPE     C12      CTL2     0.130000       12.0110           0
     48622 MEMB     391      PMPE     H12A     HAL2     0.900000E-01   1.00800           0
     48623 MEMB     391      PMPE     H12B     HAL2     0.900000E-01   1.00800           0
     48624 MEMB     391      PMPE     C11      CTL2    -0.800000E-01   12.0110           0
     48625 MEMB     391      PMPE     H11A     HAL2     0.900000E-01   1.00800           0
     48626 MEMB     391      PMPE     H11B     HAL2     0.900000E-01   1.00800           0
     48627 MEMB     391      PMPE     P        PL        1.50000       30.9740           0
     48628 MEMB     391      PMPE     O13      O2L     -0.780000       15.9994           0
     48629 MEMB     391      PMPE     O14      O2L     -0.780000       15.9994           0
     48630 MEMB     391      PMPE     O11      OSLP    -0.570000       15.9994           0
     48631 MEMB     391      PMPE     O12      OSLP    -0.570000       15.9994           0
     48632 MEMB     391      PMPE     C1       CTL2    -0.800000E-01   12.0110           0
     48633 MEMB     391      PMPE     HA       HAL2     0.900000E-01   1.00800           0
     48634 MEMB     391      PMPE     HB       HAL2     0.900000E-01   1.00800           0
     48635 MEMB     391      PMPE     C2       CTL1     0.170000       12.0110           0
     48636 MEMB     391      PMPE     HS       HAL1     0.900000E-01   1.00800           0
     48637 MEMB     391      PMPE     O21      OSL     -0.490000       15.9994           0
     48638 MEMB     391      PMPE     C21      CL       0.900000       12.0110           0
     48639 MEMB     391      PMPE     O22      OBL     -0.630000       15.9994           0
     48640 MEMB     391      PMPE     C22      CTL2    -0.220000       12.0110           0
     48641 MEMB     391      PMPE     H2R      HAL2     0.900000E-01   1.00800           0
     48642 MEMB     391      PMPE     H2S      HAL2     0.900000E-01   1.00800           0
     48643 MEMB     391      PMPE     C3       CTL2     0.800000E-01   12.0110           0
     48644 MEMB     391      PMPE     HX       HAL2     0.900000E-01   1.00800           0
     48645 MEMB     391      PMPE     HY       HAL2     0.900000E-01   1.00800           0
     48646 MEMB     391      PMPE     O31      OSL     -0.490000       15.9994           0
     48647 MEMB     391      PMPE     C31      CL       0.900000       12.0110           0
     48648 MEMB     391      PMPE     O32      OBL     -0.630000       15.9994           0
     48649 MEMB     391      PMPE     C32      CTL2    -0.220000       12.0110           0
     48650 MEMB     391      PMPE     H2X      HAL2     0.900000E-01   1.00800           0
     48651 MEMB     391      PMPE     H2Y      HAL2     0.900000E-01   1.00800           0
     48652 MEMB     391      PMPE     C23      CTL2    -0.180000       12.0110           0
     48653 MEMB     391      PMPE     H3R      HAL2     0.900000E-01   1.00800           0
     48654 MEMB     391      PMPE     H3S      HAL2     0.900000E-01   1.00800           0
     48655 MEMB     391      PMPE     C24      CTL2    -0.180000       12.0110           0
     48656 MEMB     391      PMPE     H4R      HAL2     0.900000E-01   1.00800           0
     48657 MEMB     391      PMPE     H4S      HAL2     0.900000E-01   1.00800           0
     48658 MEMB     391      PMPE     C25      CTL2    -0.180000       12.0110           0
     48659 MEMB     391      PMPE     H5R      HAL2     0.900000E-01   1.00800           0
     48660 MEMB     391      PMPE     H5S      HAL2     0.900000E-01   1.00800           0
     48661 MEMB     391      PMPE     C26      CTL2    -0.180000       12.0110           0
     48662 MEMB     391      PMPE     H6R      HAL2     0.900000E-01   1.00800           0
     48663 MEMB     391      PMPE     H6S      HAL2     0.900000E-01   1.00800           0
     48664 MEMB     391      PMPE     C27      CTL2    -0.180000       12.0110           0
     48665 MEMB     391      PMPE     H7R      HAL2     0.900000E-01   1.00800           0
     48666 MEMB     391      PMPE     H7S      HAL2     0.900000E-01   1.00800           0
     48667 MEMB     391      PMPE     C28      CTL2    -0.180000       12.0110           0
     48668 MEMB     391      PMPE     H8R      HAL2     0.900000E-01   1.00800           0
     48669 MEMB     391      PMPE     H8S      HAL2     0.900000E-01   1.00800           0
     48670 MEMB     391      PMPE     C29      CG3RC1  -0.900000E-01   12.0110           0
     48671 MEMB     391      PMPE     H9R      HGA1     0.900000E-01   1.00800           0
     48672 MEMB     391      PMPE     C217     CG3C31  -0.180000       12.0110           0
     48673 MEMB     391      PMPE     H17R     HGA2     0.900000E-01   1.00800           0
     48674 MEMB     391      PMPE     H17S     HGA2     0.900000E-01   1.00800           0
     48675 MEMB     391      PMPE     C210     CG3RC1  -0.900000E-01   12.0110           0
     48676 MEMB     391      PMPE     H10R     HGA1     0.900000E-01   1.00800           0
     48677 MEMB     391      PMPE     C211     CTL2    -0.180000       12.0110           0
     48678 MEMB     391      PMPE     H11R     HAL2     0.900000E-01   1.00800           0
     48679 MEMB     391      PMPE     H11S     HAL2     0.900000E-01   1.00800           0
     48680 MEMB     391      PMPE     C212     CTL2    -0.180000       12.0110           0
     48681 MEMB     391      PMPE     H12R     HAL2     0.900000E-01   1.00800           0
     48682 MEMB     391      PMPE     H12S     HAL2     0.900000E-01   1.00800           0
     48683 MEMB     391      PMPE     C213     CTL2    -0.180000       12.0110           0
     48684 MEMB     391      PMPE     H13R     HAL2     0.900000E-01   1.00800           0
     48685 MEMB     391      PMPE     H13S     HAL2     0.900000E-01   1.00800           0
     48686 MEMB     391      PMPE     C214     CTL2    -0.180000       12.0110           0
     48687 MEMB     391      PMPE     H14R     HAL2     0.900000E-01   1.00800           0
     48688 MEMB     391      PMPE     H14S     HAL2     0.900000E-01   1.00800           0
     48689 MEMB     391      PMPE     C215     CTL2    -0.180000       12.0110           0
     48690 MEMB     391      PMPE     H15R     HAL2     0.900000E-01   1.00800           0
     48691 MEMB     391      PMPE     H15S     HAL2     0.900000E-01   1.00800           0
     48692 MEMB     391      PMPE     C216     CTL3    -0.270000       12.0110           0
     48693 MEMB     391      PMPE     H16R     HAL3     0.900000E-01   1.00800           0
     48694 MEMB     391      PMPE     H16S     HAL3     0.900000E-01   1.00800           0
     48695 MEMB     391      PMPE     H16T     HAL3     0.900000E-01   1.00800           0
     48696 MEMB     391      PMPE     C33      CTL2    -0.180000       12.0110           0
     48697 MEMB     391      PMPE     H3X      HAL2     0.900000E-01   1.00800           0
     48698 MEMB     391      PMPE     H3Y      HAL2     0.900000E-01   1.00800           0
     48699 MEMB     391      PMPE     C34      CTL2    -0.180000       12.0110           0
     48700 MEMB     391      PMPE     H4X      HAL2     0.900000E-01   1.00800           0
     48701 MEMB     391      PMPE     H4Y      HAL2     0.900000E-01   1.00800           0
     48702 MEMB     391      PMPE     C35      CTL2    -0.180000       12.0110           0
     48703 MEMB     391      PMPE     H5X      HAL2     0.900000E-01   1.00800           0
     48704 MEMB     391      PMPE     H5Y      HAL2     0.900000E-01   1.00800           0
     48705 MEMB     391      PMPE     C36      CTL2    -0.180000       12.0110           0
     48706 MEMB     391      PMPE     H6X      HAL2     0.900000E-01   1.00800           0
     48707 MEMB     391      PMPE     H6Y      HAL2     0.900000E-01   1.00800           0
     48708 MEMB     391      PMPE     C37      CTL2    -0.180000       12.0110           0
     48709 MEMB     391      PMPE     H7X      HAL2     0.900000E-01   1.00800           0
     48710 MEMB     391      PMPE     H7Y      HAL2     0.900000E-01   1.00800           0
     48711 MEMB     391      PMPE     C38      CTL2    -0.180000       12.0110           0
     48712 MEMB     391      PMPE     H8X      HAL2     0.900000E-01   1.00800           0
     48713 MEMB     391      PMPE     H8Y      HAL2     0.900000E-01   1.00800           0
     48714 MEMB     391      PMPE     C39      CTL2    -0.180000       12.0110           0
     48715 MEMB     391      PMPE     H9X      HAL2     0.900000E-01   1.00800           0
     48716 MEMB     391      PMPE     H9Y      HAL2     0.900000E-01   1.00800           0
     48717 MEMB     391      PMPE     C310     CTL2    -0.180000       12.0110           0
     48718 MEMB     391      PMPE     H10X     HAL2     0.900000E-01   1.00800           0
     48719 MEMB     391      PMPE     H10Y     HAL2     0.900000E-01   1.00800           0
     48720 MEMB     391      PMPE     C311     CTL2    -0.180000       12.0110           0
     48721 MEMB     391      PMPE     H11X     HAL2     0.900000E-01   1.00800           0
     48722 MEMB     391      PMPE     H11Y     HAL2     0.900000E-01   1.00800           0
     48723 MEMB     391      PMPE     C312     CTL2    -0.180000       12.0110           0
     48724 MEMB     391      PMPE     H12X     HAL2     0.900000E-01   1.00800           0
     48725 MEMB     391      PMPE     H12Y     HAL2     0.900000E-01   1.00800           0
     48726 MEMB     391      PMPE     C313     CTL2    -0.180000       12.0110           0
     48727 MEMB     391      PMPE     H13X     HAL2     0.900000E-01   1.00800           0
     48728 MEMB     391      PMPE     H13Y     HAL2     0.900000E-01   1.00800           0
     48729 MEMB     391      PMPE     C314     CTL2    -0.180000       12.0110           0
     48730 MEMB     391      PMPE     H14X     HAL2     0.900000E-01   1.00800           0
     48731 MEMB     391      PMPE     H14Y     HAL2     0.900000E-01   1.00800           0
     48732 MEMB     391      PMPE     C315     CTL2    -0.180000       12.0110           0
     48733 MEMB     391      PMPE     H15X     HAL2     0.900000E-01   1.00800           0
     48734 MEMB     391      PMPE     H15Y     HAL2     0.900000E-01   1.00800           0
     48735 MEMB     391      PMPE     C316     CTL3    -0.270000       12.0110           0
     48736 MEMB     391      PMPE     H16X     HAL3     0.900000E-01   1.00800           0
     48737 MEMB     391      PMPE     H16Y     HAL3     0.900000E-01   1.00800           0
     48738 MEMB     391      PMPE     H16Z     HAL3     0.900000E-01   1.00800           0
     48739 MEMB     392      PMPE     N        NH3L    -0.300000       14.0070           0
     48740 MEMB     392      PMPE     HN1      HCL      0.330000       1.00800           0
     48741 MEMB     392      PMPE     HN2      HCL      0.330000       1.00800           0
     48742 MEMB     392      PMPE     HN3      HCL      0.330000       1.00800           0
     48743 MEMB     392      PMPE     C12      CTL2     0.130000       12.0110           0
     48744 MEMB     392      PMPE     H12A     HAL2     0.900000E-01   1.00800           0
     48745 MEMB     392      PMPE     H12B     HAL2     0.900000E-01   1.00800           0
     48746 MEMB     392      PMPE     C11      CTL2    -0.800000E-01   12.0110           0
     48747 MEMB     392      PMPE     H11A     HAL2     0.900000E-01   1.00800           0
     48748 MEMB     392      PMPE     H11B     HAL2     0.900000E-01   1.00800           0
     48749 MEMB     392      PMPE     P        PL        1.50000       30.9740           0
     48750 MEMB     392      PMPE     O13      O2L     -0.780000       15.9994           0
     48751 MEMB     392      PMPE     O14      O2L     -0.780000       15.9994           0
     48752 MEMB     392      PMPE     O11      OSLP    -0.570000       15.9994           0
     48753 MEMB     392      PMPE     O12      OSLP    -0.570000       15.9994           0
     48754 MEMB     392      PMPE     C1       CTL2    -0.800000E-01   12.0110           0
     48755 MEMB     392      PMPE     HA       HAL2     0.900000E-01   1.00800           0
     48756 MEMB     392      PMPE     HB       HAL2     0.900000E-01   1.00800           0
     48757 MEMB     392      PMPE     C2       CTL1     0.170000       12.0110           0
     48758 MEMB     392      PMPE     HS       HAL1     0.900000E-01   1.00800           0
     48759 MEMB     392      PMPE     O21      OSL     -0.490000       15.9994           0
     48760 MEMB     392      PMPE     C21      CL       0.900000       12.0110           0
     48761 MEMB     392      PMPE     O22      OBL     -0.630000       15.9994           0
     48762 MEMB     392      PMPE     C22      CTL2    -0.220000       12.0110           0
     48763 MEMB     392      PMPE     H2R      HAL2     0.900000E-01   1.00800           0
     48764 MEMB     392      PMPE     H2S      HAL2     0.900000E-01   1.00800           0
     48765 MEMB     392      PMPE     C3       CTL2     0.800000E-01   12.0110           0
     48766 MEMB     392      PMPE     HX       HAL2     0.900000E-01   1.00800           0
     48767 MEMB     392      PMPE     HY       HAL2     0.900000E-01   1.00800           0
     48768 MEMB     392      PMPE     O31      OSL     -0.490000       15.9994           0
     48769 MEMB     392      PMPE     C31      CL       0.900000       12.0110           0
     48770 MEMB     392      PMPE     O32      OBL     -0.630000       15.9994           0
     48771 MEMB     392      PMPE     C32      CTL2    -0.220000       12.0110           0
     48772 MEMB     392      PMPE     H2X      HAL2     0.900000E-01   1.00800           0
     48773 MEMB     392      PMPE     H2Y      HAL2     0.900000E-01   1.00800           0
     48774 MEMB     392      PMPE     C23      CTL2    -0.180000       12.0110           0
     48775 MEMB     392      PMPE     H3R      HAL2     0.900000E-01   1.00800           0
     48776 MEMB     392      PMPE     H3S      HAL2     0.900000E-01   1.00800           0
     48777 MEMB     392      PMPE     C24      CTL2    -0.180000       12.0110           0
     48778 MEMB     392      PMPE     H4R      HAL2     0.900000E-01   1.00800           0
     48779 MEMB     392      PMPE     H4S      HAL2     0.900000E-01   1.00800           0
     48780 MEMB     392      PMPE     C25      CTL2    -0.180000       12.0110           0
     48781 MEMB     392      PMPE     H5R      HAL2     0.900000E-01   1.00800           0
     48782 MEMB     392      PMPE     H5S      HAL2     0.900000E-01   1.00800           0
     48783 MEMB     392      PMPE     C26      CTL2    -0.180000       12.0110           0
     48784 MEMB     392      PMPE     H6R      HAL2     0.900000E-01   1.00800           0
     48785 MEMB     392      PMPE     H6S      HAL2     0.900000E-01   1.00800           0
     48786 MEMB     392      PMPE     C27      CTL2    -0.180000       12.0110           0
     48787 MEMB     392      PMPE     H7R      HAL2     0.900000E-01   1.00800           0
     48788 MEMB     392      PMPE     H7S      HAL2     0.900000E-01   1.00800           0
     48789 MEMB     392      PMPE     C28      CTL2    -0.180000       12.0110           0
     48790 MEMB     392      PMPE     H8R      HAL2     0.900000E-01   1.00800           0
     48791 MEMB     392      PMPE     H8S      HAL2     0.900000E-01   1.00800           0
     48792 MEMB     392      PMPE     C29      CG3RC1  -0.900000E-01   12.0110           0
     48793 MEMB     392      PMPE     H9R      HGA1     0.900000E-01   1.00800           0
     48794 MEMB     392      PMPE     C217     CG3C31  -0.180000       12.0110           0
     48795 MEMB     392      PMPE     H17R     HGA2     0.900000E-01   1.00800           0
     48796 MEMB     392      PMPE     H17S     HGA2     0.900000E-01   1.00800           0
     48797 MEMB     392      PMPE     C210     CG3RC1  -0.900000E-01   12.0110           0
     48798 MEMB     392      PMPE     H10R     HGA1     0.900000E-01   1.00800           0
     48799 MEMB     392      PMPE     C211     CTL2    -0.180000       12.0110           0
     48800 MEMB     392      PMPE     H11R     HAL2     0.900000E-01   1.00800           0
     48801 MEMB     392      PMPE     H11S     HAL2     0.900000E-01   1.00800           0
     48802 MEMB     392      PMPE     C212     CTL2    -0.180000       12.0110           0
     48803 MEMB     392      PMPE     H12R     HAL2     0.900000E-01   1.00800           0
     48804 MEMB     392      PMPE     H12S     HAL2     0.900000E-01   1.00800           0
     48805 MEMB     392      PMPE     C213     CTL2    -0.180000       12.0110           0
     48806 MEMB     392      PMPE     H13R     HAL2     0.900000E-01   1.00800           0
     48807 MEMB     392      PMPE     H13S     HAL2     0.900000E-01   1.00800           0
     48808 MEMB     392      PMPE     C214     CTL2    -0.180000       12.0110           0
     48809 MEMB     392      PMPE     H14R     HAL2     0.900000E-01   1.00800           0
     48810 MEMB     392      PMPE     H14S     HAL2     0.900000E-01   1.00800           0
     48811 MEMB     392      PMPE     C215     CTL2    -0.180000       12.0110           0
     48812 MEMB     392      PMPE     H15R     HAL2     0.900000E-01   1.00800           0
     48813 MEMB     392      PMPE     H15S     HAL2     0.900000E-01   1.00800           0
     48814 MEMB     392      PMPE     C216     CTL3    -0.270000       12.0110           0
     48815 MEMB     392      PMPE     H16R     HAL3     0.900000E-01   1.00800           0
     48816 MEMB     392      PMPE     H16S     HAL3     0.900000E-01   1.00800           0
     48817 MEMB     392      PMPE     H16T     HAL3     0.900000E-01   1.00800           0
     48818 MEMB     392      PMPE     C33      CTL2    -0.180000       12.0110           0
     48819 MEMB     392      PMPE     H3X      HAL2     0.900000E-01   1.00800           0
     48820 MEMB     392      PMPE     H3Y      HAL2     0.900000E-01   1.00800           0
     48821 MEMB     392      PMPE     C34      CTL2    -0.180000       12.0110           0
     48822 MEMB     392      PMPE     H4X      HAL2     0.900000E-01   1.00800           0
     48823 MEMB     392      PMPE     H4Y      HAL2     0.900000E-01   1.00800           0
     48824 MEMB     392      PMPE     C35      CTL2    -0.180000       12.0110           0
     48825 MEMB     392      PMPE     H5X      HAL2     0.900000E-01   1.00800           0
     48826 MEMB     392      PMPE     H5Y      HAL2     0.900000E-01   1.00800           0
     48827 MEMB     392      PMPE     C36      CTL2    -0.180000       12.0110           0
     48828 MEMB     392      PMPE     H6X      HAL2     0.900000E-01   1.00800           0
     48829 MEMB     392      PMPE     H6Y      HAL2     0.900000E-01   1.00800           0
     48830 MEMB     392      PMPE     C37      CTL2    -0.180000       12.0110           0
     48831 MEMB     392      PMPE     H7X      HAL2     0.900000E-01   1.00800           0
     48832 MEMB     392      PMPE     H7Y      HAL2     0.900000E-01   1.00800           0
     48833 MEMB     392      PMPE     C38      CTL2    -0.180000       12.0110           0
     48834 MEMB     392      PMPE     H8X      HAL2     0.900000E-01   1.00800           0
     48835 MEMB     392      PMPE     H8Y      HAL2     0.900000E-01   1.00800           0
     48836 MEMB     392      PMPE     C39      CTL2    -0.180000       12.0110           0
     48837 MEMB     392      PMPE     H9X      HAL2     0.900000E-01   1.00800           0
     48838 MEMB     392      PMPE     H9Y      HAL2     0.900000E-01   1.00800           0
     48839 MEMB     392      PMPE     C310     CTL2    -0.180000       12.0110           0
     48840 MEMB     392      PMPE     H10X     HAL2     0.900000E-01   1.00800           0
     48841 MEMB     392      PMPE     H10Y     HAL2     0.900000E-01   1.00800           0
     48842 MEMB     392      PMPE     C311     CTL2    -0.180000       12.0110           0
     48843 MEMB     392      PMPE     H11X     HAL2     0.900000E-01   1.00800           0
     48844 MEMB     392      PMPE     H11Y     HAL2     0.900000E-01   1.00800           0
     48845 MEMB     392      PMPE     C312     CTL2    -0.180000       12.0110           0
     48846 MEMB     392      PMPE     H12X     HAL2     0.900000E-01   1.00800           0
     48847 MEMB     392      PMPE     H12Y     HAL2     0.900000E-01   1.00800           0
     48848 MEMB     392      PMPE     C313     CTL2    -0.180000       12.0110           0
     48849 MEMB     392      PMPE     H13X     HAL2     0.900000E-01   1.00800           0
     48850 MEMB     392      PMPE     H13Y     HAL2     0.900000E-01   1.00800           0
     48851 MEMB     392      PMPE     C314     CTL2    -0.180000       12.0110           0
     48852 MEMB     392      PMPE     H14X     HAL2     0.900000E-01   1.00800           0
     48853 MEMB     392      PMPE     H14Y     HAL2     0.900000E-01   1.00800           0
     48854 MEMB     392      PMPE     C315     CTL2    -0.180000       12.0110           0
     48855 MEMB     392      PMPE     H15X     HAL2     0.900000E-01   1.00800           0
     48856 MEMB     392      PMPE     H15Y     HAL2     0.900000E-01   1.00800           0
     48857 MEMB     392      PMPE     C316     CTL3    -0.270000       12.0110           0
     48858 MEMB     392      PMPE     H16X     HAL3     0.900000E-01   1.00800           0
     48859 MEMB     392      PMPE     H16Y     HAL3     0.900000E-01   1.00800           0
     48860 MEMB     392      PMPE     H16Z     HAL3     0.900000E-01   1.00800           0
     48861 MEMB     393      QMPE     N        NH3L    -0.300000       14.0070           0
     48862 MEMB     393      QMPE     HN1      HCL      0.330000       1.00800           0
     48863 MEMB     393      QMPE     HN2      HCL      0.330000       1.00800           0
     48864 MEMB     393      QMPE     HN3      HCL      0.330000       1.00800           0
     48865 MEMB     393      QMPE     C12      CTL2     0.130000       12.0110           0
     48866 MEMB     393      QMPE     H12A     HAL2     0.900000E-01   1.00800           0
     48867 MEMB     393      QMPE     H12B     HAL2     0.900000E-01   1.00800           0
     48868 MEMB     393      QMPE     C11      CTL2    -0.800000E-01   12.0110           0
     48869 MEMB     393      QMPE     H11A     HAL2     0.900000E-01   1.00800           0
     48870 MEMB     393      QMPE     H11B     HAL2     0.900000E-01   1.00800           0
     48871 MEMB     393      QMPE     P        PL        1.50000       30.9740           0
     48872 MEMB     393      QMPE     O13      O2L     -0.780000       15.9994           0
     48873 MEMB     393      QMPE     O14      O2L     -0.780000       15.9994           0
     48874 MEMB     393      QMPE     O11      OSLP    -0.570000       15.9994           0
     48875 MEMB     393      QMPE     O12      OSLP    -0.570000       15.9994           0
     48876 MEMB     393      QMPE     C1       CTL2    -0.800000E-01   12.0110           0
     48877 MEMB     393      QMPE     HA       HAL2     0.900000E-01   1.00800           0
     48878 MEMB     393      QMPE     HB       HAL2     0.900000E-01   1.00800           0
     48879 MEMB     393      QMPE     C2       CTL1     0.170000       12.0110           0
     48880 MEMB     393      QMPE     HS       HAL1     0.900000E-01   1.00800           0
     48881 MEMB     393      QMPE     O21      OSL     -0.490000       15.9994           0
     48882 MEMB     393      QMPE     C21      CL       0.900000       12.0110           0
     48883 MEMB     393      QMPE     O22      OBL     -0.630000       15.9994           0
     48884 MEMB     393      QMPE     C22      CTL2    -0.220000       12.0110           0
     48885 MEMB     393      QMPE     H2R      HAL2     0.900000E-01   1.00800           0
     48886 MEMB     393      QMPE     H2S      HAL2     0.900000E-01   1.00800           0
     48887 MEMB     393      QMPE     C3       CTL2     0.800000E-01   12.0110           0
     48888 MEMB     393      QMPE     HX       HAL2     0.900000E-01   1.00800           0
     48889 MEMB     393      QMPE     HY       HAL2     0.900000E-01   1.00800           0
     48890 MEMB     393      QMPE     O31      OSL     -0.490000       15.9994           0
     48891 MEMB     393      QMPE     C31      CL       0.900000       12.0110           0
     48892 MEMB     393      QMPE     O32      OBL     -0.630000       15.9994           0
     48893 MEMB     393      QMPE     C32      CTL2    -0.220000       12.0110           0
     48894 MEMB     393      QMPE     H2X      HAL2     0.900000E-01   1.00800           0
     48895 MEMB     393      QMPE     H2Y      HAL2     0.900000E-01   1.00800           0
     48896 MEMB     393      QMPE     C23      CTL2    -0.180000       12.0110           0
     48897 MEMB     393      QMPE     H3R      HAL2     0.900000E-01   1.00800           0
     48898 MEMB     393      QMPE     H3S      HAL2     0.900000E-01   1.00800           0
     48899 MEMB     393      QMPE     C24      CTL2    -0.180000       12.0110           0
     48900 MEMB     393      QMPE     H4R      HAL2     0.900000E-01   1.00800           0
     48901 MEMB     393      QMPE     H4S      HAL2     0.900000E-01   1.00800           0
     48902 MEMB     393      QMPE     C25      CTL2    -0.180000       12.0110           0
     48903 MEMB     393      QMPE     H5R      HAL2     0.900000E-01   1.00800           0
     48904 MEMB     393      QMPE     H5S      HAL2     0.900000E-01   1.00800           0
     48905 MEMB     393      QMPE     C26      CTL2    -0.180000       12.0110           0
     48906 MEMB     393      QMPE     H6R      HAL2     0.900000E-01   1.00800           0
     48907 MEMB     393      QMPE     H6S      HAL2     0.900000E-01   1.00800           0
     48908 MEMB     393      QMPE     C27      CTL2    -0.180000       12.0110           0
     48909 MEMB     393      QMPE     H7R      HAL2     0.900000E-01   1.00800           0
     48910 MEMB     393      QMPE     H7S      HAL2     0.900000E-01   1.00800           0
     48911 MEMB     393      QMPE     C28      CTL2    -0.180000       12.0110           0
     48912 MEMB     393      QMPE     H8R      HAL2     0.900000E-01   1.00800           0
     48913 MEMB     393      QMPE     H8S      HAL2     0.900000E-01   1.00800           0
     48914 MEMB     393      QMPE     C29      CG3RC1  -0.900000E-01   12.0110           0
     48915 MEMB     393      QMPE     H9R      HGA1     0.900000E-01   1.00800           0
     48916 MEMB     393      QMPE     C217     CG3C31  -0.180000       12.0110           0
     48917 MEMB     393      QMPE     H17R     HGA2     0.900000E-01   1.00800           0
     48918 MEMB     393      QMPE     H17S     HGA2     0.900000E-01   1.00800           0
     48919 MEMB     393      QMPE     C210     CG3RC1  -0.900000E-01   12.0110           0
     48920 MEMB     393      QMPE     H10R     HGA1     0.900000E-01   1.00800           0
     48921 MEMB     393      QMPE     C211     CTL2    -0.180000       12.0110           0
     48922 MEMB     393      QMPE     H11R     HAL2     0.900000E-01   1.00800           0
     48923 MEMB     393      QMPE     H11S     HAL2     0.900000E-01   1.00800           0
     48924 MEMB     393      QMPE     C212     CTL2    -0.180000       12.0110           0
     48925 MEMB     393      QMPE     H12R     HAL2     0.900000E-01   1.00800           0
     48926 MEMB     393      QMPE     H12S     HAL2     0.900000E-01   1.00800           0
     48927 MEMB     393      QMPE     C213     CTL2    -0.180000       12.0110           0
     48928 MEMB     393      QMPE     H13R     HAL2     0.900000E-01   1.00800           0
     48929 MEMB     393      QMPE     H13S     HAL2     0.900000E-01   1.00800           0
     48930 MEMB     393      QMPE     C214     CTL2    -0.180000       12.0110           0
     48931 MEMB     393      QMPE     H14R     HAL2     0.900000E-01   1.00800           0
     48932 MEMB     393      QMPE     H14S     HAL2     0.900000E-01   1.00800           0
     48933 MEMB     393      QMPE     C215     CTL2    -0.180000       12.0110           0
     48934 MEMB     393      QMPE     H15R     HAL2     0.900000E-01   1.00800           0
     48935 MEMB     393      QMPE     H15S     HAL2     0.900000E-01   1.00800           0
     48936 MEMB     393      QMPE     C216     CTL3    -0.270000       12.0110           0
     48937 MEMB     393      QMPE     H16R     HAL3     0.900000E-01   1.00800           0
     48938 MEMB     393      QMPE     H16S     HAL3     0.900000E-01   1.00800           0
     48939 MEMB     393      QMPE     H16T     HAL3     0.900000E-01   1.00800           0
     48940 MEMB     393      QMPE     C33      CTL2    -0.180000       12.0110           0
     48941 MEMB     393      QMPE     H3X      HAL2     0.900000E-01   1.00800           0
     48942 MEMB     393      QMPE     H3Y      HAL2     0.900000E-01   1.00800           0
     48943 MEMB     393      QMPE     C34      CTL2    -0.180000       12.0110           0
     48944 MEMB     393      QMPE     H4X      HAL2     0.900000E-01   1.00800           0
     48945 MEMB     393      QMPE     H4Y      HAL2     0.900000E-01   1.00800           0
     48946 MEMB     393      QMPE     C35      CTL2    -0.180000       12.0110           0
     48947 MEMB     393      QMPE     H5X      HAL2     0.900000E-01   1.00800           0
     48948 MEMB     393      QMPE     H5Y      HAL2     0.900000E-01   1.00800           0
     48949 MEMB     393      QMPE     C36      CTL2    -0.180000       12.0110           0
     48950 MEMB     393      QMPE     H6X      HAL2     0.900000E-01   1.00800           0
     48951 MEMB     393      QMPE     H6Y      HAL2     0.900000E-01   1.00800           0
     48952 MEMB     393      QMPE     C37      CTL2    -0.180000       12.0110           0
     48953 MEMB     393      QMPE     H7X      HAL2     0.900000E-01   1.00800           0
     48954 MEMB     393      QMPE     H7Y      HAL2     0.900000E-01   1.00800           0
     48955 MEMB     393      QMPE     C38      CTL2    -0.180000       12.0110           0
     48956 MEMB     393      QMPE     H8X      HAL2     0.900000E-01   1.00800           0
     48957 MEMB     393      QMPE     H8Y      HAL2     0.900000E-01   1.00800           0
     48958 MEMB     393      QMPE     C39      CTL2    -0.180000       12.0110           0
     48959 MEMB     393      QMPE     H9X      HAL2     0.900000E-01   1.00800           0
     48960 MEMB     393      QMPE     H9Y      HAL2     0.900000E-01   1.00800           0
     48961 MEMB     393      QMPE     C310     CTL2    -0.180000       12.0110           0
     48962 MEMB     393      QMPE     H10X     HAL2     0.900000E-01   1.00800           0
     48963 MEMB     393      QMPE     H10Y     HAL2     0.900000E-01   1.00800           0
     48964 MEMB     393      QMPE     C311     CTL2    -0.180000       12.0110           0
     48965 MEMB     393      QMPE     H11X     HAL2     0.900000E-01   1.00800           0
     48966 MEMB     393      QMPE     H11Y     HAL2     0.900000E-01   1.00800           0
     48967 MEMB     393      QMPE     C312     CTL2    -0.180000       12.0110           0
     48968 MEMB     393      QMPE     H12X     HAL2     0.900000E-01   1.00800           0
     48969 MEMB     393      QMPE     H12Y     HAL2     0.900000E-01   1.00800           0
     48970 MEMB     393      QMPE     C313     CTL2    -0.180000       12.0110           0
     48971 MEMB     393      QMPE     H13X     HAL2     0.900000E-01   1.00800           0
     48972 MEMB     393      QMPE     H13Y     HAL2     0.900000E-01   1.00800           0
     48973 MEMB     393      QMPE     C314     CTL2    -0.180000       12.0110           0
     48974 MEMB     393      QMPE     H14X     HAL2     0.900000E-01   1.00800           0
     48975 MEMB     393      QMPE     H14Y     HAL2     0.900000E-01   1.00800           0
     48976 MEMB     393      QMPE     C315     CTL3    -0.270000       12.0110           0
     48977 MEMB     393      QMPE     H15X     HAL3     0.900000E-01   1.00800           0
     48978 MEMB     393      QMPE     H15Y     HAL3     0.900000E-01   1.00800           0
     48979 MEMB     393      QMPE     H15Z     HAL3     0.900000E-01   1.00800           0
     48980 MEMB     394      PMPE     N        NH3L    -0.300000       14.0070           0
     48981 MEMB     394      PMPE     HN1      HCL      0.330000       1.00800           0
     48982 MEMB     394      PMPE     HN2      HCL      0.330000       1.00800           0
     48983 MEMB     394      PMPE     HN3      HCL      0.330000       1.00800           0
     48984 MEMB     394      PMPE     C12      CTL2     0.130000       12.0110           0
     48985 MEMB     394      PMPE     H12A     HAL2     0.900000E-01   1.00800           0
     48986 MEMB     394      PMPE     H12B     HAL2     0.900000E-01   1.00800           0
     48987 MEMB     394      PMPE     C11      CTL2    -0.800000E-01   12.0110           0
     48988 MEMB     394      PMPE     H11A     HAL2     0.900000E-01   1.00800           0
     48989 MEMB     394      PMPE     H11B     HAL2     0.900000E-01   1.00800           0
     48990 MEMB     394      PMPE     P        PL        1.50000       30.9740           0
     48991 MEMB     394      PMPE     O13      O2L     -0.780000       15.9994           0
     48992 MEMB     394      PMPE     O14      O2L     -0.780000       15.9994           0
     48993 MEMB     394      PMPE     O11      OSLP    -0.570000       15.9994           0
     48994 MEMB     394      PMPE     O12      OSLP    -0.570000       15.9994           0
     48995 MEMB     394      PMPE     C1       CTL2    -0.800000E-01   12.0110           0
     48996 MEMB     394      PMPE     HA       HAL2     0.900000E-01   1.00800           0
     48997 MEMB     394      PMPE     HB       HAL2     0.900000E-01   1.00800           0
     48998 MEMB     394      PMPE     C2       CTL1     0.170000       12.0110           0
     48999 MEMB     394      PMPE     HS       HAL1     0.900000E-01   1.00800           0
     49000 MEMB     394      PMPE     O21      OSL     -0.490000       15.9994           0
     49001 MEMB     394      PMPE     C21      CL       0.900000       12.0110           0
     49002 MEMB     394      PMPE     O22      OBL     -0.630000       15.9994           0
     49003 MEMB     394      PMPE     C22      CTL2    -0.220000       12.0110           0
     49004 MEMB     394      PMPE     H2R      HAL2     0.900000E-01   1.00800           0
     49005 MEMB     394      PMPE     H2S      HAL2     0.900000E-01   1.00800           0
     49006 MEMB     394      PMPE     C3       CTL2     0.800000E-01   12.0110           0
     49007 MEMB     394      PMPE     HX       HAL2     0.900000E-01   1.00800           0
     49008 MEMB     394      PMPE     HY       HAL2     0.900000E-01   1.00800           0
     49009 MEMB     394      PMPE     O31      OSL     -0.490000       15.9994           0
     49010 MEMB     394      PMPE     C31      CL       0.900000       12.0110           0
     49011 MEMB     394      PMPE     O32      OBL     -0.630000       15.9994           0
     49012 MEMB     394      PMPE     C32      CTL2    -0.220000       12.0110           0
     49013 MEMB     394      PMPE     H2X      HAL2     0.900000E-01   1.00800           0
     49014 MEMB     394      PMPE     H2Y      HAL2     0.900000E-01   1.00800           0
     49015 MEMB     394      PMPE     C23      CTL2    -0.180000       12.0110           0
     49016 MEMB     394      PMPE     H3R      HAL2     0.900000E-01   1.00800           0
     49017 MEMB     394      PMPE     H3S      HAL2     0.900000E-01   1.00800           0
     49018 MEMB     394      PMPE     C24      CTL2    -0.180000       12.0110           0
     49019 MEMB     394      PMPE     H4R      HAL2     0.900000E-01   1.00800           0
     49020 MEMB     394      PMPE     H4S      HAL2     0.900000E-01   1.00800           0
     49021 MEMB     394      PMPE     C25      CTL2    -0.180000       12.0110           0
     49022 MEMB     394      PMPE     H5R      HAL2     0.900000E-01   1.00800           0
     49023 MEMB     394      PMPE     H5S      HAL2     0.900000E-01   1.00800           0
     49024 MEMB     394      PMPE     C26      CTL2    -0.180000       12.0110           0
     49025 MEMB     394      PMPE     H6R      HAL2     0.900000E-01   1.00800           0
     49026 MEMB     394      PMPE     H6S      HAL2     0.900000E-01   1.00800           0
     49027 MEMB     394      PMPE     C27      CTL2    -0.180000       12.0110           0
     49028 MEMB     394      PMPE     H7R      HAL2     0.900000E-01   1.00800           0
     49029 MEMB     394      PMPE     H7S      HAL2     0.900000E-01   1.00800           0
     49030 MEMB     394      PMPE     C28      CTL2    -0.180000       12.0110           0
     49031 MEMB     394      PMPE     H8R      HAL2     0.900000E-01   1.00800           0
     49032 MEMB     394      PMPE     H8S      HAL2     0.900000E-01   1.00800           0
     49033 MEMB     394      PMPE     C29      CG3RC1  -0.900000E-01   12.0110           0
     49034 MEMB     394      PMPE     H9R      HGA1     0.900000E-01   1.00800           0
     49035 MEMB     394      PMPE     C217     CG3C31  -0.180000       12.0110           0
     49036 MEMB     394      PMPE     H17R     HGA2     0.900000E-01   1.00800           0
     49037 MEMB     394      PMPE     H17S     HGA2     0.900000E-01   1.00800           0
     49038 MEMB     394      PMPE     C210     CG3RC1  -0.900000E-01   12.0110           0
     49039 MEMB     394      PMPE     H10R     HGA1     0.900000E-01   1.00800           0
     49040 MEMB     394      PMPE     C211     CTL2    -0.180000       12.0110           0
     49041 MEMB     394      PMPE     H11R     HAL2     0.900000E-01   1.00800           0
     49042 MEMB     394      PMPE     H11S     HAL2     0.900000E-01   1.00800           0
     49043 MEMB     394      PMPE     C212     CTL2    -0.180000       12.0110           0
     49044 MEMB     394      PMPE     H12R     HAL2     0.900000E-01   1.00800           0
     49045 MEMB     394      PMPE     H12S     HAL2     0.900000E-01   1.00800           0
     49046 MEMB     394      PMPE     C213     CTL2    -0.180000       12.0110           0
     49047 MEMB     394      PMPE     H13R     HAL2     0.900000E-01   1.00800           0
     49048 MEMB     394      PMPE     H13S     HAL2     0.900000E-01   1.00800           0
     49049 MEMB     394      PMPE     C214     CTL2    -0.180000       12.0110           0
     49050 MEMB     394      PMPE     H14R     HAL2     0.900000E-01   1.00800           0
     49051 MEMB     394      PMPE     H14S     HAL2     0.900000E-01   1.00800           0
     49052 MEMB     394      PMPE     C215     CTL2    -0.180000       12.0110           0
     49053 MEMB     394      PMPE     H15R     HAL2     0.900000E-01   1.00800           0
     49054 MEMB     394      PMPE     H15S     HAL2     0.900000E-01   1.00800           0
     49055 MEMB     394      PMPE     C216     CTL3    -0.270000       12.0110           0
     49056 MEMB     394      PMPE     H16R     HAL3     0.900000E-01   1.00800           0
     49057 MEMB     394      PMPE     H16S     HAL3     0.900000E-01   1.00800           0
     49058 MEMB     394      PMPE     H16T     HAL3     0.900000E-01   1.00800           0
     49059 MEMB     394      PMPE     C33      CTL2    -0.180000       12.0110           0
     49060 MEMB     394      PMPE     H3X      HAL2     0.900000E-01   1.00800           0
     49061 MEMB     394      PMPE     H3Y      HAL2     0.900000E-01   1.00800           0
     49062 MEMB     394      PMPE     C34      CTL2    -0.180000       12.0110           0
     49063 MEMB     394      PMPE     H4X      HAL2     0.900000E-01   1.00800           0
     49064 MEMB     394      PMPE     H4Y      HAL2     0.900000E-01   1.00800           0
     49065 MEMB     394      PMPE     C35      CTL2    -0.180000       12.0110           0
     49066 MEMB     394      PMPE     H5X      HAL2     0.900000E-01   1.00800           0
     49067 MEMB     394      PMPE     H5Y      HAL2     0.900000E-01   1.00800           0
     49068 MEMB     394      PMPE     C36      CTL2    -0.180000       12.0110           0
     49069 MEMB     394      PMPE     H6X      HAL2     0.900000E-01   1.00800           0
     49070 MEMB     394      PMPE     H6Y      HAL2     0.900000E-01   1.00800           0
     49071 MEMB     394      PMPE     C37      CTL2    -0.180000       12.0110           0
     49072 MEMB     394      PMPE     H7X      HAL2     0.900000E-01   1.00800           0
     49073 MEMB     394      PMPE     H7Y      HAL2     0.900000E-01   1.00800           0
     49074 MEMB     394      PMPE     C38      CTL2    -0.180000       12.0110           0
     49075 MEMB     394      PMPE     H8X      HAL2     0.900000E-01   1.00800           0
     49076 MEMB     394      PMPE     H8Y      HAL2     0.900000E-01   1.00800           0
     49077 MEMB     394      PMPE     C39      CTL2    -0.180000       12.0110           0
     49078 MEMB     394      PMPE     H9X      HAL2     0.900000E-01   1.00800           0
     49079 MEMB     394      PMPE     H9Y      HAL2     0.900000E-01   1.00800           0
     49080 MEMB     394      PMPE     C310     CTL2    -0.180000       12.0110           0
     49081 MEMB     394      PMPE     H10X     HAL2     0.900000E-01   1.00800           0
     49082 MEMB     394      PMPE     H10Y     HAL2     0.900000E-01   1.00800           0
     49083 MEMB     394      PMPE     C311     CTL2    -0.180000       12.0110           0
     49084 MEMB     394      PMPE     H11X     HAL2     0.900000E-01   1.00800           0
     49085 MEMB     394      PMPE     H11Y     HAL2     0.900000E-01   1.00800           0
     49086 MEMB     394      PMPE     C312     CTL2    -0.180000       12.0110           0
     49087 MEMB     394      PMPE     H12X     HAL2     0.900000E-01   1.00800           0
     49088 MEMB     394      PMPE     H12Y     HAL2     0.900000E-01   1.00800           0
     49089 MEMB     394      PMPE     C313     CTL2    -0.180000       12.0110           0
     49090 MEMB     394      PMPE     H13X     HAL2     0.900000E-01   1.00800           0
     49091 MEMB     394      PMPE     H13Y     HAL2     0.900000E-01   1.00800           0
     49092 MEMB     394      PMPE     C314     CTL2    -0.180000       12.0110           0
     49093 MEMB     394      PMPE     H14X     HAL2     0.900000E-01   1.00800           0
     49094 MEMB     394      PMPE     H14Y     HAL2     0.900000E-01   1.00800           0
     49095 MEMB     394      PMPE     C315     CTL2    -0.180000       12.0110           0
     49096 MEMB     394      PMPE     H15X     HAL2     0.900000E-01   1.00800           0
     49097 MEMB     394      PMPE     H15Y     HAL2     0.900000E-01   1.00800           0
     49098 MEMB     394      PMPE     C316     CTL3    -0.270000       12.0110           0
     49099 MEMB     394      PMPE     H16X     HAL3     0.900000E-01   1.00800           0
     49100 MEMB     394      PMPE     H16Y     HAL3     0.900000E-01   1.00800           0
     49101 MEMB     394      PMPE     H16Z     HAL3     0.900000E-01   1.00800           0
     49102 MEMB     395      QMPE     N        NH3L    -0.300000       14.0070           0
     49103 MEMB     395      QMPE     HN1      HCL      0.330000       1.00800           0
     49104 MEMB     395      QMPE     HN2      HCL      0.330000       1.00800           0
     49105 MEMB     395      QMPE     HN3      HCL      0.330000       1.00800           0
     49106 MEMB     395      QMPE     C12      CTL2     0.130000       12.0110           0
     49107 MEMB     395      QMPE     H12A     HAL2     0.900000E-01   1.00800           0
     49108 MEMB     395      QMPE     H12B     HAL2     0.900000E-01   1.00800           0
     49109 MEMB     395      QMPE     C11      CTL2    -0.800000E-01   12.0110           0
     49110 MEMB     395      QMPE     H11A     HAL2     0.900000E-01   1.00800           0
     49111 MEMB     395      QMPE     H11B     HAL2     0.900000E-01   1.00800           0
     49112 MEMB     395      QMPE     P        PL        1.50000       30.9740           0
     49113 MEMB     395      QMPE     O13      O2L     -0.780000       15.9994           0
     49114 MEMB     395      QMPE     O14      O2L     -0.780000       15.9994           0
     49115 MEMB     395      QMPE     O11      OSLP    -0.570000       15.9994           0
     49116 MEMB     395      QMPE     O12      OSLP    -0.570000       15.9994           0
     49117 MEMB     395      QMPE     C1       CTL2    -0.800000E-01   12.0110           0
     49118 MEMB     395      QMPE     HA       HAL2     0.900000E-01   1.00800           0
     49119 MEMB     395      QMPE     HB       HAL2     0.900000E-01   1.00800           0
     49120 MEMB     395      QMPE     C2       CTL1     0.170000       12.0110           0
     49121 MEMB     395      QMPE     HS       HAL1     0.900000E-01   1.00800           0
     49122 MEMB     395      QMPE     O21      OSL     -0.490000       15.9994           0
     49123 MEMB     395      QMPE     C21      CL       0.900000       12.0110           0
     49124 MEMB     395      QMPE     O22      OBL     -0.630000       15.9994           0
     49125 MEMB     395      QMPE     C22      CTL2    -0.220000       12.0110           0
     49126 MEMB     395      QMPE     H2R      HAL2     0.900000E-01   1.00800           0
     49127 MEMB     395      QMPE     H2S      HAL2     0.900000E-01   1.00800           0
     49128 MEMB     395      QMPE     C3       CTL2     0.800000E-01   12.0110           0
     49129 MEMB     395      QMPE     HX       HAL2     0.900000E-01   1.00800           0
     49130 MEMB     395      QMPE     HY       HAL2     0.900000E-01   1.00800           0
     49131 MEMB     395      QMPE     O31      OSL     -0.490000       15.9994           0
     49132 MEMB     395      QMPE     C31      CL       0.900000       12.0110           0
     49133 MEMB     395      QMPE     O32      OBL     -0.630000       15.9994           0
     49134 MEMB     395      QMPE     C32      CTL2    -0.220000       12.0110           0
     49135 MEMB     395      QMPE     H2X      HAL2     0.900000E-01   1.00800           0
     49136 MEMB     395      QMPE     H2Y      HAL2     0.900000E-01   1.00800           0
     49137 MEMB     395      QMPE     C23      CTL2    -0.180000       12.0110           0
     49138 MEMB     395      QMPE     H3R      HAL2     0.900000E-01   1.00800           0
     49139 MEMB     395      QMPE     H3S      HAL2     0.900000E-01   1.00800           0
     49140 MEMB     395      QMPE     C24      CTL2    -0.180000       12.0110           0
     49141 MEMB     395      QMPE     H4R      HAL2     0.900000E-01   1.00800           0
     49142 MEMB     395      QMPE     H4S      HAL2     0.900000E-01   1.00800           0
     49143 MEMB     395      QMPE     C25      CTL2    -0.180000       12.0110           0
     49144 MEMB     395      QMPE     H5R      HAL2     0.900000E-01   1.00800           0
     49145 MEMB     395      QMPE     H5S      HAL2     0.900000E-01   1.00800           0
     49146 MEMB     395      QMPE     C26      CTL2    -0.180000       12.0110           0
     49147 MEMB     395      QMPE     H6R      HAL2     0.900000E-01   1.00800           0
     49148 MEMB     395      QMPE     H6S      HAL2     0.900000E-01   1.00800           0
     49149 MEMB     395      QMPE     C27      CTL2    -0.180000       12.0110           0
     49150 MEMB     395      QMPE     H7R      HAL2     0.900000E-01   1.00800           0
     49151 MEMB     395      QMPE     H7S      HAL2     0.900000E-01   1.00800           0
     49152 MEMB     395      QMPE     C28      CTL2    -0.180000       12.0110           0
     49153 MEMB     395      QMPE     H8R      HAL2     0.900000E-01   1.00800           0
     49154 MEMB     395      QMPE     H8S      HAL2     0.900000E-01   1.00800           0
     49155 MEMB     395      QMPE     C29      CG3RC1  -0.900000E-01   12.0110           0
     49156 MEMB     395      QMPE     H9R      HGA1     0.900000E-01   1.00800           0
     49157 MEMB     395      QMPE     C217     CG3C31  -0.180000       12.0110           0
     49158 MEMB     395      QMPE     H17R     HGA2     0.900000E-01   1.00800           0
     49159 MEMB     395      QMPE     H17S     HGA2     0.900000E-01   1.00800           0
     49160 MEMB     395      QMPE     C210     CG3RC1  -0.900000E-01   12.0110           0
     49161 MEMB     395      QMPE     H10R     HGA1     0.900000E-01   1.00800           0
     49162 MEMB     395      QMPE     C211     CTL2    -0.180000       12.0110           0
     49163 MEMB     395      QMPE     H11R     HAL2     0.900000E-01   1.00800           0
     49164 MEMB     395      QMPE     H11S     HAL2     0.900000E-01   1.00800           0
     49165 MEMB     395      QMPE     C212     CTL2    -0.180000       12.0110           0
     49166 MEMB     395      QMPE     H12R     HAL2     0.900000E-01   1.00800           0
     49167 MEMB     395      QMPE     H12S     HAL2     0.900000E-01   1.00800           0
     49168 MEMB     395      QMPE     C213     CTL2    -0.180000       12.0110           0
     49169 MEMB     395      QMPE     H13R     HAL2     0.900000E-01   1.00800           0
     49170 MEMB     395      QMPE     H13S     HAL2     0.900000E-01   1.00800           0
     49171 MEMB     395      QMPE     C214     CTL2    -0.180000       12.0110           0
     49172 MEMB     395      QMPE     H14R     HAL2     0.900000E-01   1.00800           0
     49173 MEMB     395      QMPE     H14S     HAL2     0.900000E-01   1.00800           0
     49174 MEMB     395      QMPE     C215     CTL2    -0.180000       12.0110           0
     49175 MEMB     395      QMPE     H15R     HAL2     0.900000E-01   1.00800           0
     49176 MEMB     395      QMPE     H15S     HAL2     0.900000E-01   1.00800           0
     49177 MEMB     395      QMPE     C216     CTL3    -0.270000       12.0110           0
     49178 MEMB     395      QMPE     H16R     HAL3     0.900000E-01   1.00800           0
     49179 MEMB     395      QMPE     H16S     HAL3     0.900000E-01   1.00800           0
     49180 MEMB     395      QMPE     H16T     HAL3     0.900000E-01   1.00800           0
     49181 MEMB     395      QMPE     C33      CTL2    -0.180000       12.0110           0
     49182 MEMB     395      QMPE     H3X      HAL2     0.900000E-01   1.00800           0
     49183 MEMB     395      QMPE     H3Y      HAL2     0.900000E-01   1.00800           0
     49184 MEMB     395      QMPE     C34      CTL2    -0.180000       12.0110           0
     49185 MEMB     395      QMPE     H4X      HAL2     0.900000E-01   1.00800           0
     49186 MEMB     395      QMPE     H4Y      HAL2     0.900000E-01   1.00800           0
     49187 MEMB     395      QMPE     C35      CTL2    -0.180000       12.0110           0
     49188 MEMB     395      QMPE     H5X      HAL2     0.900000E-01   1.00800           0
     49189 MEMB     395      QMPE     H5Y      HAL2     0.900000E-01   1.00800           0
     49190 MEMB     395      QMPE     C36      CTL2    -0.180000       12.0110           0
     49191 MEMB     395      QMPE     H6X      HAL2     0.900000E-01   1.00800           0
     49192 MEMB     395      QMPE     H6Y      HAL2     0.900000E-01   1.00800           0
     49193 MEMB     395      QMPE     C37      CTL2    -0.180000       12.0110           0
     49194 MEMB     395      QMPE     H7X      HAL2     0.900000E-01   1.00800           0
     49195 MEMB     395      QMPE     H7Y      HAL2     0.900000E-01   1.00800           0
     49196 MEMB     395      QMPE     C38      CTL2    -0.180000       12.0110           0
     49197 MEMB     395      QMPE     H8X      HAL2     0.900000E-01   1.00800           0
     49198 MEMB     395      QMPE     H8Y      HAL2     0.900000E-01   1.00800           0
     49199 MEMB     395      QMPE     C39      CTL2    -0.180000       12.0110           0
     49200 MEMB     395      QMPE     H9X      HAL2     0.900000E-01   1.00800           0
     49201 MEMB     395      QMPE     H9Y      HAL2     0.900000E-01   1.00800           0
     49202 MEMB     395      QMPE     C310     CTL2    -0.180000       12.0110           0
     49203 MEMB     395      QMPE     H10X     HAL2     0.900000E-01   1.00800           0
     49204 MEMB     395      QMPE     H10Y     HAL2     0.900000E-01   1.00800           0
     49205 MEMB     395      QMPE     C311     CTL2    -0.180000       12.0110           0
     49206 MEMB     395      QMPE     H11X     HAL2     0.900000E-01   1.00800           0
     49207 MEMB     395      QMPE     H11Y     HAL2     0.900000E-01   1.00800           0
     49208 MEMB     395      QMPE     C312     CTL2    -0.180000       12.0110           0
     49209 MEMB     395      QMPE     H12X     HAL2     0.900000E-01   1.00800           0
     49210 MEMB     395      QMPE     H12Y     HAL2     0.900000E-01   1.00800           0
     49211 MEMB     395      QMPE     C313     CTL2    -0.180000       12.0110           0
     49212 MEMB     395      QMPE     H13X     HAL2     0.900000E-01   1.00800           0
     49213 MEMB     395      QMPE     H13Y     HAL2     0.900000E-01   1.00800           0
     49214 MEMB     395      QMPE     C314     CTL2    -0.180000       12.0110           0
     49215 MEMB     395      QMPE     H14X     HAL2     0.900000E-01   1.00800           0
     49216 MEMB     395      QMPE     H14Y     HAL2     0.900000E-01   1.00800           0
     49217 MEMB     395      QMPE     C315     CTL3    -0.270000       12.0110           0
     49218 MEMB     395      QMPE     H15X     HAL3     0.900000E-01   1.00800           0
     49219 MEMB     395      QMPE     H15Y     HAL3     0.900000E-01   1.00800           0
     49220 MEMB     395      QMPE     H15Z     HAL3     0.900000E-01   1.00800           0
     49221 MEMB     396      QMPE     N        NH3L    -0.300000       14.0070           0
     49222 MEMB     396      QMPE     HN1      HCL      0.330000       1.00800           0
     49223 MEMB     396      QMPE     HN2      HCL      0.330000       1.00800           0
     49224 MEMB     396      QMPE     HN3      HCL      0.330000       1.00800           0
     49225 MEMB     396      QMPE     C12      CTL2     0.130000       12.0110           0
     49226 MEMB     396      QMPE     H12A     HAL2     0.900000E-01   1.00800           0
     49227 MEMB     396      QMPE     H12B     HAL2     0.900000E-01   1.00800           0
     49228 MEMB     396      QMPE     C11      CTL2    -0.800000E-01   12.0110           0
     49229 MEMB     396      QMPE     H11A     HAL2     0.900000E-01   1.00800           0
     49230 MEMB     396      QMPE     H11B     HAL2     0.900000E-01   1.00800           0
     49231 MEMB     396      QMPE     P        PL        1.50000       30.9740           0
     49232 MEMB     396      QMPE     O13      O2L     -0.780000       15.9994           0
     49233 MEMB     396      QMPE     O14      O2L     -0.780000       15.9994           0
     49234 MEMB     396      QMPE     O11      OSLP    -0.570000       15.9994           0
     49235 MEMB     396      QMPE     O12      OSLP    -0.570000       15.9994           0
     49236 MEMB     396      QMPE     C1       CTL2    -0.800000E-01   12.0110           0
     49237 MEMB     396      QMPE     HA       HAL2     0.900000E-01   1.00800           0
     49238 MEMB     396      QMPE     HB       HAL2     0.900000E-01   1.00800           0
     49239 MEMB     396      QMPE     C2       CTL1     0.170000       12.0110           0
     49240 MEMB     396      QMPE     HS       HAL1     0.900000E-01   1.00800           0
     49241 MEMB     396      QMPE     O21      OSL     -0.490000       15.9994           0
     49242 MEMB     396      QMPE     C21      CL       0.900000       12.0110           0
     49243 MEMB     396      QMPE     O22      OBL     -0.630000       15.9994           0
     49244 MEMB     396      QMPE     C22      CTL2    -0.220000       12.0110           0
     49245 MEMB     396      QMPE     H2R      HAL2     0.900000E-01   1.00800           0
     49246 MEMB     396      QMPE     H2S      HAL2     0.900000E-01   1.00800           0
     49247 MEMB     396      QMPE     C3       CTL2     0.800000E-01   12.0110           0
     49248 MEMB     396      QMPE     HX       HAL2     0.900000E-01   1.00800           0
     49249 MEMB     396      QMPE     HY       HAL2     0.900000E-01   1.00800           0
     49250 MEMB     396      QMPE     O31      OSL     -0.490000       15.9994           0
     49251 MEMB     396      QMPE     C31      CL       0.900000       12.0110           0
     49252 MEMB     396      QMPE     O32      OBL     -0.630000       15.9994           0
     49253 MEMB     396      QMPE     C32      CTL2    -0.220000       12.0110           0
     49254 MEMB     396      QMPE     H2X      HAL2     0.900000E-01   1.00800           0
     49255 MEMB     396      QMPE     H2Y      HAL2     0.900000E-01   1.00800           0
     49256 MEMB     396      QMPE     C23      CTL2    -0.180000       12.0110           0
     49257 MEMB     396      QMPE     H3R      HAL2     0.900000E-01   1.00800           0
     49258 MEMB     396      QMPE     H3S      HAL2     0.900000E-01   1.00800           0
     49259 MEMB     396      QMPE     C24      CTL2    -0.180000       12.0110           0
     49260 MEMB     396      QMPE     H4R      HAL2     0.900000E-01   1.00800           0
     49261 MEMB     396      QMPE     H4S      HAL2     0.900000E-01   1.00800           0
     49262 MEMB     396      QMPE     C25      CTL2    -0.180000       12.0110           0
     49263 MEMB     396      QMPE     H5R      HAL2     0.900000E-01   1.00800           0
     49264 MEMB     396      QMPE     H5S      HAL2     0.900000E-01   1.00800           0
     49265 MEMB     396      QMPE     C26      CTL2    -0.180000       12.0110           0
     49266 MEMB     396      QMPE     H6R      HAL2     0.900000E-01   1.00800           0
     49267 MEMB     396      QMPE     H6S      HAL2     0.900000E-01   1.00800           0
     49268 MEMB     396      QMPE     C27      CTL2    -0.180000       12.0110           0
     49269 MEMB     396      QMPE     H7R      HAL2     0.900000E-01   1.00800           0
     49270 MEMB     396      QMPE     H7S      HAL2     0.900000E-01   1.00800           0
     49271 MEMB     396      QMPE     C28      CTL2    -0.180000       12.0110           0
     49272 MEMB     396      QMPE     H8R      HAL2     0.900000E-01   1.00800           0
     49273 MEMB     396      QMPE     H8S      HAL2     0.900000E-01   1.00800           0
     49274 MEMB     396      QMPE     C29      CG3RC1  -0.900000E-01   12.0110           0
     49275 MEMB     396      QMPE     H9R      HGA1     0.900000E-01   1.00800           0
     49276 MEMB     396      QMPE     C217     CG3C31  -0.180000       12.0110           0
     49277 MEMB     396      QMPE     H17R     HGA2     0.900000E-01   1.00800           0
     49278 MEMB     396      QMPE     H17S     HGA2     0.900000E-01   1.00800           0
     49279 MEMB     396      QMPE     C210     CG3RC1  -0.900000E-01   12.0110           0
     49280 MEMB     396      QMPE     H10R     HGA1     0.900000E-01   1.00800           0
     49281 MEMB     396      QMPE     C211     CTL2    -0.180000       12.0110           0
     49282 MEMB     396      QMPE     H11R     HAL2     0.900000E-01   1.00800           0
     49283 MEMB     396      QMPE     H11S     HAL2     0.900000E-01   1.00800           0
     49284 MEMB     396      QMPE     C212     CTL2    -0.180000       12.0110           0
     49285 MEMB     396      QMPE     H12R     HAL2     0.900000E-01   1.00800           0
     49286 MEMB     396      QMPE     H12S     HAL2     0.900000E-01   1.00800           0
     49287 MEMB     396      QMPE     C213     CTL2    -0.180000       12.0110           0
     49288 MEMB     396      QMPE     H13R     HAL2     0.900000E-01   1.00800           0
     49289 MEMB     396      QMPE     H13S     HAL2     0.900000E-01   1.00800           0
     49290 MEMB     396      QMPE     C214     CTL2    -0.180000       12.0110           0
     49291 MEMB     396      QMPE     H14R     HAL2     0.900000E-01   1.00800           0
     49292 MEMB     396      QMPE     H14S     HAL2     0.900000E-01   1.00800           0
     49293 MEMB     396      QMPE     C215     CTL2    -0.180000       12.0110           0
     49294 MEMB     396      QMPE     H15R     HAL2     0.900000E-01   1.00800           0
     49295 MEMB     396      QMPE     H15S     HAL2     0.900000E-01   1.00800           0
     49296 MEMB     396      QMPE     C216     CTL3    -0.270000       12.0110           0
     49297 MEMB     396      QMPE     H16R     HAL3     0.900000E-01   1.00800           0
     49298 MEMB     396      QMPE     H16S     HAL3     0.900000E-01   1.00800           0
     49299 MEMB     396      QMPE     H16T     HAL3     0.900000E-01   1.00800           0
     49300 MEMB     396      QMPE     C33      CTL2    -0.180000       12.0110           0
     49301 MEMB     396      QMPE     H3X      HAL2     0.900000E-01   1.00800           0
     49302 MEMB     396      QMPE     H3Y      HAL2     0.900000E-01   1.00800           0
     49303 MEMB     396      QMPE     C34      CTL2    -0.180000       12.0110           0
     49304 MEMB     396      QMPE     H4X      HAL2     0.900000E-01   1.00800           0
     49305 MEMB     396      QMPE     H4Y      HAL2     0.900000E-01   1.00800           0
     49306 MEMB     396      QMPE     C35      CTL2    -0.180000       12.0110           0
     49307 MEMB     396      QMPE     H5X      HAL2     0.900000E-01   1.00800           0
     49308 MEMB     396      QMPE     H5Y      HAL2     0.900000E-01   1.00800           0
     49309 MEMB     396      QMPE     C36      CTL2    -0.180000       12.0110           0
     49310 MEMB     396      QMPE     H6X      HAL2     0.900000E-01   1.00800           0
     49311 MEMB     396      QMPE     H6Y      HAL2     0.900000E-01   1.00800           0
     49312 MEMB     396      QMPE     C37      CTL2    -0.180000       12.0110           0
     49313 MEMB     396      QMPE     H7X      HAL2     0.900000E-01   1.00800           0
     49314 MEMB     396      QMPE     H7Y      HAL2     0.900000E-01   1.00800           0
     49315 MEMB     396      QMPE     C38      CTL2    -0.180000       12.0110           0
     49316 MEMB     396      QMPE     H8X      HAL2     0.900000E-01   1.00800           0
     49317 MEMB     396      QMPE     H8Y      HAL2     0.900000E-01   1.00800           0
     49318 MEMB     396      QMPE     C39      CTL2    -0.180000       12.0110           0
     49319 MEMB     396      QMPE     H9X      HAL2     0.900000E-01   1.00800           0
     49320 MEMB     396      QMPE     H9Y      HAL2     0.900000E-01   1.00800           0
     49321 MEMB     396      QMPE     C310     CTL2    -0.180000       12.0110           0
     49322 MEMB     396      QMPE     H10X     HAL2     0.900000E-01   1.00800           0
     49323 MEMB     396      QMPE     H10Y     HAL2     0.900000E-01   1.00800           0
     49324 MEMB     396      QMPE     C311     CTL2    -0.180000       12.0110           0
     49325 MEMB     396      QMPE     H11X     HAL2     0.900000E-01   1.00800           0
     49326 MEMB     396      QMPE     H11Y     HAL2     0.900000E-01   1.00800           0
     49327 MEMB     396      QMPE     C312     CTL2    -0.180000       12.0110           0
     49328 MEMB     396      QMPE     H12X     HAL2     0.900000E-01   1.00800           0
     49329 MEMB     396      QMPE     H12Y     HAL2     0.900000E-01   1.00800           0
     49330 MEMB     396      QMPE     C313     CTL2    -0.180000       12.0110           0
     49331 MEMB     396      QMPE     H13X     HAL2     0.900000E-01   1.00800           0
     49332 MEMB     396      QMPE     H13Y     HAL2     0.900000E-01   1.00800           0
     49333 MEMB     396      QMPE     C314     CTL2    -0.180000       12.0110           0
     49334 MEMB     396      QMPE     H14X     HAL2     0.900000E-01   1.00800           0
     49335 MEMB     396      QMPE     H14Y     HAL2     0.900000E-01   1.00800           0
     49336 MEMB     396      QMPE     C315     CTL3    -0.270000       12.0110           0
     49337 MEMB     396      QMPE     H15X     HAL3     0.900000E-01   1.00800           0
     49338 MEMB     396      QMPE     H15Y     HAL3     0.900000E-01   1.00800           0
     49339 MEMB     396      QMPE     H15Z     HAL3     0.900000E-01   1.00800           0
     49340 MEMB     397      PMPE     N        NH3L    -0.300000       14.0070           0
     49341 MEMB     397      PMPE     HN1      HCL      0.330000       1.00800           0
     49342 MEMB     397      PMPE     HN2      HCL      0.330000       1.00800           0
     49343 MEMB     397      PMPE     HN3      HCL      0.330000       1.00800           0
     49344 MEMB     397      PMPE     C12      CTL2     0.130000       12.0110           0
     49345 MEMB     397      PMPE     H12A     HAL2     0.900000E-01   1.00800           0
     49346 MEMB     397      PMPE     H12B     HAL2     0.900000E-01   1.00800           0
     49347 MEMB     397      PMPE     C11      CTL2    -0.800000E-01   12.0110           0
     49348 MEMB     397      PMPE     H11A     HAL2     0.900000E-01   1.00800           0
     49349 MEMB     397      PMPE     H11B     HAL2     0.900000E-01   1.00800           0
     49350 MEMB     397      PMPE     P        PL        1.50000       30.9740           0
     49351 MEMB     397      PMPE     O13      O2L     -0.780000       15.9994           0
     49352 MEMB     397      PMPE     O14      O2L     -0.780000       15.9994           0
     49353 MEMB     397      PMPE     O11      OSLP    -0.570000       15.9994           0
     49354 MEMB     397      PMPE     O12      OSLP    -0.570000       15.9994           0
     49355 MEMB     397      PMPE     C1       CTL2    -0.800000E-01   12.0110           0
     49356 MEMB     397      PMPE     HA       HAL2     0.900000E-01   1.00800           0
     49357 MEMB     397      PMPE     HB       HAL2     0.900000E-01   1.00800           0
     49358 MEMB     397      PMPE     C2       CTL1     0.170000       12.0110           0
     49359 MEMB     397      PMPE     HS       HAL1     0.900000E-01   1.00800           0
     49360 MEMB     397      PMPE     O21      OSL     -0.490000       15.9994           0
     49361 MEMB     397      PMPE     C21      CL       0.900000       12.0110           0
     49362 MEMB     397      PMPE     O22      OBL     -0.630000       15.9994           0
     49363 MEMB     397      PMPE     C22      CTL2    -0.220000       12.0110           0
     49364 MEMB     397      PMPE     H2R      HAL2     0.900000E-01   1.00800           0
     49365 MEMB     397      PMPE     H2S      HAL2     0.900000E-01   1.00800           0
     49366 MEMB     397      PMPE     C3       CTL2     0.800000E-01   12.0110           0
     49367 MEMB     397      PMPE     HX       HAL2     0.900000E-01   1.00800           0
     49368 MEMB     397      PMPE     HY       HAL2     0.900000E-01   1.00800           0
     49369 MEMB     397      PMPE     O31      OSL     -0.490000       15.9994           0
     49370 MEMB     397      PMPE     C31      CL       0.900000       12.0110           0
     49371 MEMB     397      PMPE     O32      OBL     -0.630000       15.9994           0
     49372 MEMB     397      PMPE     C32      CTL2    -0.220000       12.0110           0
     49373 MEMB     397      PMPE     H2X      HAL2     0.900000E-01   1.00800           0
     49374 MEMB     397      PMPE     H2Y      HAL2     0.900000E-01   1.00800           0
     49375 MEMB     397      PMPE     C23      CTL2    -0.180000       12.0110           0
     49376 MEMB     397      PMPE     H3R      HAL2     0.900000E-01   1.00800           0
     49377 MEMB     397      PMPE     H3S      HAL2     0.900000E-01   1.00800           0
     49378 MEMB     397      PMPE     C24      CTL2    -0.180000       12.0110           0
     49379 MEMB     397      PMPE     H4R      HAL2     0.900000E-01   1.00800           0
     49380 MEMB     397      PMPE     H4S      HAL2     0.900000E-01   1.00800           0
     49381 MEMB     397      PMPE     C25      CTL2    -0.180000       12.0110           0
     49382 MEMB     397      PMPE     H5R      HAL2     0.900000E-01   1.00800           0
     49383 MEMB     397      PMPE     H5S      HAL2     0.900000E-01   1.00800           0
     49384 MEMB     397      PMPE     C26      CTL2    -0.180000       12.0110           0
     49385 MEMB     397      PMPE     H6R      HAL2     0.900000E-01   1.00800           0
     49386 MEMB     397      PMPE     H6S      HAL2     0.900000E-01   1.00800           0
     49387 MEMB     397      PMPE     C27      CTL2    -0.180000       12.0110           0
     49388 MEMB     397      PMPE     H7R      HAL2     0.900000E-01   1.00800           0
     49389 MEMB     397      PMPE     H7S      HAL2     0.900000E-01   1.00800           0
     49390 MEMB     397      PMPE     C28      CTL2    -0.180000       12.0110           0
     49391 MEMB     397      PMPE     H8R      HAL2     0.900000E-01   1.00800           0
     49392 MEMB     397      PMPE     H8S      HAL2     0.900000E-01   1.00800           0
     49393 MEMB     397      PMPE     C29      CG3RC1  -0.900000E-01   12.0110           0
     49394 MEMB     397      PMPE     H9R      HGA1     0.900000E-01   1.00800           0
     49395 MEMB     397      PMPE     C217     CG3C31  -0.180000       12.0110           0
     49396 MEMB     397      PMPE     H17R     HGA2     0.900000E-01   1.00800           0
     49397 MEMB     397      PMPE     H17S     HGA2     0.900000E-01   1.00800           0
     49398 MEMB     397      PMPE     C210     CG3RC1  -0.900000E-01   12.0110           0
     49399 MEMB     397      PMPE     H10R     HGA1     0.900000E-01   1.00800           0
     49400 MEMB     397      PMPE     C211     CTL2    -0.180000       12.0110           0
     49401 MEMB     397      PMPE     H11R     HAL2     0.900000E-01   1.00800           0
     49402 MEMB     397      PMPE     H11S     HAL2     0.900000E-01   1.00800           0
     49403 MEMB     397      PMPE     C212     CTL2    -0.180000       12.0110           0
     49404 MEMB     397      PMPE     H12R     HAL2     0.900000E-01   1.00800           0
     49405 MEMB     397      PMPE     H12S     HAL2     0.900000E-01   1.00800           0
     49406 MEMB     397      PMPE     C213     CTL2    -0.180000       12.0110           0
     49407 MEMB     397      PMPE     H13R     HAL2     0.900000E-01   1.00800           0
     49408 MEMB     397      PMPE     H13S     HAL2     0.900000E-01   1.00800           0
     49409 MEMB     397      PMPE     C214     CTL2    -0.180000       12.0110           0
     49410 MEMB     397      PMPE     H14R     HAL2     0.900000E-01   1.00800           0
     49411 MEMB     397      PMPE     H14S     HAL2     0.900000E-01   1.00800           0
     49412 MEMB     397      PMPE     C215     CTL2    -0.180000       12.0110           0
     49413 MEMB     397      PMPE     H15R     HAL2     0.900000E-01   1.00800           0
     49414 MEMB     397      PMPE     H15S     HAL2     0.900000E-01   1.00800           0
     49415 MEMB     397      PMPE     C216     CTL3    -0.270000       12.0110           0
     49416 MEMB     397      PMPE     H16R     HAL3     0.900000E-01   1.00800           0
     49417 MEMB     397      PMPE     H16S     HAL3     0.900000E-01   1.00800           0
     49418 MEMB     397      PMPE     H16T     HAL3     0.900000E-01   1.00800           0
     49419 MEMB     397      PMPE     C33      CTL2    -0.180000       12.0110           0
     49420 MEMB     397      PMPE     H3X      HAL2     0.900000E-01   1.00800           0
     49421 MEMB     397      PMPE     H3Y      HAL2     0.900000E-01   1.00800           0
     49422 MEMB     397      PMPE     C34      CTL2    -0.180000       12.0110           0
     49423 MEMB     397      PMPE     H4X      HAL2     0.900000E-01   1.00800           0
     49424 MEMB     397      PMPE     H4Y      HAL2     0.900000E-01   1.00800           0
     49425 MEMB     397      PMPE     C35      CTL2    -0.180000       12.0110           0
     49426 MEMB     397      PMPE     H5X      HAL2     0.900000E-01   1.00800           0
     49427 MEMB     397      PMPE     H5Y      HAL2     0.900000E-01   1.00800           0
     49428 MEMB     397      PMPE     C36      CTL2    -0.180000       12.0110           0
     49429 MEMB     397      PMPE     H6X      HAL2     0.900000E-01   1.00800           0
     49430 MEMB     397      PMPE     H6Y      HAL2     0.900000E-01   1.00800           0
     49431 MEMB     397      PMPE     C37      CTL2    -0.180000       12.0110           0
     49432 MEMB     397      PMPE     H7X      HAL2     0.900000E-01   1.00800           0
     49433 MEMB     397      PMPE     H7Y      HAL2     0.900000E-01   1.00800           0
     49434 MEMB     397      PMPE     C38      CTL2    -0.180000       12.0110           0
     49435 MEMB     397      PMPE     H8X      HAL2     0.900000E-01   1.00800           0
     49436 MEMB     397      PMPE     H8Y      HAL2     0.900000E-01   1.00800           0
     49437 MEMB     397      PMPE     C39      CTL2    -0.180000       12.0110           0
     49438 MEMB     397      PMPE     H9X      HAL2     0.900000E-01   1.00800           0
     49439 MEMB     397      PMPE     H9Y      HAL2     0.900000E-01   1.00800           0
     49440 MEMB     397      PMPE     C310     CTL2    -0.180000       12.0110           0
     49441 MEMB     397      PMPE     H10X     HAL2     0.900000E-01   1.00800           0
     49442 MEMB     397      PMPE     H10Y     HAL2     0.900000E-01   1.00800           0
     49443 MEMB     397      PMPE     C311     CTL2    -0.180000       12.0110           0
     49444 MEMB     397      PMPE     H11X     HAL2     0.900000E-01   1.00800           0
     49445 MEMB     397      PMPE     H11Y     HAL2     0.900000E-01   1.00800           0
     49446 MEMB     397      PMPE     C312     CTL2    -0.180000       12.0110           0
     49447 MEMB     397      PMPE     H12X     HAL2     0.900000E-01   1.00800           0
     49448 MEMB     397      PMPE     H12Y     HAL2     0.900000E-01   1.00800           0
     49449 MEMB     397      PMPE     C313     CTL2    -0.180000       12.0110           0
     49450 MEMB     397      PMPE     H13X     HAL2     0.900000E-01   1.00800           0
     49451 MEMB     397      PMPE     H13Y     HAL2     0.900000E-01   1.00800           0
     49452 MEMB     397      PMPE     C314     CTL2    -0.180000       12.0110           0
     49453 MEMB     397      PMPE     H14X     HAL2     0.900000E-01   1.00800           0
     49454 MEMB     397      PMPE     H14Y     HAL2     0.900000E-01   1.00800           0
     49455 MEMB     397      PMPE     C315     CTL2    -0.180000       12.0110           0
     49456 MEMB     397      PMPE     H15X     HAL2     0.900000E-01   1.00800           0
     49457 MEMB     397      PMPE     H15Y     HAL2     0.900000E-01   1.00800           0
     49458 MEMB     397      PMPE     C316     CTL3    -0.270000       12.0110           0
     49459 MEMB     397      PMPE     H16X     HAL3     0.900000E-01   1.00800           0
     49460 MEMB     397      PMPE     H16Y     HAL3     0.900000E-01   1.00800           0
     49461 MEMB     397      PMPE     H16Z     HAL3     0.900000E-01   1.00800           0
     49462 MEMB     398      POPE     N        NH3L    -0.300000       14.0070           0
     49463 MEMB     398      POPE     HN1      HCL      0.330000       1.00800           0
     49464 MEMB     398      POPE     HN2      HCL      0.330000       1.00800           0
     49465 MEMB     398      POPE     HN3      HCL      0.330000       1.00800           0
     49466 MEMB     398      POPE     C12      CTL2     0.130000       12.0110           0
     49467 MEMB     398      POPE     H12A     HAL2     0.900000E-01   1.00800           0
     49468 MEMB     398      POPE     H12B     HAL2     0.900000E-01   1.00800           0
     49469 MEMB     398      POPE     C11      CTL2    -0.800000E-01   12.0110           0
     49470 MEMB     398      POPE     H11A     HAL2     0.900000E-01   1.00800           0
     49471 MEMB     398      POPE     H11B     HAL2     0.900000E-01   1.00800           0
     49472 MEMB     398      POPE     P        PL        1.50000       30.9740           0
     49473 MEMB     398      POPE     O13      O2L     -0.780000       15.9994           0
     49474 MEMB     398      POPE     O14      O2L     -0.780000       15.9994           0
     49475 MEMB     398      POPE     O11      OSLP    -0.570000       15.9994           0
     49476 MEMB     398      POPE     O12      OSLP    -0.570000       15.9994           0
     49477 MEMB     398      POPE     C1       CTL2    -0.800000E-01   12.0110           0
     49478 MEMB     398      POPE     HA       HAL2     0.900000E-01   1.00800           0
     49479 MEMB     398      POPE     HB       HAL2     0.900000E-01   1.00800           0
     49480 MEMB     398      POPE     C2       CTL1     0.170000       12.0110           0
     49481 MEMB     398      POPE     HS       HAL1     0.900000E-01   1.00800           0
     49482 MEMB     398      POPE     O21      OSL     -0.490000       15.9994           0
     49483 MEMB     398      POPE     C21      CL       0.900000       12.0110           0
     49484 MEMB     398      POPE     O22      OBL     -0.630000       15.9994           0
     49485 MEMB     398      POPE     C22      CTL2    -0.220000       12.0110           0
     49486 MEMB     398      POPE     H2R      HAL2     0.900000E-01   1.00800           0
     49487 MEMB     398      POPE     H2S      HAL2     0.900000E-01   1.00800           0
     49488 MEMB     398      POPE     C3       CTL2     0.800000E-01   12.0110           0
     49489 MEMB     398      POPE     HX       HAL2     0.900000E-01   1.00800           0
     49490 MEMB     398      POPE     HY       HAL2     0.900000E-01   1.00800           0
     49491 MEMB     398      POPE     O31      OSL     -0.490000       15.9994           0
     49492 MEMB     398      POPE     C31      CL       0.900000       12.0110           0
     49493 MEMB     398      POPE     O32      OBL     -0.630000       15.9994           0
     49494 MEMB     398      POPE     C32      CTL2    -0.220000       12.0110           0
     49495 MEMB     398      POPE     H2X      HAL2     0.900000E-01   1.00800           0
     49496 MEMB     398      POPE     H2Y      HAL2     0.900000E-01   1.00800           0
     49497 MEMB     398      POPE     C23      CTL2    -0.180000       12.0110           0
     49498 MEMB     398      POPE     H3R      HAL2     0.900000E-01   1.00800           0
     49499 MEMB     398      POPE     H3S      HAL2     0.900000E-01   1.00800           0
     49500 MEMB     398      POPE     C24      CTL2    -0.180000       12.0110           0
     49501 MEMB     398      POPE     H4R      HAL2     0.900000E-01   1.00800           0
     49502 MEMB     398      POPE     H4S      HAL2     0.900000E-01   1.00800           0
     49503 MEMB     398      POPE     C25      CTL2    -0.180000       12.0110           0
     49504 MEMB     398      POPE     H5R      HAL2     0.900000E-01   1.00800           0
     49505 MEMB     398      POPE     H5S      HAL2     0.900000E-01   1.00800           0
     49506 MEMB     398      POPE     C26      CTL2    -0.180000       12.0110           0
     49507 MEMB     398      POPE     H6R      HAL2     0.900000E-01   1.00800           0
     49508 MEMB     398      POPE     H6S      HAL2     0.900000E-01   1.00800           0
     49509 MEMB     398      POPE     C27      CTL2    -0.180000       12.0110           0
     49510 MEMB     398      POPE     H7R      HAL2     0.900000E-01   1.00800           0
     49511 MEMB     398      POPE     H7S      HAL2     0.900000E-01   1.00800           0
     49512 MEMB     398      POPE     C28      CTL2    -0.180000       12.0110           0
     49513 MEMB     398      POPE     H8R      HAL2     0.900000E-01   1.00800           0
     49514 MEMB     398      POPE     H8S      HAL2     0.900000E-01   1.00800           0
     49515 MEMB     398      POPE     C29      CEL1    -0.150000       12.0110           0
     49516 MEMB     398      POPE     H91      HEL1     0.150000       1.00800           0
     49517 MEMB     398      POPE     C210     CEL1    -0.150000       12.0110           0
     49518 MEMB     398      POPE     H101     HEL1     0.150000       1.00800           0
     49519 MEMB     398      POPE     C211     CTL2    -0.180000       12.0110           0
     49520 MEMB     398      POPE     H11R     HAL2     0.900000E-01   1.00800           0
     49521 MEMB     398      POPE     H11S     HAL2     0.900000E-01   1.00800           0
     49522 MEMB     398      POPE     C212     CTL2    -0.180000       12.0110           0
     49523 MEMB     398      POPE     H12R     HAL2     0.900000E-01   1.00800           0
     49524 MEMB     398      POPE     H12S     HAL2     0.900000E-01   1.00800           0
     49525 MEMB     398      POPE     C213     CTL2    -0.180000       12.0110           0
     49526 MEMB     398      POPE     H13R     HAL2     0.900000E-01   1.00800           0
     49527 MEMB     398      POPE     H13S     HAL2     0.900000E-01   1.00800           0
     49528 MEMB     398      POPE     C214     CTL2    -0.180000       12.0110           0
     49529 MEMB     398      POPE     H14R     HAL2     0.900000E-01   1.00800           0
     49530 MEMB     398      POPE     H14S     HAL2     0.900000E-01   1.00800           0
     49531 MEMB     398      POPE     C215     CTL2    -0.180000       12.0110           0
     49532 MEMB     398      POPE     H15R     HAL2     0.900000E-01   1.00800           0
     49533 MEMB     398      POPE     H15S     HAL2     0.900000E-01   1.00800           0
     49534 MEMB     398      POPE     C216     CTL2    -0.180000       12.0110           0
     49535 MEMB     398      POPE     H16R     HAL2     0.900000E-01   1.00800           0
     49536 MEMB     398      POPE     H16S     HAL2     0.900000E-01   1.00800           0
     49537 MEMB     398      POPE     C217     CTL2    -0.180000       12.0110           0
     49538 MEMB     398      POPE     H17R     HAL2     0.900000E-01   1.00800           0
     49539 MEMB     398      POPE     H17S     HAL2     0.900000E-01   1.00800           0
     49540 MEMB     398      POPE     C218     CTL3    -0.270000       12.0110           0
     49541 MEMB     398      POPE     H18R     HAL3     0.900000E-01   1.00800           0
     49542 MEMB     398      POPE     H18S     HAL3     0.900000E-01   1.00800           0
     49543 MEMB     398      POPE     H18T     HAL3     0.900000E-01   1.00800           0
     49544 MEMB     398      POPE     C33      CTL2    -0.180000       12.0110           0
     49545 MEMB     398      POPE     H3X      HAL2     0.900000E-01   1.00800           0
     49546 MEMB     398      POPE     H3Y      HAL2     0.900000E-01   1.00800           0
     49547 MEMB     398      POPE     C34      CTL2    -0.180000       12.0110           0
     49548 MEMB     398      POPE     H4X      HAL2     0.900000E-01   1.00800           0
     49549 MEMB     398      POPE     H4Y      HAL2     0.900000E-01   1.00800           0
     49550 MEMB     398      POPE     C35      CTL2    -0.180000       12.0110           0
     49551 MEMB     398      POPE     H5X      HAL2     0.900000E-01   1.00800           0
     49552 MEMB     398      POPE     H5Y      HAL2     0.900000E-01   1.00800           0
     49553 MEMB     398      POPE     C36      CTL2    -0.180000       12.0110           0
     49554 MEMB     398      POPE     H6X      HAL2     0.900000E-01   1.00800           0
     49555 MEMB     398      POPE     H6Y      HAL2     0.900000E-01   1.00800           0
     49556 MEMB     398      POPE     C37      CTL2    -0.180000       12.0110           0
     49557 MEMB     398      POPE     H7X      HAL2     0.900000E-01   1.00800           0
     49558 MEMB     398      POPE     H7Y      HAL2     0.900000E-01   1.00800           0
     49559 MEMB     398      POPE     C38      CTL2    -0.180000       12.0110           0
     49560 MEMB     398      POPE     H8X      HAL2     0.900000E-01   1.00800           0
     49561 MEMB     398      POPE     H8Y      HAL2     0.900000E-01   1.00800           0
     49562 MEMB     398      POPE     C39      CTL2    -0.180000       12.0110           0
     49563 MEMB     398      POPE     H9X      HAL2     0.900000E-01   1.00800           0
     49564 MEMB     398      POPE     H9Y      HAL2     0.900000E-01   1.00800           0
     49565 MEMB     398      POPE     C310     CTL2    -0.180000       12.0110           0
     49566 MEMB     398      POPE     H10X     HAL2     0.900000E-01   1.00800           0
     49567 MEMB     398      POPE     H10Y     HAL2     0.900000E-01   1.00800           0
     49568 MEMB     398      POPE     C311     CTL2    -0.180000       12.0110           0
     49569 MEMB     398      POPE     H11X     HAL2     0.900000E-01   1.00800           0
     49570 MEMB     398      POPE     H11Y     HAL2     0.900000E-01   1.00800           0
     49571 MEMB     398      POPE     C312     CTL2    -0.180000       12.0110           0
     49572 MEMB     398      POPE     H12X     HAL2     0.900000E-01   1.00800           0
     49573 MEMB     398      POPE     H12Y     HAL2     0.900000E-01   1.00800           0
     49574 MEMB     398      POPE     C313     CTL2    -0.180000       12.0110           0
     49575 MEMB     398      POPE     H13X     HAL2     0.900000E-01   1.00800           0
     49576 MEMB     398      POPE     H13Y     HAL2     0.900000E-01   1.00800           0
     49577 MEMB     398      POPE     C314     CTL2    -0.180000       12.0110           0
     49578 MEMB     398      POPE     H14X     HAL2     0.900000E-01   1.00800           0
     49579 MEMB     398      POPE     H14Y     HAL2     0.900000E-01   1.00800           0
     49580 MEMB     398      POPE     C315     CTL2    -0.180000       12.0110           0
     49581 MEMB     398      POPE     H15X     HAL2     0.900000E-01   1.00800           0
     49582 MEMB     398      POPE     H15Y     HAL2     0.900000E-01   1.00800           0
     49583 MEMB     398      POPE     C316     CTL3    -0.270000       12.0110           0
     49584 MEMB     398      POPE     H16X     HAL3     0.900000E-01   1.00800           0
     49585 MEMB     398      POPE     H16Y     HAL3     0.900000E-01   1.00800           0
     49586 MEMB     398      POPE     H16Z     HAL3     0.900000E-01   1.00800           0
     49587 MEMB     399      POPE     N        NH3L    -0.300000       14.0070           0
     49588 MEMB     399      POPE     HN1      HCL      0.330000       1.00800           0
     49589 MEMB     399      POPE     HN2      HCL      0.330000       1.00800           0
     49590 MEMB     399      POPE     HN3      HCL      0.330000       1.00800           0
     49591 MEMB     399      POPE     C12      CTL2     0.130000       12.0110           0
     49592 MEMB     399      POPE     H12A     HAL2     0.900000E-01   1.00800           0
     49593 MEMB     399      POPE     H12B     HAL2     0.900000E-01   1.00800           0
     49594 MEMB     399      POPE     C11      CTL2    -0.800000E-01   12.0110           0
     49595 MEMB     399      POPE     H11A     HAL2     0.900000E-01   1.00800           0
     49596 MEMB     399      POPE     H11B     HAL2     0.900000E-01   1.00800           0
     49597 MEMB     399      POPE     P        PL        1.50000       30.9740           0
     49598 MEMB     399      POPE     O13      O2L     -0.780000       15.9994           0
     49599 MEMB     399      POPE     O14      O2L     -0.780000       15.9994           0
     49600 MEMB     399      POPE     O11      OSLP    -0.570000       15.9994           0
     49601 MEMB     399      POPE     O12      OSLP    -0.570000       15.9994           0
     49602 MEMB     399      POPE     C1       CTL2    -0.800000E-01   12.0110           0
     49603 MEMB     399      POPE     HA       HAL2     0.900000E-01   1.00800           0
     49604 MEMB     399      POPE     HB       HAL2     0.900000E-01   1.00800           0
     49605 MEMB     399      POPE     C2       CTL1     0.170000       12.0110           0
     49606 MEMB     399      POPE     HS       HAL1     0.900000E-01   1.00800           0
     49607 MEMB     399      POPE     O21      OSL     -0.490000       15.9994           0
     49608 MEMB     399      POPE     C21      CL       0.900000       12.0110           0
     49609 MEMB     399      POPE     O22      OBL     -0.630000       15.9994           0
     49610 MEMB     399      POPE     C22      CTL2    -0.220000       12.0110           0
     49611 MEMB     399      POPE     H2R      HAL2     0.900000E-01   1.00800           0
     49612 MEMB     399      POPE     H2S      HAL2     0.900000E-01   1.00800           0
     49613 MEMB     399      POPE     C3       CTL2     0.800000E-01   12.0110           0
     49614 MEMB     399      POPE     HX       HAL2     0.900000E-01   1.00800           0
     49615 MEMB     399      POPE     HY       HAL2     0.900000E-01   1.00800           0
     49616 MEMB     399      POPE     O31      OSL     -0.490000       15.9994           0
     49617 MEMB     399      POPE     C31      CL       0.900000       12.0110           0
     49618 MEMB     399      POPE     O32      OBL     -0.630000       15.9994           0
     49619 MEMB     399      POPE     C32      CTL2    -0.220000       12.0110           0
     49620 MEMB     399      POPE     H2X      HAL2     0.900000E-01   1.00800           0
     49621 MEMB     399      POPE     H2Y      HAL2     0.900000E-01   1.00800           0
     49622 MEMB     399      POPE     C23      CTL2    -0.180000       12.0110           0
     49623 MEMB     399      POPE     H3R      HAL2     0.900000E-01   1.00800           0
     49624 MEMB     399      POPE     H3S      HAL2     0.900000E-01   1.00800           0
     49625 MEMB     399      POPE     C24      CTL2    -0.180000       12.0110           0
     49626 MEMB     399      POPE     H4R      HAL2     0.900000E-01   1.00800           0
     49627 MEMB     399      POPE     H4S      HAL2     0.900000E-01   1.00800           0
     49628 MEMB     399      POPE     C25      CTL2    -0.180000       12.0110           0
     49629 MEMB     399      POPE     H5R      HAL2     0.900000E-01   1.00800           0
     49630 MEMB     399      POPE     H5S      HAL2     0.900000E-01   1.00800           0
     49631 MEMB     399      POPE     C26      CTL2    -0.180000       12.0110           0
     49632 MEMB     399      POPE     H6R      HAL2     0.900000E-01   1.00800           0
     49633 MEMB     399      POPE     H6S      HAL2     0.900000E-01   1.00800           0
     49634 MEMB     399      POPE     C27      CTL2    -0.180000       12.0110           0
     49635 MEMB     399      POPE     H7R      HAL2     0.900000E-01   1.00800           0
     49636 MEMB     399      POPE     H7S      HAL2     0.900000E-01   1.00800           0
     49637 MEMB     399      POPE     C28      CTL2    -0.180000       12.0110           0
     49638 MEMB     399      POPE     H8R      HAL2     0.900000E-01   1.00800           0
     49639 MEMB     399      POPE     H8S      HAL2     0.900000E-01   1.00800           0
     49640 MEMB     399      POPE     C29      CEL1    -0.150000       12.0110           0
     49641 MEMB     399      POPE     H91      HEL1     0.150000       1.00800           0
     49642 MEMB     399      POPE     C210     CEL1    -0.150000       12.0110           0
     49643 MEMB     399      POPE     H101     HEL1     0.150000       1.00800           0
     49644 MEMB     399      POPE     C211     CTL2    -0.180000       12.0110           0
     49645 MEMB     399      POPE     H11R     HAL2     0.900000E-01   1.00800           0
     49646 MEMB     399      POPE     H11S     HAL2     0.900000E-01   1.00800           0
     49647 MEMB     399      POPE     C212     CTL2    -0.180000       12.0110           0
     49648 MEMB     399      POPE     H12R     HAL2     0.900000E-01   1.00800           0
     49649 MEMB     399      POPE     H12S     HAL2     0.900000E-01   1.00800           0
     49650 MEMB     399      POPE     C213     CTL2    -0.180000       12.0110           0
     49651 MEMB     399      POPE     H13R     HAL2     0.900000E-01   1.00800           0
     49652 MEMB     399      POPE     H13S     HAL2     0.900000E-01   1.00800           0
     49653 MEMB     399      POPE     C214     CTL2    -0.180000       12.0110           0
     49654 MEMB     399      POPE     H14R     HAL2     0.900000E-01   1.00800           0
     49655 MEMB     399      POPE     H14S     HAL2     0.900000E-01   1.00800           0
     49656 MEMB     399      POPE     C215     CTL2    -0.180000       12.0110           0
     49657 MEMB     399      POPE     H15R     HAL2     0.900000E-01   1.00800           0
     49658 MEMB     399      POPE     H15S     HAL2     0.900000E-01   1.00800           0
     49659 MEMB     399      POPE     C216     CTL2    -0.180000       12.0110           0
     49660 MEMB     399      POPE     H16R     HAL2     0.900000E-01   1.00800           0
     49661 MEMB     399      POPE     H16S     HAL2     0.900000E-01   1.00800           0
     49662 MEMB     399      POPE     C217     CTL2    -0.180000       12.0110           0
     49663 MEMB     399      POPE     H17R     HAL2     0.900000E-01   1.00800           0
     49664 MEMB     399      POPE     H17S     HAL2     0.900000E-01   1.00800           0
     49665 MEMB     399      POPE     C218     CTL3    -0.270000       12.0110           0
     49666 MEMB     399      POPE     H18R     HAL3     0.900000E-01   1.00800           0
     49667 MEMB     399      POPE     H18S     HAL3     0.900000E-01   1.00800           0
     49668 MEMB     399      POPE     H18T     HAL3     0.900000E-01   1.00800           0
     49669 MEMB     399      POPE     C33      CTL2    -0.180000       12.0110           0
     49670 MEMB     399      POPE     H3X      HAL2     0.900000E-01   1.00800           0
     49671 MEMB     399      POPE     H3Y      HAL2     0.900000E-01   1.00800           0
     49672 MEMB     399      POPE     C34      CTL2    -0.180000       12.0110           0
     49673 MEMB     399      POPE     H4X      HAL2     0.900000E-01   1.00800           0
     49674 MEMB     399      POPE     H4Y      HAL2     0.900000E-01   1.00800           0
     49675 MEMB     399      POPE     C35      CTL2    -0.180000       12.0110           0
     49676 MEMB     399      POPE     H5X      HAL2     0.900000E-01   1.00800           0
     49677 MEMB     399      POPE     H5Y      HAL2     0.900000E-01   1.00800           0
     49678 MEMB     399      POPE     C36      CTL2    -0.180000       12.0110           0
     49679 MEMB     399      POPE     H6X      HAL2     0.900000E-01   1.00800           0
     49680 MEMB     399      POPE     H6Y      HAL2     0.900000E-01   1.00800           0
     49681 MEMB     399      POPE     C37      CTL2    -0.180000       12.0110           0
     49682 MEMB     399      POPE     H7X      HAL2     0.900000E-01   1.00800           0
     49683 MEMB     399      POPE     H7Y      HAL2     0.900000E-01   1.00800           0
     49684 MEMB     399      POPE     C38      CTL2    -0.180000       12.0110           0
     49685 MEMB     399      POPE     H8X      HAL2     0.900000E-01   1.00800           0
     49686 MEMB     399      POPE     H8Y      HAL2     0.900000E-01   1.00800           0
     49687 MEMB     399      POPE     C39      CTL2    -0.180000       12.0110           0
     49688 MEMB     399      POPE     H9X      HAL2     0.900000E-01   1.00800           0
     49689 MEMB     399      POPE     H9Y      HAL2     0.900000E-01   1.00800           0
     49690 MEMB     399      POPE     C310     CTL2    -0.180000       12.0110           0
     49691 MEMB     399      POPE     H10X     HAL2     0.900000E-01   1.00800           0
     49692 MEMB     399      POPE     H10Y     HAL2     0.900000E-01   1.00800           0
     49693 MEMB     399      POPE     C311     CTL2    -0.180000       12.0110           0
     49694 MEMB     399      POPE     H11X     HAL2     0.900000E-01   1.00800           0
     49695 MEMB     399      POPE     H11Y     HAL2     0.900000E-01   1.00800           0
     49696 MEMB     399      POPE     C312     CTL2    -0.180000       12.0110           0
     49697 MEMB     399      POPE     H12X     HAL2     0.900000E-01   1.00800           0
     49698 MEMB     399      POPE     H12Y     HAL2     0.900000E-01   1.00800           0
     49699 MEMB     399      POPE     C313     CTL2    -0.180000       12.0110           0
     49700 MEMB     399      POPE     H13X     HAL2     0.900000E-01   1.00800           0
     49701 MEMB     399      POPE     H13Y     HAL2     0.900000E-01   1.00800           0
     49702 MEMB     399      POPE     C314     CTL2    -0.180000       12.0110           0
     49703 MEMB     399      POPE     H14X     HAL2     0.900000E-01   1.00800           0
     49704 MEMB     399      POPE     H14Y     HAL2     0.900000E-01   1.00800           0
     49705 MEMB     399      POPE     C315     CTL2    -0.180000       12.0110           0
     49706 MEMB     399      POPE     H15X     HAL2     0.900000E-01   1.00800           0
     49707 MEMB     399      POPE     H15Y     HAL2     0.900000E-01   1.00800           0
     49708 MEMB     399      POPE     C316     CTL3    -0.270000       12.0110           0
     49709 MEMB     399      POPE     H16X     HAL3     0.900000E-01   1.00800           0
     49710 MEMB     399      POPE     H16Y     HAL3     0.900000E-01   1.00800           0
     49711 MEMB     399      POPE     H16Z     HAL3     0.900000E-01   1.00800           0
     49712 MEMB     400      PYPG     C13      CTL2     0.500000E-01   12.0110           0
     49713 MEMB     400      PYPG     H13A     HAL2     0.900000E-01   1.00800           0
     49714 MEMB     400      PYPG     H13B     HAL2     0.900000E-01   1.00800           0
     49715 MEMB     400      PYPG     OC3      OHL     -0.660000       15.9994           0
     49716 MEMB     400      PYPG     HO3      HOL      0.430000       1.00800           0
     49717 MEMB     400      PYPG     C12      CTL1     0.140000       12.0110           0
     49718 MEMB     400      PYPG     H12A     HAL1     0.900000E-01   1.00800           0
     49719 MEMB     400      PYPG     OC2      OHL     -0.660000       15.9994           0
     49720 MEMB     400      PYPG     HO2      HOL      0.430000       1.00800           0
     49721 MEMB     400      PYPG     C11      CTL2    -0.800000E-01   12.0110           0
     49722 MEMB     400      PYPG     H11A     HAL2     0.900000E-01   1.00800           0
     49723 MEMB     400      PYPG     H11B     HAL2     0.900000E-01   1.00800           0
     49724 MEMB     400      PYPG     P        PL        1.50000       30.9740           0
     49725 MEMB     400      PYPG     O13      O2L     -0.780000       15.9994           0
     49726 MEMB     400      PYPG     O14      O2L     -0.780000       15.9994           0
     49727 MEMB     400      PYPG     O11      OSLP    -0.570000       15.9994           0
     49728 MEMB     400      PYPG     O12      OSLP    -0.570000       15.9994           0
     49729 MEMB     400      PYPG     C1       CTL2    -0.800000E-01   12.0110           0
     49730 MEMB     400      PYPG     HA       HAL2     0.900000E-01   1.00800           0
     49731 MEMB     400      PYPG     HB       HAL2     0.900000E-01   1.00800           0
     49732 MEMB     400      PYPG     C2       CTL1     0.170000       12.0110           0
     49733 MEMB     400      PYPG     HS       HAL1     0.900000E-01   1.00800           0
     49734 MEMB     400      PYPG     O21      OSL     -0.490000       15.9994           0
     49735 MEMB     400      PYPG     C21      CL       0.900000       12.0110           0
     49736 MEMB     400      PYPG     O22      OBL     -0.630000       15.9994           0
     49737 MEMB     400      PYPG     C22      CTL2    -0.220000       12.0110           0
     49738 MEMB     400      PYPG     H2R      HAL2     0.900000E-01   1.00800           0
     49739 MEMB     400      PYPG     H2S      HAL2     0.900000E-01   1.00800           0
     49740 MEMB     400      PYPG     C3       CTL2     0.800000E-01   12.0110           0
     49741 MEMB     400      PYPG     HX       HAL2     0.900000E-01   1.00800           0
     49742 MEMB     400      PYPG     HY       HAL2     0.900000E-01   1.00800           0
     49743 MEMB     400      PYPG     O31      OSL     -0.490000       15.9994           0
     49744 MEMB     400      PYPG     C31      CL       0.900000       12.0110           0
     49745 MEMB     400      PYPG     O32      OBL     -0.630000       15.9994           0
     49746 MEMB     400      PYPG     C32      CTL2    -0.220000       12.0110           0
     49747 MEMB     400      PYPG     H2X      HAL2     0.900000E-01   1.00800           0
     49748 MEMB     400      PYPG     H2Y      HAL2     0.900000E-01   1.00800           0
     49749 MEMB     400      PYPG     C23      CTL2    -0.180000       12.0110           0
     49750 MEMB     400      PYPG     H3R      HAL2     0.900000E-01   1.00800           0
     49751 MEMB     400      PYPG     H3S      HAL2     0.900000E-01   1.00800           0
     49752 MEMB     400      PYPG     C24      CTL2    -0.180000       12.0110           0
     49753 MEMB     400      PYPG     H4R      HAL2     0.900000E-01   1.00800           0
     49754 MEMB     400      PYPG     H4S      HAL2     0.900000E-01   1.00800           0
     49755 MEMB     400      PYPG     C25      CTL2    -0.180000       12.0110           0
     49756 MEMB     400      PYPG     H5R      HAL2     0.900000E-01   1.00800           0
     49757 MEMB     400      PYPG     H5S      HAL2     0.900000E-01   1.00800           0
     49758 MEMB     400      PYPG     C26      CTL2    -0.180000       12.0110           0
     49759 MEMB     400      PYPG     H6R      HAL2     0.900000E-01   1.00800           0
     49760 MEMB     400      PYPG     H6S      HAL2     0.900000E-01   1.00800           0
     49761 MEMB     400      PYPG     C27      CTL2    -0.180000       12.0110           0
     49762 MEMB     400      PYPG     H7R      HAL2     0.900000E-01   1.00800           0
     49763 MEMB     400      PYPG     H7S      HAL2     0.900000E-01   1.00800           0
     49764 MEMB     400      PYPG     C28      CTL2    -0.180000       12.0110           0
     49765 MEMB     400      PYPG     H8R      HAL2     0.900000E-01   1.00800           0
     49766 MEMB     400      PYPG     H8S      HAL2     0.900000E-01   1.00800           0
     49767 MEMB     400      PYPG     C29      CEL1    -0.150000       12.0110           0
     49768 MEMB     400      PYPG     H9R      HEL1     0.150000       1.00800           0
     49769 MEMB     400      PYPG     C210     CEL1    -0.150000       12.0110           0
     49770 MEMB     400      PYPG     H10R     HEL1     0.150000       1.00800           0
     49771 MEMB     400      PYPG     C211     CTL2    -0.180000       12.0110           0
     49772 MEMB     400      PYPG     H11R     HAL2     0.900000E-01   1.00800           0
     49773 MEMB     400      PYPG     H11S     HAL2     0.900000E-01   1.00800           0
     49774 MEMB     400      PYPG     C212     CTL2    -0.180000       12.0110           0
     49775 MEMB     400      PYPG     H12R     HAL2     0.900000E-01   1.00800           0
     49776 MEMB     400      PYPG     H12S     HAL2     0.900000E-01   1.00800           0
     49777 MEMB     400      PYPG     C213     CTL2    -0.180000       12.0110           0
     49778 MEMB     400      PYPG     H13R     HAL2     0.900000E-01   1.00800           0
     49779 MEMB     400      PYPG     H13S     HAL2     0.900000E-01   1.00800           0
     49780 MEMB     400      PYPG     C214     CTL2    -0.180000       12.0110           0
     49781 MEMB     400      PYPG     H14R     HAL2     0.900000E-01   1.00800           0
     49782 MEMB     400      PYPG     H14S     HAL2     0.900000E-01   1.00800           0
     49783 MEMB     400      PYPG     C215     CTL2    -0.180000       12.0110           0
     49784 MEMB     400      PYPG     H15R     HAL2     0.900000E-01   1.00800           0
     49785 MEMB     400      PYPG     H15S     HAL2     0.900000E-01   1.00800           0
     49786 MEMB     400      PYPG     C216     CTL3    -0.270000       12.0110           0
     49787 MEMB     400      PYPG     H16R     HAL3     0.900000E-01   1.00800           0
     49788 MEMB     400      PYPG     H16S     HAL3     0.900000E-01   1.00800           0
     49789 MEMB     400      PYPG     H16T     HAL3     0.900000E-01   1.00800           0
     49790 MEMB     400      PYPG     C33      CTL2    -0.180000       12.0110           0
     49791 MEMB     400      PYPG     H3X      HAL2     0.900000E-01   1.00800           0
     49792 MEMB     400      PYPG     H3Y      HAL2     0.900000E-01   1.00800           0
     49793 MEMB     400      PYPG     C34      CTL2    -0.180000       12.0110           0
     49794 MEMB     400      PYPG     H4X      HAL2     0.900000E-01   1.00800           0
     49795 MEMB     400      PYPG     H4Y      HAL2     0.900000E-01   1.00800           0
     49796 MEMB     400      PYPG     C35      CTL2    -0.180000       12.0110           0
     49797 MEMB     400      PYPG     H5X      HAL2     0.900000E-01   1.00800           0
     49798 MEMB     400      PYPG     H5Y      HAL2     0.900000E-01   1.00800           0
     49799 MEMB     400      PYPG     C36      CTL2    -0.180000       12.0110           0
     49800 MEMB     400      PYPG     H6X      HAL2     0.900000E-01   1.00800           0
     49801 MEMB     400      PYPG     H6Y      HAL2     0.900000E-01   1.00800           0
     49802 MEMB     400      PYPG     C37      CTL2    -0.180000       12.0110           0
     49803 MEMB     400      PYPG     H7X      HAL2     0.900000E-01   1.00800           0
     49804 MEMB     400      PYPG     H7Y      HAL2     0.900000E-01   1.00800           0
     49805 MEMB     400      PYPG     C38      CTL2    -0.180000       12.0110           0
     49806 MEMB     400      PYPG     H8X      HAL2     0.900000E-01   1.00800           0
     49807 MEMB     400      PYPG     H8Y      HAL2     0.900000E-01   1.00800           0
     49808 MEMB     400      PYPG     C39      CTL2    -0.180000       12.0110           0
     49809 MEMB     400      PYPG     H9X      HAL2     0.900000E-01   1.00800           0
     49810 MEMB     400      PYPG     H9Y      HAL2     0.900000E-01   1.00800           0
     49811 MEMB     400      PYPG     C310     CTL2    -0.180000       12.0110           0
     49812 MEMB     400      PYPG     H10X     HAL2     0.900000E-01   1.00800           0
     49813 MEMB     400      PYPG     H10Y     HAL2     0.900000E-01   1.00800           0
     49814 MEMB     400      PYPG     C311     CTL2    -0.180000       12.0110           0
     49815 MEMB     400      PYPG     H11X     HAL2     0.900000E-01   1.00800           0
     49816 MEMB     400      PYPG     H11Y     HAL2     0.900000E-01   1.00800           0
     49817 MEMB     400      PYPG     C312     CTL2    -0.180000       12.0110           0
     49818 MEMB     400      PYPG     H12X     HAL2     0.900000E-01   1.00800           0
     49819 MEMB     400      PYPG     H12Y     HAL2     0.900000E-01   1.00800           0
     49820 MEMB     400      PYPG     C313     CTL2    -0.180000       12.0110           0
     49821 MEMB     400      PYPG     H13X     HAL2     0.900000E-01   1.00800           0
     49822 MEMB     400      PYPG     H13Y     HAL2     0.900000E-01   1.00800           0
     49823 MEMB     400      PYPG     C314     CTL2    -0.180000       12.0110           0
     49824 MEMB     400      PYPG     H14X     HAL2     0.900000E-01   1.00800           0
     49825 MEMB     400      PYPG     H14Y     HAL2     0.900000E-01   1.00800           0
     49826 MEMB     400      PYPG     C315     CTL2    -0.180000       12.0110           0
     49827 MEMB     400      PYPG     H15X     HAL2     0.900000E-01   1.00800           0
     49828 MEMB     400      PYPG     H15Y     HAL2     0.900000E-01   1.00800           0
     49829 MEMB     400      PYPG     C316     CTL3    -0.270000       12.0110           0
     49830 MEMB     400      PYPG     H16X     HAL3     0.900000E-01   1.00800           0
     49831 MEMB     400      PYPG     H16Y     HAL3     0.900000E-01   1.00800           0
     49832 MEMB     400      PYPG     H16Z     HAL3     0.900000E-01   1.00800           0

     49704 !NBOND: bonds
         1         2         1         3         1         4         1         5
         5         6         5         7         5         8         8         9
         8        10         8        15        15        11        11        14
        11        12        11        13        16        17        16        18
        16        19        16        14        19        20        19        27
        19        21        27        28        27        29        27        30
        21        22        22        24        22        23        24        25
        24        26        24        36        36        37        36        38
        36        39        39        40        39        41        39        42
        42        43        42        44        42        45        45        46
        45        47        45        48        48        49        48        50
        48        51        51        52        51        53        51        54
        54        55        54        56        56        57        56        58
        58        59        58        60        58        61        61        62
        61        63        61        64        64        65        64        66
        64        67        67        68        67        69        67        70
        70        71        70        72        70        73        73        74
        73        75        73        76        76        77        76        78
        76        79        79        80        79        81        79        82
        30        31        31        33        31        32        33        34
        33        35        33        83        83        84        83        85
        83        86        86        87        86        88        86        89
        89        90        89        91        89        92        92        93
        92        94        92        95        95        96        95        97
        95        98        98        99        98       100        98       101
       101       102       101       103       101       104       104       105
       104       106       104       107       107       108       107       109
       107       110       110       111       110       112       110       113
       113       114       113       115       113       116       116       117
       116       118       116       119       119       120       119       121
       119       122       122       123       122       124       122       125
       126       127       126       128       126       129       126       130
       130       131       130       132       130       133       133       134
       133       135       133       140       140       136       136       139
       136       137       136       138       141       142       141       143
       141       144       141       139       144       145       144       152
       144       146       152       153       152       154       152       155
       146       147       147       149       147       148       149       150
       149       151       149       161       161       162       161       163
       161       164       164       165       164       166       164       167
       167       168       167       169       167       170       170       171
       170       172       170       173       173       174       173       175
       173       176       176       177       176       178       176       179
       179       180       179       184       179       181       184       185
       184       186       184       181       186       187       186       188
       186       189       189       190       189       191       189       192
       192       193       192       194       192       195       195       196
       195       197       195       198       198       199       198       200
       198       201       201       202       201       203       201       204
       181       182       181       183       155       156       156       158
       156       157       158       159       158       160       158       205
       205       206       205       207       205       208       208       209
       208       210       208       211       211       212       211       213
       211       214       214       215       214       216       214       217
       217       218       217       219       217       220       220       221
       220       222       220       223       223       224       223       225
       223       226       226       227       226       228       226       229
       229       230       229       231       229       232       232       233
       232       234       232       235       235       236       235       237
       235       238       238       239       238       240       238       241
       241       242       241       243       241       244       244       245
       244       246       244       247       248       249       248       250
       248       251       248       252       252       253       252       254
       252       255       255       256       255       257       255       262
       262       258       258       261       258       259       258       260
       263       264       263       265       263       266       263       261
       266       267       266       274       266       268       274       275
       274       276       274       277       268       269       269       271
       269       270       271       272       271       273       271       283
       283       284       283       285       283       286       286       287
       286       288       286       289       289       290       289       291
       289       292       292       293       292       294       292       295
       295       296       295       297       295       298       298       299
       298       300       298       301       301       302       301       306
       301       303       306       307       306       308       306       303
       308       309       308       310       308       311       311       312
       311       313       311       314       314       315       314       316
       314       317       317       318       317       319       317       320
       320       321       320       322       320       323       323       324
       323       325       323       326       303       304       303       305
       277       278       278       280       278       279       280       281
       280       282       280       327       327       328       327       329
       327       330       330       331       330       332       330       333
       333       334       333       335       333       336       336       337
       336       338       336       339       339       340       339       341
       339       342       342       343       342       344       342       345
       345       346       345       347       345       348       348       349
       348       350       348       351       351       352       351       353
       351       354       354       355       354       356       354       357
       357       358       357       359       357       360       360       361
       360       362       360       363       363       364       363       365
       363       366       366       367       366       368       366       369
       370       371       370       372       370       373       370       374
       374       375       374       376       374       377       377       378
       377       379       377       384       384       380       380       383
       380       381       380       382       385       386       385       387
       385       388       385       383       388       389       388       396
       388       390       396       397       396       398       396       399
       390       391       391       393       391       392       393       394
       393       395       393       405       405       406       405       407
       405       408       408       409       408       410       408       411
       411       412       411       413       411       414       414       415
       414       416       414       417       417       418       417       419
       417       420       420       421       420       422       420       423
       423       424       423       425       425       426       425       427
       427       428       427       429       427       430       430       431
       430       432       430       433       433       434       433       435
       433       436       436       437       436       438       436       439
       439       440       439       441       439       442       442       443
       442       444       442       445       445       446       445       447
       445       448       448       449       448       450       448       451
       399       400       400       402       400       401       402       403
       402       404       402       452       452       453       452       454
       452       455       455       456       455       457       455       458
       458       459       458       460       458       461       461       462
       461       463       461       464       464       465       464       466
       464       467       467       468       467       469       467       470
       470       471       470       472       470       473       473       474
       473       475       473       476       476       477       476       478
       476       479       479       480       479       481       479       482
       482       483       482       484       482       485       485       486
       485       487       485       488       488       489       488       490
       488       491       491       492       491       493       491       494
       495       496       495       497       495       498       495       499
       499       500       499       501       499       502       502       503
       502       504       502       509       509       505       505       508
       505       506       505       507       510       511       510       512
       510       513       510       508       513       514       513       521
       513       515       521       522       521       523       521       524
       515       516       516       518       516       517       518       519
       518       520       518       530       530       531       530       532
       530       533       533       534       533       535       533       536
       536       537       536       538       536       539       539       540
       539       541       539       542       542       543       542       544
       542       545       545       546       545       547       545       548
       548       549       548       553       548       550       553       554
       553       555       553       550       555       556       555       557
       555       558       558       559       558       560       558       561
       561       562       561       563       561       564       564       565
       564       566       564       567       567       568       567       569
       567       570       570       571       570       572       570       573
       550       551       550       552       524       525       525       527
       525       526       527       528       527       529       527       574
       574       575       574       576       574       577       577       578
       577       579       577       580       580       581       580       582
       580       583       583       584       583       585       583       586
       586       587       586       588       586       589       589       590
       589       591       589       592       592       593       592       594
       592       595       595       596       595       597       595       598
       598       599       598       600       598       601       601       602
       601       603       601       604       604       605       604       606
       604       607       607       608       607       609       607       610
       610       611       610       612       610       613       613       614
       613       615       613       616       617       618       617       619
       617       620       617       621       621       622       621       623
       621       624       624       625       624       626       624       631
       631       627       627       630       627       628       627       629
       632       633       632       634       632       635       632       630
       635       636       635       643       635       637       643       644
       643       645       643       646       637       638       638       640
       638       639       640       641       640       642       640       652
       652       653       652       654       652       655       655       656
       655       657       655       658       658       659       658       660
       658       661       661       662       661       663       661       664
       664       665       664       666       664       667       667       668
       667       669       667       670       670       671       670       672
       672       673       672       674       674       675       674       676
       674       677       677       678       677       679       677       680
       680       681       680       682       680       683       683       684
       683       685       683       686       686       687       686       688
       686       689       689       690       689       691       689       692
       692       693       692       694       692       695       695       696
       695       697       695       698       646       647       647       649
       647       648       649       650       649       651       649       699
       699       700       699       701       699       702       702       703
       702       704       702       705       705       706       705       707
       705       708       708       709       708       710       708       711
       711       712       711       713       711       714       714       715
       714       716       714       717       717       718       717       719
       717       720       720       721       720       722       720       723
       723       724       723       725       723       726       726       727
       726       728       726       729       729       730       729       731
       729       732       732       733       732       734       732       735
       735       736       735       737       735       738       738       739
       738       740       738       741       742       743       742       744
       742       745       742       746       746       747       746       748
       746       749       749       750       749       751       749       756
       756       752       752       755       752       753       752       754
       757       758       757       759       757       760       757       755
       760       761       760       768       760       762       768       769
       768       770       768       771       762       763       763       765
       763       764       765       766       765       767       765       777
       777       778       777       779       777       780       780       781
       780       782       780       783       783       784       783       785
       783       786       786       787       786       788       786       789
       789       790       789       791       789       792       792       793
       792       794       792       795       795       796       795       800
       795       797       800       801       800       802       800       797
       802       803       802       804       802       805       805       806
       805       807       805       808       808       809       808       810
       808       811       811       812       811       813       811       814
       814       815       814       816       814       817       817       818
       817       819       817       820       797       798       797       799
       771       772       772       774       772       773       774       775
       774       776       774       821       821       822       821       823
       821       824       824       825       824       826       824       827
       827       828       827       829       827       830       830       831
       830       832       830       833       833       834       833       835
       833       836       836       837       836       838       836       839
       839       840       839       841       839       842       842       843
       842       844       842       845       845       846       845       847
       845       848       848       849       848       850       848       851
       851       852       851       853       851       854       854       855
       854       856       854       857       857       858       857       859
       857       860       860       861       860       862       860       863
       864       865       864       866       864       867       864       868
       868       869       868       870       868       871       871       872
       871       873       871       878       878       874       874       877
       874       875       874       876       879       880       879       881
       879       882       879       877       882       883       882       890
       882       884       890       891       890       892       890       893
       884       885       885       887       885       886       887       888
       887       889       887       899       899       900       899       901
       899       902       902       903       902       904       902       905
       905       906       905       907       905       908       908       909
       908       910       908       911       911       912       911       913
       911       914       914       915       914       916       914       917
       917       918       917       922       917       919       922       923
       922       924       922       919       924       925       924       926
       924       927       927       928       927       929       927       930
       930       931       930       932       930       933       933       934
       933       935       933       936       936       937       936       938
       936       939       939       940       939       941       939       942
       919       920       919       921       893       894       894       896
       894       895       896       897       896       898       896       943
       943       944       943       945       943       946       946       947
       946       948       946       949       949       950       949       951
       949       952       952       953       952       954       952       955
       955       956       955       957       955       958       958       959
       958       960       958       961       961       962       961       963
       961       964       964       965       964       966       964       967
       967       968       967       969       967       970       970       971
       970       972       970       973       973       974       973       975
       973       976       976       977       976       978       976       979
       979       980       979       981       979       982       982       983
       982       984       982       985       986       987       986       988
       986       989       986       990       990       991       990       992
       990       993       993       994       993       995       993      1000
      1000       996       996       999       996       997       996       998
      1001      1002      1001      1003      1001      1004      1001       999
      1004      1005      1004      1012      1004      1006      1012      1013
      1012      1014      1012      1015      1006      1007      1007      1009
      1007      1008      1009      1010      1009      1011      1009      1021
      1021      1022      1021      1023      1021      1024      1024      1025
      1024      1026      1024      1027      1027      1028      1027      1029
      1027      1030      1030      1031      1030      1032      1030      1033
      1033      1034      1033      1035      1033      1036      1036      1037
      1036      1038      1036      1039      1039      1040      1039      1044
      1039      1041      1044      1045      1044      1046      1044      1041
      1046      1047      1046      1048      1046      1049      1049      1050
      1049      1051      1049      1052      1052      1053      1052      1054
      1052      1055      1055      1056      1055      1057      1055      1058
      1058      1059      1058      1060      1058      1061      1061      1062
      1061      1063      1061      1064      1041      1042      1041      1043
      1015      1016      1016      1018      1016      1017      1018      1019
      1018      1020      1018      1065      1065      1066      1065      1067
      1065      1068      1068      1069      1068      1070      1068      1071
      1071      1072      1071      1073      1071      1074      1074      1075
      1074      1076      1074      1077      1077      1078      1077      1079
      1077      1080      1080      1081      1080      1082      1080      1083
      1083      1084      1083      1085      1083      1086      1086      1087
      1086      1088      1086      1089      1089      1090      1089      1091
      1089      1092      1092      1093      1092      1094      1092      1095
      1095      1096      1095      1097      1095      1098      1098      1099
      1098      1100      1098      1101      1101      1102      1101      1103
      1101      1104      1104      1105      1104      1106      1104      1107
      1112      1111      1111      1108      1108      1109      1108      1110
      1108      1113      1116      1115      1115      1113      1113      1114
      1113      1117      1117      1118      1117      1119      1117      1124
      1124      1120      1120      1123      1120      1121      1120      1122
      1125      1126      1125      1127      1125      1128      1125      1123
      1128      1129      1128      1136      1128      1130      1136      1137
      1136      1138      1136      1139      1130      1131      1131      1133
      1131      1132      1133      1134      1133      1135      1133      1145
      1145      1146      1145      1147      1145      1148      1148      1149
      1148      1150      1148      1151      1151      1152      1151      1153
      1151      1154      1154      1155      1154      1156      1154      1157
      1157      1158      1157      1159      1157      1160      1160      1161
      1160      1162      1160      1163      1163      1164      1163      1168
      1163      1165      1168      1169      1168      1170      1168      1165
      1170      1171      1170      1172      1170      1173      1173      1174
      1173      1175      1173      1176      1176      1177      1176      1178
      1176      1179      1179      1180      1179      1181      1179      1182
      1182      1183      1182      1184      1182      1185      1185      1186
      1185      1187      1185      1188      1165      1166      1165      1167
      1139      1140      1140      1142      1140      1141      1142      1143
      1142      1144      1142      1189      1189      1190      1189      1191
      1189      1192      1192      1193      1192      1194      1192      1195
      1195      1196      1195      1197      1195      1198      1198      1199
      1198      1200      1198      1201      1201      1202      1201      1203
      1201      1204      1204      1205      1204      1206      1204      1207
      1207      1208      1207      1209      1207      1210      1210      1211
      1210      1212      1210      1213      1213      1214      1213      1215
      1213      1216      1216      1217      1216      1218      1216      1219
      1219      1220      1219      1221      1219      1222      1222      1223
      1222      1224      1222      1225      1225      1226      1225      1227
      1225      1228      1228      1229      1228      1230      1228      1231
      1232      1233      1232      1234      1232      1235      1232      1236
      1236      1237      1236      1238      1236      1239      1239      1240
      1239      1241      1239      1246      1246      1242      1242      1245
      1242      1243      1242      1244      1247      1248      1247      1249
      1247      1250      1247      1245      1250      1251      1250      1258
      1250      1252      1258      1259      1258      1260      1258      1261
      1252      1253      1253      1255      1253      1254      1255      1256
      1255      1257      1255      1267      1267      1268      1267      1269
      1267      1270      1270      1271      1270      1272      1270      1273
      1273      1274      1273      1275      1273      1276      1276      1277
      1276      1278      1276      1279      1279      1280      1279      1281
      1279      1282      1282      1283      1282      1284      1282      1285
      1285      1286      1285      1287      1287      1288      1287      1289
      1289      1290      1289      1291      1289      1292      1292      1293
      1292      1294      1292      1295      1295      1296      1295      1297
      1295      1298      1298      1299      1298      1300      1298      1301
      1301      1302      1301      1303      1301      1304      1304      1305
      1304      1306      1304      1307      1307      1308      1307      1309
      1307      1310      1310      1311      1310      1312      1310      1313
      1261      1262      1262      1264      1262      1263      1264      1265
      1264      1266      1264      1314      1314      1315      1314      1316
      1314      1317      1317      1318      1317      1319      1317      1320
      1320      1321      1320      1322      1320      1323      1323      1324
      1323      1325      1323      1326      1326      1327      1326      1328
      1326      1329      1329      1330      1329      1331      1329      1332
      1332      1333      1332      1334      1332      1335      1335      1336
      1335      1337      1335      1338      1338      1339      1338      1340
      1338      1341      1341      1342      1341      1343      1341      1344
      1344      1345      1344      1346      1344      1347      1347      1348
      1347      1349      1347      1350      1350      1351      1350      1352
      1350      1353      1353      1354      1353      1355      1353      1356
      1361      1360      1360      1357      1357      1358      1357      1359
      1357      1362      1365      1364      1364      1362      1362      1363
      1362      1366      1366      1367      1366      1368      1366      1373
      1373      1369      1369      1372      1369      1370      1369      1371
      1374      1375      1374      1376      1374      1377      1374      1372
      1377      1378      1377      1385      1377      1379      1385      1386
      1385      1387      1385      1388      1379      1380      1380      1382
      1380      1381      1382      1383      1382      1384      1382      1394
      1394      1395      1394      1396      1394      1397      1397      1398
      1397      1399      1397      1400      1400      1401      1400      1402
      1400      1403      1403      1404      1403      1405      1403      1406
      1406      1407      1406      1408      1406      1409      1409      1410
      1409      1411      1409      1412      1412      1413      1412      1414
      1414      1415      1414      1416      1416      1417      1416      1418
      1416      1419      1419      1420      1419      1421      1419      1422
      1422      1423      1422      1424      1422      1425      1425      1426
      1425      1427      1425      1428      1428      1429      1428      1430
      1428      1431      1431      1432      1431      1433      1431      1434
      1388      1389      1389      1391      1389      1390      1391      1392
      1391      1393      1391      1435      1435      1436      1435      1437
      1435      1438      1438      1439      1438      1440      1438      1441
      1441      1442      1441      1443      1441      1444      1444      1445
      1444      1446      1444      1447      1447      1448      1447      1449
      1447      1450      1450      1451      1450      1452      1450      1453
      1453      1454      1453      1455      1453      1456      1456      1457
      1456      1458      1456      1459      1459      1460      1459      1461
      1459      1462      1462      1463      1462      1464      1462      1465
      1465      1466      1465      1467      1465      1468      1468      1469
      1468      1470      1468      1471      1471      1472      1471      1473
      1471      1474      1474      1475      1474      1476      1474      1477
      1482      1481      1481      1478      1478      1479      1478      1480
      1478      1483      1486      1485      1485      1483      1483      1484
      1483      1487      1487      1488      1487      1489      1487      1494
      1494      1490      1490      1493      1490      1491      1490      1492
      1495      1496      1495      1497      1495      1498      1495      1493
      1498      1499      1498      1506      1498      1500      1506      1507
      1506      1508      1506      1509      1500      1501      1501      1503
      1501      1502      1503      1504      1503      1505      1503      1515
      1515      1516      1515      1517      1515      1518      1518      1519
      1518      1520      1518      1521      1521      1522      1521      1523
      1521      1524      1524      1525      1524      1526      1524      1527
      1527      1528      1527      1529      1527      1530      1530      1531
      1530      1532      1530      1533      1533      1534      1533      1538
      1533      1535      1538      1539      1538      1540      1538      1535
      1540      1541      1540      1542      1540      1543      1543      1544
      1543      1545      1543      1546      1546      1547      1546      1548
      1546      1549      1549      1550      1549      1551      1549      1552
      1552      1553      1552      1554      1552      1555      1555      1556
      1555      1557      1555      1558      1535      1536      1535      1537
      1509      1510      1510      1512      1510      1511      1512      1513
      1512      1514      1512      1559      1559      1560      1559      1561
      1559      1562      1562      1563      1562      1564      1562      1565
      1565      1566      1565      1567      1565      1568      1568      1569
      1568      1570      1568      1571      1571      1572      1571      1573
      1571      1574      1574      1575      1574      1576      1574      1577
      1577      1578      1577      1579      1577      1580      1580      1581
      1580      1582      1580      1583      1583      1584      1583      1585
      1583      1586      1586      1587      1586      1588      1586      1589
      1589      1590      1589      1591      1589      1592      1592      1593
      1592      1594      1592      1595      1595      1596      1595      1597
      1595      1598      1598      1599      1598      1600      1598      1601
      1602      1603      1602      1604      1602      1605      1602      1606
      1606      1607      1606      1608      1606      1609      1609      1610
      1609      1611      1609      1616      1616      1612      1612      1615
      1612      1613      1612      1614      1617      1618      1617      1619
      1617      1620      1617      1615      1620      1621      1620      1628
      1620      1622      1628      1629      1628      1630      1628      1631
      1622      1623      1623      1625      1623      1624      1625      1626
      1625      1627      1625      1637      1637      1638      1637      1639
      1637      1640      1640      1641      1640      1642      1640      1643
      1643      1644      1643      1645      1643      1646      1646      1647
      1646      1648      1646      1649      1649      1650      1649      1651
      1649      1652      1652      1653      1652      1654      1652      1655
      1655      1656      1655      1660      1655      1657      1660      1661
      1660      1662      1660      1657      1662      1663      1662      1664
      1662      1665      1665      1666      1665      1667      1665      1668
      1668      1669      1668      1670      1668      1671      1671      1672
      1671      1673      1671      1674      1674      1675      1674      1676
      1674      1677      1677      1678      1677      1679      1677      1680
      1657      1658      1657      1659      1631      1632      1632      1634
      1632      1633      1634      1635      1634      1636      1634      1681
      1681      1682      1681      1683      1681      1684      1684      1685
      1684      1686      1684      1687      1687      1688      1687      1689
      1687      1690      1690      1691      1690      1692      1690      1693
      1693      1694      1693      1695      1693      1696      1696      1697
      1696      1698      1696      1699      1699      1700      1699      1701
      1699      1702      1702      1703      1702      1704      1702      1705
      1705      1706      1705      1707      1705      1708      1708      1709
      1708      1710      1708      1711      1711      1712      1711      1713
      1711      1714      1714      1715      1714      1716      1714      1717
      1717      1718      1717      1719      1717      1720      1720      1721
      1720      1722      1720      1723      1724      1725      1724      1726
      1724      1727      1724      1728      1728      1729      1728      1730
      1728      1731      1731      1732      1731      1733      1731      1738
      1738      1734      1734      1737      1734      1735      1734      1736
      1739      1740      1739      1741      1739      1742      1739      1737
      1742      1743      1742      1750      1742      1744      1750      1751
      1750      1752      1750      1753      1744      1745      1745      1747
      1745      1746      1747      1748      1747      1749      1747      1759
      1759      1760      1759      1761      1759      1762      1762      1763
      1762      1764      1762      1765      1765      1766      1765      1767
      1765      1768      1768      1769      1768      1770      1768      1771
      1771      1772      1771      1773      1771      1774      1774      1775
      1774      1776      1774      1777      1777      1778      1777      1779
      1779      1780      1779      1781      1781      1782      1781      1783
      1781      1784      1784      1785      1784      1786      1784      1787
      1787      1788      1787      1789      1787      1790      1790      1791
      1790      1792      1790      1793      1793      1794      1793      1795
      1793      1796      1796      1797      1796      1798      1796      1799
      1799      1800      1799      1801      1799      1802      1802      1803
      1802      1804      1802      1805      1753      1754      1754      1756
      1754      1755      1756      1757      1756      1758      1756      1806
      1806      1807      1806      1808      1806      1809      1809      1810
      1809      1811      1809      1812      1812      1813      1812      1814
      1812      1815      1815      1816      1815      1817      1815      1818
      1818      1819      1818      1820      1818      1821      1821      1822
      1821      1823      1821      1824      1824      1825      1824      1826
      1824      1827      1827      1828      1827      1829      1827      1830
      1830      1831      1830      1832      1830      1833      1833      1834
      1833      1835      1833      1836      1836      1837      1836      1838
      1836      1839      1839      1840      1839      1841      1839      1842
      1842      1843      1842      1844      1842      1845      1845      1846
      1845      1847      1845      1848      1849      1850      1849      1851
      1849      1852      1849      1853      1853      1854      1853      1855
      1853      1856      1856      1857      1856      1858      1856      1863
      1863      1859      1859      1862      1859      1860      1859      1861
      1864      1865      1864      1866      1864      1867      1864      1862
      1867      1868      1867      1875      1867      1869      1875      1876
      1875      1877      1875      1878      1869      1870      1870      1872
      1870      1871      1872      1873      1872      1874      1872      1884
      1884      1885      1884      1886      1884      1887      1887      1888
      1887      1889      1887      1890      1890      1891      1890      1892
      1890      1893      1893      1894      1893      1895      1893      1896
      1896      1897      1896      1898      1896      1899      1899      1900
      1899      1901      1899      1902      1902      1903      1902      1907
      1902      1904      1907      1908      1907      1909      1907      1904
      1909      1910      1909      1911      1909      1912      1912      1913
      1912      1914      1912      1915      1915      1916      1915      1917
      1915      1918      1918      1919      1918      1920      1918      1921
      1921      1922      1921      1923      1921      1924      1924      1925
      1924      1926      1924      1927      1904      1905      1904      1906
      1878      1879      1879      1881      1879      1880      1881      1882
      1881      1883      1881      1928      1928      1929      1928      1930
      1928      1931      1931      1932      1931      1933      1931      1934
      1934      1935      1934      1936      1934      1937      1937      1938
      1937      1939      1937      1940      1940      1941      1940      1942
      1940      1943      1943      1944      1943      1945      1943      1946
      1946      1947      1946      1948      1946      1949      1949      1950
      1949      1951      1949      1952      1952      1953      1952      1954
      1952      1955      1955      1956      1955      1957      1955      1958
      1958      1959      1958      1960      1958      1961      1961      1962
      1961      1963      1961      1964      1964      1965      1964      1966
      1964      1967      1967      1968      1967      1969      1967      1970
      1971      1972      1971      1973      1971      1974      1971      1975
      1975      1976      1975      1977      1975      1978      1978      1979
      1978      1980      1978      1985      1985      1981      1981      1984
      1981      1982      1981      1983      1986      1987      1986      1988
      1986      1989      1986      1984      1989      1990      1989      1997
      1989      1991      1997      1998      1997      1999      1997      2000
      1991      1992      1992      1994      1992      1993      1994      1995
      1994      1996      1994      2006      2006      2007      2006      2008
      2006      2009      2009      2010      2009      2011      2009      2012
      2012      2013      2012      2014      2012      2015      2015      2016
      2015      2017      2015      2018      2018      2019      2018      2020
      2018      2021      2021      2022      2021      2023      2021      2024
      2024      2025      2024      2029      2024      2026      2029      2030
      2029      2031      2029      2026      2031      2032      2031      2033
      2031      2034      2034      2035      2034      2036      2034      2037
      2037      2038      2037      2039      2037      2040      2040      2041
      2040      2042      2040      2043      2043      2044      2043      2045
      2043      2046      2046      2047      2046      2048      2046      2049
      2026      2027      2026      2028      2000      2001      2001      2003
      2001      2002      2003      2004      2003      2005      2003      2050
      2050      2051      2050      2052      2050      2053      2053      2054
      2053      2055      2053      2056      2056      2057      2056      2058
      2056      2059      2059      2060      2059      2061      2059      2062
      2062      2063      2062      2064      2062      2065      2065      2066
      2065      2067      2065      2068      2068      2069      2068      2070
      2068      2071      2071      2072      2071      2073      2071      2074
      2074      2075      2074      2076      2074      2077      2077      2078
      2077      2079      2077      2080      2080      2081      2080      2082
      2080      2083      2083      2084      2083      2085      2083      2086
      2086      2087      2086      2088      2086      2089      2089      2090
      2089      2091      2089      2092      2093      2094      2093      2095
      2093      2096      2093      2097      2097      2098      2097      2099
      2097      2100      2100      2101      2100      2102      2100      2107
      2107      2103      2103      2106      2103      2104      2103      2105
      2108      2109      2108      2110      2108      2111      2108      2106
      2111      2112      2111      2119      2111      2113      2119      2120
      2119      2121      2119      2122      2113      2114      2114      2116
      2114      2115      2116      2117      2116      2118      2116      2128
      2128      2129      2128      2130      2128      2131      2131      2132
      2131      2133      2131      2134      2134      2135      2134      2136
      2134      2137      2137      2138      2137      2139      2137      2140
      2140      2141      2140      2142      2140      2143      2143      2144
      2143      2145      2143      2146      2146      2147      2146      2151
      2146      2148      2151      2152      2151      2153      2151      2148
      2153      2154      2153      2155      2153      2156      2156      2157
      2156      2158      2156      2159      2159      2160      2159      2161
      2159      2162      2162      2163      2162      2164      2162      2165
      2165      2166      2165      2167      2165      2168      2168      2169
      2168      2170      2168      2171      2148      2149      2148      2150
      2122      2123      2123      2125      2123      2124      2125      2126
      2125      2127      2125      2172      2172      2173      2172      2174
      2172      2175      2175      2176      2175      2177      2175      2178
      2178      2179      2178      2180      2178      2181      2181      2182
      2181      2183      2181      2184      2184      2185      2184      2186
      2184      2187      2187      2188      2187      2189      2187      2190
      2190      2191      2190      2192      2190      2193      2193      2194
      2193      2195      2193      2196      2196      2197      2196      2198
      2196      2199      2199      2200      2199      2201      2199      2202
      2202      2203      2202      2204      2202      2205      2205      2206
      2205      2207      2205      2208      2208      2209      2208      2210
      2208      2211      2211      2212      2211      2213      2211      2214
      2219      2218      2218      2215      2215      2216      2215      2217
      2215      2220      2223      2222      2222      2220      2220      2221
      2220      2224      2224      2225      2224      2226      2224      2231
      2231      2227      2227      2230      2227      2228      2227      2229
      2232      2233      2232      2234      2232      2235      2232      2230
      2235      2236      2235      2243      2235      2237      2243      2244
      2243      2245      2243      2246      2237      2238      2238      2240
      2238      2239      2240      2241      2240      2242      2240      2252
      2252      2253      2252      2254      2252      2255      2255      2256
      2255      2257      2255      2258      2258      2259      2258      2260
      2258      2261      2261      2262      2261      2263      2261      2264
      2264      2265      2264      2266      2264      2267      2267      2268
      2267      2269      2267      2270      2270      2271      2270      2272
      2272      2273      2272      2274      2274      2275      2274      2276
      2274      2277      2277      2278      2277      2279      2277      2280
      2280      2281      2280      2282      2280      2283      2283      2284
      2283      2285      2283      2286      2286      2287      2286      2288
      2286      2289      2289      2290      2289      2291      2289      2292
      2246      2247      2247      2249      2247      2248      2249      2250
      2249      2251      2249      2293      2293      2294      2293      2295
      2293      2296      2296      2297      2296      2298      2296      2299
      2299      2300      2299      2301      2299      2302      2302      2303
      2302      2304      2302      2305      2305      2306      2305      2307
      2305      2308      2308      2309      2308      2310      2308      2311
      2311      2312      2311      2313      2311      2314      2314      2315
      2314      2316      2314      2317      2317      2318      2317      2319
      2317      2320      2320      2321      2320      2322      2320      2323
      2323      2324      2323      2325      2323      2326      2326      2327
      2326      2328      2326      2329      2329      2330      2329      2331
      2329      2332      2332      2333      2332      2334      2332      2335
      2336      2337      2336      2338      2336      2339      2336      2340
      2340      2341      2340      2342      2340      2343      2343      2344
      2343      2345      2343      2350      2350      2346      2346      2349
      2346      2347      2346      2348      2351      2352      2351      2353
      2351      2354      2351      2349      2354      2355      2354      2362
      2354      2356      2362      2363      2362      2364      2362      2365
      2356      2357      2357      2359      2357      2358      2359      2360
      2359      2361      2359      2371      2371      2372      2371      2373
      2371      2374      2374      2375      2374      2376      2374      2377
      2377      2378      2377      2379      2377      2380      2380      2381
      2380      2382      2380      2383      2383      2384      2383      2385
      2383      2386      2386      2387      2386      2388      2386      2389
      2389      2390      2389      2394      2389      2391      2394      2395
      2394      2396      2394      2391      2396      2397      2396      2398
      2396      2399      2399      2400      2399      2401      2399      2402
      2402      2403      2402      2404      2402      2405      2405      2406
      2405      2407      2405      2408      2408      2409      2408      2410
      2408      2411      2411      2412      2411      2413      2411      2414
      2391      2392      2391      2393      2365      2366      2366      2368
      2366      2367      2368      2369      2368      2370      2368      2415
      2415      2416      2415      2417      2415      2418      2418      2419
      2418      2420      2418      2421      2421      2422      2421      2423
      2421      2424      2424      2425      2424      2426      2424      2427
      2427      2428      2427      2429      2427      2430      2430      2431
      2430      2432      2430      2433      2433      2434      2433      2435
      2433      2436      2436      2437      2436      2438      2436      2439
      2439      2440      2439      2441      2439      2442      2442      2443
      2442      2444      2442      2445      2445      2446      2445      2447
      2445      2448      2448      2449      2448      2450      2448      2451
      2451      2452      2451      2453      2451      2454      2455      2456
      2455      2457      2455      2458      2455      2459      2459      2460
      2459      2461      2459      2462      2462      2463      2462      2464
      2462      2469      2469      2465      2465      2468      2465      2466
      2465      2467      2470      2471      2470      2472      2470      2473
      2470      2468      2473      2474      2473      2481      2473      2475
      2481      2482      2481      2483      2481      2484      2475      2476
      2476      2478      2476      2477      2478      2479      2478      2480
      2478      2490      2490      2491      2490      2492      2490      2493
      2493      2494      2493      2495      2493      2496      2496      2497
      2496      2498      2496      2499      2499      2500      2499      2501
      2499      2502      2502      2503      2502      2504      2502      2505
      2505      2506      2505      2507      2505      2508      2508      2509
      2508      2513      2508      2510      2513      2514      2513      2515
      2513      2510      2515      2516      2515      2517      2515      2518
      2518      2519      2518      2520      2518      2521      2521      2522
      2521      2523      2521      2524      2524      2525      2524      2526
      2524      2527      2527      2528      2527      2529      2527      2530
      2530      2531      2530      2532      2530      2533      2510      2511
      2510      2512      2484      2485      2485      2487      2485      2486
      2487      2488      2487      2489      2487      2534      2534      2535
      2534      2536      2534      2537      2537      2538      2537      2539
      2537      2540      2540      2541      2540      2542      2540      2543
      2543      2544      2543      2545      2543      2546      2546      2547
      2546      2548      2546      2549      2549      2550      2549      2551
      2549      2552      2552      2553      2552      2554      2552      2555
      2555      2556      2555      2557      2555      2558      2558      2559
      2558      2560      2558      2561      2561      2562      2561      2563
      2561      2564      2564      2565      2564      2566      2564      2567
      2567      2568      2567      2569      2567      2570      2570      2571
      2570      2572      2570      2573      2573      2574      2573      2575
      2573      2576      2577      2578      2577      2579      2577      2580
      2577      2581      2581      2582      2581      2583      2581      2584
      2584      2585      2584      2586      2584      2591      2591      2587
      2587      2590      2587      2588      2587      2589      2592      2593
      2592      2594      2592      2595      2592      2590      2595      2596
      2595      2603      2595      2597      2603      2604      2603      2605
      2603      2606      2597      2598      2598      2600      2598      2599
      2600      2601      2600      2602      2600      2612      2612      2613
      2612      2614      2612      2615      2615      2616      2615      2617
      2615      2618      2618      2619      2618      2620      2618      2621
      2621      2622      2621      2623      2621      2624      2624      2625
      2624      2626      2624      2627      2627      2628      2627      2629
      2627      2630      2630      2631      2630      2635      2630      2632
      2635      2636      2635      2637      2635      2632      2637      2638
      2637      2639      2637      2640      2640      2641      2640      2642
      2640      2643      2643      2644      2643      2645      2643      2646
      2646      2647      2646      2648      2646      2649      2649      2650
      2649      2651      2649      2652      2652      2653      2652      2654
      2652      2655      2632      2633      2632      2634      2606      2607
      2607      2609      2607      2608      2609      2610      2609      2611
      2609      2656      2656      2657      2656      2658      2656      2659
      2659      2660      2659      2661      2659      2662      2662      2663
      2662      2664      2662      2665      2665      2666      2665      2667
      2665      2668      2668      2669      2668      2670      2668      2671
      2671      2672      2671      2673      2671      2674      2674      2675
      2674      2676      2674      2677      2677      2678      2677      2679
      2677      2680      2680      2681      2680      2682      2680      2683
      2683      2684      2683      2685      2683      2686      2686      2687
      2686      2688      2686      2689      2689      2690      2689      2691
      2689      2692      2692      2693      2692      2694      2692      2695
      2695      2696      2695      2697      2695      2698      2703      2702
      2702      2699      2699      2700      2699      2701      2699      2704
      2707      2706      2706      2704      2704      2705      2704      2708
      2708      2709      2708      2710      2708      2715      2715      2711
      2711      2714      2711      2712      2711      2713      2716      2717
      2716      2718      2716      2719      2716      2714      2719      2720
      2719      2727      2719      2721      2727      2728      2727      2729
      2727      2730      2721      2722      2722      2724      2722      2723
      2724      2725      2724      2726      2724      2736      2736      2737
      2736      2738      2736      2739      2739      2740      2739      2741
      2739      2742      2742      2743      2742      2744      2742      2745
      2745      2746      2745      2747      2745      2748      2748      2749
      2748      2750      2748      2751      2751      2752      2751      2753
      2751      2754      2754      2755      2754      2756      2756      2757
      2756      2758      2758      2759      2758      2760      2758      2761
      2761      2762      2761      2763      2761      2764      2764      2765
      2764      2766      2764      2767      2767      2768      2767      2769
      2767      2770      2770      2771      2770      2772      2770      2773
      2773      2774      2773      2775      2773      2776      2730      2731
      2731      2733      2731      2732      2733      2734      2733      2735
      2733      2777      2777      2778      2777      2779      2777      2780
      2780      2781      2780      2782      2780      2783      2783      2784
      2783      2785      2783      2786      2786      2787      2786      2788
      2786      2789      2789      2790      2789      2791      2789      2792
      2792      2793      2792      2794      2792      2795      2795      2796
      2795      2797      2795      2798      2798      2799      2798      2800
      2798      2801      2801      2802      2801      2803      2801      2804
      2804      2805      2804      2806      2804      2807      2807      2808
      2807      2809      2807      2810      2810      2811      2810      2812
      2810      2813      2813      2814      2813      2815      2813      2816
      2816      2817      2816      2818      2816      2819      2835      2831
      2835      2836      2835      2837      2831      2833      2831      2832
      2833      2834      2831      2820      2820      2821      2820      2822
      2835      2841      2820      2826      2838      2841      2838      2842
      2838      2839      2838      2840      2823      2826      2823      2827
      2823      2824      2823      2825      2842      2843      2843      2844
      2843      2845      2843      2846      2846      2847      2846      2848
      2846      2854      2854      2855      2854      2856      2854      2857
      2827      2828      2828      2829      2828      2830      2828      2863
      2863      2864      2863      2865      2863      2871      2871      2872
      2871      2873      2871      2874      2848      2849      2857      2858
      2865      2866      2874      2875      2849      2850      2849      2851
      2851      2852      2851      2853      2851      2880      2880      2881
      2880      2882      2880      2883      2883      2884      2883      2885
      2883      2886      2886      2887      2886      2888      2886      2889
      2889      2890      2889      2891      2889      2892      2892      2893
      2892      2894      2892      2895      2895      2896      2895      2897
      2895      2898      2898      2899      2898      2900      2898      2901
      2901      2902      2901      2903      2901      2904      2904      2905
      2904      2906      2906      2907      2906      2908      2908      2909
      2908      2910      2908      2911      2911      2912      2911      2913
      2911      2914      2914      2915      2914      2916      2914      2917
      2917      2918      2917      2919      2917      2920      2920      2921
      2920      2922      2920      2923      2923      2924      2923      2925
      2923      2926      2858      2859      2858      2860      2860      2861
      2860      2862      2860      2927      2927      2928      2927      2929
      2927      2930      2930      2931      2930      2932      2930      2933
      2933      2934      2933      2935      2933      2936      2936      2937
      2936      2938      2936      2939      2939      2940      2939      2941
      2939      2942      2942      2943      2942      2944      2942      2945
      2945      2946      2945      2947      2945      2948      2948      2949
      2948      2950      2948      2951      2951      2952      2951      2953
      2951      2954      2954      2955      2954      2956      2954      2957
      2957      2958      2957      2959      2957      2960      2960      2961
      2960      2962      2960      2963      2963      2964      2963      2965
      2963      2966      2966      2967      2966      2968      2966      2969
      2866      2867      2866      2868      2868      2869      2868      2870
      2868      2970      2970      2971      2970      2972      2970      2973
      2973      2974      2973      2975      2973      2976      2976      2977
      2976      2978      2976      2979      2979      2980      2979      2981
      2979      2982      2982      2983      2982      2984      2982      2985
      2985      2986      2985      2987      2985      2988      2988      2989
      2988      2990      2988      2991      2991      2992      2991      2993
      2991      2994      2994      2995      2994      2996      2996      2997
      2996      2998      2998      2999      2998      3000      2998      3001
      3001      3002      3001      3003      3001      3004      3004      3005
      3004      3006      3004      3007      3007      3008      3007      3009
      3007      3010      3010      3011      3010      3012      3010      3013
      3013      3014      3013      3015      3013      3016      2875      2876
      2875      2877      2877      2878      2877      2879      2877      3017
      3017      3018      3017      3019      3017      3020      3020      3021
      3020      3022      3020      3023      3023      3024      3023      3025
      3023      3026      3026      3027      3026      3028      3026      3029
      3029      3030      3029      3031      3029      3032      3032      3033
      3032      3034      3032      3035      3035      3036      3035      3037
      3035      3038      3038      3039      3038      3040      3038      3041
      3041      3042      3041      3043      3041      3044      3044      3045
      3044      3046      3044      3047      3047      3048      3047      3049
      3047      3050      3050      3051      3050      3052      3050      3053
      3053      3054      3053      3055      3053      3056      3056      3057
      3056      3058      3056      3059      3060      3061      3060      3062
      3060      3063      3060      3064      3064      3065      3064      3066
      3064      3067      3067      3068      3067      3069      3067      3074
      3074      3070      3070      3073      3070      3071      3070      3072
      3075      3076      3075      3077      3075      3078      3075      3073
      3078      3079      3078      3086      3078      3080      3086      3087
      3086      3088      3086      3089      3080      3081      3081      3083
      3081      3082      3083      3084      3083      3085      3083      3095
      3095      3096      3095      3097      3095      3098      3098      3099
      3098      3100      3098      3101      3101      3102      3101      3103
      3101      3104      3104      3105      3104      3106      3104      3107
      3107      3108      3107      3109      3107      3110      3110      3111
      3110      3112      3110      3113      3113      3114      3113      3115
      3115      3116      3115      3117      3117      3118      3117      3119
      3117      3120      3120      3121      3120      3122      3120      3123
      3123      3124      3123      3125      3123      3126      3126      3127
      3126      3128      3126      3129      3129      3130      3129      3131
      3129      3132      3132      3133      3132      3134      3132      3135
      3135      3136      3135      3137      3135      3138      3138      3139
      3138      3140      3138      3141      3089      3090      3090      3092
      3090      3091      3092      3093      3092      3094      3092      3142
      3142      3143      3142      3144      3142      3145      3145      3146
      3145      3147      3145      3148      3148      3149      3148      3150
      3148      3151      3151      3152      3151      3153      3151      3154
      3154      3155      3154      3156      3154      3157      3157      3158
      3157      3159      3157      3160      3160      3161      3160      3162
      3160      3163      3163      3164      3163      3165      3163      3166
      3166      3167      3166      3168      3166      3169      3169      3170
      3169      3171      3169      3172      3172      3173      3172      3174
      3172      3175      3175      3176      3175      3177      3175      3178
      3178      3179      3178      3180      3178      3181      3181      3182
      3181      3183      3181      3184      3185      3186      3185      3187
      3185      3188      3185      3189      3189      3190      3189      3191
      3189      3192      3192      3193      3192      3194      3192      3199
      3199      3195      3195      3198      3195      3196      3195      3197
      3200      3201      3200      3202      3200      3203      3200      3198
      3203      3204      3203      3211      3203      3205      3211      3212
      3211      3213      3211      3214      3205      3206      3206      3208
      3206      3207      3208      3209      3208      3210      3208      3220
      3220      3221      3220      3222      3220      3223      3223      3224
      3223      3225      3223      3226      3226      3227      3226      3228
      3226      3229      3229      3230      3229      3231      3229      3232
      3232      3233      3232      3234      3232      3235      3235      3236
      3235      3237      3235      3238      3238      3239      3238      3240
      3240      3241      3240      3242      3242      3243      3242      3244
      3242      3245      3245      3246      3245      3247      3245      3248
      3248      3249      3248      3250      3248      3251      3251      3252
      3251      3253      3251      3254      3254      3255      3254      3256
      3254      3257      3257      3258      3257      3259      3257      3260
      3214      3215      3215      3217      3215      3216      3217      3218
      3217      3219      3217      3261      3261      3262      3261      3263
      3261      3264      3264      3265      3264      3266      3264      3267
      3267      3268      3267      3269      3267      3270      3270      3271
      3270      3272      3270      3273      3273      3274      3273      3275
      3273      3276      3276      3277      3276      3278      3276      3279
      3279      3280      3279      3281      3281      3282      3281      3283
      3283      3284      3283      3285      3283      3286      3286      3287
      3286      3288      3286      3289      3289      3290      3289      3291
      3289      3292      3292      3293      3292      3294      3292      3295
      3295      3296      3295      3297      3295      3298      3298      3299
      3298      3300      3298      3301      3301      3302      3301      3303
      3301      3304      3304      3305      3304      3306      3304      3307
      3308      3309      3308      3310      3308      3311      3308      3312
      3312      3313      3312      3314      3312      3315      3315      3316
      3315      3317      3315      3322      3322      3318      3318      3321
      3318      3319      3318      3320      3323      3324      3323      3325
      3323      3326      3323      3321      3326      3327      3326      3334
      3326      3328      3334      3335      3334      3336      3334      3337
      3328      3329      3329      3331      3329      3330      3331      3332
      3331      3333      3331      3343      3343      3344      3343      3345
      3343      3346      3346      3347      3346      3348      3346      3349
      3349      3350      3349      3351      3349      3352      3352      3353
      3352      3354      3352      3355      3355      3356      3355      3357
      3355      3358      3358      3359      3358      3360      3358      3361
      3361      3362      3361      3366      3361      3363      3366      3367
      3366      3368      3366      3363      3368      3369      3368      3370
      3368      3371      3371      3372      3371      3373      3371      3374
      3374      3375      3374      3376      3374      3377      3377      3378
      3377      3379      3377      3380      3380      3381      3380      3382
      3380      3383      3383      3384      3383      3385      3383      3386
      3363      3364      3363      3365      3337      3338      3338      3340
      3338      3339      3340      3341      3340      3342      3340      3387
      3387      3388      3387      3389      3387      3390      3390      3391
      3390      3392      3390      3393      3393      3394      3393      3395
      3393      3396      3396      3397      3396      3398      3396      3399
      3399      3400      3399      3401      3399      3402      3402      3403
      3402      3404      3402      3405      3405      3406      3405      3407
      3405      3408      3408      3409      3408      3410      3408      3411
      3411      3412      3411      3413      3411      3414      3414      3415
      3414      3416      3414      3417      3417      3418      3417      3419
      3417      3420      3420      3421      3420      3422      3420      3423
      3423      3424      3423      3425      3423      3426      3426      3427
      3426      3428      3426      3429      3430      3431      3430      3432
      3430      3433      3430      3434      3434      3435      3434      3436
      3434      3437      3437      3438      3437      3439      3437      3444
      3444      3440      3440      3443      3440      3441      3440      3442
      3445      3446      3445      3447      3445      3448      3445      3443
      3448      3449      3448      3456      3448      3450      3456      3457
      3456      3458      3456      3459      3450      3451      3451      3453
      3451      3452      3453      3454      3453      3455      3453      3465
      3465      3466      3465      3467      3465      3468      3468      3469
      3468      3470      3468      3471      3471      3472      3471      3473
      3471      3474      3474      3475      3474      3476      3474      3477
      3477      3478      3477      3479      3477      3480      3480      3481
      3480      3482      3480      3483      3483      3484      3483      3488
      3483      3485      3488      3489      3488      3490      3488      3485
      3490      3491      3490      3492      3490      3493      3493      3494
      3493      3495      3493      3496      3496      3497      3496      3498
      3496      3499      3499      3500      3499      3501      3499      3502
      3502      3503      3502      3504      3502      3505      3505      3506
      3505      3507      3505      3508      3485      3486      3485      3487
      3459      3460      3460      3462      3460      3461      3462      3463
      3462      3464      3462      3509      3509      3510      3509      3511
      3509      3512      3512      3513      3512      3514      3512      3515
      3515      3516      3515      3517      3515      3518      3518      3519
      3518      3520      3518      3521      3521      3522      3521      3523
      3521      3524      3524      3525      3524      3526      3524      3527
      3527      3528      3527      3529      3527      3530      3530      3531
      3530      3532      3530      3533      3533      3534      3533      3535
      3533      3536      3536      3537      3536      3538      3536      3539
      3539      3540      3539      3541      3539      3542      3542      3543
      3542      3544      3542      3545      3545      3546      3545      3547
      3545      3548      3548      3549      3548      3550      3548      3551
      3552      3553      3552      3554      3552      3555      3552      3556
      3556      3557      3556      3558      3556      3559      3559      3560
      3559      3561      3559      3566      3566      3562      3562      3565
      3562      3563      3562      3564      3567      3568      3567      3569
      3567      3570      3567      3565      3570      3571      3570      3578
      3570      3572      3578      3579      3578      3580      3578      3581
      3572      3573      3573      3575      3573      3574      3575      3576
      3575      3577      3575      3587      3587      3588      3587      3589
      3587      3590      3590      3591      3590      3592      3590      3593
      3593      3594      3593      3595      3593      3596      3596      3597
      3596      3598      3596      3599      3599      3600      3599      3601
      3599      3602      3602      3603      3602      3604      3602      3605
      3605      3606      3605      3610      3605      3607      3610      3611
      3610      3612      3610      3607      3612      3613      3612      3614
      3612      3615      3615      3616      3615      3617      3615      3618
      3618      3619      3618      3620      3618      3621      3621      3622
      3621      3623      3621      3624      3624      3625      3624      3626
      3624      3627      3627      3628      3627      3629      3627      3630
      3607      3608      3607      3609      3581      3582      3582      3584
      3582      3583      3584      3585      3584      3586      3584      3631
      3631      3632      3631      3633      3631      3634      3634      3635
      3634      3636      3634      3637      3637      3638      3637      3639
      3637      3640      3640      3641      3640      3642      3640      3643
      3643      3644      3643      3645      3643      3646      3646      3647
      3646      3648      3646      3649      3649      3650      3649      3651
      3649      3652      3652      3653      3652      3654      3652      3655
      3655      3656      3655      3657      3655      3658      3658      3659
      3658      3660      3658      3661      3661      3662      3661      3663
      3661      3664      3664      3665      3664      3666      3664      3667
      3667      3668      3667      3669      3667      3670      3670      3671
      3670      3672      3670      3673      3674      3675      3674      3676
      3674      3677      3674      3678      3678      3679      3678      3680
      3678      3681      3681      3682      3681      3683      3681      3688
      3688      3684      3684      3687      3684      3685      3684      3686
      3689      3690      3689      3691      3689      3692      3689      3687
      3692      3693      3692      3700      3692      3694      3700      3701
      3700      3702      3700      3703      3694      3695      3695      3697
      3695      3696      3697      3698      3697      3699      3697      3709
      3709      3710      3709      3711      3709      3712      3712      3713
      3712      3714      3712      3715      3715      3716      3715      3717
      3715      3718      3718      3719      3718      3720      3718      3721
      3721      3722      3721      3723      3721      3724      3724      3725
      3724      3726      3724      3727      3727      3728      3727      3729
      3729      3730      3729      3731      3731      3732      3731      3733
      3731      3734      3734      3735      3734      3736      3734      3737
      3737      3738      3737      3739      3737      3740      3740      3741
      3740      3742      3740      3743      3743      3744      3743      3745
      3743      3746      3746      3747      3746      3748      3746      3749
      3749      3750      3749      3751      3749      3752      3752      3753
      3752      3754      3752      3755      3703      3704      3704      3706
      3704      3705      3706      3707      3706      3708      3706      3756
      3756      3757      3756      3758      3756      3759      3759      3760
      3759      3761      3759      3762      3762      3763      3762      3764
      3762      3765      3765      3766      3765      3767      3765      3768
      3768      3769      3768      3770      3768      3771      3771      3772
      3771      3773      3771      3774      3774      3775      3774      3776
      3774      3777      3777      3778      3777      3779      3777      3780
      3780      3781      3780      3782      3780      3783      3783      3784
      3783      3785      3783      3786      3786      3787      3786      3788
      3786      3789      3789      3790      3789      3791      3789      3792
      3792      3793      3792      3794      3792      3795      3795      3796
      3795      3797      3795      3798      3799      3800      3799      3801
      3799      3802      3799      3803      3803      3804      3803      3805
      3803      3806      3806      3807      3806      3808      3806      3813
      3813      3809      3809      3812      3809      3810      3809      3811
      3814      3815      3814      3816      3814      3817      3814      3812
      3817      3818      3817      3825      3817      3819      3825      3826
      3825      3827      3825      3828      3819      3820      3820      3822
      3820      3821      3822      3823      3822      3824      3822      3834
      3834      3835      3834      3836      3834      3837      3837      3838
      3837      3839      3837      3840      3840      3841      3840      3842
      3840      3843      3843      3844      3843      3845      3843      3846
      3846      3847      3846      3848      3846      3849      3849      3850
      3849      3851      3849      3852      3852      3853      3852      3854
      3854      3855      3854      3856      3856      3857      3856      3858
      3856      3859      3859      3860      3859      3861      3859      3862
      3862      3863      3862      3864      3862      3865      3865      3866
      3865      3867      3865      3868      3868      3869      3868      3870
      3868      3871      3871      3872      3871      3873      3871      3874
      3874      3875      3874      3876      3874      3877      3877      3878
      3877      3879      3877      3880      3828      3829      3829      3831
      3829      3830      3831      3832      3831      3833      3831      3881
      3881      3882      3881      3883      3881      3884      3884      3885
      3884      3886      3884      3887      3887      3888      3887      3889
      3887      3890      3890      3891      3890      3892      3890      3893
      3893      3894      3893      3895      3893      3896      3896      3897
      3896      3898      3896      3899      3899      3900      3899      3901
      3899      3902      3902      3903      3902      3904      3902      3905
      3905      3906      3905      3907      3905      3908      3908      3909
      3908      3910      3908      3911      3911      3912      3911      3913
      3911      3914      3914      3915      3914      3916      3914      3917
      3917      3918      3917      3919      3917      3920      3920      3921
      3920      3922      3920      3923      3924      3925      3924      3926
      3924      3927      3924      3928      3928      3929      3928      3930
      3928      3931      3931      3932      3931      3933      3931      3938
      3938      3934      3934      3937      3934      3935      3934      3936
      3939      3940      3939      3941      3939      3942      3939      3937
      3942      3943      3942      3950      3942      3944      3950      3951
      3950      3952      3950      3953      3944      3945      3945      3947
      3945      3946      3947      3948      3947      3949      3947      3959
      3959      3960      3959      3961      3959      3962      3962      3963
      3962      3964      3962      3965      3965      3966      3965      3967
      3965      3968      3968      3969      3968      3970      3968      3971
      3971      3972      3971      3973      3971      3974      3974      3975
      3974      3976      3974      3977      3977      3978      3977      3982
      3977      3979      3982      3983      3982      3984      3982      3979
      3984      3985      3984      3986      3984      3987      3987      3988
      3987      3989      3987      3990      3990      3991      3990      3992
      3990      3993      3993      3994      3993      3995      3993      3996
      3996      3997      3996      3998      3996      3999      3999      4000
      3999      4001      3999      4002      3979      3980      3979      3981
      3953      3954      3954      3956      3954      3955      3956      3957
      3956      3958      3956      4003      4003      4004      4003      4005
      4003      4006      4006      4007      4006      4008      4006      4009
      4009      4010      4009      4011      4009      4012      4012      4013
      4012      4014      4012      4015      4015      4016      4015      4017
      4015      4018      4018      4019      4018      4020      4018      4021
      4021      4022      4021      4023      4021      4024      4024      4025
      4024      4026      4024      4027      4027      4028      4027      4029
      4027      4030      4030      4031      4030      4032      4030      4033
      4033      4034      4033      4035      4033      4036      4036      4037
      4036      4038      4036      4039      4039      4040      4039      4041
      4039      4042      4042      4043      4042      4044      4042      4045
      4050      4049      4049      4046      4046      4047      4046      4048
      4046      4051      4054      4053      4053      4051      4051      4052
      4051      4055      4055      4056      4055      4057      4055      4062
      4062      4058      4058      4061      4058      4059      4058      4060
      4063      4064      4063      4065      4063      4066      4063      4061
      4066      4067      4066      4074      4066      4068      4074      4075
      4074      4076      4074      4077      4068      4069      4069      4071
      4069      4070      4071      4072      4071      4073      4071      4083
      4083      4084      4083      4085      4083      4086      4086      4087
      4086      4088      4086      4089      4089      4090      4089      4091
      4089      4092      4092      4093      4092      4094      4092      4095
      4095      4096      4095      4097      4095      4098      4098      4099
      4098      4100      4098      4101      4101      4102      4101      4106
      4101      4103      4106      4107      4106      4108      4106      4103
      4108      4109      4108      4110      4108      4111      4111      4112
      4111      4113      4111      4114      4114      4115      4114      4116
      4114      4117      4117      4118      4117      4119      4117      4120
      4120      4121      4120      4122      4120      4123      4123      4124
      4123      4125      4123      4126      4103      4104      4103      4105
      4077      4078      4078      4080      4078      4079      4080      4081
      4080      4082      4080      4127      4127      4128      4127      4129
      4127      4130      4130      4131      4130      4132      4130      4133
      4133      4134      4133      4135      4133      4136      4136      4137
      4136      4138      4136      4139      4139      4140      4139      4141
      4139      4142      4142      4143      4142      4144      4142      4145
      4145      4146      4145      4147      4145      4148      4148      4149
      4148      4150      4148      4151      4151      4152      4151      4153
      4151      4154      4154      4155      4154      4156      4154      4157
      4157      4158      4157      4159      4157      4160      4160      4161
      4160      4162      4160      4163      4163      4164      4163      4165
      4163      4166      4166      4167      4166      4168      4166      4169
      4170      4171      4170      4172      4170      4173      4170      4174
      4174      4175      4174      4176      4174      4177      4177      4178
      4177      4179      4177      4184      4184      4180      4180      4183
      4180      4181      4180      4182      4185      4186      4185      4187
      4185      4188      4185      4183      4188      4189      4188      4196
      4188      4190      4196      4197      4196      4198      4196      4199
      4190      4191      4191      4193      4191      4192      4193      4194
      4193      4195      4193      4205      4205      4206      4205      4207
      4205      4208      4208      4209      4208      4210      4208      4211
      4211      4212      4211      4213      4211      4214      4214      4215
      4214      4216      4214      4217      4217      4218      4217      4219
      4217      4220      4220      4221      4220      4222      4220      4223
      4223      4224      4223      4228      4223      4225      4228      4229
      4228      4230      4228      4225      4230      4231      4230      4232
      4230      4233      4233      4234      4233      4235      4233      4236
      4236      4237      4236      4238      4236      4239      4239      4240
      4239      4241      4239      4242      4242      4243      4242      4244
      4242      4245      4245      4246      4245      4247      4245      4248
      4225      4226      4225      4227      4199      4200      4200      4202
      4200      4201      4202      4203      4202      4204      4202      4249
      4249      4250      4249      4251      4249      4252      4252      4253
      4252      4254      4252      4255      4255      4256      4255      4257
      4255      4258      4258      4259      4258      4260      4258      4261
      4261      4262      4261      4263      4261      4264      4264      4265
      4264      4266      4264      4267      4267      4268      4267      4269
      4267      4270      4270      4271      4270      4272      4270      4273
      4273      4274      4273      4275      4273      4276      4276      4277
      4276      4278      4276      4279      4279      4280      4279      4281
      4279      4282      4282      4283      4282      4284      4282      4285
      4285      4286      4285      4287      4285      4288      4293      4292
      4292      4289      4289      4290      4289      4291      4289      4294
      4297      4296      4296      4294      4294      4295      4294      4298
      4298      4299      4298      4300      4298      4305      4305      4301
      4301      4304      4301      4302      4301      4303      4306      4307
      4306      4308      4306      4309      4306      4304      4309      4310
      4309      4317      4309      4311      4317      4318      4317      4319
      4317      4320      4311      4312      4312      4314      4312      4313
      4314      4315      4314      4316      4314      4326      4326      4327
      4326      4328      4326      4329      4329      4330      4329      4331
      4329      4332      4332      4333      4332      4334      4332      4335
      4335      4336      4335      4337      4335      4338      4338      4339
      4338      4340      4338      4341      4341      4342      4341      4343
      4341      4344      4344      4345      4344      4346      4346      4347
      4346      4348      4348      4349      4348      4350      4348      4351
      4351      4352      4351      4353      4351      4354      4354      4355
      4354      4356      4354      4357      4357      4358      4357      4359
      4357      4360      4360      4361      4360      4362      4360      4363
      4363      4364      4363      4365      4363      4366      4320      4321
      4321      4323      4321      4322      4323      4324      4323      4325
      4323      4367      4367      4368      4367      4369      4367      4370
      4370      4371      4370      4372      4370      4373      4373      4374
      4373      4375      4373      4376      4376      4377      4376      4378
      4376      4379      4379      4380      4379      4381      4379      4382
      4382      4383      4382      4384      4382      4385      4385      4386
      4385      4387      4385      4388      4388      4389      4388      4390
      4388      4391      4391      4392      4391      4393      4391      4394
      4394      4395      4394      4396      4394      4397      4397      4398
      4397      4399      4397      4400      4400      4401      4400      4402
      4400      4403      4403      4404      4403      4405      4403      4406
      4406      4407      4406      4408      4406      4409      4410      4411
      4410      4412      4410      4413      4410      4414      4414      4415
      4414      4416      4414      4417      4417      4418      4417      4419
      4417      4424      4424      4420      4420      4423      4420      4421
      4420      4422      4425      4426      4425      4427      4425      4428
      4425      4423      4428      4429      4428      4436      4428      4430
      4436      4437      4436      4438      4436      4439      4430      4431
      4431      4433      4431      4432      4433      4434      4433      4435
      4433      4445      4445      4446      4445      4447      4445      4448
      4448      4449      4448      4450      4448      4451      4451      4452
      4451      4453      4451      4454      4454      4455      4454      4456
      4454      4457      4457      4458      4457      4459      4457      4460
      4460      4461      4460      4462      4460      4463      4463      4464
      4463      4468      4463      4465      4468      4469      4468      4470
      4468      4465      4470      4471      4470      4472      4470      4473
      4473      4474      4473      4475      4473      4476      4476      4477
      4476      4478      4476      4479      4479      4480      4479      4481
      4479      4482      4482      4483      4482      4484      4482      4485
      4485      4486      4485      4487      4485      4488      4465      4466
      4465      4467      4439      4440      4440      4442      4440      4441
      4442      4443      4442      4444      4442      4489      4489      4490
      4489      4491      4489      4492      4492      4493      4492      4494
      4492      4495      4495      4496      4495      4497      4495      4498
      4498      4499      4498      4500      4498      4501      4501      4502
      4501      4503      4501      4504      4504      4505      4504      4506
      4504      4507      4507      4508      4507      4509      4507      4510
      4510      4511      4510      4512      4510      4513      4513      4514
      4513      4515      4513      4516      4516      4517      4516      4518
      4516      4519      4519      4520      4519      4521      4519      4522
      4522      4523      4522      4524      4522      4525      4525      4526
      4525      4527      4525      4528      4528      4529      4528      4530
      4528      4531      4532      4533      4532      4534      4532      4535
      4532      4536      4536      4537      4536      4538      4536      4539
      4539      4540      4539      4541      4539      4546      4546      4542
      4542      4545      4542      4543      4542      4544      4547      4548
      4547      4549      4547      4550      4547      4545      4550      4551
      4550      4558      4550      4552      4558      4559      4558      4560
      4558      4561      4552      4553      4553      4555      4553      4554
      4555      4556      4555      4557      4555      4567      4567      4568
      4567      4569      4567      4570      4570      4571      4570      4572
      4570      4573      4573      4574      4573      4575      4573      4576
      4576      4577      4576      4578      4576      4579      4579      4580
      4579      4581      4579      4582      4582      4583      4582      4584
      4582      4585      4585      4586      4585      4587      4587      4588
      4587      4589      4589      4590      4589      4591      4589      4592
      4592      4593      4592      4594      4592      4595      4595      4596
      4595      4597      4595      4598      4598      4599      4598      4600
      4598      4601      4601      4602      4601      4603      4601      4604
      4604      4605      4604      4606      4604      4607      4607      4608
      4607      4609      4607      4610      4610      4611      4610      4612
      4610      4613      4561      4562      4562      4564      4562      4563
      4564      4565      4564      4566      4564      4614      4614      4615
      4614      4616      4614      4617      4617      4618      4617      4619
      4617      4620      4620      4621      4620      4622      4620      4623
      4623      4624      4623      4625      4623      4626      4626      4627
      4626      4628      4626      4629      4629      4630      4629      4631
      4629      4632      4632      4633      4632      4634      4632      4635
      4635      4636      4635      4637      4635      4638      4638      4639
      4638      4640      4638      4641      4641      4642      4641      4643
      4641      4644      4644      4645      4644      4646      4644      4647
      4647      4648      4647      4649      4647      4650      4650      4651
      4650      4652      4650      4653      4653      4654      4653      4655
      4653      4656      4657      4658      4657      4659      4657      4660
      4657      4661      4661      4662      4661      4663      4661      4664
      4664      4665      4664      4666      4664      4671      4671      4667
      4667      4670      4667      4668      4667      4669      4672      4673
      4672      4674      4672      4675      4672      4670      4675      4676
      4675      4683      4675      4677      4683      4684      4683      4685
      4683      4686      4677      4678      4678      4680      4678      4679
      4680      4681      4680      4682      4680      4692      4692      4693
      4692      4694      4692      4695      4695      4696      4695      4697
      4695      4698      4698      4699      4698      4700      4698      4701
      4701      4702      4701      4703      4701      4704      4704      4705
      4704      4706      4704      4707      4707      4708      4707      4709
      4707      4710      4710      4711      4710      4715      4710      4712
      4715      4716      4715      4717      4715      4712      4717      4718
      4717      4719      4717      4720      4720      4721      4720      4722
      4720      4723      4723      4724      4723      4725      4723      4726
      4726      4727      4726      4728      4726      4729      4729      4730
      4729      4731      4729      4732      4732      4733      4732      4734
      4732      4735      4712      4713      4712      4714      4686      4687
      4687      4689      4687      4688      4689      4690      4689      4691
      4689      4736      4736      4737      4736      4738      4736      4739
      4739      4740      4739      4741      4739      4742      4742      4743
      4742      4744      4742      4745      4745      4746      4745      4747
      4745      4748      4748      4749      4748      4750      4748      4751
      4751      4752      4751      4753      4751      4754      4754      4755
      4754      4756      4754      4757      4757      4758      4757      4759
      4757      4760      4760      4761      4760      4762      4760      4763
      4763      4764      4763      4765      4763      4766      4766      4767
      4766      4768      4766      4769      4769      4770      4769      4771
      4769      4772      4772      4773      4772      4774      4772      4775
      4776      4777      4776      4778      4776      4779      4776      4780
      4780      4781      4780      4782      4780      4783      4783      4784
      4783      4785      4783      4790      4790      4786      4786      4789
      4786      4787      4786      4788      4791      4792      4791      4793
      4791      4794      4791      4789      4794      4795      4794      4802
      4794      4796      4802      4803      4802      4804      4802      4805
      4796      4797      4797      4799      4797      4798      4799      4800
      4799      4801      4799      4811      4811      4812      4811      4813
      4811      4814      4814      4815      4814      4816      4814      4817
      4817      4818      4817      4819      4817      4820      4820      4821
      4820      4822      4820      4823      4823      4824      4823      4825
      4823      4826      4826      4827      4826      4828      4826      4829
      4829      4830      4829      4834      4829      4831      4834      4835
      4834      4836      4834      4831      4836      4837      4836      4838
      4836      4839      4839      4840      4839      4841      4839      4842
      4842      4843      4842      4844      4842      4845      4845      4846
      4845      4847      4845      4848      4848      4849      4848      4850
      4848      4851      4851      4852      4851      4853      4851      4854
      4831      4832      4831      4833      4805      4806      4806      4808
      4806      4807      4808      4809      4808      4810      4808      4855
      4855      4856      4855      4857      4855      4858      4858      4859
      4858      4860      4858      4861      4861      4862      4861      4863
      4861      4864      4864      4865      4864      4866      4864      4867
      4867      4868      4867      4869      4867      4870      4870      4871
      4870      4872      4870      4873      4873      4874      4873      4875
      4873      4876      4876      4877      4876      4878      4876      4879
      4879      4880      4879      4881      4879      4882      4882      4883
      4882      4884      4882      4885      4885      4886      4885      4887
      4885      4888      4888      4889      4888      4890      4888      4891
      4891      4892      4891      4893      4891      4894      4894      4895
      4894      4896      4894      4897      4898      4899      4898      4900
      4898      4901      4898      4902      4902      4903      4902      4904
      4902      4905      4905      4906      4905      4907      4905      4912
      4912      4908      4908      4911      4908      4909      4908      4910
      4913      4914      4913      4915      4913      4916      4913      4911
      4916      4917      4916      4924      4916      4918      4924      4925
      4924      4926      4924      4927      4918      4919      4919      4921
      4919      4920      4921      4922      4921      4923      4921      4933
      4933      4934      4933      4935      4933      4936      4936      4937
      4936      4938      4936      4939      4939      4940      4939      4941
      4939      4942      4942      4943      4942      4944      4942      4945
      4945      4946      4945      4947      4945      4948      4948      4949
      4948      4950      4948      4951      4951      4952      4951      4956
      4951      4953      4956      4957      4956      4958      4956      4953
      4958      4959      4958      4960      4958      4961      4961      4962
      4961      4963      4961      4964      4964      4965      4964      4966
      4964      4967      4967      4968      4967      4969      4967      4970
      4970      4971      4970      4972      4970      4973      4973      4974
      4973      4975      4973      4976      4953      4954      4953      4955
      4927      4928      4928      4930      4928      4929      4930      4931
      4930      4932      4930      4977      4977      4978      4977      4979
      4977      4980      4980      4981      4980      4982      4980      4983
      4983      4984      4983      4985      4983      4986      4986      4987
      4986      4988      4986      4989      4989      4990      4989      4991
      4989      4992      4992      4993      4992      4994      4992      4995
      4995      4996      4995      4997      4995      4998      4998      4999
      4998      5000      4998      5001      5001      5002      5001      5003
      5001      5004      5004      5005      5004      5006      5004      5007
      5007      5008      5007      5009      5007      5010      5010      5011
      5010      5012      5010      5013      5013      5014      5013      5015
      5013      5016      5016      5017      5016      5018      5016      5019
      5024      5023      5023      5020      5020      5021      5020      5022
      5020      5025      5028      5027      5027      5025      5025      5026
      5025      5029      5029      5030      5029      5031      5029      5036
      5036      5032      5032      5035      5032      5033      5032      5034
      5037      5038      5037      5039      5037      5040      5037      5035
      5040      5041      5040      5048      5040      5042      5048      5049
      5048      5050      5048      5051      5042      5043      5043      5045
      5043      5044      5045      5046      5045      5047      5045      5057
      5057      5058      5057      5059      5057      5060      5060      5061
      5060      5062      5060      5063      5063      5064      5063      5065
      5063      5066      5066      5067      5066      5068      5066      5069
      5069      5070      5069      5071      5069      5072      5072      5073
      5072      5074      5072      5075      5075      5076      5075      5077
      5077      5078      5077      5079      5079      5080      5079      5081
      5079      5082      5082      5083      5082      5084      5082      5085
      5085      5086      5085      5087      5085      5088      5088      5089
      5088      5090      5088      5091      5091      5092      5091      5093
      5091      5094      5094      5095      5094      5096      5094      5097
      5051      5052      5052      5054      5052      5053      5054      5055
      5054      5056      5054      5098      5098      5099      5098      5100
      5098      5101      5101      5102      5101      5103      5101      5104
      5104      5105      5104      5106      5104      5107      5107      5108
      5107      5109      5107      5110      5110      5111      5110      5112
      5110      5113      5113      5114      5113      5115      5113      5116
      5116      5117      5116      5118      5116      5119      5119      5120
      5119      5121      5119      5122      5122      5123      5122      5124
      5122      5125      5125      5126      5125      5127      5125      5128
      5128      5129      5128      5130      5128      5131      5131      5132
      5131      5133      5131      5134      5134      5135      5134      5136
      5134      5137      5137      5138      5137      5139      5137      5140
      5145      5144      5144      5141      5141      5142      5141      5143
      5141      5146      5149      5148      5148      5146      5146      5147
      5146      5150      5150      5151      5150      5152      5150      5157
      5157      5153      5153      5156      5153      5154      5153      5155
      5158      5159      5158      5160      5158      5161      5158      5156
      5161      5162      5161      5169      5161      5163      5169      5170
      5169      5171      5169      5172      5163      5164      5164      5166
      5164      5165      5166      5167      5166      5168      5166      5178
      5178      5179      5178      5180      5178      5181      5181      5182
      5181      5183      5181      5184      5184      5185      5184      5186
      5184      5187      5187      5188      5187      5189      5187      5190
      5190      5191      5190      5192      5190      5193      5193      5194
      5193      5195      5193      5196      5196      5197      5196      5201
      5196      5198      5201      5202      5201      5203      5201      5198
      5203      5204      5203      5205      5203      5206      5206      5207
      5206      5208      5206      5209      5209      5210      5209      5211
      5209      5212      5212      5213      5212      5214      5212      5215
      5215      5216      5215      5217      5215      5218      5218      5219
      5218      5220      5218      5221      5198      5199      5198      5200
      5172      5173      5173      5175      5173      5174      5175      5176
      5175      5177      5175      5222      5222      5223      5222      5224
      5222      5225      5225      5226      5225      5227      5225      5228
      5228      5229      5228      5230      5228      5231      5231      5232
      5231      5233      5231      5234      5234      5235      5234      5236
      5234      5237      5237      5238      5237      5239      5237      5240
      5240      5241      5240      5242      5240      5243      5243      5244
      5243      5245      5243      5246      5246      5247      5246      5248
      5246      5249      5249      5250      5249      5251      5249      5252
      5252      5253      5252      5254      5252      5255      5255      5256
      5255      5257      5255      5258      5258      5259      5258      5260
      5258      5261      5261      5262      5261      5263      5261      5264
      5265      5266      5265      5267      5265      5268      5265      5269
      5269      5270      5269      5271      5269      5272      5272      5273
      5272      5274      5272      5279      5279      5275      5275      5278
      5275      5276      5275      5277      5280      5281      5280      5282
      5280      5283      5280      5278      5283      5284      5283      5291
      5283      5285      5291      5292      5291      5293      5291      5294
      5285      5286      5286      5288      5286      5287      5288      5289
      5288      5290      5288      5300      5300      5301      5300      5302
      5300      5303      5303      5304      5303      5305      5303      5306
      5306      5307      5306      5308      5306      5309      5309      5310
      5309      5311      5309      5312      5312      5313      5312      5314
      5312      5315      5315      5316      5315      5317      5315      5318
      5318      5319      5318      5323      5318      5320      5323      5324
      5323      5325      5323      5320      5325      5326      5325      5327
      5325      5328      5328      5329      5328      5330      5328      5331
      5331      5332      5331      5333      5331      5334      5334      5335
      5334      5336      5334      5337      5337      5338      5337      5339
      5337      5340      5340      5341      5340      5342      5340      5343
      5320      5321      5320      5322      5294      5295      5295      5297
      5295      5296      5297      5298      5297      5299      5297      5344
      5344      5345      5344      5346      5344      5347      5347      5348
      5347      5349      5347      5350      5350      5351      5350      5352
      5350      5353      5353      5354      5353      5355      5353      5356
      5356      5357      5356      5358      5356      5359      5359      5360
      5359      5361      5359      5362      5362      5363      5362      5364
      5362      5365      5365      5366      5365      5367      5365      5368
      5368      5369      5368      5370      5368      5371      5371      5372
      5371      5373      5371      5374      5374      5375      5374      5376
      5374      5377      5377      5378      5377      5379      5377      5380
      5380      5381      5380      5382      5380      5383      5383      5384
      5383      5385      5383      5386      5387      5388      5387      5389
      5387      5390      5387      5391      5391      5392      5391      5393
      5391      5394      5394      5395      5394      5396      5394      5401
      5401      5397      5397      5400      5397      5398      5397      5399
      5402      5403      5402      5404      5402      5405      5402      5400
      5405      5406      5405      5413      5405      5407      5413      5414
      5413      5415      5413      5416      5407      5408      5408      5410
      5408      5409      5410      5411      5410      5412      5410      5422
      5422      5423      5422      5424      5422      5425      5425      5426
      5425      5427      5425      5428      5428      5429      5428      5430
      5428      5431      5431      5432      5431      5433      5431      5434
      5434      5435      5434      5436      5434      5437      5437      5438
      5437      5439      5437      5440      5440      5441      5440      5445
      5440      5442      5445      5446      5445      5447      5445      5442
      5447      5448      5447      5449      5447      5450      5450      5451
      5450      5452      5450      5453      5453      5454      5453      5455
      5453      5456      5456      5457      5456      5458      5456      5459
      5459      5460      5459      5461      5459      5462      5462      5463
      5462      5464      5462      5465      5442      5443      5442      5444
      5416      5417      5417      5419      5417      5418      5419      5420
      5419      5421      5419      5466      5466      5467      5466      5468
      5466      5469      5469      5470      5469      5471      5469      5472
      5472      5473      5472      5474      5472      5475      5475      5476
      5475      5477      5475      5478      5478      5479      5478      5480
      5478      5481      5481      5482      5481      5483      5481      5484
      5484      5485      5484      5486      5484      5487      5487      5488
      5487      5489      5487      5490      5490      5491      5490      5492
      5490      5493      5493      5494      5493      5495      5493      5496
      5496      5497      5496      5498      5496      5499      5499      5500
      5499      5501      5499      5502      5502      5503      5502      5504
      5502      5505      5521      5517      5521      5522      5521      5523
      5517      5519      5517      5518      5519      5520      5517      5506
      5506      5507      5506      5508      5521      5527      5506      5512
      5524      5527      5524      5528      5524      5525      5524      5526
      5509      5512      5509      5513      5509      5510      5509      5511
      5528      5529      5529      5530      5529      5531      5529      5532
      5532      5533      5532      5534      5532      5540      5540      5541
      5540      5542      5540      5543      5513      5514      5514      5515
      5514      5516      5514      5549      5549      5550      5549      5551
      5549      5557      5557      5558      5557      5559      5557      5560
      5534      5535      5543      5544      5551      5552      5560      5561
      5535      5536      5535      5537      5537      5538      5537      5539
      5537      5566      5566      5567      5566      5568      5566      5569
      5569      5570      5569      5571      5569      5572      5572      5573
      5572      5574      5572      5575      5575      5576      5575      5577
      5575      5578      5578      5579      5578      5580      5578      5581
      5581      5582      5581      5583      5581      5584      5584      5585
      5584      5586      5584      5587      5587      5588      5587      5589
      5587      5590      5590      5591      5590      5592      5592      5593
      5592      5594      5594      5595      5594      5596      5594      5597
      5597      5598      5597      5599      5597      5600      5600      5601
      5600      5602      5600      5603      5603      5604      5603      5605
      5603      5606      5606      5607      5606      5608      5606      5609
      5609      5610      5609      5611      5609      5612      5544      5545
      5544      5546      5546      5547      5546      5548      5546      5613
      5613      5614      5613      5615      5613      5616      5616      5617
      5616      5618      5616      5619      5619      5620      5619      5621
      5619      5622      5622      5623      5622      5624      5622      5625
      5625      5626      5625      5627      5625      5628      5628      5629
      5628      5630      5628      5631      5631      5632      5631      5633
      5631      5634      5634      5635      5634      5636      5634      5637
      5637      5638      5637      5639      5637      5640      5640      5641
      5640      5642      5640      5643      5643      5644      5643      5645
      5643      5646      5646      5647      5646      5648      5646      5649
      5649      5650      5649      5651      5649      5652      5652      5653
      5652      5654      5652      5655      5552      5553      5552      5554
      5554      5555      5554      5556      5554      5656      5656      5657
      5656      5658      5656      5659      5659      5660      5659      5661
      5659      5662      5662      5663      5662      5664      5662      5665
      5665      5666      5665      5667      5665      5668      5668      5669
      5668      5670      5668      5671      5671      5672      5671      5673
      5671      5674      5674      5675      5674      5676      5674      5677
      5677      5678      5677      5679      5677      5680      5680      5681
      5680      5682      5682      5683      5682      5684      5684      5685
      5684      5686      5684      5687      5687      5688      5687      5689
      5687      5690      5690      5691      5690      5692      5690      5693
      5693      5694      5693      5695      5693      5696      5696      5697
      5696      5698      5696      5699      5699      5700      5699      5701
      5699      5702      5561      5562      5561      5563      5563      5564
      5563      5565      5563      5703      5703      5704      5703      5705
      5703      5706      5706      5707      5706      5708      5706      5709
      5709      5710      5709      5711      5709      5712      5712      5713
      5712      5714      5712      5715      5715      5716      5715      5717
      5715      5718      5718      5719      5718      5720      5718      5721
      5721      5722      5721      5723      5721      5724      5724      5725
      5724      5726      5724      5727      5727      5728      5727      5729
      5727      5730      5730      5731      5730      5732      5730      5733
      5733      5734      5733      5735      5733      5736      5736      5737
      5736      5738      5736      5739      5739      5740      5739      5741
      5739      5742      5742      5743      5742      5744      5742      5745
      5746      5747      5746      5748      5746      5749      5746      5750
      5750      5751      5750      5752      5750      5753      5753      5754
      5753      5755      5753      5760      5760      5756      5756      5759
      5756      5757      5756      5758      5761      5762      5761      5763
      5761      5764      5761      5759      5764      5765      5764      5772
      5764      5766      5772      5773      5772      5774      5772      5775
      5766      5767      5767      5769      5767      5768      5769      5770
      5769      5771      5769      5781      5781      5782      5781      5783
      5781      5784      5784      5785      5784      5786      5784      5787
      5787      5788      5787      5789      5787      5790      5790      5791
      5790      5792      5790      5793      5793      5794      5793      5795
      5793      5796      5796      5797      5796      5798      5796      5799
      5799      5800      5799      5804      5799      5801      5804      5805
      5804      5806      5804      5801      5806      5807      5806      5808
      5806      5809      5809      5810      5809      5811      5809      5812
      5812      5813      5812      5814      5812      5815      5815      5816
      5815      5817      5815      5818      5818      5819      5818      5820
      5818      5821      5821      5822      5821      5823      5821      5824
      5801      5802      5801      5803      5775      5776      5776      5778
      5776      5777      5778      5779      5778      5780      5778      5825
      5825      5826      5825      5827      5825      5828      5828      5829
      5828      5830      5828      5831      5831      5832      5831      5833
      5831      5834      5834      5835      5834      5836      5834      5837
      5837      5838      5837      5839      5837      5840      5840      5841
      5840      5842      5840      5843      5843      5844      5843      5845
      5843      5846      5846      5847      5846      5848      5846      5849
      5849      5850      5849      5851      5849      5852      5852      5853
      5852      5854      5852      5855      5855      5856      5855      5857
      5855      5858      5858      5859      5858      5860      5858      5861
      5861      5862      5861      5863      5861      5864      5864      5865
      5864      5866      5864      5867      5868      5869      5868      5870
      5868      5871      5868      5872      5872      5873      5872      5874
      5872      5875      5875      5876      5875      5877      5875      5882
      5882      5878      5878      5881      5878      5879      5878      5880
      5883      5884      5883      5885      5883      5886      5883      5881
      5886      5887      5886      5894      5886      5888      5894      5895
      5894      5896      5894      5897      5888      5889      5889      5891
      5889      5890      5891      5892      5891      5893      5891      5903
      5903      5904      5903      5905      5903      5906      5906      5907
      5906      5908      5906      5909      5909      5910      5909      5911
      5909      5912      5912      5913      5912      5914      5912      5915
      5915      5916      5915      5917      5915      5918      5918      5919
      5918      5920      5918      5921      5921      5922      5921      5926
      5921      5923      5926      5927      5926      5928      5926      5923
      5928      5929      5928      5930      5928      5931      5931      5932
      5931      5933      5931      5934      5934      5935      5934      5936
      5934      5937      5937      5938      5937      5939      5937      5940
      5940      5941      5940      5942      5940      5943      5943      5944
      5943      5945      5943      5946      5923      5924      5923      5925
      5897      5898      5898      5900      5898      5899      5900      5901
      5900      5902      5900      5947      5947      5948      5947      5949
      5947      5950      5950      5951      5950      5952      5950      5953
      5953      5954      5953      5955      5953      5956      5956      5957
      5956      5958      5956      5959      5959      5960      5959      5961
      5959      5962      5962      5963      5962      5964      5962      5965
      5965      5966      5965      5967      5965      5968      5968      5969
      5968      5970      5968      5971      5971      5972      5971      5973
      5971      5974      5974      5975      5974      5976      5974      5977
      5977      5978      5977      5979      5977      5980      5980      5981
      5980      5982      5980      5983      5983      5984      5983      5985
      5983      5986      5986      5987      5986      5988      5986      5989
      5990      5991      5990      5992      5990      5993      5990      5994
      5994      5995      5994      5996      5994      5997      5997      5998
      5997      5999      5997      6004      6004      6000      6000      6003
      6000      6001      6000      6002      6005      6006      6005      6007
      6005      6008      6005      6003      6008      6009      6008      6016
      6008      6010      6016      6017      6016      6018      6016      6019
      6010      6011      6011      6013      6011      6012      6013      6014
      6013      6015      6013      6025      6025      6026      6025      6027
      6025      6028      6028      6029      6028      6030      6028      6031
      6031      6032      6031      6033      6031      6034      6034      6035
      6034      6036      6034      6037      6037      6038      6037      6039
      6037      6040      6040      6041      6040      6042      6040      6043
      6043      6044      6043      6045      6045      6046      6045      6047
      6047      6048      6047      6049      6047      6050      6050      6051
      6050      6052      6050      6053      6053      6054      6053      6055
      6053      6056      6056      6057      6056      6058      6056      6059
      6059      6060      6059      6061      6059      6062      6062      6063
      6062      6064      6062      6065      6065      6066      6065      6067
      6065      6068      6068      6069      6068      6070      6068      6071
      6019      6020      6020      6022      6020      6021      6022      6023
      6022      6024      6022      6072      6072      6073      6072      6074
      6072      6075      6075      6076      6075      6077      6075      6078
      6078      6079      6078      6080      6078      6081      6081      6082
      6081      6083      6081      6084      6084      6085      6084      6086
      6084      6087      6087      6088      6087      6089      6087      6090
      6090      6091      6090      6092      6090      6093      6093      6094
      6093      6095      6093      6096      6096      6097      6096      6098
      6096      6099      6099      6100      6099      6101      6099      6102
      6102      6103      6102      6104      6102      6105      6105      6106
      6105      6107      6105      6108      6108      6109      6108      6110
      6108      6111      6111      6112      6111      6113      6111      6114
      6115      6116      6115      6117      6115      6118      6115      6119
      6119      6120      6119      6121      6119      6122      6122      6123
      6122      6124      6122      6129      6129      6125      6125      6128
      6125      6126      6125      6127      6130      6131      6130      6132
      6130      6133      6130      6128      6133      6134      6133      6141
      6133      6135      6141      6142      6141      6143      6141      6144
      6135      6136      6136      6138      6136      6137      6138      6139
      6138      6140      6138      6150      6150      6151      6150      6152
      6150      6153      6153      6154      6153      6155      6153      6156
      6156      6157      6156      6158      6156      6159      6159      6160
      6159      6161      6159      6162      6162      6163      6162      6164
      6162      6165      6165      6166      6165      6167      6165      6168
      6168      6169      6168      6173      6168      6170      6173      6174
      6173      6175      6173      6170      6175      6176      6175      6177
      6175      6178      6178      6179      6178      6180      6178      6181
      6181      6182      6181      6183      6181      6184      6184      6185
      6184      6186      6184      6187      6187      6188      6187      6189
      6187      6190      6190      6191      6190      6192      6190      6193
      6170      6171      6170      6172      6144      6145      6145      6147
      6145      6146      6147      6148      6147      6149      6147      6194
      6194      6195      6194      6196      6194      6197      6197      6198
      6197      6199      6197      6200      6200      6201      6200      6202
      6200      6203      6203      6204      6203      6205      6203      6206
      6206      6207      6206      6208      6206      6209      6209      6210
      6209      6211      6209      6212      6212      6213      6212      6214
      6212      6215      6215      6216      6215      6217      6215      6218
      6218      6219      6218      6220      6218      6221      6221      6222
      6221      6223      6221      6224      6224      6225      6224      6226
      6224      6227      6227      6228      6227      6229      6227      6230
      6230      6231      6230      6232      6230      6233      6233      6234
      6233      6235      6233      6236      6237      6238      6237      6239
      6237      6240      6237      6241      6241      6242      6241      6243
      6241      6244      6244      6245      6244      6246      6244      6251
      6251      6247      6247      6250      6247      6248      6247      6249
      6252      6253      6252      6254      6252      6255      6252      6250
      6255      6256      6255      6263      6255      6257      6263      6264
      6263      6265      6263      6266      6257      6258      6258      6260
      6258      6259      6260      6261      6260      6262      6260      6272
      6272      6273      6272      6274      6272      6275      6275      6276
      6275      6277      6275      6278      6278      6279      6278      6280
      6278      6281      6281      6282      6281      6283      6281      6284
      6284      6285      6284      6286      6284      6287      6287      6288
      6287      6289      6287      6290      6290      6291      6290      6292
      6292      6293      6292      6294      6294      6295      6294      6296
      6294      6297      6297      6298      6297      6299      6297      6300
      6300      6301      6300      6302      6300      6303      6303      6304
      6303      6305      6303      6306      6306      6307      6306      6308
      6306      6309      6309      6310      6309      6311      6309      6312
      6312      6313      6312      6314      6312      6315      6315      6316
      6315      6317      6315      6318      6266      6267      6267      6269
      6267      6268      6269      6270      6269      6271      6269      6319
      6319      6320      6319      6321      6319      6322      6322      6323
      6322      6324      6322      6325      6325      6326      6325      6327
      6325      6328      6328      6329      6328      6330      6328      6331
      6331      6332      6331      6333      6331      6334      6334      6335
      6334      6336      6334      6337      6337      6338      6337      6339
      6337      6340      6340      6341      6340      6342      6340      6343
      6343      6344      6343      6345      6343      6346      6346      6347
      6346      6348      6346      6349      6349      6350      6349      6351
      6349      6352      6352      6353      6352      6354      6352      6355
      6355      6356      6355      6357      6355      6358      6358      6359
      6358      6360      6358      6361      6362      6363      6362      6364
      6362      6365      6362      6366      6366      6367      6366      6368
      6366      6369      6369      6370      6369      6371      6369      6376
      6376      6372      6372      6375      6372      6373      6372      6374
      6377      6378      6377      6379      6377      6380      6377      6375
      6380      6381      6380      6388      6380      6382      6388      6389
      6388      6390      6388      6391      6382      6383      6383      6385
      6383      6384      6385      6386      6385      6387      6385      6397
      6397      6398      6397      6399      6397      6400      6400      6401
      6400      6402      6400      6403      6403      6404      6403      6405
      6403      6406      6406      6407      6406      6408      6406      6409
      6409      6410      6409      6411      6409      6412      6412      6413
      6412      6414      6412      6415      6415      6416      6415      6420
      6415      6417      6420      6421      6420      6422      6420      6417
      6422      6423      6422      6424      6422      6425      6425      6426
      6425      6427      6425      6428      6428      6429      6428      6430
      6428      6431      6431      6432      6431      6433      6431      6434
      6434      6435      6434      6436      6434      6437      6437      6438
      6437      6439      6437      6440      6417      6418      6417      6419
      6391      6392      6392      6394      6392      6393      6394      6395
      6394      6396      6394      6441      6441      6442      6441      6443
      6441      6444      6444      6445      6444      6446      6444      6447
      6447      6448      6447      6449      6447      6450      6450      6451
      6450      6452      6450      6453      6453      6454      6453      6455
      6453      6456      6456      6457      6456      6458      6456      6459
      6459      6460      6459      6461      6459      6462      6462      6463
      6462      6464      6462      6465      6465      6466      6465      6467
      6465      6468      6468      6469      6468      6470      6468      6471
      6471      6472      6471      6473      6471      6474      6474      6475
      6474      6476      6474      6477      6477      6478      6477      6479
      6477      6480      6480      6481      6480      6482      6480      6483
      6484      6485      6484      6486      6484      6487      6484      6488
      6488      6489      6488      6490      6488      6491      6491      6492
      6491      6493      6491      6498      6498      6494      6494      6497
      6494      6495      6494      6496      6499      6500      6499      6501
      6499      6502      6499      6497      6502      6503      6502      6510
      6502      6504      6510      6511      6510      6512      6510      6513
      6504      6505      6505      6507      6505      6506      6507      6508
      6507      6509      6507      6519      6519      6520      6519      6521
      6519      6522      6522      6523      6522      6524      6522      6525
      6525      6526      6525      6527      6525      6528      6528      6529
      6528      6530      6528      6531      6531      6532      6531      6533
      6531      6534      6534      6535      6534      6536      6534      6537
      6537      6538      6537      6542      6537      6539      6542      6543
      6542      6544      6542      6539      6544      6545      6544      6546
      6544      6547      6547      6548      6547      6549      6547      6550
      6550      6551      6550      6552      6550      6553      6553      6554
      6553      6555      6553      6556      6556      6557      6556      6558
      6556      6559      6559      6560      6559      6561      6559      6562
      6539      6540      6539      6541      6513      6514      6514      6516
      6514      6515      6516      6517      6516      6518      6516      6563
      6563      6564      6563      6565      6563      6566      6566      6567
      6566      6568      6566      6569      6569      6570      6569      6571
      6569      6572      6572      6573      6572      6574      6572      6575
      6575      6576      6575      6577      6575      6578      6578      6579
      6578      6580      6578      6581      6581      6582      6581      6583
      6581      6584      6584      6585      6584      6586      6584      6587
      6587      6588      6587      6589      6587      6590      6590      6591
      6590      6592      6590      6593      6593      6594      6593      6595
      6593      6596      6596      6597      6596      6598      6596      6599
      6599      6600      6599      6601      6599      6602      6603      6604
      6603      6605      6603      6606      6603      6607      6607      6608
      6607      6609      6607      6610      6610      6611      6610      6612
      6610      6617      6617      6613      6613      6616      6613      6614
      6613      6615      6618      6619      6618      6620      6618      6621
      6618      6616      6621      6622      6621      6629      6621      6623
      6629      6630      6629      6631      6629      6632      6623      6624
      6624      6626      6624      6625      6626      6627      6626      6628
      6626      6638      6638      6639      6638      6640      6638      6641
      6641      6642      6641      6643      6641      6644      6644      6645
      6644      6646      6644      6647      6647      6648      6647      6649
      6647      6650      6650      6651      6650      6652      6650      6653
      6653      6654      6653      6655      6653      6656      6656      6657
      6656      6658      6658      6659      6658      6660      6660      6661
      6660      6662      6660      6663      6663      6664      6663      6665
      6663      6666      6666      6667      6666      6668      6666      6669
      6669      6670      6669      6671      6669      6672      6672      6673
      6672      6674      6672      6675      6675      6676      6675      6677
      6675      6678      6678      6679      6678      6680      6678      6681
      6681      6682      6681      6683      6681      6684      6632      6633
      6633      6635      6633      6634      6635      6636      6635      6637
      6635      6685      6685      6686      6685      6687      6685      6688
      6688      6689      6688      6690      6688      6691      6691      6692
      6691      6693      6691      6694      6694      6695      6694      6696
      6694      6697      6697      6698      6697      6699      6697      6700
      6700      6701      6700      6702      6700      6703      6703      6704
      6703      6705      6703      6706      6706      6707      6706      6708
      6706      6709      6709      6710      6709      6711      6709      6712
      6712      6713      6712      6714      6712      6715      6715      6716
      6715      6717      6715      6718      6718      6719      6718      6720
      6718      6721      6721      6722      6721      6723      6721      6724
      6724      6725      6724      6726      6724      6727      6728      6729
      6728      6730      6728      6731      6728      6732      6732      6733
      6732      6734      6732      6735      6735      6736      6735      6737
      6735      6742      6742      6738      6738      6741      6738      6739
      6738      6740      6743      6744      6743      6745      6743      6746
      6743      6741      6746      6747      6746      6754      6746      6748
      6754      6755      6754      6756      6754      6757      6748      6749
      6749      6751      6749      6750      6751      6752      6751      6753
      6751      6763      6763      6764      6763      6765      6763      6766
      6766      6767      6766      6768      6766      6769      6769      6770
      6769      6771      6769      6772      6772      6773      6772      6774
      6772      6775      6775      6776      6775      6777      6775      6778
      6778      6779      6778      6780      6778      6781      6781      6782
      6781      6786      6781      6783      6786      6787      6786      6788
      6786      6783      6788      6789      6788      6790      6788      6791
      6791      6792      6791      6793      6791      6794      6794      6795
      6794      6796      6794      6797      6797      6798      6797      6799
      6797      6800      6800      6801      6800      6802      6800      6803
      6803      6804      6803      6805      6803      6806      6783      6784
      6783      6785      6757      6758      6758      6760      6758      6759
      6760      6761      6760      6762      6760      6807      6807      6808
      6807      6809      6807      6810      6810      6811      6810      6812
      6810      6813      6813      6814      6813      6815      6813      6816
      6816      6817      6816      6818      6816      6819      6819      6820
      6819      6821      6819      6822      6822      6823      6822      6824
      6822      6825      6825      6826      6825      6827      6825      6828
      6828      6829      6828      6830      6828      6831      6831      6832
      6831      6833      6831      6834      6834      6835      6834      6836
      6834      6837      6837      6838      6837      6839      6837      6840
      6840      6841      6840      6842      6840      6843      6843      6844
      6843      6845      6843      6846      6847      6848      6847      6849
      6847      6850      6847      6851      6851      6852      6851      6853
      6851      6854      6854      6855      6854      6856      6854      6861
      6861      6857      6857      6860      6857      6858      6857      6859
      6862      6863      6862      6864      6862      6865      6862      6860
      6865      6866      6865      6873      6865      6867      6873      6874
      6873      6875      6873      6876      6867      6868      6868      6870
      6868      6869      6870      6871      6870      6872      6870      6882
      6882      6883      6882      6884      6882      6885      6885      6886
      6885      6887      6885      6888      6888      6889      6888      6890
      6888      6891      6891      6892      6891      6893      6891      6894
      6894      6895      6894      6896      6894      6897      6897      6898
      6897      6899      6897      6900      6900      6901      6900      6902
      6902      6903      6902      6904      6904      6905      6904      6906
      6904      6907      6907      6908      6907      6909      6907      6910
      6910      6911      6910      6912      6910      6913      6913      6914
      6913      6915      6913      6916      6916      6917      6916      6918
      6916      6919      6919      6920      6919      6921      6919      6922
      6922      6923      6922      6924      6922      6925      6925      6926
      6925      6927      6925      6928      6876      6877      6877      6879
      6877      6878      6879      6880      6879      6881      6879      6929
      6929      6930      6929      6931      6929      6932      6932      6933
      6932      6934      6932      6935      6935      6936      6935      6937
      6935      6938      6938      6939      6938      6940      6938      6941
      6941      6942      6941      6943      6941      6944      6944      6945
      6944      6946      6944      6947      6947      6948      6947      6949
      6947      6950      6950      6951      6950      6952      6950      6953
      6953      6954      6953      6955      6953      6956      6956      6957
      6956      6958      6956      6959      6959      6960      6959      6961
      6959      6962      6962      6963      6962      6964      6962      6965
      6965      6966      6965      6967      6965      6968      6968      6969
      6968      6970      6968      6971      6972      6973      6972      6974
      6972      6975      6972      6976      6976      6977      6976      6978
      6976      6979      6979      6980      6979      6981      6979      6986
      6986      6982      6982      6985      6982      6983      6982      6984
      6987      6988      6987      6989      6987      6990      6987      6985
      6990      6991      6990      6998      6990      6992      6998      6999
      6998      7000      6998      7001      6992      6993      6993      6995
      6993      6994      6995      6996      6995      6997      6995      7007
      7007      7008      7007      7009      7007      7010      7010      7011
      7010      7012      7010      7013      7013      7014      7013      7015
      7013      7016      7016      7017      7016      7018      7016      7019
      7019      7020      7019      7021      7019      7022      7022      7023
      7022      7024      7022      7025      7025      7026      7025      7030
      7025      7027      7030      7031      7030      7032      7030      7027
      7032      7033      7032      7034      7032      7035      7035      7036
      7035      7037      7035      7038      7038      7039      7038      7040
      7038      7041      7041      7042      7041      7043      7041      7044
      7044      7045      7044      7046      7044      7047      7047      7048
      7047      7049      7047      7050      7027      7028      7027      7029
      7001      7002      7002      7004      7002      7003      7004      7005
      7004      7006      7004      7051      7051      7052      7051      7053
      7051      7054      7054      7055      7054      7056      7054      7057
      7057      7058      7057      7059      7057      7060      7060      7061
      7060      7062      7060      7063      7063      7064      7063      7065
      7063      7066      7066      7067      7066      7068      7066      7069
      7069      7070      7069      7071      7069      7072      7072      7073
      7072      7074      7072      7075      7075      7076      7075      7077
      7075      7078      7078      7079      7078      7080      7078      7081
      7081      7082      7081      7083      7081      7084      7084      7085
      7084      7086      7084      7087      7087      7088      7087      7089
      7087      7090      7090      7091      7090      7092      7090      7093
      7094      7095      7094      7096      7094      7097      7094      7098
      7098      7099      7098      7100      7098      7101      7101      7102
      7101      7103      7101      7108      7108      7104      7104      7107
      7104      7105      7104      7106      7109      7110      7109      7111
      7109      7112      7109      7107      7112      7113      7112      7120
      7112      7114      7120      7121      7120      7122      7120      7123
      7114      7115      7115      7117      7115      7116      7117      7118
      7117      7119      7117      7129      7129      7130      7129      7131
      7129      7132      7132      7133      7132      7134      7132      7135
      7135      7136      7135      7137      7135      7138      7138      7139
      7138      7140      7138      7141      7141      7142      7141      7143
      7141      7144      7144      7145      7144      7146      7144      7147
      7147      7148      7147      7152      7147      7149      7152      7153
      7152      7154      7152      7149      7154      7155      7154      7156
      7154      7157      7157      7158      7157      7159      7157      7160
      7160      7161      7160      7162      7160      7163      7163      7164
      7163      7165      7163      7166      7166      7167      7166      7168
      7166      7169      7169      7170      7169      7171      7169      7172
      7149      7150      7149      7151      7123      7124      7124      7126
      7124      7125      7126      7127      7126      7128      7126      7173
      7173      7174      7173      7175      7173      7176      7176      7177
      7176      7178      7176      7179      7179      7180      7179      7181
      7179      7182      7182      7183      7182      7184      7182      7185
      7185      7186      7185      7187      7185      7188      7188      7189
      7188      7190      7188      7191      7191      7192      7191      7193
      7191      7194      7194      7195      7194      7196      7194      7197
      7197      7198      7197      7199      7197      7200      7200      7201
      7200      7202      7200      7203      7203      7204      7203      7205
      7203      7206      7206      7207      7206      7208      7206      7209
      7209      7210      7209      7211      7209      7212      7212      7213
      7212      7214      7212      7215      7216      7217      7216      7218
      7216      7219      7216      7220      7220      7221      7220      7222
      7220      7223      7223      7224      7223      7225      7223      7230
      7230      7226      7226      7229      7226      7227      7226      7228
      7231      7232      7231      7233      7231      7234      7231      7229
      7234      7235      7234      7242      7234      7236      7242      7243
      7242      7244      7242      7245      7236      7237      7237      7239
      7237      7238      7239      7240      7239      7241      7239      7251
      7251      7252      7251      7253      7251      7254      7254      7255
      7254      7256      7254      7257      7257      7258      7257      7259
      7257      7260      7260      7261      7260      7262      7260      7263
      7263      7264      7263      7265      7263      7266      7266      7267
      7266      7268      7266      7269      7269      7270      7269      7271
      7271      7272      7271      7273      7273      7274      7273      7275
      7273      7276      7276      7277      7276      7278      7276      7279
      7279      7280      7279      7281      7279      7282      7282      7283
      7282      7284      7282      7285      7285      7286      7285      7287
      7285      7288      7288      7289      7288      7290      7288      7291
      7291      7292      7291      7293      7291      7294      7294      7295
      7294      7296      7294      7297      7245      7246      7246      7248
      7246      7247      7248      7249      7248      7250      7248      7298
      7298      7299      7298      7300      7298      7301      7301      7302
      7301      7303      7301      7304      7304      7305      7304      7306
      7304      7307      7307      7308      7307      7309      7307      7310
      7310      7311      7310      7312      7310      7313      7313      7314
      7313      7315      7313      7316      7316      7317      7316      7318
      7316      7319      7319      7320      7319      7321      7319      7322
      7322      7323      7322      7324      7322      7325      7325      7326
      7325      7327      7325      7328      7328      7329      7328      7330
      7328      7331      7331      7332      7331      7333      7331      7334
      7334      7335      7334      7336      7334      7337      7337      7338
      7337      7339      7337      7340      7341      7342      7341      7343
      7341      7344      7341      7345      7345      7346      7345      7347
      7345      7348      7348      7349      7348      7350      7348      7355
      7355      7351      7351      7354      7351      7352      7351      7353
      7356      7357      7356      7358      7356      7359      7356      7354
      7359      7360      7359      7367      7359      7361      7367      7368
      7367      7369      7367      7370      7361      7362      7362      7364
      7362      7363      7364      7365      7364      7366      7364      7376
      7376      7377      7376      7378      7376      7379      7379      7380
      7379      7381      7379      7382      7382      7383      7382      7384
      7382      7385      7385      7386      7385      7387      7385      7388
      7388      7389      7388      7390      7388      7391      7391      7392
      7391      7393      7391      7394      7394      7395      7394      7399
      7394      7396      7399      7400      7399      7401      7399      7396
      7401      7402      7401      7403      7401      7404      7404      7405
      7404      7406      7404      7407      7407      7408      7407      7409
      7407      7410      7410      7411      7410      7412      7410      7413
      7413      7414      7413      7415      7413      7416      7416      7417
      7416      7418      7416      7419      7396      7397      7396      7398
      7370      7371      7371      7373      7371      7372      7373      7374
      7373      7375      7373      7420      7420      7421      7420      7422
      7420      7423      7423      7424      7423      7425      7423      7426
      7426      7427      7426      7428      7426      7429      7429      7430
      7429      7431      7429      7432      7432      7433      7432      7434
      7432      7435      7435      7436      7435      7437      7435      7438
      7438      7439      7438      7440      7438      7441      7441      7442
      7441      7443      7441      7444      7444      7445      7444      7446
      7444      7447      7447      7448      7447      7449      7447      7450
      7450      7451      7450      7452      7450      7453      7453      7454
      7453      7455      7453      7456      7456      7457      7456      7458
      7456      7459      7459      7460      7459      7461      7459      7462
      7463      7464      7463      7465      7463      7466      7463      7467
      7467      7468      7467      7469      7467      7470      7470      7471
      7470      7472      7470      7477      7477      7473      7473      7476
      7473      7474      7473      7475      7478      7479      7478      7480
      7478      7481      7478      7476      7481      7482      7481      7489
      7481      7483      7489      7490      7489      7491      7489      7492
      7483      7484      7484      7486      7484      7485      7486      7487
      7486      7488      7486      7498      7498      7499      7498      7500
      7498      7501      7501      7502      7501      7503      7501      7504
      7504      7505      7504      7506      7504      7507      7507      7508
      7507      7509      7507      7510      7510      7511      7510      7512
      7510      7513      7513      7514      7513      7515      7513      7516
      7516      7517      7516      7521      7516      7518      7521      7522
      7521      7523      7521      7518      7523      7524      7523      7525
      7523      7526      7526      7527      7526      7528      7526      7529
      7529      7530      7529      7531      7529      7532      7532      7533
      7532      7534      7532      7535      7535      7536      7535      7537
      7535      7538      7538      7539      7538      7540      7538      7541
      7518      7519      7518      7520      7492      7493      7493      7495
      7493      7494      7495      7496      7495      7497      7495      7542
      7542      7543      7542      7544      7542      7545      7545      7546
      7545      7547      7545      7548      7548      7549      7548      7550
      7548      7551      7551      7552      7551      7553      7551      7554
      7554      7555      7554      7556      7554      7557      7557      7558
      7557      7559      7557      7560      7560      7561      7560      7562
      7560      7563      7563      7564      7563      7565      7563      7566
      7566      7567      7566      7568      7566      7569      7569      7570
      7569      7571      7569      7572      7572      7573      7572      7574
      7572      7575      7575      7576      7575      7577      7575      7578
      7578      7579      7578      7580      7578      7581      7581      7582
      7581      7583      7581      7584      7585      7586      7585      7587
      7585      7588      7585      7589      7589      7590      7589      7591
      7589      7592      7592      7593      7592      7594      7592      7599
      7599      7595      7595      7598      7595      7596      7595      7597
      7600      7601      7600      7602      7600      7603      7600      7598
      7603      7604      7603      7611      7603      7605      7611      7612
      7611      7613      7611      7614      7605      7606      7606      7608
      7606      7607      7608      7609      7608      7610      7608      7620
      7620      7621      7620      7622      7620      7623      7623      7624
      7623      7625      7623      7626      7626      7627      7626      7628
      7626      7629      7629      7630      7629      7631      7629      7632
      7632      7633      7632      7634      7632      7635      7635      7636
      7635      7637      7635      7638      7638      7639      7638      7643
      7638      7640      7643      7644      7643      7645      7643      7640
      7645      7646      7645      7647      7645      7648      7648      7649
      7648      7650      7648      7651      7651      7652      7651      7653
      7651      7654      7654      7655      7654      7656      7654      7657
      7657      7658      7657      7659      7657      7660      7660      7661
      7660      7662      7660      7663      7640      7641      7640      7642
      7614      7615      7615      7617      7615      7616      7617      7618
      7617      7619      7617      7664      7664      7665      7664      7666
      7664      7667      7667      7668      7667      7669      7667      7670
      7670      7671      7670      7672      7670      7673      7673      7674
      7673      7675      7673      7676      7676      7677      7676      7678
      7676      7679      7679      7680      7679      7681      7679      7682
      7682      7683      7682      7684      7682      7685      7685      7686
      7685      7687      7685      7688      7688      7689      7688      7690
      7688      7691      7691      7692      7691      7693      7691      7694
      7694      7695      7694      7696      7694      7697      7697      7698
      7697      7699      7697      7700      7700      7701      7700      7702
      7700      7703      7703      7704      7703      7705      7703      7706
      7711      7710      7710      7707      7707      7708      7707      7709
      7707      7712      7715      7714      7714      7712      7712      7713
      7712      7716      7716      7717      7716      7718      7716      7723
      7723      7719      7719      7722      7719      7720      7719      7721
      7724      7725      7724      7726      7724      7727      7724      7722
      7727      7728      7727      7735      7727      7729      7735      7736
      7735      7737      7735      7738      7729      7730      7730      7732
      7730      7731      7732      7733      7732      7734      7732      7744
      7744      7745      7744      7746      7744      7747      7747      7748
      7747      7749      7747      7750      7750      7751      7750      7752
      7750      7753      7753      7754      7753      7755      7753      7756
      7756      7757      7756      7758      7756      7759      7759      7760
      7759      7761      7759      7762      7762      7763      7762      7764
      7764      7765      7764      7766      7766      7767      7766      7768
      7766      7769      7769      7770      7769      7771      7769      7772
      7772      7773      7772      7774      7772      7775      7775      7776
      7775      7777      7775      7778      7778      7779      7778      7780
      7778      7781      7781      7782      7781      7783      7781      7784
      7738      7739      7739      7741      7739      7740      7741      7742
      7741      7743      7741      7785      7785      7786      7785      7787
      7785      7788      7788      7789      7788      7790      7788      7791
      7791      7792      7791      7793      7791      7794      7794      7795
      7794      7796      7794      7797      7797      7798      7797      7799
      7797      7800      7800      7801      7800      7802      7800      7803
      7803      7804      7803      7805      7803      7806      7806      7807
      7806      7808      7806      7809      7809      7810      7809      7811
      7809      7812      7812      7813      7812      7814      7812      7815
      7815      7816      7815      7817      7815      7818      7818      7819
      7818      7820      7818      7821      7821      7822      7821      7823
      7821      7824      7824      7825      7824      7826      7824      7827
      7832      7831      7831      7828      7828      7829      7828      7830
      7828      7833      7836      7835      7835      7833      7833      7834
      7833      7837      7837      7838      7837      7839      7837      7844
      7844      7840      7840      7843      7840      7841      7840      7842
      7845      7846      7845      7847      7845      7848      7845      7843
      7848      7849      7848      7856      7848      7850      7856      7857
      7856      7858      7856      7859      7850      7851      7851      7853
      7851      7852      7853      7854      7853      7855      7853      7865
      7865      7866      7865      7867      7865      7868      7868      7869
      7868      7870      7868      7871      7871      7872      7871      7873
      7871      7874      7874      7875      7874      7876      7874      7877
      7877      7878      7877      7879      7877      7880      7880      7881
      7880      7882      7880      7883      7883      7884      7883      7885
      7885      7886      7885      7887      7887      7888      7887      7889
      7887      7890      7890      7891      7890      7892      7890      7893
      7893      7894      7893      7895      7893      7896      7896      7897
      7896      7898      7896      7899      7899      7900      7899      7901
      7899      7902      7902      7903      7902      7904      7902      7905
      7859      7860      7860      7862      7860      7861      7862      7863
      7862      7864      7862      7906      7906      7907      7906      7908
      7906      7909      7909      7910      7909      7911      7909      7912
      7912      7913      7912      7914      7912      7915      7915      7916
      7915      7917      7915      7918      7918      7919      7918      7920
      7918      7921      7921      7922      7921      7923      7921      7924
      7924      7925      7924      7926      7924      7927      7927      7928
      7927      7929      7927      7930      7930      7931      7930      7932
      7930      7933      7933      7934      7933      7935      7933      7936
      7936      7937      7936      7938      7936      7939      7939      7940
      7939      7941      7939      7942      7942      7943      7942      7944
      7942      7945      7945      7946      7945      7947      7945      7948
      7949      7950      7949      7951      7949      7952      7949      7953
      7953      7954      7953      7955      7953      7956      7956      7957
      7956      7958      7956      7963      7963      7959      7959      7962
      7959      7960      7959      7961      7964      7965      7964      7966
      7964      7967      7964      7962      7967      7968      7967      7975
      7967      7969      7975      7976      7975      7977      7975      7978
      7969      7970      7970      7972      7970      7971      7972      7973
      7972      7974      7972      7984      7984      7985      7984      7986
      7984      7987      7987      7988      7987      7989      7987      7990
      7990      7991      7990      7992      7990      7993      7993      7994
      7993      7995      7993      7996      7996      7997      7996      7998
      7996      7999      7999      8000      7999      8001      7999      8002
      8002      8003      8002      8007      8002      8004      8007      8008
      8007      8009      8007      8004      8009      8010      8009      8011
      8009      8012      8012      8013      8012      8014      8012      8015
      8015      8016      8015      8017      8015      8018      8018      8019
      8018      8020      8018      8021      8021      8022      8021      8023
      8021      8024      8024      8025      8024      8026      8024      8027
      8004      8005      8004      8006      7978      7979      7979      7981
      7979      7980      7981      7982      7981      7983      7981      8028
      8028      8029      8028      8030      8028      8031      8031      8032
      8031      8033      8031      8034      8034      8035      8034      8036
      8034      8037      8037      8038      8037      8039      8037      8040
      8040      8041      8040      8042      8040      8043      8043      8044
      8043      8045      8043      8046      8046      8047      8046      8048
      8046      8049      8049      8050      8049      8051      8049      8052
      8052      8053      8052      8054      8052      8055      8055      8056
      8055      8057      8055      8058      8058      8059      8058      8060
      8058      8061      8061      8062      8061      8063      8061      8064
      8064      8065      8064      8066      8064      8067      8068      8069
      8068      8070      8068      8071      8068      8072      8072      8073
      8072      8074      8072      8075      8075      8076      8075      8077
      8075      8082      8082      8078      8078      8081      8078      8079
      8078      8080      8083      8084      8083      8085      8083      8086
      8083      8081      8086      8087      8086      8094      8086      8088
      8094      8095      8094      8096      8094      8097      8088      8089
      8089      8091      8089      8090      8091      8092      8091      8093
      8091      8103      8103      8104      8103      8105      8103      8106
      8106      8107      8106      8108      8106      8109      8109      8110
      8109      8111      8109      8112      8112      8113      8112      8114
      8112      8115      8115      8116      8115      8117      8115      8118
      8118      8119      8118      8120      8118      8121      8121      8122
      8121      8123      8123      8124      8123      8125      8125      8126
      8125      8127      8125      8128      8128      8129      8128      8130
      8128      8131      8131      8132      8131      8133      8131      8134
      8134      8135      8134      8136      8134      8137      8137      8138
      8137      8139      8137      8140      8140      8141      8140      8142
      8140      8143      8143      8144      8143      8145      8143      8146
      8146      8147      8146      8148      8146      8149      8097      8098
      8098      8100      8098      8099      8100      8101      8100      8102
      8100      8150      8150      8151      8150      8152      8150      8153
      8153      8154      8153      8155      8153      8156      8156      8157
      8156      8158      8156      8159      8159      8160      8159      8161
      8159      8162      8162      8163      8162      8164      8162      8165
      8165      8166      8165      8167      8165      8168      8168      8169
      8168      8170      8168      8171      8171      8172      8171      8173
      8171      8174      8174      8175      8174      8176      8174      8177
      8177      8178      8177      8179      8177      8180      8180      8181
      8180      8182      8180      8183      8183      8184      8183      8185
      8183      8186      8186      8187      8186      8188      8186      8189
      8189      8190      8189      8191      8189      8192      8193      8194
      8193      8195      8193      8196      8193      8197      8197      8198
      8197      8199      8197      8200      8200      8201      8200      8202
      8200      8207      8207      8203      8203      8206      8203      8204
      8203      8205      8208      8209      8208      8210      8208      8211
      8208      8206      8211      8212      8211      8219      8211      8213
      8219      8220      8219      8221      8219      8222      8213      8214
      8214      8216      8214      8215      8216      8217      8216      8218
      8216      8228      8228      8229      8228      8230      8228      8231
      8231      8232      8231      8233      8231      8234      8234      8235
      8234      8236      8234      8237      8237      8238      8237      8239
      8237      8240      8240      8241      8240      8242      8240      8243
      8243      8244      8243      8245      8243      8246      8246      8247
      8246      8248      8248      8249      8248      8250      8250      8251
      8250      8252      8250      8253      8253      8254      8253      8255
      8253      8256      8256      8257      8256      8258      8256      8259
      8259      8260      8259      8261      8259      8262      8262      8263
      8262      8264      8262      8265      8265      8266      8265      8267
      8265      8268      8222      8223      8223      8225      8223      8224
      8225      8226      8225      8227      8225      8269      8269      8270
      8269      8271      8269      8272      8272      8273      8272      8274
      8272      8275      8275      8276      8275      8277      8275      8278
      8278      8279      8278      8280      8278      8281      8281      8282
      8281      8283      8281      8284      8284      8285      8284      8286
      8284      8287      8287      8288      8287      8289      8289      8290
      8289      8291      8291      8292      8291      8293      8291      8294
      8294      8295      8294      8296      8294      8297      8297      8298
      8297      8299      8297      8300      8300      8301      8300      8302
      8300      8303      8303      8304      8303      8305      8303      8306
      8306      8307      8306      8308      8306      8309      8309      8310
      8309      8311      8309      8312      8312      8313      8312      8314
      8312      8315      8316      8317      8316      8318      8316      8319
      8316      8320      8320      8321      8320      8322      8320      8323
      8323      8324      8323      8325      8323      8330      8330      8326
      8326      8329      8326      8327      8326      8328      8331      8332
      8331      8333      8331      8334      8331      8329      8334      8335
      8334      8342      8334      8336      8342      8343      8342      8344
      8342      8345      8336      8337      8337      8339      8337      8338
      8339      8340      8339      8341      8339      8351      8351      8352
      8351      8353      8351      8354      8354      8355      8354      8356
      8354      8357      8357      8358      8357      8359      8357      8360
      8360      8361      8360      8362      8360      8363      8363      8364
      8363      8365      8363      8366      8366      8367      8366      8368
      8366      8369      8369      8370      8369      8371      8371      8372
      8371      8373      8373      8374      8373      8375      8373      8376
      8376      8377      8376      8378      8376      8379      8379      8380
      8379      8381      8379      8382      8382      8383      8382      8384
      8382      8385      8385      8386      8385      8387      8385      8388
      8388      8389      8388      8390      8388      8391      8345      8346
      8346      8348      8346      8347      8348      8349      8348      8350
      8348      8392      8392      8393      8392      8394      8392      8395
      8395      8396      8395      8397      8395      8398      8398      8399
      8398      8400      8398      8401      8401      8402      8401      8403
      8401      8404      8404      8405      8404      8406      8404      8407
      8407      8408      8407      8409      8407      8410      8410      8411
      8410      8412      8412      8413      8412      8414      8414      8415
      8414      8416      8414      8417      8417      8418      8417      8419
      8417      8420      8420      8421      8420      8422      8420      8423
      8423      8424      8423      8425      8423      8426      8426      8427
      8426      8428      8426      8429      8429      8430      8429      8431
      8429      8432      8432      8433      8432      8434      8432      8435
      8435      8436      8435      8437      8435      8438      8439      8440
      8439      8441      8439      8442      8439      8443      8443      8444
      8443      8445      8443      8446      8446      8447      8446      8448
      8446      8453      8453      8449      8449      8452      8449      8450
      8449      8451      8454      8455      8454      8456      8454      8457
      8454      8452      8457      8458      8457      8465      8457      8459
      8465      8466      8465      8467      8465      8468      8459      8460
      8460      8462      8460      8461      8462      8463      8462      8464
      8462      8474      8474      8475      8474      8476      8474      8477
      8477      8478      8477      8479      8477      8480      8480      8481
      8480      8482      8480      8483      8483      8484      8483      8485
      8483      8486      8486      8487      8486      8488      8486      8489
      8489      8490      8489      8491      8489      8492      8492      8493
      8492      8497      8492      8494      8497      8498      8497      8499
      8497      8494      8499      8500      8499      8501      8499      8502
      8502      8503      8502      8504      8502      8505      8505      8506
      8505      8507      8505      8508      8508      8509      8508      8510
      8508      8511      8511      8512      8511      8513      8511      8514
      8514      8515      8514      8516      8514      8517      8494      8495
      8494      8496      8468      8469      8469      8471      8469      8470
      8471      8472      8471      8473      8471      8518      8518      8519
      8518      8520      8518      8521      8521      8522      8521      8523
      8521      8524      8524      8525      8524      8526      8524      8527
      8527      8528      8527      8529      8527      8530      8530      8531
      8530      8532      8530      8533      8533      8534      8533      8535
      8533      8536      8536      8537      8536      8538      8536      8539
      8539      8540      8539      8541      8539      8542      8542      8543
      8542      8544      8542      8545      8545      8546      8545      8547
      8545      8548      8548      8549      8548      8550      8548      8551
      8551      8552      8551      8553      8551      8554      8554      8555
      8554      8556      8554      8557      8557      8558      8557      8559
      8557      8560      8561      8562      8561      8563      8561      8564
      8561      8565      8565      8566      8565      8567      8565      8568
      8568      8569      8568      8570      8568      8575      8575      8571
      8571      8574      8571      8572      8571      8573      8576      8577
      8576      8578      8576      8579      8576      8574      8579      8580
      8579      8587      8579      8581      8587      8588      8587      8589
      8587      8590      8581      8582      8582      8584      8582      8583
      8584      8585      8584      8586      8584      8596      8596      8597
      8596      8598      8596      8599      8599      8600      8599      8601
      8599      8602      8602      8603      8602      8604      8602      8605
      8605      8606      8605      8607      8605      8608      8608      8609
      8608      8610      8608      8611      8611      8612      8611      8613
      8611      8614      8614      8615      8614      8619      8614      8616
      8619      8620      8619      8621      8619      8616      8621      8622
      8621      8623      8621      8624      8624      8625      8624      8626
      8624      8627      8627      8628      8627      8629      8627      8630
      8630      8631      8630      8632      8630      8633      8633      8634
      8633      8635      8633      8636      8636      8637      8636      8638
      8636      8639      8616      8617      8616      8618      8590      8591
      8591      8593      8591      8592      8593      8594      8593      8595
      8593      8640      8640      8641      8640      8642      8640      8643
      8643      8644      8643      8645      8643      8646      8646      8647
      8646      8648      8646      8649      8649      8650      8649      8651
      8649      8652      8652      8653      8652      8654      8652      8655
      8655      8656      8655      8657      8655      8658      8658      8659
      8658      8660      8658      8661      8661      8662      8661      8663
      8661      8664      8664      8665      8664      8666      8664      8667
      8667      8668      8667      8669      8667      8670      8670      8671
      8670      8672      8670      8673      8673      8674      8673      8675
      8673      8676      8676      8677      8676      8678      8676      8679
      8679      8680      8679      8681      8679      8682      8683      8684
      8683      8685      8683      8686      8683      8687      8687      8688
      8687      8689      8687      8690      8690      8691      8690      8692
      8690      8697      8697      8693      8693      8696      8693      8694
      8693      8695      8698      8699      8698      8700      8698      8701
      8698      8696      8701      8702      8701      8709      8701      8703
      8709      8710      8709      8711      8709      8712      8703      8704
      8704      8706      8704      8705      8706      8707      8706      8708
      8706      8718      8718      8719      8718      8720      8718      8721
      8721      8722      8721      8723      8721      8724      8724      8725
      8724      8726      8724      8727      8727      8728      8727      8729
      8727      8730      8730      8731      8730      8732      8730      8733
      8733      8734      8733      8735      8733      8736      8736      8737
      8736      8738      8738      8739      8738      8740      8740      8741
      8740      8742      8740      8743      8743      8744      8743      8745
      8743      8746      8746      8747      8746      8748      8746      8749
      8749      8750      8749      8751      8749      8752      8752      8753
      8752      8754      8752      8755      8755      8756      8755      8757
      8755      8758      8712      8713      8713      8715      8713      8714
      8715      8716      8715      8717      8715      8759      8759      8760
      8759      8761      8759      8762      8762      8763      8762      8764
      8762      8765      8765      8766      8765      8767      8765      8768
      8768      8769      8768      8770      8768      8771      8771      8772
      8771      8773      8771      8774      8774      8775      8774      8776
      8774      8777      8777      8778      8777      8779      8779      8780
      8779      8781      8781      8782      8781      8783      8781      8784
      8784      8785      8784      8786      8784      8787      8787      8788
      8787      8789      8787      8790      8790      8791      8790      8792
      8790      8793      8793      8794      8793      8795      8793      8796
      8796      8797      8796      8798      8796      8799      8799      8800
      8799      8801      8799      8802      8802      8803      8802      8804
      8802      8805      8806      8807      8806      8808      8806      8809
      8806      8810      8810      8811      8810      8812      8810      8813
      8813      8814      8813      8815      8813      8820      8820      8816
      8816      8819      8816      8817      8816      8818      8821      8822
      8821      8823      8821      8824      8821      8819      8824      8825
      8824      8832      8824      8826      8832      8833      8832      8834
      8832      8835      8826      8827      8827      8829      8827      8828
      8829      8830      8829      8831      8829      8841      8841      8842
      8841      8843      8841      8844      8844      8845      8844      8846
      8844      8847      8847      8848      8847      8849      8847      8850
      8850      8851      8850      8852      8850      8853      8853      8854
      8853      8855      8853      8856      8856      8857      8856      8858
      8856      8859      8859      8860      8859      8864      8859      8861
      8864      8865      8864      8866      8864      8861      8866      8867
      8866      8868      8866      8869      8869      8870      8869      8871
      8869      8872      8872      8873      8872      8874      8872      8875
      8875      8876      8875      8877      8875      8878      8878      8879
      8878      8880      8878      8881      8881      8882      8881      8883
      8881      8884      8861      8862      8861      8863      8835      8836
      8836      8838      8836      8837      8838      8839      8838      8840
      8838      8885      8885      8886      8885      8887      8885      8888
      8888      8889      8888      8890      8888      8891      8891      8892
      8891      8893      8891      8894      8894      8895      8894      8896
      8894      8897      8897      8898      8897      8899      8897      8900
      8900      8901      8900      8902      8900      8903      8903      8904
      8903      8905      8903      8906      8906      8907      8906      8908
      8906      8909      8909      8910      8909      8911      8909      8912
      8912      8913      8912      8914      8912      8915      8915      8916
      8915      8917      8915      8918      8918      8919      8918      8920
      8918      8921      8921      8922      8921      8923      8921      8924
      8925      8926      8925      8927      8925      8928      8925      8929
      8929      8930      8929      8931      8929      8932      8932      8933
      8932      8934      8932      8939      8939      8935      8935      8938
      8935      8936      8935      8937      8940      8941      8940      8942
      8940      8943      8940      8938      8943      8944      8943      8951
      8943      8945      8951      8952      8951      8953      8951      8954
      8945      8946      8946      8948      8946      8947      8948      8949
      8948      8950      8948      8960      8960      8961      8960      8962
      8960      8963      8963      8964      8963      8965      8963      8966
      8966      8967      8966      8968      8966      8969      8969      8970
      8969      8971      8969      8972      8972      8973      8972      8974
      8972      8975      8975      8976      8975      8977      8975      8978
      8978      8979      8978      8980      8980      8981      8980      8982
      8982      8983      8982      8984      8982      8985      8985      8986
      8985      8987      8985      8988      8988      8989      8988      8990
      8988      8991      8991      8992      8991      8993      8991      8994
      8994      8995      8994      8996      8994      8997      8997      8998
      8997      8999      8997      9000      8954      8955      8955      8957
      8955      8956      8957      8958      8957      8959      8957      9001
      9001      9002      9001      9003      9001      9004      9004      9005
      9004      9006      9004      9007      9007      9008      9007      9009
      9007      9010      9010      9011      9010      9012      9010      9013
      9013      9014      9013      9015      9013      9016      9016      9017
      9016      9018      9016      9019      9019      9020      9019      9021
      9021      9022      9021      9023      9023      9024      9023      9025
      9023      9026      9026      9027      9026      9028      9026      9029
      9029      9030      9029      9031      9029      9032      9032      9033
      9032      9034      9032      9035      9035      9036      9035      9037
      9035      9038      9038      9039      9038      9040      9038      9041
      9041      9042      9041      9043      9041      9044      9044      9045
      9044      9046      9044      9047      9052      9051      9051      9048
      9048      9049      9048      9050      9048      9053      9056      9055
      9055      9053      9053      9054      9053      9057      9057      9058
      9057      9059      9057      9064      9064      9060      9060      9063
      9060      9061      9060      9062      9065      9066      9065      9067
      9065      9068      9065      9063      9068      9069      9068      9076
      9068      9070      9076      9077      9076      9078      9076      9079
      9070      9071      9071      9073      9071      9072      9073      9074
      9073      9075      9073      9085      9085      9086      9085      9087
      9085      9088      9088      9089      9088      9090      9088      9091
      9091      9092      9091      9093      9091      9094      9094      9095
      9094      9096      9094      9097      9097      9098      9097      9099
      9097      9100      9100      9101      9100      9102      9100      9103
      9103      9104      9103      9108      9103      9105      9108      9109
      9108      9110      9108      9105      9110      9111      9110      9112
      9110      9113      9113      9114      9113      9115      9113      9116
      9116      9117      9116      9118      9116      9119      9119      9120
      9119      9121      9119      9122      9122      9123      9122      9124
      9122      9125      9125      9126      9125      9127      9125      9128
      9105      9106      9105      9107      9079      9080      9080      9082
      9080      9081      9082      9083      9082      9084      9082      9129
      9129      9130      9129      9131      9129      9132      9132      9133
      9132      9134      9132      9135      9135      9136      9135      9137
      9135      9138      9138      9139      9138      9140      9138      9141
      9141      9142      9141      9143      9141      9144      9144      9145
      9144      9146      9144      9147      9147      9148      9147      9149
      9147      9150      9150      9151      9150      9152      9150      9153
      9153      9154      9153      9155      9153      9156      9156      9157
      9156      9158      9156      9159      9159      9160      9159      9161
      9159      9162      9162      9163      9162      9164      9162      9165
      9165      9166      9165      9167      9165      9168      9168      9169
      9168      9170      9168      9171      9172      9173      9172      9174
      9172      9175      9172      9176      9176      9177      9176      9178
      9176      9179      9179      9180      9179      9181      9179      9186
      9186      9182      9182      9185      9182      9183      9182      9184
      9187      9188      9187      9189      9187      9190      9187      9185
      9190      9191      9190      9198      9190      9192      9198      9199
      9198      9200      9198      9201      9192      9193      9193      9195
      9193      9194      9195      9196      9195      9197      9195      9207
      9207      9208      9207      9209      9207      9210      9210      9211
      9210      9212      9210      9213      9213      9214      9213      9215
      9213      9216      9216      9217      9216      9218      9216      9219
      9219      9220      9219      9221      9219      9222      9222      9223
      9222      9224      9222      9225      9225      9226      9225      9230
      9225      9227      9230      9231      9230      9232      9230      9227
      9232      9233      9232      9234      9232      9235      9235      9236
      9235      9237      9235      9238      9238      9239      9238      9240
      9238      9241      9241      9242      9241      9243      9241      9244
      9244      9245      9244      9246      9244      9247      9247      9248
      9247      9249      9247      9250      9227      9228      9227      9229
      9201      9202      9202      9204      9202      9203      9204      9205
      9204      9206      9204      9251      9251      9252      9251      9253
      9251      9254      9254      9255      9254      9256      9254      9257
      9257      9258      9257      9259      9257      9260      9260      9261
      9260      9262      9260      9263      9263      9264      9263      9265
      9263      9266      9266      9267      9266      9268      9266      9269
      9269      9270      9269      9271      9269      9272      9272      9273
      9272      9274      9272      9275      9275      9276      9275      9277
      9275      9278      9278      9279      9278      9280      9278      9281
      9281      9282      9281      9283      9281      9284      9284      9285
      9284      9286      9284      9287      9287      9288      9287      9289
      9287      9290      9291      9292      9291      9293      9291      9294
      9291      9295      9295      9296      9295      9297      9295      9298
      9298      9299      9298      9300      9298      9305      9305      9301
      9301      9304      9301      9302      9301      9303      9306      9307
      9306      9308      9306      9309      9306      9304      9309      9310
      9309      9317      9309      9311      9317      9318      9317      9319
      9317      9320      9311      9312      9312      9314      9312      9313
      9314      9315      9314      9316      9314      9326      9326      9327
      9326      9328      9326      9329      9329      9330      9329      9331
      9329      9332      9332      9333      9332      9334      9332      9335
      9335      9336      9335      9337      9335      9338      9338      9339
      9338      9340      9338      9341      9341      9342      9341      9343
      9341      9344      9344      9345      9344      9349      9344      9346
      9349      9350      9349      9351      9349      9346      9351      9352
      9351      9353      9351      9354      9354      9355      9354      9356
      9354      9357      9357      9358      9357      9359      9357      9360
      9360      9361      9360      9362      9360      9363      9363      9364
      9363      9365      9363      9366      9366      9367      9366      9368
      9366      9369      9346      9347      9346      9348      9320      9321
      9321      9323      9321      9322      9323      9324      9323      9325
      9323      9370      9370      9371      9370      9372      9370      9373
      9373      9374      9373      9375      9373      9376      9376      9377
      9376      9378      9376      9379      9379      9380      9379      9381
      9379      9382      9382      9383      9382      9384      9382      9385
      9385      9386      9385      9387      9385      9388      9388      9389
      9388      9390      9388      9391      9391      9392      9391      9393
      9391      9394      9394      9395      9394      9396      9394      9397
      9397      9398      9397      9399      9397      9400      9400      9401
      9400      9402      9400      9403      9403      9404      9403      9405
      9403      9406      9406      9407      9406      9408      9406      9409
      9409      9410      9409      9411      9409      9412      9413      9414
      9413      9415      9413      9416      9413      9417      9417      9418
      9417      9419      9417      9420      9420      9421      9420      9422
      9420      9427      9427      9423      9423      9426      9423      9424
      9423      9425      9428      9429      9428      9430      9428      9431
      9428      9426      9431      9432      9431      9439      9431      9433
      9439      9440      9439      9441      9439      9442      9433      9434
      9434      9436      9434      9435      9436      9437      9436      9438
      9436      9448      9448      9449      9448      9450      9448      9451
      9451      9452      9451      9453      9451      9454      9454      9455
      9454      9456      9454      9457      9457      9458      9457      9459
      9457      9460      9460      9461      9460      9462      9460      9463
      9463      9464      9463      9465      9463      9466      9466      9467
      9466      9471      9466      9468      9471      9472      9471      9473
      9471      9468      9473      9474      9473      9475      9473      9476
      9476      9477      9476      9478      9476      9479      9479      9480
      9479      9481      9479      9482      9482      9483      9482      9484
      9482      9485      9485      9486      9485      9487      9485      9488
      9488      9489      9488      9490      9488      9491      9468      9469
      9468      9470      9442      9443      9443      9445      9443      9444
      9445      9446      9445      9447      9445      9492      9492      9493
      9492      9494      9492      9495      9495      9496      9495      9497
      9495      9498      9498      9499      9498      9500      9498      9501
      9501      9502      9501      9503      9501      9504      9504      9505
      9504      9506      9504      9507      9507      9508      9507      9509
      9507      9510      9510      9511      9510      9512      9510      9513
      9513      9514      9513      9515      9513      9516      9516      9517
      9516      9518      9516      9519      9519      9520      9519      9521
      9519      9522      9522      9523      9522      9524      9522      9525
      9525      9526      9525      9527      9525      9528      9528      9529
      9528      9530      9528      9531      9536      9535      9535      9532
      9532      9533      9532      9534      9532      9537      9540      9539
      9539      9537      9537      9538      9537      9541      9541      9542
      9541      9543      9541      9548      9548      9544      9544      9547
      9544      9545      9544      9546      9549      9550      9549      9551
      9549      9552      9549      9547      9552      9553      9552      9560
      9552      9554      9560      9561      9560      9562      9560      9563
      9554      9555      9555      9557      9555      9556      9557      9558
      9557      9559      9557      9569      9569      9570      9569      9571
      9569      9572      9572      9573      9572      9574      9572      9575
      9575      9576      9575      9577      9575      9578      9578      9579
      9578      9580      9578      9581      9581      9582      9581      9583
      9581      9584      9584      9585      9584      9586      9584      9587
      9587      9588      9587      9589      9589      9590      9589      9591
      9591      9592      9591      9593      9591      9594      9594      9595
      9594      9596      9594      9597      9597      9598      9597      9599
      9597      9600      9600      9601      9600      9602      9600      9603
      9603      9604      9603      9605      9603      9606      9606      9607
      9606      9608      9606      9609      9563      9564      9564      9566
      9564      9565      9566      9567      9566      9568      9566      9610
      9610      9611      9610      9612      9610      9613      9613      9614
      9613      9615      9613      9616      9616      9617      9616      9618
      9616      9619      9619      9620      9619      9621      9619      9622
      9622      9623      9622      9624      9622      9625      9625      9626
      9625      9627      9625      9628      9628      9629      9628      9630
      9628      9631      9631      9632      9631      9633      9631      9634
      9634      9635      9634      9636      9634      9637      9637      9638
      9637      9639      9637      9640      9640      9641      9640      9642
      9640      9643      9643      9644      9643      9645      9643      9646
      9646      9647      9646      9648      9646      9649      9649      9650
      9649      9651      9649      9652      9657      9656      9656      9653
      9653      9654      9653      9655      9653      9658      9661      9660
      9660      9658      9658      9659      9658      9662      9662      9663
      9662      9664      9662      9669      9669      9665      9665      9668
      9665      9666      9665      9667      9670      9671      9670      9672
      9670      9673      9670      9668      9673      9674      9673      9681
      9673      9675      9681      9682      9681      9683      9681      9684
      9675      9676      9676      9678      9676      9677      9678      9679
      9678      9680      9678      9690      9690      9691      9690      9692
      9690      9693      9693      9694      9693      9695      9693      9696
      9696      9697      9696      9698      9696      9699      9699      9700
      9699      9701      9699      9702      9702      9703      9702      9704
      9702      9705      9705      9706      9705      9707      9705      9708
      9708      9709      9708      9713      9708      9710      9713      9714
      9713      9715      9713      9710      9715      9716      9715      9717
      9715      9718      9718      9719      9718      9720      9718      9721
      9721      9722      9721      9723      9721      9724      9724      9725
      9724      9726      9724      9727      9727      9728      9727      9729
      9727      9730      9730      9731      9730      9732      9730      9733
      9710      9711      9710      9712      9684      9685      9685      9687
      9685      9686      9687      9688      9687      9689      9687      9734
      9734      9735      9734      9736      9734      9737      9737      9738
      9737      9739      9737      9740      9740      9741      9740      9742
      9740      9743      9743      9744      9743      9745      9743      9746
      9746      9747      9746      9748      9746      9749      9749      9750
      9749      9751      9749      9752      9752      9753      9752      9754
      9752      9755      9755      9756      9755      9757      9755      9758
      9758      9759      9758      9760      9758      9761      9761      9762
      9761      9763      9761      9764      9764      9765      9764      9766
      9764      9767      9767      9768      9767      9769      9767      9770
      9770      9771      9770      9772      9770      9773      9773      9774
      9773      9775      9773      9776      9781      9780      9780      9777
      9777      9778      9777      9779      9777      9782      9785      9784
      9784      9782      9782      9783      9782      9786      9786      9787
      9786      9788      9786      9793      9793      9789      9789      9792
      9789      9790      9789      9791      9794      9795      9794      9796
      9794      9797      9794      9792      9797      9798      9797      9805
      9797      9799      9805      9806      9805      9807      9805      9808
      9799      9800      9800      9802      9800      9801      9802      9803
      9802      9804      9802      9814      9814      9815      9814      9816
      9814      9817      9817      9818      9817      9819      9817      9820
      9820      9821      9820      9822      9820      9823      9823      9824
      9823      9825      9823      9826      9826      9827      9826      9828
      9826      9829      9829      9830      9829      9831      9829      9832
      9832      9833      9832      9837      9832      9834      9837      9838
      9837      9839      9837      9834      9839      9840      9839      9841
      9839      9842      9842      9843      9842      9844      9842      9845
      9845      9846      9845      9847      9845      9848      9848      9849
      9848      9850      9848      9851      9851      9852      9851      9853
      9851      9854      9854      9855      9854      9856      9854      9857
      9834      9835      9834      9836      9808      9809      9809      9811
      9809      9810      9811      9812      9811      9813      9811      9858
      9858      9859      9858      9860      9858      9861      9861      9862
      9861      9863      9861      9864      9864      9865      9864      9866
      9864      9867      9867      9868      9867      9869      9867      9870
      9870      9871      9870      9872      9870      9873      9873      9874
      9873      9875      9873      9876      9876      9877      9876      9878
      9876      9879      9879      9880      9879      9881      9879      9882
      9882      9883      9882      9884      9882      9885      9885      9886
      9885      9887      9885      9888      9888      9889      9888      9890
      9888      9891      9891      9892      9891      9893      9891      9894
      9894      9895      9894      9896      9894      9897      9897      9898
      9897      9899      9897      9900      9901      9902      9901      9903
      9901      9904      9901      9905      9905      9906      9905      9907
      9905      9908      9908      9909      9908      9910      9908      9915
      9915      9911      9911      9914      9911      9912      9911      9913
      9916      9917      9916      9918      9916      9919      9916      9914
      9919      9920      9919      9927      9919      9921      9927      9928
      9927      9929      9927      9930      9921      9922      9922      9924
      9922      9923      9924      9925      9924      9926      9924      9936
      9936      9937      9936      9938      9936      9939      9939      9940
      9939      9941      9939      9942      9942      9943      9942      9944
      9942      9945      9945      9946      9945      9947      9945      9948
      9948      9949      9948      9950      9948      9951      9951      9952
      9951      9953      9951      9954      9954      9955      9954      9959
      9954      9956      9959      9960      9959      9961      9959      9956
      9961      9962      9961      9963      9961      9964      9964      9965
      9964      9966      9964      9967      9967      9968      9967      9969
      9967      9970      9970      9971      9970      9972      9970      9973
      9973      9974      9973      9975      9973      9976      9976      9977
      9976      9978      9976      9979      9956      9957      9956      9958
      9930      9931      9931      9933      9931      9932      9933      9934
      9933      9935      9933      9980      9980      9981      9980      9982
      9980      9983      9983      9984      9983      9985      9983      9986
      9986      9987      9986      9988      9986      9989      9989      9990
      9989      9991      9989      9992      9992      9993      9992      9994
      9992      9995      9995      9996      9995      9997      9995      9998
      9998      9999      9998     10000      9998     10001     10001     10002
     10001     10003     10001     10004     10004     10005     10004     10006
     10004     10007     10007     10008     10007     10009     10007     10010
     10010     10011     10010     10012     10010     10013     10013     10014
     10013     10015     10013     10016     10016     10017     10016     10018
     10016     10019     10019     10020     10019     10021     10019     10022
     10023     10024     10023     10025     10023     10026     10023     10027
     10027     10028     10027     10029     10027     10030     10030     10031
     10030     10032     10030     10037     10037     10033     10033     10036
     10033     10034     10033     10035     10038     10039     10038     10040
     10038     10041     10038     10036     10041     10042     10041     10049
     10041     10043     10049     10050     10049     10051     10049     10052
     10043     10044     10044     10046     10044     10045     10046     10047
     10046     10048     10046     10058     10058     10059     10058     10060
     10058     10061     10061     10062     10061     10063     10061     10064
     10064     10065     10064     10066     10064     10067     10067     10068
     10067     10069     10067     10070     10070     10071     10070     10072
     10070     10073     10073     10074     10073     10075     10073     10076
     10076     10077     10076     10078     10078     10079     10078     10080
     10080     10081     10080     10082     10080     10083     10083     10084
     10083     10085     10083     10086     10086     10087     10086     10088
     10086     10089     10089     10090     10089     10091     10089     10092
     10092     10093     10092     10094     10092     10095     10095     10096
     10095     10097     10095     10098     10098     10099     10098     10100
     10098     10101     10101     10102     10101     10103     10101     10104
     10052     10053     10053     10055     10053     10054     10055     10056
     10055     10057     10055     10105     10105     10106     10105     10107
     10105     10108     10108     10109     10108     10110     10108     10111
     10111     10112     10111     10113     10111     10114     10114     10115
     10114     10116     10114     10117     10117     10118     10117     10119
     10117     10120     10120     10121     10120     10122     10120     10123
     10123     10124     10123     10125     10123     10126     10126     10127
     10126     10128     10126     10129     10129     10130     10129     10131
     10129     10132     10132     10133     10132     10134     10132     10135
     10135     10136     10135     10137     10135     10138     10138     10139
     10138     10140     10138     10141     10141     10142     10141     10143
     10141     10144     10144     10145     10144     10146     10144     10147
     10148     10149     10148     10150     10148     10151     10148     10152
     10152     10153     10152     10154     10152     10155     10155     10156
     10155     10157     10155     10162     10162     10158     10158     10161
     10158     10159     10158     10160     10163     10164     10163     10165
     10163     10166     10163     10161     10166     10167     10166     10174
     10166     10168     10174     10175     10174     10176     10174     10177
     10168     10169     10169     10171     10169     10170     10171     10172
     10171     10173     10171     10183     10183     10184     10183     10185
     10183     10186     10186     10187     10186     10188     10186     10189
     10189     10190     10189     10191     10189     10192     10192     10193
     10192     10194     10192     10195     10195     10196     10195     10197
     10195     10198     10198     10199     10198     10200     10198     10201
     10201     10202     10201     10206     10201     10203     10206     10207
     10206     10208     10206     10203     10208     10209     10208     10210
     10208     10211     10211     10212     10211     10213     10211     10214
     10214     10215     10214     10216     10214     10217     10217     10218
     10217     10219     10217     10220     10220     10221     10220     10222
     10220     10223     10223     10224     10223     10225     10223     10226
     10203     10204     10203     10205     10177     10178     10178     10180
     10178     10179     10180     10181     10180     10182     10180     10227
     10227     10228     10227     10229     10227     10230     10230     10231
     10230     10232     10230     10233     10233     10234     10233     10235
     10233     10236     10236     10237     10236     10238     10236     10239
     10239     10240     10239     10241     10239     10242     10242     10243
     10242     10244     10242     10245     10245     10246     10245     10247
     10245     10248     10248     10249     10248     10250     10248     10251
     10251     10252     10251     10253     10251     10254     10254     10255
     10254     10256     10254     10257     10257     10258     10257     10259
     10257     10260     10260     10261     10260     10262     10260     10263
     10263     10264     10263     10265     10263     10266     10266     10267
     10266     10268     10266     10269     10274     10273     10273     10270
     10270     10271     10270     10272     10270     10275     10278     10277
     10277     10275     10275     10276     10275     10279     10279     10280
     10279     10281     10279     10286     10286     10282     10282     10285
     10282     10283     10282     10284     10287     10288     10287     10289
     10287     10290     10287     10285     10290     10291     10290     10298
     10290     10292     10298     10299     10298     10300     10298     10301
     10292     10293     10293     10295     10293     10294     10295     10296
     10295     10297     10295     10307     10307     10308     10307     10309
     10307     10310     10310     10311     10310     10312     10310     10313
     10313     10314     10313     10315     10313     10316     10316     10317
     10316     10318     10316     10319     10319     10320     10319     10321
     10319     10322     10322     10323     10322     10324     10322     10325
     10325     10326     10325     10327     10327     10328     10327     10329
     10329     10330     10329     10331     10329     10332     10332     10333
     10332     10334     10332     10335     10335     10336     10335     10337
     10335     10338     10338     10339     10338     10340     10338     10341
     10341     10342     10341     10343     10341     10344     10344     10345
     10344     10346     10344     10347     10301     10302     10302     10304
     10302     10303     10304     10305     10304     10306     10304     10348
     10348     10349     10348     10350     10348     10351     10351     10352
     10351     10353     10351     10354     10354     10355     10354     10356
     10354     10357     10357     10358     10357     10359     10357     10360
     10360     10361     10360     10362     10360     10363     10363     10364
     10363     10365     10363     10366     10366     10367     10366     10368
     10366     10369     10369     10370     10369     10371     10369     10372
     10372     10373     10372     10374     10372     10375     10375     10376
     10375     10377     10375     10378     10378     10379     10378     10380
     10378     10381     10381     10382     10381     10383     10381     10384
     10384     10385     10384     10386     10384     10387     10387     10388
     10387     10389     10387     10390     10395     10394     10394     10391
     10391     10392     10391     10393     10391     10396     10399     10398
     10398     10396     10396     10397     10396     10400     10400     10401
     10400     10402     10400     10407     10407     10403     10403     10406
     10403     10404     10403     10405     10408     10409     10408     10410
     10408     10411     10408     10406     10411     10412     10411     10419
     10411     10413     10419     10420     10419     10421     10419     10422
     10413     10414     10414     10416     10414     10415     10416     10417
     10416     10418     10416     10428     10428     10429     10428     10430
     10428     10431     10431     10432     10431     10433     10431     10434
     10434     10435     10434     10436     10434     10437     10437     10438
     10437     10439     10437     10440     10440     10441     10440     10442
     10440     10443     10443     10444     10443     10445     10443     10446
     10446     10447     10446     10451     10446     10448     10451     10452
     10451     10453     10451     10448     10453     10454     10453     10455
     10453     10456     10456     10457     10456     10458     10456     10459
     10459     10460     10459     10461     10459     10462     10462     10463
     10462     10464     10462     10465     10465     10466     10465     10467
     10465     10468     10468     10469     10468     10470     10468     10471
     10448     10449     10448     10450     10422     10423     10423     10425
     10423     10424     10425     10426     10425     10427     10425     10472
     10472     10473     10472     10474     10472     10475     10475     10476
     10475     10477     10475     10478     10478     10479     10478     10480
     10478     10481     10481     10482     10481     10483     10481     10484
     10484     10485     10484     10486     10484     10487     10487     10488
     10487     10489     10487     10490     10490     10491     10490     10492
     10490     10493     10493     10494     10493     10495     10493     10496
     10496     10497     10496     10498     10496     10499     10499     10500
     10499     10501     10499     10502     10502     10503     10502     10504
     10502     10505     10505     10506     10505     10507     10505     10508
     10508     10509     10508     10510     10508     10511     10511     10512
     10511     10513     10511     10514     10519     10518     10518     10515
     10515     10516     10515     10517     10515     10520     10523     10522
     10522     10520     10520     10521     10520     10524     10524     10525
     10524     10526     10524     10531     10531     10527     10527     10530
     10527     10528     10527     10529     10532     10533     10532     10534
     10532     10535     10532     10530     10535     10536     10535     10543
     10535     10537     10543     10544     10543     10545     10543     10546
     10537     10538     10538     10540     10538     10539     10540     10541
     10540     10542     10540     10552     10552     10553     10552     10554
     10552     10555     10555     10556     10555     10557     10555     10558
     10558     10559     10558     10560     10558     10561     10561     10562
     10561     10563     10561     10564     10564     10565     10564     10566
     10564     10567     10567     10568     10567     10569     10567     10570
     10570     10571     10570     10572     10572     10573     10572     10574
     10574     10575     10574     10576     10574     10577     10577     10578
     10577     10579     10577     10580     10580     10581     10580     10582
     10580     10583     10583     10584     10583     10585     10583     10586
     10586     10587     10586     10588     10586     10589     10589     10590
     10589     10591     10589     10592     10546     10547     10547     10549
     10547     10548     10549     10550     10549     10551     10549     10593
     10593     10594     10593     10595     10593     10596     10596     10597
     10596     10598     10596     10599     10599     10600     10599     10601
     10599     10602     10602     10603     10602     10604     10602     10605
     10605     10606     10605     10607     10605     10608     10608     10609
     10608     10610     10608     10611     10611     10612     10611     10613
     10611     10614     10614     10615     10614     10616     10614     10617
     10617     10618     10617     10619     10617     10620     10620     10621
     10620     10622     10620     10623     10623     10624     10623     10625
     10623     10626     10626     10627     10626     10628     10626     10629
     10629     10630     10629     10631     10629     10632     10632     10633
     10632     10634     10632     10635     10636     10637     10636     10638
     10636     10639     10636     10640     10640     10641     10640     10642
     10640     10643     10643     10644     10643     10645     10643     10650
     10650     10646     10646     10649     10646     10647     10646     10648
     10651     10652     10651     10653     10651     10654     10651     10649
     10654     10655     10654     10662     10654     10656     10662     10663
     10662     10664     10662     10665     10656     10657     10657     10659
     10657     10658     10659     10660     10659     10661     10659     10671
     10671     10672     10671     10673     10671     10674     10674     10675
     10674     10676     10674     10677     10677     10678     10677     10679
     10677     10680     10680     10681     10680     10682     10680     10683
     10683     10684     10683     10685     10683     10686     10686     10687
     10686     10688     10686     10689     10689     10690     10689     10694
     10689     10691     10694     10695     10694     10696     10694     10691
     10696     10697     10696     10698     10696     10699     10699     10700
     10699     10701     10699     10702     10702     10703     10702     10704
     10702     10705     10705     10706     10705     10707     10705     10708
     10708     10709     10708     10710     10708     10711     10711     10712
     10711     10713     10711     10714     10691     10692     10691     10693
     10665     10666     10666     10668     10666     10667     10668     10669
     10668     10670     10668     10715     10715     10716     10715     10717
     10715     10718     10718     10719     10718     10720     10718     10721
     10721     10722     10721     10723     10721     10724     10724     10725
     10724     10726     10724     10727     10727     10728     10727     10729
     10727     10730     10730     10731     10730     10732     10730     10733
     10733     10734     10733     10735     10733     10736     10736     10737
     10736     10738     10736     10739     10739     10740     10739     10741
     10739     10742     10742     10743     10742     10744     10742     10745
     10745     10746     10745     10747     10745     10748     10748     10749
     10748     10750     10748     10751     10751     10752     10751     10753
     10751     10754     10754     10755     10754     10756     10754     10757
     10758     10759     10758     10760     10758     10761     10758     10762
     10762     10763     10762     10764     10762     10765     10765     10766
     10765     10767     10765     10772     10772     10768     10768     10771
     10768     10769     10768     10770     10773     10774     10773     10775
     10773     10776     10773     10771     10776     10777     10776     10784
     10776     10778     10784     10785     10784     10786     10784     10787
     10778     10779     10779     10781     10779     10780     10781     10782
     10781     10783     10781     10793     10793     10794     10793     10795
     10793     10796     10796     10797     10796     10798     10796     10799
     10799     10800     10799     10801     10799     10802     10802     10803
     10802     10804     10802     10805     10805     10806     10805     10807
     10805     10808     10808     10809     10808     10810     10808     10811
     10811     10812     10811     10816     10811     10813     10816     10817
     10816     10818     10816     10813     10818     10819     10818     10820
     10818     10821     10821     10822     10821     10823     10821     10824
     10824     10825     10824     10826     10824     10827     10827     10828
     10827     10829     10827     10830     10830     10831     10830     10832
     10830     10833     10833     10834     10833     10835     10833     10836
     10813     10814     10813     10815     10787     10788     10788     10790
     10788     10789     10790     10791     10790     10792     10790     10837
     10837     10838     10837     10839     10837     10840     10840     10841
     10840     10842     10840     10843     10843     10844     10843     10845
     10843     10846     10846     10847     10846     10848     10846     10849
     10849     10850     10849     10851     10849     10852     10852     10853
     10852     10854     10852     10855     10855     10856     10855     10857
     10855     10858     10858     10859     10858     10860     10858     10861
     10861     10862     10861     10863     10861     10864     10864     10865
     10864     10866     10864     10867     10867     10868     10867     10869
     10867     10870     10870     10871     10870     10872     10870     10873
     10873     10874     10873     10875     10873     10876     10876     10877
     10876     10878     10876     10879     10884     10883     10883     10880
     10880     10881     10880     10882     10880     10885     10888     10887
     10887     10885     10885     10886     10885     10889     10889     10890
     10889     10891     10889     10896     10896     10892     10892     10895
     10892     10893     10892     10894     10897     10898     10897     10899
     10897     10900     10897     10895     10900     10901     10900     10908
     10900     10902     10908     10909     10908     10910     10908     10911
     10902     10903     10903     10905     10903     10904     10905     10906
     10905     10907     10905     10917     10917     10918     10917     10919
     10917     10920     10920     10921     10920     10922     10920     10923
     10923     10924     10923     10925     10923     10926     10926     10927
     10926     10928     10926     10929     10929     10930     10929     10931
     10929     10932     10932     10933     10932     10934     10932     10935
     10935     10936     10935     10937     10937     10938     10937     10939
     10939     10940     10939     10941     10939     10942     10942     10943
     10942     10944     10942     10945     10945     10946     10945     10947
     10945     10948     10948     10949     10948     10950     10948     10951
     10951     10952     10951     10953     10951     10954     10954     10955
     10954     10956     10954     10957     10911     10912     10912     10914
     10912     10913     10914     10915     10914     10916     10914     10958
     10958     10959     10958     10960     10958     10961     10961     10962
     10961     10963     10961     10964     10964     10965     10964     10966
     10964     10967     10967     10968     10967     10969     10967     10970
     10970     10971     10970     10972     10970     10973     10973     10974
     10973     10975     10973     10976     10976     10977     10976     10978
     10976     10979     10979     10980     10979     10981     10979     10982
     10982     10983     10982     10984     10982     10985     10985     10986
     10985     10987     10985     10988     10988     10989     10988     10990
     10988     10991     10991     10992     10991     10993     10991     10994
     10994     10995     10994     10996     10994     10997     10997     10998
     10997     10999     10997     11000     11005     11004     11004     11001
     11001     11002     11001     11003     11001     11006     11009     11008
     11008     11006     11006     11007     11006     11010     11010     11011
     11010     11012     11010     11017     11017     11013     11013     11016
     11013     11014     11013     11015     11018     11019     11018     11020
     11018     11021     11018     11016     11021     11022     11021     11029
     11021     11023     11029     11030     11029     11031     11029     11032
     11023     11024     11024     11026     11024     11025     11026     11027
     11026     11028     11026     11038     11038     11039     11038     11040
     11038     11041     11041     11042     11041     11043     11041     11044
     11044     11045     11044     11046     11044     11047     11047     11048
     11047     11049     11047     11050     11050     11051     11050     11052
     11050     11053     11053     11054     11053     11055     11053     11056
     11056     11057     11056     11061     11056     11058     11061     11062
     11061     11063     11061     11058     11063     11064     11063     11065
     11063     11066     11066     11067     11066     11068     11066     11069
     11069     11070     11069     11071     11069     11072     11072     11073
     11072     11074     11072     11075     11075     11076     11075     11077
     11075     11078     11078     11079     11078     11080     11078     11081
     11058     11059     11058     11060     11032     11033     11033     11035
     11033     11034     11035     11036     11035     11037     11035     11082
     11082     11083     11082     11084     11082     11085     11085     11086
     11085     11087     11085     11088     11088     11089     11088     11090
     11088     11091     11091     11092     11091     11093     11091     11094
     11094     11095     11094     11096     11094     11097     11097     11098
     11097     11099     11097     11100     11100     11101     11100     11102
     11100     11103     11103     11104     11103     11105     11103     11106
     11106     11107     11106     11108     11106     11109     11109     11110
     11109     11111     11109     11112     11112     11113     11112     11114
     11112     11115     11115     11116     11115     11117     11115     11118
     11118     11119     11118     11120     11118     11121     11121     11122
     11121     11123     11121     11124     11125     11126     11125     11127
     11125     11128     11125     11129     11129     11130     11129     11131
     11129     11132     11132     11133     11132     11134     11132     11139
     11139     11135     11135     11138     11135     11136     11135     11137
     11140     11141     11140     11142     11140     11143     11140     11138
     11143     11144     11143     11151     11143     11145     11151     11152
     11151     11153     11151     11154     11145     11146     11146     11148
     11146     11147     11148     11149     11148     11150     11148     11160
     11160     11161     11160     11162     11160     11163     11163     11164
     11163     11165     11163     11166     11166     11167     11166     11168
     11166     11169     11169     11170     11169     11171     11169     11172
     11172     11173     11172     11174     11172     11175     11175     11176
     11175     11177     11175     11178     11178     11179     11178     11183
     11178     11180     11183     11184     11183     11185     11183     11180
     11185     11186     11185     11187     11185     11188     11188     11189
     11188     11190     11188     11191     11191     11192     11191     11193
     11191     11194     11194     11195     11194     11196     11194     11197
     11197     11198     11197     11199     11197     11200     11200     11201
     11200     11202     11200     11203     11180     11181     11180     11182
     11154     11155     11155     11157     11155     11156     11157     11158
     11157     11159     11157     11204     11204     11205     11204     11206
     11204     11207     11207     11208     11207     11209     11207     11210
     11210     11211     11210     11212     11210     11213     11213     11214
     11213     11215     11213     11216     11216     11217     11216     11218
     11216     11219     11219     11220     11219     11221     11219     11222
     11222     11223     11222     11224     11222     11225     11225     11226
     11225     11227     11225     11228     11228     11229     11228     11230
     11228     11231     11231     11232     11231     11233     11231     11234
     11234     11235     11234     11236     11234     11237     11237     11238
     11237     11239     11237     11240     11240     11241     11240     11242
     11240     11243     11243     11244     11243     11245     11243     11246
     11247     11248     11247     11249     11247     11250     11247     11251
     11251     11252     11251     11253     11251     11254     11254     11255
     11254     11256     11254     11261     11261     11257     11257     11260
     11257     11258     11257     11259     11262     11263     11262     11264
     11262     11265     11262     11260     11265     11266     11265     11273
     11265     11267     11273     11274     11273     11275     11273     11276
     11267     11268     11268     11270     11268     11269     11270     11271
     11270     11272     11270     11282     11282     11283     11282     11284
     11282     11285     11285     11286     11285     11287     11285     11288
     11288     11289     11288     11290     11288     11291     11291     11292
     11291     11293     11291     11294     11294     11295     11294     11296
     11294     11297     11297     11298     11297     11299     11297     11300
     11300     11301     11300     11302     11302     11303     11302     11304
     11304     11305     11304     11306     11304     11307     11307     11308
     11307     11309     11307     11310     11310     11311     11310     11312
     11310     11313     11313     11314     11313     11315     11313     11316
     11316     11317     11316     11318     11316     11319     11319     11320
     11319     11321     11319     11322     11276     11277     11277     11279
     11277     11278     11279     11280     11279     11281     11279     11323
     11323     11324     11323     11325     11323     11326     11326     11327
     11326     11328     11326     11329     11329     11330     11329     11331
     11329     11332     11332     11333     11332     11334     11332     11335
     11335     11336     11335     11337     11335     11338     11338     11339
     11338     11340     11338     11341     11341     11342     11341     11343
     11343     11344     11343     11345     11345     11346     11345     11347
     11345     11348     11348     11349     11348     11350     11348     11351
     11351     11352     11351     11353     11351     11354     11354     11355
     11354     11356     11354     11357     11357     11358     11357     11359
     11357     11360     11360     11361     11360     11362     11360     11363
     11363     11364     11363     11365     11363     11366     11366     11367
     11366     11368     11366     11369     11374     11373     11373     11370
     11370     11371     11370     11372     11370     11375     11378     11377
     11377     11375     11375     11376     11375     11379     11379     11380
     11379     11381     11379     11386     11386     11382     11382     11385
     11382     11383     11382     11384     11387     11388     11387     11389
     11387     11390     11387     11385     11390     11391     11390     11398
     11390     11392     11398     11399     11398     11400     11398     11401
     11392     11393     11393     11395     11393     11394     11395     11396
     11395     11397     11395     11407     11407     11408     11407     11409
     11407     11410     11410     11411     11410     11412     11410     11413
     11413     11414     11413     11415     11413     11416     11416     11417
     11416     11418     11416     11419     11419     11420     11419     11421
     11419     11422     11422     11423     11422     11424     11422     11425
     11425     11426     11425     11427     11427     11428     11427     11429
     11429     11430     11429     11431     11429     11432     11432     11433
     11432     11434     11432     11435     11435     11436     11435     11437
     11435     11438     11438     11439     11438     11440     11438     11441
     11441     11442     11441     11443     11441     11444     11444     11445
     11444     11446     11444     11447     11401     11402     11402     11404
     11402     11403     11404     11405     11404     11406     11404     11448
     11448     11449     11448     11450     11448     11451     11451     11452
     11451     11453     11451     11454     11454     11455     11454     11456
     11454     11457     11457     11458     11457     11459     11457     11460
     11460     11461     11460     11462     11460     11463     11463     11464
     11463     11465     11463     11466     11466     11467     11466     11468
     11466     11469     11469     11470     11469     11471     11469     11472
     11472     11473     11472     11474     11472     11475     11475     11476
     11475     11477     11475     11478     11478     11479     11478     11480
     11478     11481     11481     11482     11481     11483     11481     11484
     11484     11485     11484     11486     11484     11487     11487     11488
     11487     11489     11487     11490     11491     11492     11491     11493
     11491     11494     11491     11495     11495     11496     11495     11497
     11495     11498     11498     11499     11498     11500     11498     11505
     11505     11501     11501     11504     11501     11502     11501     11503
     11506     11507     11506     11508     11506     11509     11506     11504
     11509     11510     11509     11517     11509     11511     11517     11518
     11517     11519     11517     11520     11511     11512     11512     11514
     11512     11513     11514     11515     11514     11516     11514     11526
     11526     11527     11526     11528     11526     11529     11529     11530
     11529     11531     11529     11532     11532     11533     11532     11534
     11532     11535     11535     11536     11535     11537     11535     11538
     11538     11539     11538     11540     11538     11541     11541     11542
     11541     11543     11541     11544     11544     11545     11544     11549
     11544     11546     11549     11550     11549     11551     11549     11546
     11551     11552     11551     11553     11551     11554     11554     11555
     11554     11556     11554     11557     11557     11558     11557     11559
     11557     11560     11560     11561     11560     11562     11560     11563
     11563     11564     11563     11565     11563     11566     11566     11567
     11566     11568     11566     11569     11546     11547     11546     11548
     11520     11521     11521     11523     11521     11522     11523     11524
     11523     11525     11523     11570     11570     11571     11570     11572
     11570     11573     11573     11574     11573     11575     11573     11576
     11576     11577     11576     11578     11576     11579     11579     11580
     11579     11581     11579     11582     11582     11583     11582     11584
     11582     11585     11585     11586     11585     11587     11585     11588
     11588     11589     11588     11590     11588     11591     11591     11592
     11591     11593     11591     11594     11594     11595     11594     11596
     11594     11597     11597     11598     11597     11599     11597     11600
     11600     11601     11600     11602     11600     11603     11603     11604
     11603     11605     11603     11606     11606     11607     11606     11608
     11606     11609     11609     11610     11609     11611     11609     11612
     11613     11614     11613     11615     11613     11616     11613     11617
     11617     11618     11617     11619     11617     11620     11620     11621
     11620     11622     11620     11627     11627     11623     11623     11626
     11623     11624     11623     11625     11628     11629     11628     11630
     11628     11631     11628     11626     11631     11632     11631     11639
     11631     11633     11639     11640     11639     11641     11639     11642
     11633     11634     11634     11636     11634     11635     11636     11637
     11636     11638     11636     11648     11648     11649     11648     11650
     11648     11651     11651     11652     11651     11653     11651     11654
     11654     11655     11654     11656     11654     11657     11657     11658
     11657     11659     11657     11660     11660     11661     11660     11662
     11660     11663     11663     11664     11663     11665     11663     11666
     11666     11667     11666     11671     11666     11668     11671     11672
     11671     11673     11671     11668     11673     11674     11673     11675
     11673     11676     11676     11677     11676     11678     11676     11679
     11679     11680     11679     11681     11679     11682     11682     11683
     11682     11684     11682     11685     11685     11686     11685     11687
     11685     11688     11688     11689     11688     11690     11688     11691
     11668     11669     11668     11670     11642     11643     11643     11645
     11643     11644     11645     11646     11645     11647     11645     11692
     11692     11693     11692     11694     11692     11695     11695     11696
     11695     11697     11695     11698     11698     11699     11698     11700
     11698     11701     11701     11702     11701     11703     11701     11704
     11704     11705     11704     11706     11704     11707     11707     11708
     11707     11709     11707     11710     11710     11711     11710     11712
     11710     11713     11713     11714     11713     11715     11713     11716
     11716     11717     11716     11718     11716     11719     11719     11720
     11719     11721     11719     11722     11722     11723     11722     11724
     11722     11725     11725     11726     11725     11727     11725     11728
     11728     11729     11728     11730     11728     11731     11731     11732
     11731     11733     11731     11734     11735     11736     11735     11737
     11735     11738     11735     11739     11739     11740     11739     11741
     11739     11742     11742     11743     11742     11744     11742     11749
     11749     11745     11745     11748     11745     11746     11745     11747
     11750     11751     11750     11752     11750     11753     11750     11748
     11753     11754     11753     11761     11753     11755     11761     11762
     11761     11763     11761     11764     11755     11756     11756     11758
     11756     11757     11758     11759     11758     11760     11758     11770
     11770     11771     11770     11772     11770     11773     11773     11774
     11773     11775     11773     11776     11776     11777     11776     11778
     11776     11779     11779     11780     11779     11781     11779     11782
     11782     11783     11782     11784     11782     11785     11785     11786
     11785     11787     11785     11788     11788     11789     11788     11793
     11788     11790     11793     11794     11793     11795     11793     11790
     11795     11796     11795     11797     11795     11798     11798     11799
     11798     11800     11798     11801     11801     11802     11801     11803
     11801     11804     11804     11805     11804     11806     11804     11807
     11807     11808     11807     11809     11807     11810     11810     11811
     11810     11812     11810     11813     11790     11791     11790     11792
     11764     11765     11765     11767     11765     11766     11767     11768
     11767     11769     11767     11814     11814     11815     11814     11816
     11814     11817     11817     11818     11817     11819     11817     11820
     11820     11821     11820     11822     11820     11823     11823     11824
     11823     11825     11823     11826     11826     11827     11826     11828
     11826     11829     11829     11830     11829     11831     11829     11832
     11832     11833     11832     11834     11832     11835     11835     11836
     11835     11837     11835     11838     11838     11839     11838     11840
     11838     11841     11841     11842     11841     11843     11841     11844
     11844     11845     11844     11846     11844     11847     11847     11848
     11847     11849     11847     11850     11850     11851     11850     11852
     11850     11853     11853     11854     11853     11855     11853     11856
     11857     11858     11857     11859     11857     11860     11857     11861
     11861     11862     11861     11863     11861     11864     11864     11865
     11864     11866     11864     11871     11871     11867     11867     11870
     11867     11868     11867     11869     11872     11873     11872     11874
     11872     11875     11872     11870     11875     11876     11875     11883
     11875     11877     11883     11884     11883     11885     11883     11886
     11877     11878     11878     11880     11878     11879     11880     11881
     11880     11882     11880     11892     11892     11893     11892     11894
     11892     11895     11895     11896     11895     11897     11895     11898
     11898     11899     11898     11900     11898     11901     11901     11902
     11901     11903     11901     11904     11904     11905     11904     11906
     11904     11907     11907     11908     11907     11909     11907     11910
     11910     11911     11910     11915     11910     11912     11915     11916
     11915     11917     11915     11912     11917     11918     11917     11919
     11917     11920     11920     11921     11920     11922     11920     11923
     11923     11924     11923     11925     11923     11926     11926     11927
     11926     11928     11926     11929     11929     11930     11929     11931
     11929     11932     11932     11933     11932     11934     11932     11935
     11912     11913     11912     11914     11886     11887     11887     11889
     11887     11888     11889     11890     11889     11891     11889     11936
     11936     11937     11936     11938     11936     11939     11939     11940
     11939     11941     11939     11942     11942     11943     11942     11944
     11942     11945     11945     11946     11945     11947     11945     11948
     11948     11949     11948     11950     11948     11951     11951     11952
     11951     11953     11951     11954     11954     11955     11954     11956
     11954     11957     11957     11958     11957     11959     11957     11960
     11960     11961     11960     11962     11960     11963     11963     11964
     11963     11965     11963     11966     11966     11967     11966     11968
     11966     11969     11969     11970     11969     11971     11969     11972
     11972     11973     11972     11974     11972     11975     11975     11976
     11975     11977     11975     11978     11979     11980     11979     11981
     11979     11982     11979     11983     11983     11984     11983     11985
     11983     11986     11986     11987     11986     11988     11986     11993
     11993     11989     11989     11992     11989     11990     11989     11991
     11994     11995     11994     11996     11994     11997     11994     11992
     11997     11998     11997     12005     11997     11999     12005     12006
     12005     12007     12005     12008     11999     12000     12000     12002
     12000     12001     12002     12003     12002     12004     12002     12014
     12014     12015     12014     12016     12014     12017     12017     12018
     12017     12019     12017     12020     12020     12021     12020     12022
     12020     12023     12023     12024     12023     12025     12023     12026
     12026     12027     12026     12028     12026     12029     12029     12030
     12029     12031     12029     12032     12032     12033     12032     12037
     12032     12034     12037     12038     12037     12039     12037     12034
     12039     12040     12039     12041     12039     12042     12042     12043
     12042     12044     12042     12045     12045     12046     12045     12047
     12045     12048     12048     12049     12048     12050     12048     12051
     12051     12052     12051     12053     12051     12054     12054     12055
     12054     12056     12054     12057     12034     12035     12034     12036
     12008     12009     12009     12011     12009     12010     12011     12012
     12011     12013     12011     12058     12058     12059     12058     12060
     12058     12061     12061     12062     12061     12063     12061     12064
     12064     12065     12064     12066     12064     12067     12067     12068
     12067     12069     12067     12070     12070     12071     12070     12072
     12070     12073     12073     12074     12073     12075     12073     12076
     12076     12077     12076     12078     12076     12079     12079     12080
     12079     12081     12079     12082     12082     12083     12082     12084
     12082     12085     12085     12086     12085     12087     12085     12088
     12088     12089     12088     12090     12088     12091     12091     12092
     12091     12093     12091     12094     12094     12095     12094     12096
     12094     12097     12102     12101     12101     12098     12098     12099
     12098     12100     12098     12103     12106     12105     12105     12103
     12103     12104     12103     12107     12107     12108     12107     12109
     12107     12114     12114     12110     12110     12113     12110     12111
     12110     12112     12115     12116     12115     12117     12115     12118
     12115     12113     12118     12119     12118     12126     12118     12120
     12126     12127     12126     12128     12126     12129     12120     12121
     12121     12123     12121     12122     12123     12124     12123     12125
     12123     12135     12135     12136     12135     12137     12135     12138
     12138     12139     12138     12140     12138     12141     12141     12142
     12141     12143     12141     12144     12144     12145     12144     12146
     12144     12147     12147     12148     12147     12149     12147     12150
     12150     12151     12150     12152     12150     12153     12153     12154
     12153     12158     12153     12155     12158     12159     12158     12160
     12158     12155     12160     12161     12160     12162     12160     12163
     12163     12164     12163     12165     12163     12166     12166     12167
     12166     12168     12166     12169     12169     12170     12169     12171
     12169     12172     12172     12173     12172     12174     12172     12175
     12175     12176     12175     12177     12175     12178     12155     12156
     12155     12157     12129     12130     12130     12132     12130     12131
     12132     12133     12132     12134     12132     12179     12179     12180
     12179     12181     12179     12182     12182     12183     12182     12184
     12182     12185     12185     12186     12185     12187     12185     12188
     12188     12189     12188     12190     12188     12191     12191     12192
     12191     12193     12191     12194     12194     12195     12194     12196
     12194     12197     12197     12198     12197     12199     12197     12200
     12200     12201     12200     12202     12200     12203     12203     12204
     12203     12205     12203     12206     12206     12207     12206     12208
     12206     12209     12209     12210     12209     12211     12209     12212
     12212     12213     12212     12214     12212     12215     12215     12216
     12215     12217     12215     12218     12218     12219     12218     12220
     12218     12221     12222     12223     12222     12224     12222     12225
     12222     12226     12226     12227     12226     12228     12226     12229
     12229     12230     12229     12231     12229     12236     12236     12232
     12232     12235     12232     12233     12232     12234     12237     12238
     12237     12239     12237     12240     12237     12235     12240     12241
     12240     12248     12240     12242     12248     12249     12248     12250
     12248     12251     12242     12243     12243     12245     12243     12244
     12245     12246     12245     12247     12245     12257     12257     12258
     12257     12259     12257     12260     12260     12261     12260     12262
     12260     12263     12263     12264     12263     12265     12263     12266
     12266     12267     12266     12268     12266     12269     12269     12270
     12269     12271     12269     12272     12272     12273     12272     12274
     12272     12275     12275     12276     12275     12280     12275     12277
     12280     12281     12280     12282     12280     12277     12282     12283
     12282     12284     12282     12285     12285     12286     12285     12287
     12285     12288     12288     12289     12288     12290     12288     12291
     12291     12292     12291     12293     12291     12294     12294     12295
     12294     12296     12294     12297     12297     12298     12297     12299
     12297     12300     12277     12278     12277     12279     12251     12252
     12252     12254     12252     12253     12254     12255     12254     12256
     12254     12301     12301     12302     12301     12303     12301     12304
     12304     12305     12304     12306     12304     12307     12307     12308
     12307     12309     12307     12310     12310     12311     12310     12312
     12310     12313     12313     12314     12313     12315     12313     12316
     12316     12317     12316     12318     12316     12319     12319     12320
     12319     12321     12319     12322     12322     12323     12322     12324
     12322     12325     12325     12326     12325     12327     12325     12328
     12328     12329     12328     12330     12328     12331     12331     12332
     12331     12333     12331     12334     12334     12335     12334     12336
     12334     12337     12337     12338     12337     12339     12337     12340
     12340     12341     12340     12342     12340     12343     12344     12345
     12344     12346     12344     12347     12344     12348     12348     12349
     12348     12350     12348     12351     12351     12352     12351     12353
     12351     12358     12358     12354     12354     12357     12354     12355
     12354     12356     12359     12360     12359     12361     12359     12362
     12359     12357     12362     12363     12362     12370     12362     12364
     12370     12371     12370     12372     12370     12373     12364     12365
     12365     12367     12365     12366     12367     12368     12367     12369
     12367     12379     12379     12380     12379     12381     12379     12382
     12382     12383     12382     12384     12382     12385     12385     12386
     12385     12387     12385     12388     12388     12389     12388     12390
     12388     12391     12391     12392     12391     12393     12391     12394
     12394     12395     12394     12396     12394     12397     12397     12398
     12397     12399     12399     12400     12399     12401     12401     12402
     12401     12403     12401     12404     12404     12405     12404     12406
     12404     12407     12407     12408     12407     12409     12407     12410
     12410     12411     12410     12412     12410     12413     12413     12414
     12413     12415     12413     12416     12416     12417     12416     12418
     12416     12419     12373     12374     12374     12376     12374     12375
     12376     12377     12376     12378     12376     12420     12420     12421
     12420     12422     12420     12423     12423     12424     12423     12425
     12423     12426     12426     12427     12426     12428     12426     12429
     12429     12430     12429     12431     12429     12432     12432     12433
     12432     12434     12432     12435     12435     12436     12435     12437
     12435     12438     12438     12439     12438     12440     12440     12441
     12440     12442     12442     12443     12442     12444     12442     12445
     12445     12446     12445     12447     12445     12448     12448     12449
     12448     12450     12448     12451     12451     12452     12451     12453
     12451     12454     12454     12455     12454     12456     12454     12457
     12457     12458     12457     12459     12457     12460     12460     12461
     12460     12462     12460     12463     12463     12464     12463     12465
     12463     12466     12467     12468     12467     12469     12467     12470
     12467     12471     12471     12472     12471     12473     12471     12474
     12474     12475     12474     12476     12474     12481     12481     12477
     12477     12480     12477     12478     12477     12479     12482     12483
     12482     12484     12482     12485     12482     12480     12485     12486
     12485     12493     12485     12487     12493     12494     12493     12495
     12493     12496     12487     12488     12488     12490     12488     12489
     12490     12491     12490     12492     12490     12502     12502     12503
     12502     12504     12502     12505     12505     12506     12505     12507
     12505     12508     12508     12509     12508     12510     12508     12511
     12511     12512     12511     12513     12511     12514     12514     12515
     12514     12516     12514     12517     12517     12518     12517     12519
     12517     12520     12520     12521     12520     12525     12520     12522
     12525     12526     12525     12527     12525     12522     12527     12528
     12527     12529     12527     12530     12530     12531     12530     12532
     12530     12533     12533     12534     12533     12535     12533     12536
     12536     12537     12536     12538     12536     12539     12539     12540
     12539     12541     12539     12542     12542     12543     12542     12544
     12542     12545     12522     12523     12522     12524     12496     12497
     12497     12499     12497     12498     12499     12500     12499     12501
     12499     12546     12546     12547     12546     12548     12546     12549
     12549     12550     12549     12551     12549     12552     12552     12553
     12552     12554     12552     12555     12555     12556     12555     12557
     12555     12558     12558     12559     12558     12560     12558     12561
     12561     12562     12561     12563     12561     12564     12564     12565
     12564     12566     12564     12567     12567     12568     12567     12569
     12567     12570     12570     12571     12570     12572     12570     12573
     12573     12574     12573     12575     12573     12576     12576     12577
     12576     12578     12576     12579     12579     12580     12579     12581
     12579     12582     12582     12583     12582     12584     12582     12585
     12585     12586     12585     12587     12585     12588     12589     12590
     12589     12591     12589     12592     12589     12593     12593     12594
     12593     12595     12593     12596     12596     12597     12596     12598
     12596     12603     12603     12599     12599     12602     12599     12600
     12599     12601     12604     12605     12604     12606     12604     12607
     12604     12602     12607     12608     12607     12615     12607     12609
     12615     12616     12615     12617     12615     12618     12609     12610
     12610     12612     12610     12611     12612     12613     12612     12614
     12612     12624     12624     12625     12624     12626     12624     12627
     12627     12628     12627     12629     12627     12630     12630     12631
     12630     12632     12630     12633     12633     12634     12633     12635
     12633     12636     12636     12637     12636     12638     12636     12639
     12639     12640     12639     12641     12639     12642     12642     12643
     12642     12647     12642     12644     12647     12648     12647     12649
     12647     12644     12649     12650     12649     12651     12649     12652
     12652     12653     12652     12654     12652     12655     12655     12656
     12655     12657     12655     12658     12658     12659     12658     12660
     12658     12661     12661     12662     12661     12663     12661     12664
     12664     12665     12664     12666     12664     12667     12644     12645
     12644     12646     12618     12619     12619     12621     12619     12620
     12621     12622     12621     12623     12621     12668     12668     12669
     12668     12670     12668     12671     12671     12672     12671     12673
     12671     12674     12674     12675     12674     12676     12674     12677
     12677     12678     12677     12679     12677     12680     12680     12681
     12680     12682     12680     12683     12683     12684     12683     12685
     12683     12686     12686     12687     12686     12688     12686     12689
     12689     12690     12689     12691     12689     12692     12692     12693
     12692     12694     12692     12695     12695     12696     12695     12697
     12695     12698     12698     12699     12698     12700     12698     12701
     12701     12702     12701     12703     12701     12704     12704     12705
     12704     12706     12704     12707     12707     12708     12707     12709
     12707     12710     12715     12714     12714     12711     12711     12712
     12711     12713     12711     12716     12719     12718     12718     12716
     12716     12717     12716     12720     12720     12721     12720     12722
     12720     12727     12727     12723     12723     12726     12723     12724
     12723     12725     12728     12729     12728     12730     12728     12731
     12728     12726     12731     12732     12731     12739     12731     12733
     12739     12740     12739     12741     12739     12742     12733     12734
     12734     12736     12734     12735     12736     12737     12736     12738
     12736     12748     12748     12749     12748     12750     12748     12751
     12751     12752     12751     12753     12751     12754     12754     12755
     12754     12756     12754     12757     12757     12758     12757     12759
     12757     12760     12760     12761     12760     12762     12760     12763
     12763     12764     12763     12765     12763     12766     12766     12767
     12766     12771     12766     12768     12771     12772     12771     12773
     12771     12768     12773     12774     12773     12775     12773     12776
     12776     12777     12776     12778     12776     12779     12779     12780
     12779     12781     12779     12782     12782     12783     12782     12784
     12782     12785     12785     12786     12785     12787     12785     12788
     12788     12789     12788     12790     12788     12791     12768     12769
     12768     12770     12742     12743     12743     12745     12743     12744
     12745     12746     12745     12747     12745     12792     12792     12793
     12792     12794     12792     12795     12795     12796     12795     12797
     12795     12798     12798     12799     12798     12800     12798     12801
     12801     12802     12801     12803     12801     12804     12804     12805
     12804     12806     12804     12807     12807     12808     12807     12809
     12807     12810     12810     12811     12810     12812     12810     12813
     12813     12814     12813     12815     12813     12816     12816     12817
     12816     12818     12816     12819     12819     12820     12819     12821
     12819     12822     12822     12823     12822     12824     12822     12825
     12825     12826     12825     12827     12825     12828     12828     12829
     12828     12830     12828     12831     12831     12832     12831     12833
     12831     12834     12835     12836     12835     12837     12835     12838
     12835     12839     12839     12840     12839     12841     12839     12842
     12842     12843     12842     12844     12842     12849     12849     12845
     12845     12848     12845     12846     12845     12847     12850     12851
     12850     12852     12850     12853     12850     12848     12853     12854
     12853     12861     12853     12855     12861     12862     12861     12863
     12861     12864     12855     12856     12856     12858     12856     12857
     12858     12859     12858     12860     12858     12870     12870     12871
     12870     12872     12870     12873     12873     12874     12873     12875
     12873     12876     12876     12877     12876     12878     12876     12879
     12879     12880     12879     12881     12879     12882     12882     12883
     12882     12884     12882     12885     12885     12886     12885     12887
     12885     12888     12888     12889     12888     12893     12888     12890
     12893     12894     12893     12895     12893     12890     12895     12896
     12895     12897     12895     12898     12898     12899     12898     12900
     12898     12901     12901     12902     12901     12903     12901     12904
     12904     12905     12904     12906     12904     12907     12907     12908
     12907     12909     12907     12910     12910     12911     12910     12912
     12910     12913     12890     12891     12890     12892     12864     12865
     12865     12867     12865     12866     12867     12868     12867     12869
     12867     12914     12914     12915     12914     12916     12914     12917
     12917     12918     12917     12919     12917     12920     12920     12921
     12920     12922     12920     12923     12923     12924     12923     12925
     12923     12926     12926     12927     12926     12928     12926     12929
     12929     12930     12929     12931     12929     12932     12932     12933
     12932     12934     12932     12935     12935     12936     12935     12937
     12935     12938     12938     12939     12938     12940     12938     12941
     12941     12942     12941     12943     12941     12944     12944     12945
     12944     12946     12944     12947     12947     12948     12947     12949
     12947     12950     12950     12951     12950     12952     12950     12953
     12953     12954     12953     12955     12953     12956     12957     12958
     12957     12959     12957     12960     12957     12961     12961     12962
     12961     12963     12961     12964     12964     12965     12964     12966
     12964     12971     12971     12967     12967     12970     12967     12968
     12967     12969     12972     12973     12972     12974     12972     12975
     12972     12970     12975     12976     12975     12983     12975     12977
     12983     12984     12983     12985     12983     12986     12977     12978
     12978     12980     12978     12979     12980     12981     12980     12982
     12980     12992     12992     12993     12992     12994     12992     12995
     12995     12996     12995     12997     12995     12998     12998     12999
     12998     13000     12998     13001     13001     13002     13001     13003
     13001     13004     13004     13005     13004     13006     13004     13007
     13007     13008     13007     13009     13007     13010     13010     13011
     13010     13015     13010     13012     13015     13016     13015     13017
     13015     13012     13017     13018     13017     13019     13017     13020
     13020     13021     13020     13022     13020     13023     13023     13024
     13023     13025     13023     13026     13026     13027     13026     13028
     13026     13029     13029     13030     13029     13031     13029     13032
     13032     13033     13032     13034     13032     13035     13012     13013
     13012     13014     12986     12987     12987     12989     12987     12988
     12989     12990     12989     12991     12989     13036     13036     13037
     13036     13038     13036     13039     13039     13040     13039     13041
     13039     13042     13042     13043     13042     13044     13042     13045
     13045     13046     13045     13047     13045     13048     13048     13049
     13048     13050     13048     13051     13051     13052     13051     13053
     13051     13054     13054     13055     13054     13056     13054     13057
     13057     13058     13057     13059     13057     13060     13060     13061
     13060     13062     13060     13063     13063     13064     13063     13065
     13063     13066     13066     13067     13066     13068     13066     13069
     13069     13070     13069     13071     13069     13072     13072     13073
     13072     13074     13072     13075     13075     13076     13075     13077
     13075     13078     13083     13082     13082     13079     13079     13080
     13079     13081     13079     13084     13087     13086     13086     13084
     13084     13085     13084     13088     13088     13089     13088     13090
     13088     13095     13095     13091     13091     13094     13091     13092
     13091     13093     13096     13097     13096     13098     13096     13099
     13096     13094     13099     13100     13099     13107     13099     13101
     13107     13108     13107     13109     13107     13110     13101     13102
     13102     13104     13102     13103     13104     13105     13104     13106
     13104     13116     13116     13117     13116     13118     13116     13119
     13119     13120     13119     13121     13119     13122     13122     13123
     13122     13124     13122     13125     13125     13126     13125     13127
     13125     13128     13128     13129     13128     13130     13128     13131
     13131     13132     13131     13133     13131     13134     13134     13135
     13134     13139     13134     13136     13139     13140     13139     13141
     13139     13136     13141     13142     13141     13143     13141     13144
     13144     13145     13144     13146     13144     13147     13147     13148
     13147     13149     13147     13150     13150     13151     13150     13152
     13150     13153     13153     13154     13153     13155     13153     13156
     13156     13157     13156     13158     13156     13159     13136     13137
     13136     13138     13110     13111     13111     13113     13111     13112
     13113     13114     13113     13115     13113     13160     13160     13161
     13160     13162     13160     13163     13163     13164     13163     13165
     13163     13166     13166     13167     13166     13168     13166     13169
     13169     13170     13169     13171     13169     13172     13172     13173
     13172     13174     13172     13175     13175     13176     13175     13177
     13175     13178     13178     13179     13178     13180     13178     13181
     13181     13182     13181     13183     13181     13184     13184     13185
     13184     13186     13184     13187     13187     13188     13187     13189
     13187     13190     13190     13191     13190     13192     13190     13193
     13193     13194     13193     13195     13193     13196     13196     13197
     13196     13198     13196     13199     13199     13200     13199     13201
     13199     13202     13203     13204     13203     13205     13203     13206
     13203     13207     13207     13208     13207     13209     13207     13210
     13210     13211     13210     13212     13210     13217     13217     13213
     13213     13216     13213     13214     13213     13215     13218     13219
     13218     13220     13218     13221     13218     13216     13221     13222
     13221     13229     13221     13223     13229     13230     13229     13231
     13229     13232     13223     13224     13224     13226     13224     13225
     13226     13227     13226     13228     13226     13238     13238     13239
     13238     13240     13238     13241     13241     13242     13241     13243
     13241     13244     13244     13245     13244     13246     13244     13247
     13247     13248     13247     13249     13247     13250     13250     13251
     13250     13252     13250     13253     13253     13254     13253     13255
     13253     13256     13256     13257     13256     13261     13256     13258
     13261     13262     13261     13263     13261     13258     13263     13264
     13263     13265     13263     13266     13266     13267     13266     13268
     13266     13269     13269     13270     13269     13271     13269     13272
     13272     13273     13272     13274     13272     13275     13275     13276
     13275     13277     13275     13278     13278     13279     13278     13280
     13278     13281     13258     13259     13258     13260     13232     13233
     13233     13235     13233     13234     13235     13236     13235     13237
     13235     13282     13282     13283     13282     13284     13282     13285
     13285     13286     13285     13287     13285     13288     13288     13289
     13288     13290     13288     13291     13291     13292     13291     13293
     13291     13294     13294     13295     13294     13296     13294     13297
     13297     13298     13297     13299     13297     13300     13300     13301
     13300     13302     13300     13303     13303     13304     13303     13305
     13303     13306     13306     13307     13306     13308     13306     13309
     13309     13310     13309     13311     13309     13312     13312     13313
     13312     13314     13312     13315     13315     13316     13315     13317
     13315     13318     13318     13319     13318     13320     13318     13321
     13322     13323     13322     13324     13322     13325     13322     13326
     13326     13327     13326     13328     13326     13329     13329     13330
     13329     13331     13329     13336     13336     13332     13332     13335
     13332     13333     13332     13334     13337     13338     13337     13339
     13337     13340     13337     13335     13340     13341     13340     13348
     13340     13342     13348     13349     13348     13350     13348     13351
     13342     13343     13343     13345     13343     13344     13345     13346
     13345     13347     13345     13357     13357     13358     13357     13359
     13357     13360     13360     13361     13360     13362     13360     13363
     13363     13364     13363     13365     13363     13366     13366     13367
     13366     13368     13366     13369     13369     13370     13369     13371
     13369     13372     13372     13373     13372     13374     13372     13375
     13375     13376     13375     13380     13375     13377     13380     13381
     13380     13382     13380     13377     13382     13383     13382     13384
     13382     13385     13385     13386     13385     13387     13385     13388
     13388     13389     13388     13390     13388     13391     13391     13392
     13391     13393     13391     13394     13394     13395     13394     13396
     13394     13397     13397     13398     13397     13399     13397     13400
     13377     13378     13377     13379     13351     13352     13352     13354
     13352     13353     13354     13355     13354     13356     13354     13401
     13401     13402     13401     13403     13401     13404     13404     13405
     13404     13406     13404     13407     13407     13408     13407     13409
     13407     13410     13410     13411     13410     13412     13410     13413
     13413     13414     13413     13415     13413     13416     13416     13417
     13416     13418     13416     13419     13419     13420     13419     13421
     13419     13422     13422     13423     13422     13424     13422     13425
     13425     13426     13425     13427     13425     13428     13428     13429
     13428     13430     13428     13431     13431     13432     13431     13433
     13431     13434     13434     13435     13434     13436     13434     13437
     13437     13438     13437     13439     13437     13440     13440     13441
     13440     13442     13440     13443     13444     13445     13444     13446
     13444     13447     13444     13448     13448     13449     13448     13450
     13448     13451     13451     13452     13451     13453     13451     13458
     13458     13454     13454     13457     13454     13455     13454     13456
     13459     13460     13459     13461     13459     13462     13459     13457
     13462     13463     13462     13470     13462     13464     13470     13471
     13470     13472     13470     13473     13464     13465     13465     13467
     13465     13466     13467     13468     13467     13469     13467     13479
     13479     13480     13479     13481     13479     13482     13482     13483
     13482     13484     13482     13485     13485     13486     13485     13487
     13485     13488     13488     13489     13488     13490     13488     13491
     13491     13492     13491     13493     13491     13494     13494     13495
     13494     13496     13494     13497     13497     13498     13497     13502
     13497     13499     13502     13503     13502     13504     13502     13499
     13504     13505     13504     13506     13504     13507     13507     13508
     13507     13509     13507     13510     13510     13511     13510     13512
     13510     13513     13513     13514     13513     13515     13513     13516
     13516     13517     13516     13518     13516     13519     13519     13520
     13519     13521     13519     13522     13499     13500     13499     13501
     13473     13474     13474     13476     13474     13475     13476     13477
     13476     13478     13476     13523     13523     13524     13523     13525
     13523     13526     13526     13527     13526     13528     13526     13529
     13529     13530     13529     13531     13529     13532     13532     13533
     13532     13534     13532     13535     13535     13536     13535     13537
     13535     13538     13538     13539     13538     13540     13538     13541
     13541     13542     13541     13543     13541     13544     13544     13545
     13544     13546     13544     13547     13547     13548     13547     13549
     13547     13550     13550     13551     13550     13552     13550     13553
     13553     13554     13553     13555     13553     13556     13556     13557
     13556     13558     13556     13559     13559     13560     13559     13561
     13559     13562     13562     13563     13562     13564     13562     13565
     13566     13567     13566     13568     13566     13569     13566     13570
     13570     13571     13570     13572     13570     13573     13573     13574
     13573     13575     13573     13580     13580     13576     13576     13579
     13576     13577     13576     13578     13581     13582     13581     13583
     13581     13584     13581     13579     13584     13585     13584     13592
     13584     13586     13592     13593     13592     13594     13592     13595
     13586     13587     13587     13589     13587     13588     13589     13590
     13589     13591     13589     13601     13601     13602     13601     13603
     13601     13604     13604     13605     13604     13606     13604     13607
     13607     13608     13607     13609     13607     13610     13610     13611
     13610     13612     13610     13613     13613     13614     13613     13615
     13613     13616     13616     13617     13616     13618     13616     13619
     13619     13620     13619     13624     13619     13621     13624     13625
     13624     13626     13624     13621     13626     13627     13626     13628
     13626     13629     13629     13630     13629     13631     13629     13632
     13632     13633     13632     13634     13632     13635     13635     13636
     13635     13637     13635     13638     13638     13639     13638     13640
     13638     13641     13641     13642     13641     13643     13641     13644
     13621     13622     13621     13623     13595     13596     13596     13598
     13596     13597     13598     13599     13598     13600     13598     13645
     13645     13646     13645     13647     13645     13648     13648     13649
     13648     13650     13648     13651     13651     13652     13651     13653
     13651     13654     13654     13655     13654     13656     13654     13657
     13657     13658     13657     13659     13657     13660     13660     13661
     13660     13662     13660     13663     13663     13664     13663     13665
     13663     13666     13666     13667     13666     13668     13666     13669
     13669     13670     13669     13671     13669     13672     13672     13673
     13672     13674     13672     13675     13675     13676     13675     13677
     13675     13678     13678     13679     13678     13680     13678     13681
     13681     13682     13681     13683     13681     13684     13684     13685
     13684     13686     13684     13687     13688     13689     13688     13690
     13688     13691     13688     13692     13692     13693     13692     13694
     13692     13695     13695     13696     13695     13697     13695     13702
     13702     13698     13698     13701     13698     13699     13698     13700
     13703     13704     13703     13705     13703     13706     13703     13701
     13706     13707     13706     13714     13706     13708     13714     13715
     13714     13716     13714     13717     13708     13709     13709     13711
     13709     13710     13711     13712     13711     13713     13711     13723
     13723     13724     13723     13725     13723     13726     13726     13727
     13726     13728     13726     13729     13729     13730     13729     13731
     13729     13732     13732     13733     13732     13734     13732     13735
     13735     13736     13735     13737     13735     13738     13738     13739
     13738     13740     13738     13741     13741     13742     13741     13746
     13741     13743     13746     13747     13746     13748     13746     13743
     13748     13749     13748     13750     13748     13751     13751     13752
     13751     13753     13751     13754     13754     13755     13754     13756
     13754     13757     13757     13758     13757     13759     13757     13760
     13760     13761     13760     13762     13760     13763     13763     13764
     13763     13765     13763     13766     13743     13744     13743     13745
     13717     13718     13718     13720     13718     13719     13720     13721
     13720     13722     13720     13767     13767     13768     13767     13769
     13767     13770     13770     13771     13770     13772     13770     13773
     13773     13774     13773     13775     13773     13776     13776     13777
     13776     13778     13776     13779     13779     13780     13779     13781
     13779     13782     13782     13783     13782     13784     13782     13785
     13785     13786     13785     13787     13785     13788     13788     13789
     13788     13790     13788     13791     13791     13792     13791     13793
     13791     13794     13794     13795     13794     13796     13794     13797
     13797     13798     13797     13799     13797     13800     13800     13801
     13800     13802     13800     13803     13803     13804     13803     13805
     13803     13806     13807     13808     13807     13809     13807     13810
     13807     13811     13811     13812     13811     13813     13811     13814
     13814     13815     13814     13816     13814     13821     13821     13817
     13817     13820     13817     13818     13817     13819     13822     13823
     13822     13824     13822     13825     13822     13820     13825     13826
     13825     13833     13825     13827     13833     13834     13833     13835
     13833     13836     13827     13828     13828     13830     13828     13829
     13830     13831     13830     13832     13830     13842     13842     13843
     13842     13844     13842     13845     13845     13846     13845     13847
     13845     13848     13848     13849     13848     13850     13848     13851
     13851     13852     13851     13853     13851     13854     13854     13855
     13854     13856     13854     13857     13857     13858     13857     13859
     13857     13860     13860     13861     13860     13865     13860     13862
     13865     13866     13865     13867     13865     13862     13867     13868
     13867     13869     13867     13870     13870     13871     13870     13872
     13870     13873     13873     13874     13873     13875     13873     13876
     13876     13877     13876     13878     13876     13879     13879     13880
     13879     13881     13879     13882     13882     13883     13882     13884
     13882     13885     13862     13863     13862     13864     13836     13837
     13837     13839     13837     13838     13839     13840     13839     13841
     13839     13886     13886     13887     13886     13888     13886     13889
     13889     13890     13889     13891     13889     13892     13892     13893
     13892     13894     13892     13895     13895     13896     13895     13897
     13895     13898     13898     13899     13898     13900     13898     13901
     13901     13902     13901     13903     13901     13904     13904     13905
     13904     13906     13904     13907     13907     13908     13907     13909
     13907     13910     13910     13911     13910     13912     13910     13913
     13913     13914     13913     13915     13913     13916     13916     13917
     13916     13918     13916     13919     13919     13920     13919     13921
     13919     13922     13922     13923     13922     13924     13922     13925
     13925     13926     13925     13927     13925     13928     13929     13930
     13929     13931     13929     13932     13929     13933     13933     13934
     13933     13935     13933     13936     13936     13937     13936     13938
     13936     13943     13943     13939     13939     13942     13939     13940
     13939     13941     13944     13945     13944     13946     13944     13947
     13944     13942     13947     13948     13947     13955     13947     13949
     13955     13956     13955     13957     13955     13958     13949     13950
     13950     13952     13950     13951     13952     13953     13952     13954
     13952     13964     13964     13965     13964     13966     13964     13967
     13967     13968     13967     13969     13967     13970     13970     13971
     13970     13972     13970     13973     13973     13974     13973     13975
     13973     13976     13976     13977     13976     13978     13976     13979
     13979     13980     13979     13981     13979     13982     13982     13983
     13982     13987     13982     13984     13987     13988     13987     13989
     13987     13984     13989     13990     13989     13991     13989     13992
     13992     13993     13992     13994     13992     13995     13995     13996
     13995     13997     13995     13998     13998     13999     13998     14000
     13998     14001     14001     14002     14001     14003     14001     14004
     14004     14005     14004     14006     14004     14007     13984     13985
     13984     13986     13958     13959     13959     13961     13959     13960
     13961     13962     13961     13963     13961     14008     14008     14009
     14008     14010     14008     14011     14011     14012     14011     14013
     14011     14014     14014     14015     14014     14016     14014     14017
     14017     14018     14017     14019     14017     14020     14020     14021
     14020     14022     14020     14023     14023     14024     14023     14025
     14023     14026     14026     14027     14026     14028     14026     14029
     14029     14030     14029     14031     14029     14032     14032     14033
     14032     14034     14032     14035     14035     14036     14035     14037
     14035     14038     14038     14039     14038     14040     14038     14041
     14041     14042     14041     14043     14041     14044     14044     14045
     14044     14046     14044     14047     14047     14048     14047     14049
     14047     14050     14066     14062     14066     14067     14066     14068
     14062     14064     14062     14063     14064     14065     14062     14051
     14051     14052     14051     14053     14066     14072     14051     14057
     14069     14072     14069     14073     14069     14070     14069     14071
     14054     14057     14054     14058     14054     14055     14054     14056
     14073     14074     14074     14075     14074     14076     14074     14077
     14077     14078     14077     14079     14077     14085     14085     14086
     14085     14087     14085     14088     14058     14059     14059     14060
     14059     14061     14059     14094     14094     14095     14094     14096
     14094     14102     14102     14103     14102     14104     14102     14105
     14079     14080     14088     14089     14096     14097     14105     14106
     14080     14081     14080     14082     14082     14083     14082     14084
     14082     14111     14111     14112     14111     14113     14111     14114
     14114     14115     14114     14116     14114     14117     14117     14118
     14117     14119     14117     14120     14120     14121     14120     14122
     14120     14123     14123     14124     14123     14125     14123     14126
     14126     14127     14126     14128     14126     14129     14129     14130
     14129     14131     14129     14132     14132     14133     14132     14134
     14132     14135     14135     14136     14135     14137     14137     14138
     14137     14139     14139     14140     14139     14141     14139     14142
     14142     14143     14142     14144     14142     14145     14145     14146
     14145     14147     14145     14148     14148     14149     14148     14150
     14148     14151     14151     14152     14151     14153     14151     14154
     14154     14155     14154     14156     14154     14157     14089     14090
     14089     14091     14091     14092     14091     14093     14091     14158
     14158     14159     14158     14160     14158     14161     14161     14162
     14161     14163     14161     14164     14164     14165     14164     14166
     14164     14167     14167     14168     14167     14169     14167     14170
     14170     14171     14170     14172     14170     14173     14173     14174
     14173     14175     14173     14176     14176     14177     14176     14178
     14176     14179     14179     14180     14179     14181     14179     14182
     14182     14183     14182     14184     14182     14185     14185     14186
     14185     14187     14185     14188     14188     14189     14188     14190
     14188     14191     14191     14192     14191     14193     14191     14194
     14194     14195     14194     14196     14194     14197     14197     14198
     14197     14199     14197     14200     14097     14098     14097     14099
     14099     14100     14099     14101     14099     14201     14201     14202
     14201     14203     14201     14204     14204     14205     14204     14206
     14204     14207     14207     14208     14207     14209     14207     14210
     14210     14211     14210     14212     14210     14213     14213     14214
     14213     14215     14213     14216     14216     14217     14216     14218
     14216     14219     14219     14220     14219     14221     14219     14222
     14222     14223     14222     14224     14222     14225     14225     14226
     14225     14227     14227     14228     14227     14229     14229     14230
     14229     14231     14229     14232     14232     14233     14232     14234
     14232     14235     14235     14236     14235     14237     14235     14238
     14238     14239     14238     14240     14238     14241     14241     14242
     14241     14243     14241     14244     14244     14245     14244     14246
     14244     14247     14106     14107     14106     14108     14108     14109
     14108     14110     14108     14248     14248     14249     14248     14250
     14248     14251     14251     14252     14251     14253     14251     14254
     14254     14255     14254     14256     14254     14257     14257     14258
     14257     14259     14257     14260     14260     14261     14260     14262
     14260     14263     14263     14264     14263     14265     14263     14266
     14266     14267     14266     14268     14266     14269     14269     14270
     14269     14271     14269     14272     14272     14273     14272     14274
     14272     14275     14275     14276     14275     14277     14275     14278
     14278     14279     14278     14280     14278     14281     14281     14282
     14281     14283     14281     14284     14284     14285     14284     14286
     14284     14287     14287     14288     14287     14289     14287     14290
     14295     14294     14294     14291     14291     14292     14291     14293
     14291     14296     14299     14298     14298     14296     14296     14297
     14296     14300     14300     14301     14300     14302     14300     14307
     14307     14303     14303     14306     14303     14304     14303     14305
     14308     14309     14308     14310     14308     14311     14308     14306
     14311     14312     14311     14319     14311     14313     14319     14320
     14319     14321     14319     14322     14313     14314     14314     14316
     14314     14315     14316     14317     14316     14318     14316     14328
     14328     14329     14328     14330     14328     14331     14331     14332
     14331     14333     14331     14334     14334     14335     14334     14336
     14334     14337     14337     14338     14337     14339     14337     14340
     14340     14341     14340     14342     14340     14343     14343     14344
     14343     14345     14343     14346     14346     14347     14346     14351
     14346     14348     14351     14352     14351     14353     14351     14348
     14353     14354     14353     14355     14353     14356     14356     14357
     14356     14358     14356     14359     14359     14360     14359     14361
     14359     14362     14362     14363     14362     14364     14362     14365
     14365     14366     14365     14367     14365     14368     14368     14369
     14368     14370     14368     14371     14348     14349     14348     14350
     14322     14323     14323     14325     14323     14324     14325     14326
     14325     14327     14325     14372     14372     14373     14372     14374
     14372     14375     14375     14376     14375     14377     14375     14378
     14378     14379     14378     14380     14378     14381     14381     14382
     14381     14383     14381     14384     14384     14385     14384     14386
     14384     14387     14387     14388     14387     14389     14387     14390
     14390     14391     14390     14392     14390     14393     14393     14394
     14393     14395     14393     14396     14396     14397     14396     14398
     14396     14399     14399     14400     14399     14401     14399     14402
     14402     14403     14402     14404     14402     14405     14405     14406
     14405     14407     14405     14408     14408     14409     14408     14410
     14408     14411     14411     14412     14411     14413     14411     14414
     14430     14426     14430     14431     14430     14432     14426     14428
     14426     14427     14428     14429     14426     14415     14415     14416
     14415     14417     14430     14436     14415     14421     14433     14436
     14433     14437     14433     14434     14433     14435     14418     14421
     14418     14422     14418     14419     14418     14420     14437     14438
     14438     14439     14438     14440     14438     14441     14441     14442
     14441     14443     14441     14449     14449     14450     14449     14451
     14449     14452     14422     14423     14423     14424     14423     14425
     14423     14458     14458     14459     14458     14460     14458     14466
     14466     14467     14466     14468     14466     14469     14443     14444
     14452     14453     14460     14461     14469     14470     14444     14445
     14444     14446     14446     14447     14446     14448     14446     14475
     14475     14476     14475     14477     14475     14478     14478     14479
     14478     14480     14478     14481     14481     14482     14481     14483
     14481     14484     14484     14485     14484     14486     14484     14487
     14487     14488     14487     14489     14487     14490     14490     14491
     14490     14492     14490     14493     14493     14494     14493     14495
     14493     14496     14496     14497     14496     14498     14496     14499
     14499     14500     14499     14501     14501     14502     14501     14503
     14503     14504     14503     14505     14503     14506     14506     14507
     14506     14508     14506     14509     14509     14510     14509     14511
     14509     14512     14512     14513     14512     14514     14512     14515
     14515     14516     14515     14517     14515     14518     14518     14519
     14518     14520     14518     14521     14453     14454     14453     14455
     14455     14456     14455     14457     14455     14522     14522     14523
     14522     14524     14522     14525     14525     14526     14525     14527
     14525     14528     14528     14529     14528     14530     14528     14531
     14531     14532     14531     14533     14531     14534     14534     14535
     14534     14536     14534     14537     14537     14538     14537     14539
     14537     14540     14540     14541     14540     14542     14540     14543
     14543     14544     14543     14545     14543     14546     14546     14547
     14546     14548     14546     14549     14549     14550     14549     14551
     14549     14552     14552     14553     14552     14554     14552     14555
     14555     14556     14555     14557     14555     14558     14558     14559
     14558     14560     14558     14561     14561     14562     14561     14563
     14561     14564     14461     14462     14461     14463     14463     14464
     14463     14465     14463     14565     14565     14566     14565     14567
     14565     14568     14568     14569     14568     14570     14568     14571
     14571     14572     14571     14573     14571     14574     14574     14575
     14574     14576     14574     14577     14577     14578     14577     14579
     14577     14580     14580     14581     14580     14582     14580     14583
     14583     14584     14583     14585     14583     14586     14586     14587
     14586     14588     14586     14589     14589     14590     14589     14591
     14591     14592     14591     14593     14593     14594     14593     14595
     14593     14596     14596     14597     14596     14598     14596     14599
     14599     14600     14599     14601     14599     14602     14602     14603
     14602     14604     14602     14605     14605     14606     14605     14607
     14605     14608     14608     14609     14608     14610     14608     14611
     14470     14471     14470     14472     14472     14473     14472     14474
     14472     14612     14612     14613     14612     14614     14612     14615
     14615     14616     14615     14617     14615     14618     14618     14619
     14618     14620     14618     14621     14621     14622     14621     14623
     14621     14624     14624     14625     14624     14626     14624     14627
     14627     14628     14627     14629     14627     14630     14630     14631
     14630     14632     14630     14633     14633     14634     14633     14635
     14633     14636     14636     14637     14636     14638     14636     14639
     14639     14640     14639     14641     14639     14642     14642     14643
     14642     14644     14642     14645     14645     14646     14645     14647
     14645     14648     14648     14649     14648     14650     14648     14651
     14651     14652     14651     14653     14651     14654     14655     14656
     14655     14657     14655     14658     14655     14659     14659     14660
     14659     14661     14659     14662     14662     14663     14662     14664
     14662     14669     14669     14665     14665     14668     14665     14666
     14665     14667     14670     14671     14670     14672     14670     14673
     14670     14668     14673     14674     14673     14681     14673     14675
     14681     14682     14681     14683     14681     14684     14675     14676
     14676     14678     14676     14677     14678     14679     14678     14680
     14678     14690     14690     14691     14690     14692     14690     14693
     14693     14694     14693     14695     14693     14696     14696     14697
     14696     14698     14696     14699     14699     14700     14699     14701
     14699     14702     14702     14703     14702     14704     14702     14705
     14705     14706     14705     14707     14705     14708     14708     14709
     14708     14713     14708     14710     14713     14714     14713     14715
     14713     14710     14715     14716     14715     14717     14715     14718
     14718     14719     14718     14720     14718     14721     14721     14722
     14721     14723     14721     14724     14724     14725     14724     14726
     14724     14727     14727     14728     14727     14729     14727     14730
     14730     14731     14730     14732     14730     14733     14710     14711
     14710     14712     14684     14685     14685     14687     14685     14686
     14687     14688     14687     14689     14687     14734     14734     14735
     14734     14736     14734     14737     14737     14738     14737     14739
     14737     14740     14740     14741     14740     14742     14740     14743
     14743     14744     14743     14745     14743     14746     14746     14747
     14746     14748     14746     14749     14749     14750     14749     14751
     14749     14752     14752     14753     14752     14754     14752     14755
     14755     14756     14755     14757     14755     14758     14758     14759
     14758     14760     14758     14761     14761     14762     14761     14763
     14761     14764     14764     14765     14764     14766     14764     14767
     14767     14768     14767     14769     14767     14770     14770     14771
     14770     14772     14770     14773     14773     14774     14773     14775
     14773     14776     14777     14778     14777     14779     14777     14780
     14777     14781     14781     14782     14781     14783     14781     14784
     14784     14785     14784     14786     14784     14791     14791     14787
     14787     14790     14787     14788     14787     14789     14792     14793
     14792     14794     14792     14795     14792     14790     14795     14796
     14795     14803     14795     14797     14803     14804     14803     14805
     14803     14806     14797     14798     14798     14800     14798     14799
     14800     14801     14800     14802     14800     14812     14812     14813
     14812     14814     14812     14815     14815     14816     14815     14817
     14815     14818     14818     14819     14818     14820     14818     14821
     14821     14822     14821     14823     14821     14824     14824     14825
     14824     14826     14824     14827     14827     14828     14827     14829
     14827     14830     14830     14831     14830     14835     14830     14832
     14835     14836     14835     14837     14835     14832     14837     14838
     14837     14839     14837     14840     14840     14841     14840     14842
     14840     14843     14843     14844     14843     14845     14843     14846
     14846     14847     14846     14848     14846     14849     14849     14850
     14849     14851     14849     14852     14852     14853     14852     14854
     14852     14855     14832     14833     14832     14834     14806     14807
     14807     14809     14807     14808     14809     14810     14809     14811
     14809     14856     14856     14857     14856     14858     14856     14859
     14859     14860     14859     14861     14859     14862     14862     14863
     14862     14864     14862     14865     14865     14866     14865     14867
     14865     14868     14868     14869     14868     14870     14868     14871
     14871     14872     14871     14873     14871     14874     14874     14875
     14874     14876     14874     14877     14877     14878     14877     14879
     14877     14880     14880     14881     14880     14882     14880     14883
     14883     14884     14883     14885     14883     14886     14886     14887
     14886     14888     14886     14889     14889     14890     14889     14891
     14889     14892     14892     14893     14892     14894     14892     14895
     14895     14896     14895     14897     14895     14898     14899     14900
     14899     14901     14899     14902     14899     14903     14903     14904
     14903     14905     14903     14906     14906     14907     14906     14908
     14906     14913     14913     14909     14909     14912     14909     14910
     14909     14911     14914     14915     14914     14916     14914     14917
     14914     14912     14917     14918     14917     14925     14917     14919
     14925     14926     14925     14927     14925     14928     14919     14920
     14920     14922     14920     14921     14922     14923     14922     14924
     14922     14934     14934     14935     14934     14936     14934     14937
     14937     14938     14937     14939     14937     14940     14940     14941
     14940     14942     14940     14943     14943     14944     14943     14945
     14943     14946     14946     14947     14946     14948     14946     14949
     14949     14950     14949     14951     14949     14952     14952     14953
     14952     14957     14952     14954     14957     14958     14957     14959
     14957     14954     14959     14960     14959     14961     14959     14962
     14962     14963     14962     14964     14962     14965     14965     14966
     14965     14967     14965     14968     14968     14969     14968     14970
     14968     14971     14971     14972     14971     14973     14971     14974
     14974     14975     14974     14976     14974     14977     14954     14955
     14954     14956     14928     14929     14929     14931     14929     14930
     14931     14932     14931     14933     14931     14978     14978     14979
     14978     14980     14978     14981     14981     14982     14981     14983
     14981     14984     14984     14985     14984     14986     14984     14987
     14987     14988     14987     14989     14987     14990     14990     14991
     14990     14992     14990     14993     14993     14994     14993     14995
     14993     14996     14996     14997     14996     14998     14996     14999
     14999     15000     14999     15001     14999     15002     15002     15003
     15002     15004     15002     15005     15005     15006     15005     15007
     15005     15008     15008     15009     15008     15010     15008     15011
     15011     15012     15011     15013     15011     15014     15014     15015
     15014     15016     15014     15017     15017     15018     15017     15019
     15017     15020     15021     15022     15021     15023     15021     15024
     15021     15025     15025     15026     15025     15027     15025     15028
     15028     15029     15028     15030     15028     15035     15035     15031
     15031     15034     15031     15032     15031     15033     15036     15037
     15036     15038     15036     15039     15036     15034     15039     15040
     15039     15047     15039     15041     15047     15048     15047     15049
     15047     15050     15041     15042     15042     15044     15042     15043
     15044     15045     15044     15046     15044     15056     15056     15057
     15056     15058     15056     15059     15059     15060     15059     15061
     15059     15062     15062     15063     15062     15064     15062     15065
     15065     15066     15065     15067     15065     15068     15068     15069
     15068     15070     15068     15071     15071     15072     15071     15073
     15071     15074     15074     15075     15074     15079     15074     15076
     15079     15080     15079     15081     15079     15076     15081     15082
     15081     15083     15081     15084     15084     15085     15084     15086
     15084     15087     15087     15088     15087     15089     15087     15090
     15090     15091     15090     15092     15090     15093     15093     15094
     15093     15095     15093     15096     15096     15097     15096     15098
     15096     15099     15076     15077     15076     15078     15050     15051
     15051     15053     15051     15052     15053     15054     15053     15055
     15053     15100     15100     15101     15100     15102     15100     15103
     15103     15104     15103     15105     15103     15106     15106     15107
     15106     15108     15106     15109     15109     15110     15109     15111
     15109     15112     15112     15113     15112     15114     15112     15115
     15115     15116     15115     15117     15115     15118     15118     15119
     15118     15120     15118     15121     15121     15122     15121     15123
     15121     15124     15124     15125     15124     15126     15124     15127
     15127     15128     15127     15129     15127     15130     15130     15131
     15130     15132     15130     15133     15133     15134     15133     15135
     15133     15136     15136     15137     15136     15138     15136     15139
     15139     15140     15139     15141     15139     15142     15143     15144
     15143     15145     15143     15146     15143     15147     15147     15148
     15147     15149     15147     15150     15150     15151     15150     15152
     15150     15157     15157     15153     15153     15156     15153     15154
     15153     15155     15158     15159     15158     15160     15158     15161
     15158     15156     15161     15162     15161     15169     15161     15163
     15169     15170     15169     15171     15169     15172     15163     15164
     15164     15166     15164     15165     15166     15167     15166     15168
     15166     15178     15178     15179     15178     15180     15178     15181
     15181     15182     15181     15183     15181     15184     15184     15185
     15184     15186     15184     15187     15187     15188     15187     15189
     15187     15190     15190     15191     15190     15192     15190     15193
     15193     15194     15193     15195     15193     15196     15196     15197
     15196     15198     15198     15199     15198     15200     15200     15201
     15200     15202     15200     15203     15203     15204     15203     15205
     15203     15206     15206     15207     15206     15208     15206     15209
     15209     15210     15209     15211     15209     15212     15212     15213
     15212     15214     15212     15215     15215     15216     15215     15217
     15215     15218     15218     15219     15218     15220     15218     15221
     15221     15222     15221     15223     15221     15224     15172     15173
     15173     15175     15173     15174     15175     15176     15175     15177
     15175     15225     15225     15226     15225     15227     15225     15228
     15228     15229     15228     15230     15228     15231     15231     15232
     15231     15233     15231     15234     15234     15235     15234     15236
     15234     15237     15237     15238     15237     15239     15237     15240
     15240     15241     15240     15242     15240     15243     15243     15244
     15243     15245     15243     15246     15246     15247     15246     15248
     15246     15249     15249     15250     15249     15251     15249     15252
     15252     15253     15252     15254     15252     15255     15255     15256
     15255     15257     15255     15258     15258     15259     15258     15260
     15258     15261     15261     15262     15261     15263     15261     15264
     15264     15265     15264     15266     15264     15267     15268     15269
     15268     15270     15268     15271     15268     15272     15272     15273
     15272     15274     15272     15275     15275     15276     15275     15277
     15275     15282     15282     15278     15278     15281     15278     15279
     15278     15280     15283     15284     15283     15285     15283     15286
     15283     15281     15286     15287     15286     15294     15286     15288
     15294     15295     15294     15296     15294     15297     15288     15289
     15289     15291     15289     15290     15291     15292     15291     15293
     15291     15303     15303     15304     15303     15305     15303     15306
     15306     15307     15306     15308     15306     15309     15309     15310
     15309     15311     15309     15312     15312     15313     15312     15314
     15312     15315     15315     15316     15315     15317     15315     15318
     15318     15319     15318     15320     15318     15321     15321     15322
     15321     15326     15321     15323     15326     15327     15326     15328
     15326     15323     15328     15329     15328     15330     15328     15331
     15331     15332     15331     15333     15331     15334     15334     15335
     15334     15336     15334     15337     15337     15338     15337     15339
     15337     15340     15340     15341     15340     15342     15340     15343
     15343     15344     15343     15345     15343     15346     15323     15324
     15323     15325     15297     15298     15298     15300     15298     15299
     15300     15301     15300     15302     15300     15347     15347     15348
     15347     15349     15347     15350     15350     15351     15350     15352
     15350     15353     15353     15354     15353     15355     15353     15356
     15356     15357     15356     15358     15356     15359     15359     15360
     15359     15361     15359     15362     15362     15363     15362     15364
     15362     15365     15365     15366     15365     15367     15365     15368
     15368     15369     15368     15370     15368     15371     15371     15372
     15371     15373     15371     15374     15374     15375     15374     15376
     15374     15377     15377     15378     15377     15379     15377     15380
     15380     15381     15380     15382     15380     15383     15383     15384
     15383     15385     15383     15386     15386     15387     15386     15388
     15386     15389     15390     15391     15390     15392     15390     15393
     15390     15394     15394     15395     15394     15396     15394     15397
     15397     15398     15397     15399     15397     15404     15404     15400
     15400     15403     15400     15401     15400     15402     15405     15406
     15405     15407     15405     15408     15405     15403     15408     15409
     15408     15416     15408     15410     15416     15417     15416     15418
     15416     15419     15410     15411     15411     15413     15411     15412
     15413     15414     15413     15415     15413     15425     15425     15426
     15425     15427     15425     15428     15428     15429     15428     15430
     15428     15431     15431     15432     15431     15433     15431     15434
     15434     15435     15434     15436     15434     15437     15437     15438
     15437     15439     15437     15440     15440     15441     15440     15442
     15440     15443     15443     15444     15443     15448     15443     15445
     15448     15449     15448     15450     15448     15445     15450     15451
     15450     15452     15450     15453     15453     15454     15453     15455
     15453     15456     15456     15457     15456     15458     15456     15459
     15459     15460     15459     15461     15459     15462     15462     15463
     15462     15464     15462     15465     15465     15466     15465     15467
     15465     15468     15445     15446     15445     15447     15419     15420
     15420     15422     15420     15421     15422     15423     15422     15424
     15422     15469     15469     15470     15469     15471     15469     15472
     15472     15473     15472     15474     15472     15475     15475     15476
     15475     15477     15475     15478     15478     15479     15478     15480
     15478     15481     15481     15482     15481     15483     15481     15484
     15484     15485     15484     15486     15484     15487     15487     15488
     15487     15489     15487     15490     15490     15491     15490     15492
     15490     15493     15493     15494     15493     15495     15493     15496
     15496     15497     15496     15498     15496     15499     15499     15500
     15499     15501     15499     15502     15502     15503     15502     15504
     15502     15505     15505     15506     15505     15507     15505     15508
     15508     15509     15508     15510     15508     15511     15516     15515
     15515     15512     15512     15513     15512     15514     15512     15517
     15520     15519     15519     15517     15517     15518     15517     15521
     15521     15522     15521     15523     15521     15528     15528     15524
     15524     15527     15524     15525     15524     15526     15529     15530
     15529     15531     15529     15532     15529     15527     15532     15533
     15532     15540     15532     15534     15540     15541     15540     15542
     15540     15543     15534     15535     15535     15537     15535     15536
     15537     15538     15537     15539     15537     15549     15549     15550
     15549     15551     15549     15552     15552     15553     15552     15554
     15552     15555     15555     15556     15555     15557     15555     15558
     15558     15559     15558     15560     15558     15561     15561     15562
     15561     15563     15561     15564     15564     15565     15564     15566
     15564     15567     15567     15568     15567     15572     15567     15569
     15572     15573     15572     15574     15572     15569     15574     15575
     15574     15576     15574     15577     15577     15578     15577     15579
     15577     15580     15580     15581     15580     15582     15580     15583
     15583     15584     15583     15585     15583     15586     15586     15587
     15586     15588     15586     15589     15589     15590     15589     15591
     15589     15592     15569     15570     15569     15571     15543     15544
     15544     15546     15544     15545     15546     15547     15546     15548
     15546     15593     15593     15594     15593     15595     15593     15596
     15596     15597     15596     15598     15596     15599     15599     15600
     15599     15601     15599     15602     15602     15603     15602     15604
     15602     15605     15605     15606     15605     15607     15605     15608
     15608     15609     15608     15610     15608     15611     15611     15612
     15611     15613     15611     15614     15614     15615     15614     15616
     15614     15617     15617     15618     15617     15619     15617     15620
     15620     15621     15620     15622     15620     15623     15623     15624
     15623     15625     15623     15626     15626     15627     15626     15628
     15626     15629     15629     15630     15629     15631     15629     15632
     15632     15633     15632     15634     15632     15635     15636     15637
     15636     15638     15636     15639     15636     15640     15640     15641
     15640     15642     15640     15643     15643     15644     15643     15645
     15643     15650     15650     15646     15646     15649     15646     15647
     15646     15648     15651     15652     15651     15653     15651     15654
     15651     15649     15654     15655     15654     15662     15654     15656
     15662     15663     15662     15664     15662     15665     15656     15657
     15657     15659     15657     15658     15659     15660     15659     15661
     15659     15671     15671     15672     15671     15673     15671     15674
     15674     15675     15674     15676     15674     15677     15677     15678
     15677     15679     15677     15680     15680     15681     15680     15682
     15680     15683     15683     15684     15683     15685     15683     15686
     15686     15687     15686     15688     15686     15689     15689     15690
     15689     15694     15689     15691     15694     15695     15694     15696
     15694     15691     15696     15697     15696     15698     15696     15699
     15699     15700     15699     15701     15699     15702     15702     15703
     15702     15704     15702     15705     15705     15706     15705     15707
     15705     15708     15708     15709     15708     15710     15708     15711
     15711     15712     15711     15713     15711     15714     15691     15692
     15691     15693     15665     15666     15666     15668     15666     15667
     15668     15669     15668     15670     15668     15715     15715     15716
     15715     15717     15715     15718     15718     15719     15718     15720
     15718     15721     15721     15722     15721     15723     15721     15724
     15724     15725     15724     15726     15724     15727     15727     15728
     15727     15729     15727     15730     15730     15731     15730     15732
     15730     15733     15733     15734     15733     15735     15733     15736
     15736     15737     15736     15738     15736     15739     15739     15740
     15739     15741     15739     15742     15742     15743     15742     15744
     15742     15745     15745     15746     15745     15747     15745     15748
     15748     15749     15748     15750     15748     15751     15751     15752
     15751     15753     15751     15754     15754     15755     15754     15756
     15754     15757     15758     15759     15758     15760     15758     15761
     15758     15762     15762     15763     15762     15764     15762     15765
     15765     15766     15765     15767     15765     15772     15772     15768
     15768     15771     15768     15769     15768     15770     15773     15774
     15773     15775     15773     15776     15773     15771     15776     15777
     15776     15784     15776     15778     15784     15785     15784     15786
     15784     15787     15778     15779     15779     15781     15779     15780
     15781     15782     15781     15783     15781     15793     15793     15794
     15793     15795     15793     15796     15796     15797     15796     15798
     15796     15799     15799     15800     15799     15801     15799     15802
     15802     15803     15802     15804     15802     15805     15805     15806
     15805     15807     15805     15808     15808     15809     15808     15810
     15808     15811     15811     15812     15811     15816     15811     15813
     15816     15817     15816     15818     15816     15813     15818     15819
     15818     15820     15818     15821     15821     15822     15821     15823
     15821     15824     15824     15825     15824     15826     15824     15827
     15827     15828     15827     15829     15827     15830     15830     15831
     15830     15832     15830     15833     15833     15834     15833     15835
     15833     15836     15813     15814     15813     15815     15787     15788
     15788     15790     15788     15789     15790     15791     15790     15792
     15790     15837     15837     15838     15837     15839     15837     15840
     15840     15841     15840     15842     15840     15843     15843     15844
     15843     15845     15843     15846     15846     15847     15846     15848
     15846     15849     15849     15850     15849     15851     15849     15852
     15852     15853     15852     15854     15852     15855     15855     15856
     15855     15857     15855     15858     15858     15859     15858     15860
     15858     15861     15861     15862     15861     15863     15861     15864
     15864     15865     15864     15866     15864     15867     15867     15868
     15867     15869     15867     15870     15870     15871     15870     15872
     15870     15873     15873     15874     15873     15875     15873     15876
     15881     15880     15880     15877     15877     15878     15877     15879
     15877     15882     15885     15884     15884     15882     15882     15883
     15882     15886     15886     15887     15886     15888     15886     15893
     15893     15889     15889     15892     15889     15890     15889     15891
     15894     15895     15894     15896     15894     15897     15894     15892
     15897     15898     15897     15905     15897     15899     15905     15906
     15905     15907     15905     15908     15899     15900     15900     15902
     15900     15901     15902     15903     15902     15904     15902     15914
     15914     15915     15914     15916     15914     15917     15917     15918
     15917     15919     15917     15920     15920     15921     15920     15922
     15920     15923     15923     15924     15923     15925     15923     15926
     15926     15927     15926     15928     15926     15929     15929     15930
     15929     15931     15929     15932     15932     15933     15932     15934
     15934     15935     15934     15936     15936     15937     15936     15938
     15936     15939     15939     15940     15939     15941     15939     15942
     15942     15943     15942     15944     15942     15945     15945     15946
     15945     15947     15945     15948     15948     15949     15948     15950
     15948     15951     15951     15952     15951     15953     15951     15954
     15908     15909     15909     15911     15909     15910     15911     15912
     15911     15913     15911     15955     15955     15956     15955     15957
     15955     15958     15958     15959     15958     15960     15958     15961
     15961     15962     15961     15963     15961     15964     15964     15965
     15964     15966     15964     15967     15967     15968     15967     15969
     15967     15970     15970     15971     15970     15972     15970     15973
     15973     15974     15973     15975     15973     15976     15976     15977
     15976     15978     15976     15979     15979     15980     15979     15981
     15979     15982     15982     15983     15982     15984     15982     15985
     15985     15986     15985     15987     15985     15988     15988     15989
     15988     15990     15988     15991     15991     15992     15991     15993
     15991     15994     15994     15995     15994     15996     15994     15997
     16002     16001     16001     15998     15998     15999     15998     16000
     15998     16003     16006     16005     16005     16003     16003     16004
     16003     16007     16007     16008     16007     16009     16007     16014
     16014     16010     16010     16013     16010     16011     16010     16012
     16015     16016     16015     16017     16015     16018     16015     16013
     16018     16019     16018     16026     16018     16020     16026     16027
     16026     16028     16026     16029     16020     16021     16021     16023
     16021     16022     16023     16024     16023     16025     16023     16035
     16035     16036     16035     16037     16035     16038     16038     16039
     16038     16040     16038     16041     16041     16042     16041     16043
     16041     16044     16044     16045     16044     16046     16044     16047
     16047     16048     16047     16049     16047     16050     16050     16051
     16050     16052     16050     16053     16053     16054     16053     16055
     16055     16056     16055     16057     16057     16058     16057     16059
     16057     16060     16060     16061     16060     16062     16060     16063
     16063     16064     16063     16065     16063     16066     16066     16067
     16066     16068     16066     16069     16069     16070     16069     16071
     16069     16072     16072     16073     16072     16074     16072     16075
     16029     16030     16030     16032     16030     16031     16032     16033
     16032     16034     16032     16076     16076     16077     16076     16078
     16076     16079     16079     16080     16079     16081     16079     16082
     16082     16083     16082     16084     16082     16085     16085     16086
     16085     16087     16085     16088     16088     16089     16088     16090
     16088     16091     16091     16092     16091     16093     16091     16094
     16094     16095     16094     16096     16094     16097     16097     16098
     16097     16099     16097     16100     16100     16101     16100     16102
     16100     16103     16103     16104     16103     16105     16103     16106
     16106     16107     16106     16108     16106     16109     16109     16110
     16109     16111     16109     16112     16112     16113     16112     16114
     16112     16115     16115     16116     16115     16117     16115     16118
     16119     16120     16119     16121     16119     16122     16119     16123
     16123     16124     16123     16125     16123     16126     16126     16127
     16126     16128     16126     16133     16133     16129     16129     16132
     16129     16130     16129     16131     16134     16135     16134     16136
     16134     16137     16134     16132     16137     16138     16137     16145
     16137     16139     16145     16146     16145     16147     16145     16148
     16139     16140     16140     16142     16140     16141     16142     16143
     16142     16144     16142     16154     16154     16155     16154     16156
     16154     16157     16157     16158     16157     16159     16157     16160
     16160     16161     16160     16162     16160     16163     16163     16164
     16163     16165     16163     16166     16166     16167     16166     16168
     16166     16169     16169     16170     16169     16171     16169     16172
     16172     16173     16172     16177     16172     16174     16177     16178
     16177     16179     16177     16174     16179     16180     16179     16181
     16179     16182     16182     16183     16182     16184     16182     16185
     16185     16186     16185     16187     16185     16188     16188     16189
     16188     16190     16188     16191     16191     16192     16191     16193
     16191     16194     16194     16195     16194     16196     16194     16197
     16174     16175     16174     16176     16148     16149     16149     16151
     16149     16150     16151     16152     16151     16153     16151     16198
     16198     16199     16198     16200     16198     16201     16201     16202
     16201     16203     16201     16204     16204     16205     16204     16206
     16204     16207     16207     16208     16207     16209     16207     16210
     16210     16211     16210     16212     16210     16213     16213     16214
     16213     16215     16213     16216     16216     16217     16216     16218
     16216     16219     16219     16220     16219     16221     16219     16222
     16222     16223     16222     16224     16222     16225     16225     16226
     16225     16227     16225     16228     16228     16229     16228     16230
     16228     16231     16231     16232     16231     16233     16231     16234
     16234     16235     16234     16236     16234     16237     16237     16238
     16237     16239     16237     16240     16241     16242     16241     16243
     16241     16244     16241     16245     16245     16246     16245     16247
     16245     16248     16248     16249     16248     16250     16248     16255
     16255     16251     16251     16254     16251     16252     16251     16253
     16256     16257     16256     16258     16256     16259     16256     16254
     16259     16260     16259     16267     16259     16261     16267     16268
     16267     16269     16267     16270     16261     16262     16262     16264
     16262     16263     16264     16265     16264     16266     16264     16276
     16276     16277     16276     16278     16276     16279     16279     16280
     16279     16281     16279     16282     16282     16283     16282     16284
     16282     16285     16285     16286     16285     16287     16285     16288
     16288     16289     16288     16290     16288     16291     16291     16292
     16291     16293     16291     16294     16294     16295     16294     16296
     16296     16297     16296     16298     16298     16299     16298     16300
     16298     16301     16301     16302     16301     16303     16301     16304
     16304     16305     16304     16306     16304     16307     16307     16308
     16307     16309     16307     16310     16310     16311     16310     16312
     16310     16313     16313     16314     16313     16315     16313     16316
     16316     16317     16316     16318     16316     16319     16319     16320
     16319     16321     16319     16322     16270     16271     16271     16273
     16271     16272     16273     16274     16273     16275     16273     16323
     16323     16324     16323     16325     16323     16326     16326     16327
     16326     16328     16326     16329     16329     16330     16329     16331
     16329     16332     16332     16333     16332     16334     16332     16335
     16335     16336     16335     16337     16335     16338     16338     16339
     16338     16340     16338     16341     16341     16342     16341     16343
     16341     16344     16344     16345     16344     16346     16344     16347
     16347     16348     16347     16349     16347     16350     16350     16351
     16350     16352     16350     16353     16353     16354     16353     16355
     16353     16356     16356     16357     16356     16358     16356     16359
     16359     16360     16359     16361     16359     16362     16362     16363
     16362     16364     16362     16365     16366     16367     16366     16368
     16366     16369     16366     16370     16370     16371     16370     16372
     16370     16373     16373     16374     16373     16375     16373     16380
     16380     16376     16376     16379     16376     16377     16376     16378
     16381     16382     16381     16383     16381     16384     16381     16379
     16384     16385     16384     16392     16384     16386     16392     16393
     16392     16394     16392     16395     16386     16387     16387     16389
     16387     16388     16389     16390     16389     16391     16389     16401
     16401     16402     16401     16403     16401     16404     16404     16405
     16404     16406     16404     16407     16407     16408     16407     16409
     16407     16410     16410     16411     16410     16412     16410     16413
     16413     16414     16413     16415     16413     16416     16416     16417
     16416     16418     16416     16419     16419     16420     16419     16421
     16421     16422     16421     16423     16423     16424     16423     16425
     16423     16426     16426     16427     16426     16428     16426     16429
     16429     16430     16429     16431     16429     16432     16432     16433
     16432     16434     16432     16435     16435     16436     16435     16437
     16435     16438     16438     16439     16438     16440     16438     16441
     16441     16442     16441     16443     16441     16444     16444     16445
     16444     16446     16444     16447     16395     16396     16396     16398
     16396     16397     16398     16399     16398     16400     16398     16448
     16448     16449     16448     16450     16448     16451     16451     16452
     16451     16453     16451     16454     16454     16455     16454     16456
     16454     16457     16457     16458     16457     16459     16457     16460
     16460     16461     16460     16462     16460     16463     16463     16464
     16463     16465     16463     16466     16466     16467     16466     16468
     16466     16469     16469     16470     16469     16471     16469     16472
     16472     16473     16472     16474     16472     16475     16475     16476
     16475     16477     16475     16478     16478     16479     16478     16480
     16478     16481     16481     16482     16481     16483     16481     16484
     16484     16485     16484     16486     16484     16487     16487     16488
     16487     16489     16487     16490     16491     16492     16491     16493
     16491     16494     16491     16495     16495     16496     16495     16497
     16495     16498     16498     16499     16498     16500     16498     16505
     16505     16501     16501     16504     16501     16502     16501     16503
     16506     16507     16506     16508     16506     16509     16506     16504
     16509     16510     16509     16517     16509     16511     16517     16518
     16517     16519     16517     16520     16511     16512     16512     16514
     16512     16513     16514     16515     16514     16516     16514     16526
     16526     16527     16526     16528     16526     16529     16529     16530
     16529     16531     16529     16532     16532     16533     16532     16534
     16532     16535     16535     16536     16535     16537     16535     16538
     16538     16539     16538     16540     16538     16541     16541     16542
     16541     16543     16541     16544     16544     16545     16544     16546
     16546     16547     16546     16548     16548     16549     16548     16550
     16548     16551     16551     16552     16551     16553     16551     16554
     16554     16555     16554     16556     16554     16557     16557     16558
     16557     16559     16557     16560     16560     16561     16560     16562
     16560     16563     16563     16564     16563     16565     16563     16566
     16520     16521     16521     16523     16521     16522     16523     16524
     16523     16525     16523     16567     16567     16568     16567     16569
     16567     16570     16570     16571     16570     16572     16570     16573
     16573     16574     16573     16575     16573     16576     16576     16577
     16576     16578     16576     16579     16579     16580     16579     16581
     16579     16582     16582     16583     16582     16584     16582     16585
     16585     16586     16585     16587     16587     16588     16587     16589
     16589     16590     16589     16591     16589     16592     16592     16593
     16592     16594     16592     16595     16595     16596     16595     16597
     16595     16598     16598     16599     16598     16600     16598     16601
     16601     16602     16601     16603     16601     16604     16604     16605
     16604     16606     16604     16607     16607     16608     16607     16609
     16607     16610     16610     16611     16610     16612     16610     16613
     16614     16615     16614     16616     16614     16617     16614     16618
     16618     16619     16618     16620     16618     16621     16621     16622
     16621     16623     16621     16628     16628     16624     16624     16627
     16624     16625     16624     16626     16629     16630     16629     16631
     16629     16632     16629     16627     16632     16633     16632     16640
     16632     16634     16640     16641     16640     16642     16640     16643
     16634     16635     16635     16637     16635     16636     16637     16638
     16637     16639     16637     16649     16649     16650     16649     16651
     16649     16652     16652     16653     16652     16654     16652     16655
     16655     16656     16655     16657     16655     16658     16658     16659
     16658     16660     16658     16661     16661     16662     16661     16663
     16661     16664     16664     16665     16664     16666     16664     16667
     16667     16668     16667     16672     16667     16669     16672     16673
     16672     16674     16672     16669     16674     16675     16674     16676
     16674     16677     16677     16678     16677     16679     16677     16680
     16680     16681     16680     16682     16680     16683     16683     16684
     16683     16685     16683     16686     16686     16687     16686     16688
     16686     16689     16689     16690     16689     16691     16689     16692
     16669     16670     16669     16671     16643     16644     16644     16646
     16644     16645     16646     16647     16646     16648     16646     16693
     16693     16694     16693     16695     16693     16696     16696     16697
     16696     16698     16696     16699     16699     16700     16699     16701
     16699     16702     16702     16703     16702     16704     16702     16705
     16705     16706     16705     16707     16705     16708     16708     16709
     16708     16710     16708     16711     16711     16712     16711     16713
     16711     16714     16714     16715     16714     16716     16714     16717
     16717     16718     16717     16719     16717     16720     16720     16721
     16720     16722     16720     16723     16723     16724     16723     16725
     16723     16726     16726     16727     16726     16728     16726     16729
     16729     16730     16729     16731     16729     16732     16732     16733
     16732     16734     16732     16735     16736     16737     16736     16738
     16736     16739     16736     16740     16740     16741     16740     16742
     16740     16743     16743     16744     16743     16745     16743     16750
     16750     16746     16746     16749     16746     16747     16746     16748
     16751     16752     16751     16753     16751     16754     16751     16749
     16754     16755     16754     16762     16754     16756     16762     16763
     16762     16764     16762     16765     16756     16757     16757     16759
     16757     16758     16759     16760     16759     16761     16759     16771
     16771     16772     16771     16773     16771     16774     16774     16775
     16774     16776     16774     16777     16777     16778     16777     16779
     16777     16780     16780     16781     16780     16782     16780     16783
     16783     16784     16783     16785     16783     16786     16786     16787
     16786     16788     16786     16789     16789     16790     16789     16794
     16789     16791     16794     16795     16794     16796     16794     16791
     16796     16797     16796     16798     16796     16799     16799     16800
     16799     16801     16799     16802     16802     16803     16802     16804
     16802     16805     16805     16806     16805     16807     16805     16808
     16808     16809     16808     16810     16808     16811     16811     16812
     16811     16813     16811     16814     16791     16792     16791     16793
     16765     16766     16766     16768     16766     16767     16768     16769
     16768     16770     16768     16815     16815     16816     16815     16817
     16815     16818     16818     16819     16818     16820     16818     16821
     16821     16822     16821     16823     16821     16824     16824     16825
     16824     16826     16824     16827     16827     16828     16827     16829
     16827     16830     16830     16831     16830     16832     16830     16833
     16833     16834     16833     16835     16833     16836     16836     16837
     16836     16838     16836     16839     16839     16840     16839     16841
     16839     16842     16842     16843     16842     16844     16842     16845
     16845     16846     16845     16847     16845     16848     16848     16849
     16848     16850     16848     16851     16851     16852     16851     16853
     16851     16854     16854     16855     16854     16856     16854     16857
     16858     16859     16858     16860     16858     16861     16858     16862
     16862     16863     16862     16864     16862     16865     16865     16866
     16865     16867     16865     16872     16872     16868     16868     16871
     16868     16869     16868     16870     16873     16874     16873     16875
     16873     16876     16873     16871     16876     16877     16876     16884
     16876     16878     16884     16885     16884     16886     16884     16887
     16878     16879     16879     16881     16879     16880     16881     16882
     16881     16883     16881     16893     16893     16894     16893     16895
     16893     16896     16896     16897     16896     16898     16896     16899
     16899     16900     16899     16901     16899     16902     16902     16903
     16902     16904     16902     16905     16905     16906     16905     16907
     16905     16908     16908     16909     16908     16910     16908     16911
     16911     16912     16911     16916     16911     16913     16916     16917
     16916     16918     16916     16913     16918     16919     16918     16920
     16918     16921     16921     16922     16921     16923     16921     16924
     16924     16925     16924     16926     16924     16927     16927     16928
     16927     16929     16927     16930     16930     16931     16930     16932
     16930     16933     16933     16934     16933     16935     16933     16936
     16913     16914     16913     16915     16887     16888     16888     16890
     16888     16889     16890     16891     16890     16892     16890     16937
     16937     16938     16937     16939     16937     16940     16940     16941
     16940     16942     16940     16943     16943     16944     16943     16945
     16943     16946     16946     16947     16946     16948     16946     16949
     16949     16950     16949     16951     16949     16952     16952     16953
     16952     16954     16952     16955     16955     16956     16955     16957
     16955     16958     16958     16959     16958     16960     16958     16961
     16961     16962     16961     16963     16961     16964     16964     16965
     16964     16966     16964     16967     16967     16968     16967     16969
     16967     16970     16970     16971     16970     16972     16970     16973
     16973     16974     16973     16975     16973     16976     16981     16980
     16980     16977     16977     16978     16977     16979     16977     16982
     16985     16984     16984     16982     16982     16983     16982     16986
     16986     16987     16986     16988     16986     16993     16993     16989
     16989     16992     16989     16990     16989     16991     16994     16995
     16994     16996     16994     16997     16994     16992     16997     16998
     16997     17005     16997     16999     17005     17006     17005     17007
     17005     17008     16999     17000     17000     17002     17000     17001
     17002     17003     17002     17004     17002     17014     17014     17015
     17014     17016     17014     17017     17017     17018     17017     17019
     17017     17020     17020     17021     17020     17022     17020     17023
     17023     17024     17023     17025     17023     17026     17026     17027
     17026     17028     17026     17029     17029     17030     17029     17031
     17029     17032     17032     17033     17032     17037     17032     17034
     17037     17038     17037     17039     17037     17034     17039     17040
     17039     17041     17039     17042     17042     17043     17042     17044
     17042     17045     17045     17046     17045     17047     17045     17048
     17048     17049     17048     17050     17048     17051     17051     17052
     17051     17053     17051     17054     17054     17055     17054     17056
     17054     17057     17034     17035     17034     17036     17008     17009
     17009     17011     17009     17010     17011     17012     17011     17013
     17011     17058     17058     17059     17058     17060     17058     17061
     17061     17062     17061     17063     17061     17064     17064     17065
     17064     17066     17064     17067     17067     17068     17067     17069
     17067     17070     17070     17071     17070     17072     17070     17073
     17073     17074     17073     17075     17073     17076     17076     17077
     17076     17078     17076     17079     17079     17080     17079     17081
     17079     17082     17082     17083     17082     17084     17082     17085
     17085     17086     17085     17087     17085     17088     17088     17089
     17088     17090     17088     17091     17091     17092     17091     17093
     17091     17094     17094     17095     17094     17096     17094     17097
     17097     17098     17097     17099     17097     17100     17101     17102
     17101     17103     17101     17104     17101     17105     17105     17106
     17105     17107     17105     17108     17108     17109     17108     17110
     17108     17115     17115     17111     17111     17114     17111     17112
     17111     17113     17116     17117     17116     17118     17116     17119
     17116     17114     17119     17120     17119     17127     17119     17121
     17127     17128     17127     17129     17127     17130     17121     17122
     17122     17124     17122     17123     17124     17125     17124     17126
     17124     17136     17136     17137     17136     17138     17136     17139
     17139     17140     17139     17141     17139     17142     17142     17143
     17142     17144     17142     17145     17145     17146     17145     17147
     17145     17148     17148     17149     17148     17150     17148     17151
     17151     17152     17151     17153     17151     17154     17154     17155
     17154     17156     17156     17157     17156     17158     17158     17159
     17158     17160     17158     17161     17161     17162     17161     17163
     17161     17164     17164     17165     17164     17166     17164     17167
     17167     17168     17167     17169     17167     17170     17170     17171
     17170     17172     17170     17173     17173     17174     17173     17175
     17173     17176     17176     17177     17176     17178     17176     17179
     17179     17180     17179     17181     17179     17182     17130     17131
     17131     17133     17131     17132     17133     17134     17133     17135
     17133     17183     17183     17184     17183     17185     17183     17186
     17186     17187     17186     17188     17186     17189     17189     17190
     17189     17191     17189     17192     17192     17193     17192     17194
     17192     17195     17195     17196     17195     17197     17195     17198
     17198     17199     17198     17200     17198     17201     17201     17202
     17201     17203     17201     17204     17204     17205     17204     17206
     17204     17207     17207     17208     17207     17209     17207     17210
     17210     17211     17210     17212     17210     17213     17213     17214
     17213     17215     17213     17216     17216     17217     17216     17218
     17216     17219     17219     17220     17219     17221     17219     17222
     17222     17223     17222     17224     17222     17225     17230     17229
     17229     17226     17226     17227     17226     17228     17226     17231
     17234     17233     17233     17231     17231     17232     17231     17235
     17235     17236     17235     17237     17235     17242     17242     17238
     17238     17241     17238     17239     17238     17240     17243     17244
     17243     17245     17243     17246     17243     17241     17246     17247
     17246     17254     17246     17248     17254     17255     17254     17256
     17254     17257     17248     17249     17249     17251     17249     17250
     17251     17252     17251     17253     17251     17263     17263     17264
     17263     17265     17263     17266     17266     17267     17266     17268
     17266     17269     17269     17270     17269     17271     17269     17272
     17272     17273     17272     17274     17272     17275     17275     17276
     17275     17277     17275     17278     17278     17279     17278     17280
     17278     17281     17281     17282     17281     17283     17283     17284
     17283     17285     17285     17286     17285     17287     17285     17288
     17288     17289     17288     17290     17288     17291     17291     17292
     17291     17293     17291     17294     17294     17295     17294     17296
     17294     17297     17297     17298     17297     17299     17297     17300
     17300     17301     17300     17302     17300     17303     17257     17258
     17258     17260     17258     17259     17260     17261     17260     17262
     17260     17304     17304     17305     17304     17306     17304     17307
     17307     17308     17307     17309     17307     17310     17310     17311
     17310     17312     17310     17313     17313     17314     17313     17315
     17313     17316     17316     17317     17316     17318     17316     17319
     17319     17320     17319     17321     17319     17322     17322     17323
     17322     17324     17322     17325     17325     17326     17325     17327
     17325     17328     17328     17329     17328     17330     17328     17331
     17331     17332     17331     17333     17331     17334     17334     17335
     17334     17336     17334     17337     17337     17338     17337     17339
     17337     17340     17340     17341     17340     17342     17340     17343
     17343     17344     17343     17345     17343     17346     17347     17348
     17347     17349     17347     17350     17347     17351     17351     17352
     17351     17353     17351     17354     17354     17355     17354     17356
     17354     17361     17361     17357     17357     17360     17357     17358
     17357     17359     17362     17363     17362     17364     17362     17365
     17362     17360     17365     17366     17365     17373     17365     17367
     17373     17374     17373     17375     17373     17376     17367     17368
     17368     17370     17368     17369     17370     17371     17370     17372
     17370     17382     17382     17383     17382     17384     17382     17385
     17385     17386     17385     17387     17385     17388     17388     17389
     17388     17390     17388     17391     17391     17392     17391     17393
     17391     17394     17394     17395     17394     17396     17394     17397
     17397     17398     17397     17399     17397     17400     17400     17401
     17400     17405     17400     17402     17405     17406     17405     17407
     17405     17402     17407     17408     17407     17409     17407     17410
     17410     17411     17410     17412     17410     17413     17413     17414
     17413     17415     17413     17416     17416     17417     17416     17418
     17416     17419     17419     17420     17419     17421     17419     17422
     17422     17423     17422     17424     17422     17425     17402     17403
     17402     17404     17376     17377     17377     17379     17377     17378
     17379     17380     17379     17381     17379     17426     17426     17427
     17426     17428     17426     17429     17429     17430     17429     17431
     17429     17432     17432     17433     17432     17434     17432     17435
     17435     17436     17435     17437     17435     17438     17438     17439
     17438     17440     17438     17441     17441     17442     17441     17443
     17441     17444     17444     17445     17444     17446     17444     17447
     17447     17448     17447     17449     17447     17450     17450     17451
     17450     17452     17450     17453     17453     17454     17453     17455
     17453     17456     17456     17457     17456     17458     17456     17459
     17459     17460     17459     17461     17459     17462     17462     17463
     17462     17464     17462     17465     17466     17467     17466     17468
     17466     17469     17466     17470     17470     17471     17470     17472
     17470     17473     17473     17474     17473     17475     17473     17480
     17480     17476     17476     17479     17476     17477     17476     17478
     17481     17482     17481     17483     17481     17484     17481     17479
     17484     17485     17484     17492     17484     17486     17492     17493
     17492     17494     17492     17495     17486     17487     17487     17489
     17487     17488     17489     17490     17489     17491     17489     17501
     17501     17502     17501     17503     17501     17504     17504     17505
     17504     17506     17504     17507     17507     17508     17507     17509
     17507     17510     17510     17511     17510     17512     17510     17513
     17513     17514     17513     17515     17513     17516     17516     17517
     17516     17518     17516     17519     17519     17520     17519     17521
     17521     17522     17521     17523     17523     17524     17523     17525
     17523     17526     17526     17527     17526     17528     17526     17529
     17529     17530     17529     17531     17529     17532     17532     17533
     17532     17534     17532     17535     17535     17536     17535     17537
     17535     17538     17538     17539     17538     17540     17538     17541
     17495     17496     17496     17498     17496     17497     17498     17499
     17498     17500     17498     17542     17542     17543     17542     17544
     17542     17545     17545     17546     17545     17547     17545     17548
     17548     17549     17548     17550     17548     17551     17551     17552
     17551     17553     17551     17554     17554     17555     17554     17556
     17554     17557     17557     17558     17557     17559     17557     17560
     17560     17561     17560     17562     17562     17563     17562     17564
     17564     17565     17564     17566     17564     17567     17567     17568
     17567     17569     17567     17570     17570     17571     17570     17572
     17570     17573     17573     17574     17573     17575     17573     17576
     17576     17577     17576     17578     17576     17579     17579     17580
     17579     17581     17579     17582     17582     17583     17582     17584
     17582     17585     17585     17586     17585     17587     17585     17588
     17589     17590     17589     17591     17589     17592     17589     17593
     17593     17594     17593     17595     17593     17596     17596     17597
     17596     17598     17596     17603     17603     17599     17599     17602
     17599     17600     17599     17601     17604     17605     17604     17606
     17604     17607     17604     17602     17607     17608     17607     17615
     17607     17609     17615     17616     17615     17617     17615     17618
     17609     17610     17610     17612     17610     17611     17612     17613
     17612     17614     17612     17624     17624     17625     17624     17626
     17624     17627     17627     17628     17627     17629     17627     17630
     17630     17631     17630     17632     17630     17633     17633     17634
     17633     17635     17633     17636     17636     17637     17636     17638
     17636     17639     17639     17640     17639     17641     17639     17642
     17642     17643     17642     17647     17642     17644     17647     17648
     17647     17649     17647     17644     17649     17650     17649     17651
     17649     17652     17652     17653     17652     17654     17652     17655
     17655     17656     17655     17657     17655     17658     17658     17659
     17658     17660     17658     17661     17661     17662     17661     17663
     17661     17664     17664     17665     17664     17666     17664     17667
     17644     17645     17644     17646     17618     17619     17619     17621
     17619     17620     17621     17622     17621     17623     17621     17668
     17668     17669     17668     17670     17668     17671     17671     17672
     17671     17673     17671     17674     17674     17675     17674     17676
     17674     17677     17677     17678     17677     17679     17677     17680
     17680     17681     17680     17682     17680     17683     17683     17684
     17683     17685     17683     17686     17686     17687     17686     17688
     17686     17689     17689     17690     17689     17691     17689     17692
     17692     17693     17692     17694     17692     17695     17695     17696
     17695     17697     17695     17698     17698     17699     17698     17700
     17698     17701     17701     17702     17701     17703     17701     17704
     17704     17705     17704     17706     17704     17707     17707     17708
     17707     17709     17707     17710     17711     17712     17711     17713
     17711     17714     17711     17715     17715     17716     17715     17717
     17715     17718     17718     17719     17718     17720     17718     17725
     17725     17721     17721     17724     17721     17722     17721     17723
     17726     17727     17726     17728     17726     17729     17726     17724
     17729     17730     17729     17737     17729     17731     17737     17738
     17737     17739     17737     17740     17731     17732     17732     17734
     17732     17733     17734     17735     17734     17736     17734     17746
     17746     17747     17746     17748     17746     17749     17749     17750
     17749     17751     17749     17752     17752     17753     17752     17754
     17752     17755     17755     17756     17755     17757     17755     17758
     17758     17759     17758     17760     17758     17761     17761     17762
     17761     17763     17761     17764     17764     17765     17764     17769
     17764     17766     17769     17770     17769     17771     17769     17766
     17771     17772     17771     17773     17771     17774     17774     17775
     17774     17776     17774     17777     17777     17778     17777     17779
     17777     17780     17780     17781     17780     17782     17780     17783
     17783     17784     17783     17785     17783     17786     17786     17787
     17786     17788     17786     17789     17766     17767     17766     17768
     17740     17741     17741     17743     17741     17742     17743     17744
     17743     17745     17743     17790     17790     17791     17790     17792
     17790     17793     17793     17794     17793     17795     17793     17796
     17796     17797     17796     17798     17796     17799     17799     17800
     17799     17801     17799     17802     17802     17803     17802     17804
     17802     17805     17805     17806     17805     17807     17805     17808
     17808     17809     17808     17810     17808     17811     17811     17812
     17811     17813     17811     17814     17814     17815     17814     17816
     17814     17817     17817     17818     17817     17819     17817     17820
     17820     17821     17820     17822     17820     17823     17823     17824
     17823     17825     17823     17826     17826     17827     17826     17828
     17826     17829     17829     17830     17829     17831     17829     17832
     17833     17834     17833     17835     17833     17836     17833     17837
     17837     17838     17837     17839     17837     17840     17840     17841
     17840     17842     17840     17847     17847     17843     17843     17846
     17843     17844     17843     17845     17848     17849     17848     17850
     17848     17851     17848     17846     17851     17852     17851     17859
     17851     17853     17859     17860     17859     17861     17859     17862
     17853     17854     17854     17856     17854     17855     17856     17857
     17856     17858     17856     17868     17868     17869     17868     17870
     17868     17871     17871     17872     17871     17873     17871     17874
     17874     17875     17874     17876     17874     17877     17877     17878
     17877     17879     17877     17880     17880     17881     17880     17882
     17880     17883     17883     17884     17883     17885     17883     17886
     17886     17887     17886     17888     17888     17889     17888     17890
     17890     17891     17890     17892     17890     17893     17893     17894
     17893     17895     17893     17896     17896     17897     17896     17898
     17896     17899     17899     17900     17899     17901     17899     17902
     17902     17903     17902     17904     17902     17905     17905     17906
     17905     17907     17905     17908     17862     17863     17863     17865
     17863     17864     17865     17866     17865     17867     17865     17909
     17909     17910     17909     17911     17909     17912     17912     17913
     17912     17914     17912     17915     17915     17916     17915     17917
     17915     17918     17918     17919     17918     17920     17918     17921
     17921     17922     17921     17923     17921     17924     17924     17925
     17924     17926     17924     17927     17927     17928     17927     17929
     17929     17930     17929     17931     17931     17932     17931     17933
     17931     17934     17934     17935     17934     17936     17934     17937
     17937     17938     17937     17939     17937     17940     17940     17941
     17940     17942     17940     17943     17943     17944     17943     17945
     17943     17946     17946     17947     17946     17948     17946     17949
     17949     17950     17949     17951     17949     17952     17952     17953
     17952     17954     17952     17955     17956     17957     17956     17958
     17956     17959     17956     17960     17960     17961     17960     17962
     17960     17963     17963     17964     17963     17965     17963     17970
     17970     17966     17966     17969     17966     17967     17966     17968
     17971     17972     17971     17973     17971     17974     17971     17969
     17974     17975     17974     17982     17974     17976     17982     17983
     17982     17984     17982     17985     17976     17977     17977     17979
     17977     17978     17979     17980     17979     17981     17979     17991
     17991     17992     17991     17993     17991     17994     17994     17995
     17994     17996     17994     17997     17997     17998     17997     17999
     17997     18000     18000     18001     18000     18002     18000     18003
     18003     18004     18003     18005     18003     18006     18006     18007
     18006     18008     18006     18009     18009     18010     18009     18011
     18011     18012     18011     18013     18013     18014     18013     18015
     18013     18016     18016     18017     18016     18018     18016     18019
     18019     18020     18019     18021     18019     18022     18022     18023
     18022     18024     18022     18025     18025     18026     18025     18027
     18025     18028     18028     18029     18028     18030     18028     18031
     18031     18032     18031     18033     18031     18034     18034     18035
     18034     18036     18034     18037     17985     17986     17986     17988
     17986     17987     17988     17989     17988     17990     17988     18038
     18038     18039     18038     18040     18038     18041     18041     18042
     18041     18043     18041     18044     18044     18045     18044     18046
     18044     18047     18047     18048     18047     18049     18047     18050
     18050     18051     18050     18052     18050     18053     18053     18054
     18053     18055     18053     18056     18056     18057     18056     18058
     18056     18059     18059     18060     18059     18061     18059     18062
     18062     18063     18062     18064     18062     18065     18065     18066
     18065     18067     18065     18068     18068     18069     18068     18070
     18068     18071     18071     18072     18071     18073     18071     18074
     18074     18075     18074     18076     18074     18077     18077     18078
     18077     18079     18077     18080     18085     18084     18084     18081
     18081     18082     18081     18083     18081     18086     18089     18088
     18088     18086     18086     18087     18086     18090     18090     18091
     18090     18092     18090     18097     18097     18093     18093     18096
     18093     18094     18093     18095     18098     18099     18098     18100
     18098     18101     18098     18096     18101     18102     18101     18109
     18101     18103     18109     18110     18109     18111     18109     18112
     18103     18104     18104     18106     18104     18105     18106     18107
     18106     18108     18106     18118     18118     18119     18118     18120
     18118     18121     18121     18122     18121     18123     18121     18124
     18124     18125     18124     18126     18124     18127     18127     18128
     18127     18129     18127     18130     18130     18131     18130     18132
     18130     18133     18133     18134     18133     18135     18133     18136
     18136     18137     18136     18141     18136     18138     18141     18142
     18141     18143     18141     18138     18143     18144     18143     18145
     18143     18146     18146     18147     18146     18148     18146     18149
     18149     18150     18149     18151     18149     18152     18152     18153
     18152     18154     18152     18155     18155     18156     18155     18157
     18155     18158     18158     18159     18158     18160     18158     18161
     18138     18139     18138     18140     18112     18113     18113     18115
     18113     18114     18115     18116     18115     18117     18115     18162
     18162     18163     18162     18164     18162     18165     18165     18166
     18165     18167     18165     18168     18168     18169     18168     18170
     18168     18171     18171     18172     18171     18173     18171     18174
     18174     18175     18174     18176     18174     18177     18177     18178
     18177     18179     18177     18180     18180     18181     18180     18182
     18180     18183     18183     18184     18183     18185     18183     18186
     18186     18187     18186     18188     18186     18189     18189     18190
     18189     18191     18189     18192     18192     18193     18192     18194
     18192     18195     18195     18196     18195     18197     18195     18198
     18198     18199     18198     18200     18198     18201     18201     18202
     18201     18203     18201     18204     18205     18206     18205     18207
     18205     18208     18205     18209     18209     18210     18209     18211
     18209     18212     18212     18213     18212     18214     18212     18219
     18219     18215     18215     18218     18215     18216     18215     18217
     18220     18221     18220     18222     18220     18223     18220     18218
     18223     18224     18223     18231     18223     18225     18231     18232
     18231     18233     18231     18234     18225     18226     18226     18228
     18226     18227     18228     18229     18228     18230     18228     18240
     18240     18241     18240     18242     18240     18243     18243     18244
     18243     18245     18243     18246     18246     18247     18246     18248
     18246     18249     18249     18250     18249     18251     18249     18252
     18252     18253     18252     18254     18252     18255     18255     18256
     18255     18257     18255     18258     18258     18259     18258     18263
     18258     18260     18263     18264     18263     18265     18263     18260
     18265     18266     18265     18267     18265     18268     18268     18269
     18268     18270     18268     18271     18271     18272     18271     18273
     18271     18274     18274     18275     18274     18276     18274     18277
     18277     18278     18277     18279     18277     18280     18280     18281
     18280     18282     18280     18283     18260     18261     18260     18262
     18234     18235     18235     18237     18235     18236     18237     18238
     18237     18239     18237     18284     18284     18285     18284     18286
     18284     18287     18287     18288     18287     18289     18287     18290
     18290     18291     18290     18292     18290     18293     18293     18294
     18293     18295     18293     18296     18296     18297     18296     18298
     18296     18299     18299     18300     18299     18301     18299     18302
     18302     18303     18302     18304     18302     18305     18305     18306
     18305     18307     18305     18308     18308     18309     18308     18310
     18308     18311     18311     18312     18311     18313     18311     18314
     18314     18315     18314     18316     18314     18317     18317     18318
     18317     18319     18317     18320     18320     18321     18320     18322
     18320     18323     18323     18324     18323     18325     18323     18326
     18327     18328     18327     18329     18327     18330     18327     18331
     18331     18332     18331     18333     18331     18334     18334     18335
     18334     18336     18334     18341     18341     18337     18337     18340
     18337     18338     18337     18339     18342     18343     18342     18344
     18342     18345     18342     18340     18345     18346     18345     18353
     18345     18347     18353     18354     18353     18355     18353     18356
     18347     18348     18348     18350     18348     18349     18350     18351
     18350     18352     18350     18362     18362     18363     18362     18364
     18362     18365     18365     18366     18365     18367     18365     18368
     18368     18369     18368     18370     18368     18371     18371     18372
     18371     18373     18371     18374     18374     18375     18374     18376
     18374     18377     18377     18378     18377     18379     18377     18380
     18380     18381     18380     18385     18380     18382     18385     18386
     18385     18387     18385     18382     18387     18388     18387     18389
     18387     18390     18390     18391     18390     18392     18390     18393
     18393     18394     18393     18395     18393     18396     18396     18397
     18396     18398     18396     18399     18399     18400     18399     18401
     18399     18402     18402     18403     18402     18404     18402     18405
     18382     18383     18382     18384     18356     18357     18357     18359
     18357     18358     18359     18360     18359     18361     18359     18406
     18406     18407     18406     18408     18406     18409     18409     18410
     18409     18411     18409     18412     18412     18413     18412     18414
     18412     18415     18415     18416     18415     18417     18415     18418
     18418     18419     18418     18420     18418     18421     18421     18422
     18421     18423     18421     18424     18424     18425     18424     18426
     18424     18427     18427     18428     18427     18429     18427     18430
     18430     18431     18430     18432     18430     18433     18433     18434
     18433     18435     18433     18436     18436     18437     18436     18438
     18436     18439     18439     18440     18439     18441     18439     18442
     18442     18443     18442     18444     18442     18445     18445     18446
     18445     18447     18445     18448     18449     18450     18449     18451
     18449     18452     18449     18453     18453     18454     18453     18455
     18453     18456     18456     18457     18456     18458     18456     18463
     18463     18459     18459     18462     18459     18460     18459     18461
     18464     18465     18464     18466     18464     18467     18464     18462
     18467     18468     18467     18475     18467     18469     18475     18476
     18475     18477     18475     18478     18469     18470     18470     18472
     18470     18471     18472     18473     18472     18474     18472     18484
     18484     18485     18484     18486     18484     18487     18487     18488
     18487     18489     18487     18490     18490     18491     18490     18492
     18490     18493     18493     18494     18493     18495     18493     18496
     18496     18497     18496     18498     18496     18499     18499     18500
     18499     18501     18499     18502     18502     18503     18502     18507
     18502     18504     18507     18508     18507     18509     18507     18504
     18509     18510     18509     18511     18509     18512     18512     18513
     18512     18514     18512     18515     18515     18516     18515     18517
     18515     18518     18518     18519     18518     18520     18518     18521
     18521     18522     18521     18523     18521     18524     18524     18525
     18524     18526     18524     18527     18504     18505     18504     18506
     18478     18479     18479     18481     18479     18480     18481     18482
     18481     18483     18481     18528     18528     18529     18528     18530
     18528     18531     18531     18532     18531     18533     18531     18534
     18534     18535     18534     18536     18534     18537     18537     18538
     18537     18539     18537     18540     18540     18541     18540     18542
     18540     18543     18543     18544     18543     18545     18543     18546
     18546     18547     18546     18548     18546     18549     18549     18550
     18549     18551     18549     18552     18552     18553     18552     18554
     18552     18555     18555     18556     18555     18557     18555     18558
     18558     18559     18558     18560     18558     18561     18561     18562
     18561     18563     18561     18564     18564     18565     18564     18566
     18564     18567     18567     18568     18567     18569     18567     18570
     18571     18572     18571     18573     18571     18574     18571     18575
     18575     18576     18575     18577     18575     18578     18578     18579
     18578     18580     18578     18585     18585     18581     18581     18584
     18581     18582     18581     18583     18586     18587     18586     18588
     18586     18589     18586     18584     18589     18590     18589     18597
     18589     18591     18597     18598     18597     18599     18597     18600
     18591     18592     18592     18594     18592     18593     18594     18595
     18594     18596     18594     18606     18606     18607     18606     18608
     18606     18609     18609     18610     18609     18611     18609     18612
     18612     18613     18612     18614     18612     18615     18615     18616
     18615     18617     18615     18618     18618     18619     18618     18620
     18618     18621     18621     18622     18621     18623     18621     18624
     18624     18625     18624     18629     18624     18626     18629     18630
     18629     18631     18629     18626     18631     18632     18631     18633
     18631     18634     18634     18635     18634     18636     18634     18637
     18637     18638     18637     18639     18637     18640     18640     18641
     18640     18642     18640     18643     18643     18644     18643     18645
     18643     18646     18646     18647     18646     18648     18646     18649
     18626     18627     18626     18628     18600     18601     18601     18603
     18601     18602     18603     18604     18603     18605     18603     18650
     18650     18651     18650     18652     18650     18653     18653     18654
     18653     18655     18653     18656     18656     18657     18656     18658
     18656     18659     18659     18660     18659     18661     18659     18662
     18662     18663     18662     18664     18662     18665     18665     18666
     18665     18667     18665     18668     18668     18669     18668     18670
     18668     18671     18671     18672     18671     18673     18671     18674
     18674     18675     18674     18676     18674     18677     18677     18678
     18677     18679     18677     18680     18680     18681     18680     18682
     18680     18683     18683     18684     18683     18685     18683     18686
     18686     18687     18686     18688     18686     18689     18689     18690
     18689     18691     18689     18692     18697     18696     18696     18693
     18693     18694     18693     18695     18693     18698     18701     18700
     18700     18698     18698     18699     18698     18702     18702     18703
     18702     18704     18702     18709     18709     18705     18705     18708
     18705     18706     18705     18707     18710     18711     18710     18712
     18710     18713     18710     18708     18713     18714     18713     18721
     18713     18715     18721     18722     18721     18723     18721     18724
     18715     18716     18716     18718     18716     18717     18718     18719
     18718     18720     18718     18730     18730     18731     18730     18732
     18730     18733     18733     18734     18733     18735     18733     18736
     18736     18737     18736     18738     18736     18739     18739     18740
     18739     18741     18739     18742     18742     18743     18742     18744
     18742     18745     18745     18746     18745     18747     18745     18748
     18748     18749     18748     18750     18750     18751     18750     18752
     18752     18753     18752     18754     18752     18755     18755     18756
     18755     18757     18755     18758     18758     18759     18758     18760
     18758     18761     18761     18762     18761     18763     18761     18764
     18764     18765     18764     18766     18764     18767     18767     18768
     18767     18769     18767     18770     18724     18725     18725     18727
     18725     18726     18727     18728     18727     18729     18727     18771
     18771     18772     18771     18773     18771     18774     18774     18775
     18774     18776     18774     18777     18777     18778     18777     18779
     18777     18780     18780     18781     18780     18782     18780     18783
     18783     18784     18783     18785     18783     18786     18786     18787
     18786     18788     18786     18789     18789     18790     18789     18791
     18789     18792     18792     18793     18792     18794     18792     18795
     18795     18796     18795     18797     18795     18798     18798     18799
     18798     18800     18798     18801     18801     18802     18801     18803
     18801     18804     18804     18805     18804     18806     18804     18807
     18807     18808     18807     18809     18807     18810     18810     18811
     18810     18812     18810     18813     18814     18815     18814     18816
     18814     18817     18814     18818     18818     18819     18818     18820
     18818     18821     18821     18822     18821     18823     18821     18828
     18828     18824     18824     18827     18824     18825     18824     18826
     18829     18830     18829     18831     18829     18832     18829     18827
     18832     18833     18832     18840     18832     18834     18840     18841
     18840     18842     18840     18843     18834     18835     18835     18837
     18835     18836     18837     18838     18837     18839     18837     18849
     18849     18850     18849     18851     18849     18852     18852     18853
     18852     18854     18852     18855     18855     18856     18855     18857
     18855     18858     18858     18859     18858     18860     18858     18861
     18861     18862     18861     18863     18861     18864     18864     18865
     18864     18866     18864     18867     18867     18868     18867     18869
     18869     18870     18869     18871     18871     18872     18871     18873
     18871     18874     18874     18875     18874     18876     18874     18877
     18877     18878     18877     18879     18877     18880     18880     18881
     18880     18882     18880     18883     18883     18884     18883     18885
     18883     18886     18886     18887     18886     18888     18886     18889
     18843     18844     18844     18846     18844     18845     18846     18847
     18846     18848     18846     18890     18890     18891     18890     18892
     18890     18893     18893     18894     18893     18895     18893     18896
     18896     18897     18896     18898     18896     18899     18899     18900
     18899     18901     18899     18902     18902     18903     18902     18904
     18902     18905     18905     18906     18905     18907     18905     18908
     18908     18909     18908     18910     18910     18911     18910     18912
     18912     18913     18912     18914     18912     18915     18915     18916
     18915     18917     18915     18918     18918     18919     18918     18920
     18918     18921     18921     18922     18921     18923     18921     18924
     18924     18925     18924     18926     18924     18927     18927     18928
     18927     18929     18927     18930     18930     18931     18930     18932
     18930     18933     18933     18934     18933     18935     18933     18936
     18941     18940     18940     18937     18937     18938     18937     18939
     18937     18942     18945     18944     18944     18942     18942     18943
     18942     18946     18946     18947     18946     18948     18946     18953
     18953     18949     18949     18952     18949     18950     18949     18951
     18954     18955     18954     18956     18954     18957     18954     18952
     18957     18958     18957     18965     18957     18959     18965     18966
     18965     18967     18965     18968     18959     18960     18960     18962
     18960     18961     18962     18963     18962     18964     18962     18974
     18974     18975     18974     18976     18974     18977     18977     18978
     18977     18979     18977     18980     18980     18981     18980     18982
     18980     18983     18983     18984     18983     18985     18983     18986
     18986     18987     18986     18988     18986     18989     18989     18990
     18989     18991     18989     18992     18992     18993     18992     18994
     18994     18995     18994     18996     18996     18997     18996     18998
     18996     18999     18999     19000     18999     19001     18999     19002
     19002     19003     19002     19004     19002     19005     19005     19006
     19005     19007     19005     19008     19008     19009     19008     19010
     19008     19011     19011     19012     19011     19013     19011     19014
     18968     18969     18969     18971     18969     18970     18971     18972
     18971     18973     18971     19015     19015     19016     19015     19017
     19015     19018     19018     19019     19018     19020     19018     19021
     19021     19022     19021     19023     19021     19024     19024     19025
     19024     19026     19024     19027     19027     19028     19027     19029
     19027     19030     19030     19031     19030     19032     19030     19033
     19033     19034     19033     19035     19033     19036     19036     19037
     19036     19038     19036     19039     19039     19040     19039     19041
     19039     19042     19042     19043     19042     19044     19042     19045
     19045     19046     19045     19047     19045     19048     19048     19049
     19048     19050     19048     19051     19051     19052     19051     19053
     19051     19054     19054     19055     19054     19056     19054     19057
     19058     19059     19058     19060     19058     19061     19058     19062
     19062     19063     19062     19064     19062     19065     19065     19066
     19065     19067     19065     19072     19072     19068     19068     19071
     19068     19069     19068     19070     19073     19074     19073     19075
     19073     19076     19073     19071     19076     19077     19076     19084
     19076     19078     19084     19085     19084     19086     19084     19087
     19078     19079     19079     19081     19079     19080     19081     19082
     19081     19083     19081     19093     19093     19094     19093     19095
     19093     19096     19096     19097     19096     19098     19096     19099
     19099     19100     19099     19101     19099     19102     19102     19103
     19102     19104     19102     19105     19105     19106     19105     19107
     19105     19108     19108     19109     19108     19110     19108     19111
     19111     19112     19111     19116     19111     19113     19116     19117
     19116     19118     19116     19113     19118     19119     19118     19120
     19118     19121     19121     19122     19121     19123     19121     19124
     19124     19125     19124     19126     19124     19127     19127     19128
     19127     19129     19127     19130     19130     19131     19130     19132
     19130     19133     19133     19134     19133     19135     19133     19136
     19113     19114     19113     19115     19087     19088     19088     19090
     19088     19089     19090     19091     19090     19092     19090     19137
     19137     19138     19137     19139     19137     19140     19140     19141
     19140     19142     19140     19143     19143     19144     19143     19145
     19143     19146     19146     19147     19146     19148     19146     19149
     19149     19150     19149     19151     19149     19152     19152     19153
     19152     19154     19152     19155     19155     19156     19155     19157
     19155     19158     19158     19159     19158     19160     19158     19161
     19161     19162     19161     19163     19161     19164     19164     19165
     19164     19166     19164     19167     19167     19168     19167     19169
     19167     19170     19170     19171     19170     19172     19170     19173
     19173     19174     19173     19175     19173     19176     19176     19177
     19176     19178     19176     19179     19180     19181     19180     19182
     19180     19183     19180     19184     19184     19185     19184     19186
     19184     19187     19187     19188     19187     19189     19187     19194
     19194     19190     19190     19193     19190     19191     19190     19192
     19195     19196     19195     19197     19195     19198     19195     19193
     19198     19199     19198     19206     19198     19200     19206     19207
     19206     19208     19206     19209     19200     19201     19201     19203
     19201     19202     19203     19204     19203     19205     19203     19215
     19215     19216     19215     19217     19215     19218     19218     19219
     19218     19220     19218     19221     19221     19222     19221     19223
     19221     19224     19224     19225     19224     19226     19224     19227
     19227     19228     19227     19229     19227     19230     19230     19231
     19230     19232     19230     19233     19233     19234     19233     19235
     19235     19236     19235     19237     19237     19238     19237     19239
     19237     19240     19240     19241     19240     19242     19240     19243
     19243     19244     19243     19245     19243     19246     19246     19247
     19246     19248     19246     19249     19249     19250     19249     19251
     19249     19252     19252     19253     19252     19254     19252     19255
     19209     19210     19210     19212     19210     19211     19212     19213
     19212     19214     19212     19256     19256     19257     19256     19258
     19256     19259     19259     19260     19259     19261     19259     19262
     19262     19263     19262     19264     19262     19265     19265     19266
     19265     19267     19265     19268     19268     19269     19268     19270
     19268     19271     19271     19272     19271     19273     19271     19274
     19274     19275     19274     19276     19276     19277     19276     19278
     19278     19279     19278     19280     19278     19281     19281     19282
     19281     19283     19281     19284     19284     19285     19284     19286
     19284     19287     19287     19288     19287     19289     19287     19290
     19290     19291     19290     19292     19290     19293     19293     19294
     19293     19295     19293     19296     19296     19297     19296     19298
     19296     19299     19299     19300     19299     19301     19299     19302
     19303     19304     19303     19305     19303     19306     19303     19307
     19307     19308     19307     19309     19307     19310     19310     19311
     19310     19312     19310     19317     19317     19313     19313     19316
     19313     19314     19313     19315     19318     19319     19318     19320
     19318     19321     19318     19316     19321     19322     19321     19329
     19321     19323     19329     19330     19329     19331     19329     19332
     19323     19324     19324     19326     19324     19325     19326     19327
     19326     19328     19326     19338     19338     19339     19338     19340
     19338     19341     19341     19342     19341     19343     19341     19344
     19344     19345     19344     19346     19344     19347     19347     19348
     19347     19349     19347     19350     19350     19351     19350     19352
     19350     19353     19353     19354     19353     19355     19353     19356
     19356     19357     19356     19361     19356     19358     19361     19362
     19361     19363     19361     19358     19363     19364     19363     19365
     19363     19366     19366     19367     19366     19368     19366     19369
     19369     19370     19369     19371     19369     19372     19372     19373
     19372     19374     19372     19375     19375     19376     19375     19377
     19375     19378     19378     19379     19378     19380     19378     19381
     19358     19359     19358     19360     19332     19333     19333     19335
     19333     19334     19335     19336     19335     19337     19335     19382
     19382     19383     19382     19384     19382     19385     19385     19386
     19385     19387     19385     19388     19388     19389     19388     19390
     19388     19391     19391     19392     19391     19393     19391     19394
     19394     19395     19394     19396     19394     19397     19397     19398
     19397     19399     19397     19400     19400     19401     19400     19402
     19400     19403     19403     19404     19403     19405     19403     19406
     19406     19407     19406     19408     19406     19409     19409     19410
     19409     19411     19409     19412     19412     19413     19412     19414
     19412     19415     19415     19416     19415     19417     19415     19418
     19418     19419     19418     19420     19418     19421     19422     19423
     19422     19424     19422     19425     19422     19426     19426     19427
     19426     19428     19426     19429     19429     19430     19429     19431
     19429     19436     19436     19432     19432     19435     19432     19433
     19432     19434     19437     19438     19437     19439     19437     19440
     19437     19435     19440     19441     19440     19448     19440     19442
     19448     19449     19448     19450     19448     19451     19442     19443
     19443     19445     19443     19444     19445     19446     19445     19447
     19445     19457     19457     19458     19457     19459     19457     19460
     19460     19461     19460     19462     19460     19463     19463     19464
     19463     19465     19463     19466     19466     19467     19466     19468
     19466     19469     19469     19470     19469     19471     19469     19472
     19472     19473     19472     19474     19472     19475     19475     19476
     19475     19480     19475     19477     19480     19481     19480     19482
     19480     19477     19482     19483     19482     19484     19482     19485
     19485     19486     19485     19487     19485     19488     19488     19489
     19488     19490     19488     19491     19491     19492     19491     19493
     19491     19494     19494     19495     19494     19496     19494     19497
     19497     19498     19497     19499     19497     19500     19477     19478
     19477     19479     19451     19452     19452     19454     19452     19453
     19454     19455     19454     19456     19454     19501     19501     19502
     19501     19503     19501     19504     19504     19505     19504     19506
     19504     19507     19507     19508     19507     19509     19507     19510
     19510     19511     19510     19512     19510     19513     19513     19514
     19513     19515     19513     19516     19516     19517     19516     19518
     19516     19519     19519     19520     19519     19521     19519     19522
     19522     19523     19522     19524     19522     19525     19525     19526
     19525     19527     19525     19528     19528     19529     19528     19530
     19528     19531     19531     19532     19531     19533     19531     19534
     19534     19535     19534     19536     19534     19537     19537     19538
     19537     19539     19537     19540     19540     19541     19540     19542
     19540     19543     19544     19545     19544     19546     19544     19547
     19544     19548     19548     19549     19548     19550     19548     19551
     19551     19552     19551     19553     19551     19558     19558     19554
     19554     19557     19554     19555     19554     19556     19559     19560
     19559     19561     19559     19562     19559     19557     19562     19563
     19562     19570     19562     19564     19570     19571     19570     19572
     19570     19573     19564     19565     19565     19567     19565     19566
     19567     19568     19567     19569     19567     19579     19579     19580
     19579     19581     19579     19582     19582     19583     19582     19584
     19582     19585     19585     19586     19585     19587     19585     19588
     19588     19589     19588     19590     19588     19591     19591     19592
     19591     19593     19591     19594     19594     19595     19594     19596
     19594     19597     19597     19598     19597     19602     19597     19599
     19602     19603     19602     19604     19602     19599     19604     19605
     19604     19606     19604     19607     19607     19608     19607     19609
     19607     19610     19610     19611     19610     19612     19610     19613
     19613     19614     19613     19615     19613     19616     19616     19617
     19616     19618     19616     19619     19619     19620     19619     19621
     19619     19622     19599     19600     19599     19601     19573     19574
     19574     19576     19574     19575     19576     19577     19576     19578
     19576     19623     19623     19624     19623     19625     19623     19626
     19626     19627     19626     19628     19626     19629     19629     19630
     19629     19631     19629     19632     19632     19633     19632     19634
     19632     19635     19635     19636     19635     19637     19635     19638
     19638     19639     19638     19640     19638     19641     19641     19642
     19641     19643     19641     19644     19644     19645     19644     19646
     19644     19647     19647     19648     19647     19649     19647     19650
     19650     19651     19650     19652     19650     19653     19653     19654
     19653     19655     19653     19656     19656     19657     19656     19658
     19656     19659     19659     19660     19659     19661     19659     19662
     19662     19663     19662     19664     19662     19665     19666     19667
     19666     19668     19666     19669     19666     19670     19670     19671
     19670     19672     19670     19673     19673     19674     19673     19675
     19673     19680     19680     19676     19676     19679     19676     19677
     19676     19678     19681     19682     19681     19683     19681     19684
     19681     19679     19684     19685     19684     19692     19684     19686
     19692     19693     19692     19694     19692     19695     19686     19687
     19687     19689     19687     19688     19689     19690     19689     19691
     19689     19701     19701     19702     19701     19703     19701     19704
     19704     19705     19704     19706     19704     19707     19707     19708
     19707     19709     19707     19710     19710     19711     19710     19712
     19710     19713     19713     19714     19713     19715     19713     19716
     19716     19717     19716     19718     19716     19719     19719     19720
     19719     19724     19719     19721     19724     19725     19724     19726
     19724     19721     19726     19727     19726     19728     19726     19729
     19729     19730     19729     19731     19729     19732     19732     19733
     19732     19734     19732     19735     19735     19736     19735     19737
     19735     19738     19738     19739     19738     19740     19738     19741
     19741     19742     19741     19743     19741     19744     19721     19722
     19721     19723     19695     19696     19696     19698     19696     19697
     19698     19699     19698     19700     19698     19745     19745     19746
     19745     19747     19745     19748     19748     19749     19748     19750
     19748     19751     19751     19752     19751     19753     19751     19754
     19754     19755     19754     19756     19754     19757     19757     19758
     19757     19759     19757     19760     19760     19761     19760     19762
     19760     19763     19763     19764     19763     19765     19763     19766
     19766     19767     19766     19768     19766     19769     19769     19770
     19769     19771     19769     19772     19772     19773     19772     19774
     19772     19775     19775     19776     19775     19777     19775     19778
     19778     19779     19778     19780     19778     19781     19781     19782
     19781     19783     19781     19784     19785     19786     19785     19787
     19785     19788     19785     19789     19789     19790     19789     19791
     19789     19792     19792     19793     19792     19794     19792     19799
     19799     19795     19795     19798     19795     19796     19795     19797
     19800     19801     19800     19802     19800     19803     19800     19798
     19803     19804     19803     19811     19803     19805     19811     19812
     19811     19813     19811     19814     19805     19806     19806     19808
     19806     19807     19808     19809     19808     19810     19808     19820
     19820     19821     19820     19822     19820     19823     19823     19824
     19823     19825     19823     19826     19826     19827     19826     19828
     19826     19829     19829     19830     19829     19831     19829     19832
     19832     19833     19832     19834     19832     19835     19835     19836
     19835     19837     19835     19838     19838     19839     19838     19843
     19838     19840     19843     19844     19843     19845     19843     19840
     19845     19846     19845     19847     19845     19848     19848     19849
     19848     19850     19848     19851     19851     19852     19851     19853
     19851     19854     19854     19855     19854     19856     19854     19857
     19857     19858     19857     19859     19857     19860     19860     19861
     19860     19862     19860     19863     19840     19841     19840     19842
     19814     19815     19815     19817     19815     19816     19817     19818
     19817     19819     19817     19864     19864     19865     19864     19866
     19864     19867     19867     19868     19867     19869     19867     19870
     19870     19871     19870     19872     19870     19873     19873     19874
     19873     19875     19873     19876     19876     19877     19876     19878
     19876     19879     19879     19880     19879     19881     19879     19882
     19882     19883     19882     19884     19882     19885     19885     19886
     19885     19887     19885     19888     19888     19889     19888     19890
     19888     19891     19891     19892     19891     19893     19891     19894
     19894     19895     19894     19896     19894     19897     19897     19898
     19897     19899     19897     19900     19900     19901     19900     19902
     19900     19903     19903     19904     19903     19905     19903     19906
     19907     19908     19907     19909     19907     19910     19907     19911
     19911     19912     19911     19913     19911     19914     19914     19915
     19914     19916     19914     19921     19921     19917     19917     19920
     19917     19918     19917     19919     19922     19923     19922     19924
     19922     19925     19922     19920     19925     19926     19925     19933
     19925     19927     19933     19934     19933     19935     19933     19936
     19927     19928     19928     19930     19928     19929     19930     19931
     19930     19932     19930     19942     19942     19943     19942     19944
     19942     19945     19945     19946     19945     19947     19945     19948
     19948     19949     19948     19950     19948     19951     19951     19952
     19951     19953     19951     19954     19954     19955     19954     19956
     19954     19957     19957     19958     19957     19959     19957     19960
     19960     19961     19960     19962     19962     19963     19962     19964
     19964     19965     19964     19966     19964     19967     19967     19968
     19967     19969     19967     19970     19970     19971     19970     19972
     19970     19973     19973     19974     19973     19975     19973     19976
     19976     19977     19976     19978     19976     19979     19979     19980
     19979     19981     19979     19982     19982     19983     19982     19984
     19982     19985     19985     19986     19985     19987     19985     19988
     19936     19937     19937     19939     19937     19938     19939     19940
     19939     19941     19939     19989     19989     19990     19989     19991
     19989     19992     19992     19993     19992     19994     19992     19995
     19995     19996     19995     19997     19995     19998     19998     19999
     19998     20000     19998     20001     20001     20002     20001     20003
     20001     20004     20004     20005     20004     20006     20004     20007
     20007     20008     20007     20009     20007     20010     20010     20011
     20010     20012     20010     20013     20013     20014     20013     20015
     20013     20016     20016     20017     20016     20018     20016     20019
     20019     20020     20019     20021     20019     20022     20022     20023
     20022     20024     20022     20025     20025     20026     20025     20027
     20025     20028     20028     20029     20028     20030     20028     20031
     20036     20035     20035     20032     20032     20033     20032     20034
     20032     20037     20040     20039     20039     20037     20037     20038
     20037     20041     20041     20042     20041     20043     20041     20048
     20048     20044     20044     20047     20044     20045     20044     20046
     20049     20050     20049     20051     20049     20052     20049     20047
     20052     20053     20052     20060     20052     20054     20060     20061
     20060     20062     20060     20063     20054     20055     20055     20057
     20055     20056     20057     20058     20057     20059     20057     20069
     20069     20070     20069     20071     20069     20072     20072     20073
     20072     20074     20072     20075     20075     20076     20075     20077
     20075     20078     20078     20079     20078     20080     20078     20081
     20081     20082     20081     20083     20081     20084     20084     20085
     20084     20086     20084     20087     20087     20088     20087     20092
     20087     20089     20092     20093     20092     20094     20092     20089
     20094     20095     20094     20096     20094     20097     20097     20098
     20097     20099     20097     20100     20100     20101     20100     20102
     20100     20103     20103     20104     20103     20105     20103     20106
     20106     20107     20106     20108     20106     20109     20109     20110
     20109     20111     20109     20112     20089     20090     20089     20091
     20063     20064     20064     20066     20064     20065     20066     20067
     20066     20068     20066     20113     20113     20114     20113     20115
     20113     20116     20116     20117     20116     20118     20116     20119
     20119     20120     20119     20121     20119     20122     20122     20123
     20122     20124     20122     20125     20125     20126     20125     20127
     20125     20128     20128     20129     20128     20130     20128     20131
     20131     20132     20131     20133     20131     20134     20134     20135
     20134     20136     20134     20137     20137     20138     20137     20139
     20137     20140     20140     20141     20140     20142     20140     20143
     20143     20144     20143     20145     20143     20146     20146     20147
     20146     20148     20146     20149     20149     20150     20149     20151
     20149     20152     20152     20153     20152     20154     20152     20155
     20156     20157     20156     20158     20156     20159     20156     20160
     20160     20161     20160     20162     20160     20163     20163     20164
     20163     20165     20163     20170     20170     20166     20166     20169
     20166     20167     20166     20168     20171     20172     20171     20173
     20171     20174     20171     20169     20174     20175     20174     20182
     20174     20176     20182     20183     20182     20184     20182     20185
     20176     20177     20177     20179     20177     20178     20179     20180
     20179     20181     20179     20191     20191     20192     20191     20193
     20191     20194     20194     20195     20194     20196     20194     20197
     20197     20198     20197     20199     20197     20200     20200     20201
     20200     20202     20200     20203     20203     20204     20203     20205
     20203     20206     20206     20207     20206     20208     20206     20209
     20209     20210     20209     20214     20209     20211     20214     20215
     20214     20216     20214     20211     20216     20217     20216     20218
     20216     20219     20219     20220     20219     20221     20219     20222
     20222     20223     20222     20224     20222     20225     20225     20226
     20225     20227     20225     20228     20228     20229     20228     20230
     20228     20231     20231     20232     20231     20233     20231     20234
     20211     20212     20211     20213     20185     20186     20186     20188
     20186     20187     20188     20189     20188     20190     20188     20235
     20235     20236     20235     20237     20235     20238     20238     20239
     20238     20240     20238     20241     20241     20242     20241     20243
     20241     20244     20244     20245     20244     20246     20244     20247
     20247     20248     20247     20249     20247     20250     20250     20251
     20250     20252     20250     20253     20253     20254     20253     20255
     20253     20256     20256     20257     20256     20258     20256     20259
     20259     20260     20259     20261     20259     20262     20262     20263
     20262     20264     20262     20265     20265     20266     20265     20267
     20265     20268     20268     20269     20268     20270     20268     20271
     20271     20272     20271     20273     20271     20274     20275     20276
     20275     20277     20275     20278     20275     20279     20279     20280
     20279     20281     20279     20282     20282     20283     20282     20284
     20282     20289     20289     20285     20285     20288     20285     20286
     20285     20287     20290     20291     20290     20292     20290     20293
     20290     20288     20293     20294     20293     20301     20293     20295
     20301     20302     20301     20303     20301     20304     20295     20296
     20296     20298     20296     20297     20298     20299     20298     20300
     20298     20310     20310     20311     20310     20312     20310     20313
     20313     20314     20313     20315     20313     20316     20316     20317
     20316     20318     20316     20319     20319     20320     20319     20321
     20319     20322     20322     20323     20322     20324     20322     20325
     20325     20326     20325     20327     20325     20328     20328     20329
     20328     20333     20328     20330     20333     20334     20333     20335
     20333     20330     20335     20336     20335     20337     20335     20338
     20338     20339     20338     20340     20338     20341     20341     20342
     20341     20343     20341     20344     20344     20345     20344     20346
     20344     20347     20347     20348     20347     20349     20347     20350
     20350     20351     20350     20352     20350     20353     20330     20331
     20330     20332     20304     20305     20305     20307     20305     20306
     20307     20308     20307     20309     20307     20354     20354     20355
     20354     20356     20354     20357     20357     20358     20357     20359
     20357     20360     20360     20361     20360     20362     20360     20363
     20363     20364     20363     20365     20363     20366     20366     20367
     20366     20368     20366     20369     20369     20370     20369     20371
     20369     20372     20372     20373     20372     20374     20372     20375
     20375     20376     20375     20377     20375     20378     20378     20379
     20378     20380     20378     20381     20381     20382     20381     20383
     20381     20384     20384     20385     20384     20386     20384     20387
     20387     20388     20387     20389     20387     20390     20390     20391
     20390     20392     20390     20393     20393     20394     20393     20395
     20393     20396     20397     20398     20397     20399     20397     20400
     20397     20401     20401     20402     20401     20403     20401     20404
     20404     20405     20404     20406     20404     20411     20411     20407
     20407     20410     20407     20408     20407     20409     20412     20413
     20412     20414     20412     20415     20412     20410     20415     20416
     20415     20423     20415     20417     20423     20424     20423     20425
     20423     20426     20417     20418     20418     20420     20418     20419
     20420     20421     20420     20422     20420     20432     20432     20433
     20432     20434     20432     20435     20435     20436     20435     20437
     20435     20438     20438     20439     20438     20440     20438     20441
     20441     20442     20441     20443     20441     20444     20444     20445
     20444     20446     20444     20447     20447     20448     20447     20449
     20447     20450     20450     20451     20450     20455     20450     20452
     20455     20456     20455     20457     20455     20452     20457     20458
     20457     20459     20457     20460     20460     20461     20460     20462
     20460     20463     20463     20464     20463     20465     20463     20466
     20466     20467     20466     20468     20466     20469     20469     20470
     20469     20471     20469     20472     20472     20473     20472     20474
     20472     20475     20452     20453     20452     20454     20426     20427
     20427     20429     20427     20428     20429     20430     20429     20431
     20429     20476     20476     20477     20476     20478     20476     20479
     20479     20480     20479     20481     20479     20482     20482     20483
     20482     20484     20482     20485     20485     20486     20485     20487
     20485     20488     20488     20489     20488     20490     20488     20491
     20491     20492     20491     20493     20491     20494     20494     20495
     20494     20496     20494     20497     20497     20498     20497     20499
     20497     20500     20500     20501     20500     20502     20500     20503
     20503     20504     20503     20505     20503     20506     20506     20507
     20506     20508     20506     20509     20509     20510     20509     20511
     20509     20512     20512     20513     20512     20514     20512     20515
     20515     20516     20515     20517     20515     20518     20519     20520
     20519     20521     20519     20522     20519     20523     20523     20524
     20523     20525     20523     20526     20526     20527     20526     20528
     20526     20533     20533     20529     20529     20532     20529     20530
     20529     20531     20534     20535     20534     20536     20534     20537
     20534     20532     20537     20538     20537     20545     20537     20539
     20545     20546     20545     20547     20545     20548     20539     20540
     20540     20542     20540     20541     20542     20543     20542     20544
     20542     20554     20554     20555     20554     20556     20554     20557
     20557     20558     20557     20559     20557     20560     20560     20561
     20560     20562     20560     20563     20563     20564     20563     20565
     20563     20566     20566     20567     20566     20568     20566     20569
     20569     20570     20569     20571     20569     20572     20572     20573
     20572     20577     20572     20574     20577     20578     20577     20579
     20577     20574     20579     20580     20579     20581     20579     20582
     20582     20583     20582     20584     20582     20585     20585     20586
     20585     20587     20585     20588     20588     20589     20588     20590
     20588     20591     20591     20592     20591     20593     20591     20594
     20594     20595     20594     20596     20594     20597     20574     20575
     20574     20576     20548     20549     20549     20551     20549     20550
     20551     20552     20551     20553     20551     20598     20598     20599
     20598     20600     20598     20601     20601     20602     20601     20603
     20601     20604     20604     20605     20604     20606     20604     20607
     20607     20608     20607     20609     20607     20610     20610     20611
     20610     20612     20610     20613     20613     20614     20613     20615
     20613     20616     20616     20617     20616     20618     20616     20619
     20619     20620     20619     20621     20619     20622     20622     20623
     20622     20624     20622     20625     20625     20626     20625     20627
     20625     20628     20628     20629     20628     20630     20628     20631
     20631     20632     20631     20633     20631     20634     20634     20635
     20634     20636     20634     20637     20637     20638     20637     20639
     20637     20640     20641     20642     20641     20643     20641     20644
     20641     20645     20645     20646     20645     20647     20645     20648
     20648     20649     20648     20650     20648     20655     20655     20651
     20651     20654     20651     20652     20651     20653     20656     20657
     20656     20658     20656     20659     20656     20654     20659     20660
     20659     20667     20659     20661     20667     20668     20667     20669
     20667     20670     20661     20662     20662     20664     20662     20663
     20664     20665     20664     20666     20664     20676     20676     20677
     20676     20678     20676     20679     20679     20680     20679     20681
     20679     20682     20682     20683     20682     20684     20682     20685
     20685     20686     20685     20687     20685     20688     20688     20689
     20688     20690     20688     20691     20691     20692     20691     20693
     20691     20694     20694     20695     20694     20699     20694     20696
     20699     20700     20699     20701     20699     20696     20701     20702
     20701     20703     20701     20704     20704     20705     20704     20706
     20704     20707     20707     20708     20707     20709     20707     20710
     20710     20711     20710     20712     20710     20713     20713     20714
     20713     20715     20713     20716     20716     20717     20716     20718
     20716     20719     20696     20697     20696     20698     20670     20671
     20671     20673     20671     20672     20673     20674     20673     20675
     20673     20720     20720     20721     20720     20722     20720     20723
     20723     20724     20723     20725     20723     20726     20726     20727
     20726     20728     20726     20729     20729     20730     20729     20731
     20729     20732     20732     20733     20732     20734     20732     20735
     20735     20736     20735     20737     20735     20738     20738     20739
     20738     20740     20738     20741     20741     20742     20741     20743
     20741     20744     20744     20745     20744     20746     20744     20747
     20747     20748     20747     20749     20747     20750     20750     20751
     20750     20752     20750     20753     20753     20754     20753     20755
     20753     20756     20756     20757     20756     20758     20756     20759
     20759     20760     20759     20761     20759     20762     20763     20764
     20763     20765     20763     20766     20763     20767     20767     20768
     20767     20769     20767     20770     20770     20771     20770     20772
     20770     20777     20777     20773     20773     20776     20773     20774
     20773     20775     20778     20779     20778     20780     20778     20781
     20778     20776     20781     20782     20781     20789     20781     20783
     20789     20790     20789     20791     20789     20792     20783     20784
     20784     20786     20784     20785     20786     20787     20786     20788
     20786     20798     20798     20799     20798     20800     20798     20801
     20801     20802     20801     20803     20801     20804     20804     20805
     20804     20806     20804     20807     20807     20808     20807     20809
     20807     20810     20810     20811     20810     20812     20810     20813
     20813     20814     20813     20815     20813     20816     20816     20817
     20816     20821     20816     20818     20821     20822     20821     20823
     20821     20818     20823     20824     20823     20825     20823     20826
     20826     20827     20826     20828     20826     20829     20829     20830
     20829     20831     20829     20832     20832     20833     20832     20834
     20832     20835     20835     20836     20835     20837     20835     20838
     20838     20839     20838     20840     20838     20841     20818     20819
     20818     20820     20792     20793     20793     20795     20793     20794
     20795     20796     20795     20797     20795     20842     20842     20843
     20842     20844     20842     20845     20845     20846     20845     20847
     20845     20848     20848     20849     20848     20850     20848     20851
     20851     20852     20851     20853     20851     20854     20854     20855
     20854     20856     20854     20857     20857     20858     20857     20859
     20857     20860     20860     20861     20860     20862     20860     20863
     20863     20864     20863     20865     20863     20866     20866     20867
     20866     20868     20866     20869     20869     20870     20869     20871
     20869     20872     20872     20873     20872     20874     20872     20875
     20875     20876     20875     20877     20875     20878     20878     20879
     20878     20880     20878     20881     20881     20882     20881     20883
     20881     20884     20889     20888     20888     20885     20885     20886
     20885     20887     20885     20890     20893     20892     20892     20890
     20890     20891     20890     20894     20894     20895     20894     20896
     20894     20901     20901     20897     20897     20900     20897     20898
     20897     20899     20902     20903     20902     20904     20902     20905
     20902     20900     20905     20906     20905     20913     20905     20907
     20913     20914     20913     20915     20913     20916     20907     20908
     20908     20910     20908     20909     20910     20911     20910     20912
     20910     20922     20922     20923     20922     20924     20922     20925
     20925     20926     20925     20927     20925     20928     20928     20929
     20928     20930     20928     20931     20931     20932     20931     20933
     20931     20934     20934     20935     20934     20936     20934     20937
     20937     20938     20937     20939     20937     20940     20940     20941
     20940     20945     20940     20942     20945     20946     20945     20947
     20945     20942     20947     20948     20947     20949     20947     20950
     20950     20951     20950     20952     20950     20953     20953     20954
     20953     20955     20953     20956     20956     20957     20956     20958
     20956     20959     20959     20960     20959     20961     20959     20962
     20962     20963     20962     20964     20962     20965     20942     20943
     20942     20944     20916     20917     20917     20919     20917     20918
     20919     20920     20919     20921     20919     20966     20966     20967
     20966     20968     20966     20969     20969     20970     20969     20971
     20969     20972     20972     20973     20972     20974     20972     20975
     20975     20976     20975     20977     20975     20978     20978     20979
     20978     20980     20978     20981     20981     20982     20981     20983
     20981     20984     20984     20985     20984     20986     20984     20987
     20987     20988     20987     20989     20987     20990     20990     20991
     20990     20992     20990     20993     20993     20994     20993     20995
     20993     20996     20996     20997     20996     20998     20996     20999
     20999     21000     20999     21001     20999     21002     21002     21003
     21002     21004     21002     21005     21005     21006     21005     21007
     21005     21008     21009     21010     21009     21011     21009     21012
     21009     21013     21013     21014     21013     21015     21013     21016
     21016     21017     21016     21018     21016     21023     21023     21019
     21019     21022     21019     21020     21019     21021     21024     21025
     21024     21026     21024     21027     21024     21022     21027     21028
     21027     21035     21027     21029     21035     21036     21035     21037
     21035     21038     21029     21030     21030     21032     21030     21031
     21032     21033     21032     21034     21032     21044     21044     21045
     21044     21046     21044     21047     21047     21048     21047     21049
     21047     21050     21050     21051     21050     21052     21050     21053
     21053     21054     21053     21055     21053     21056     21056     21057
     21056     21058     21056     21059     21059     21060     21059     21061
     21059     21062     21062     21063     21062     21064     21064     21065
     21064     21066     21066     21067     21066     21068     21066     21069
     21069     21070     21069     21071     21069     21072     21072     21073
     21072     21074     21072     21075     21075     21076     21075     21077
     21075     21078     21078     21079     21078     21080     21078     21081
     21081     21082     21081     21083     21081     21084     21084     21085
     21084     21086     21084     21087     21087     21088     21087     21089
     21087     21090     21038     21039     21039     21041     21039     21040
     21041     21042     21041     21043     21041     21091     21091     21092
     21091     21093     21091     21094     21094     21095     21094     21096
     21094     21097     21097     21098     21097     21099     21097     21100
     21100     21101     21100     21102     21100     21103     21103     21104
     21103     21105     21103     21106     21106     21107     21106     21108
     21106     21109     21109     21110     21109     21111     21109     21112
     21112     21113     21112     21114     21112     21115     21115     21116
     21115     21117     21115     21118     21118     21119     21118     21120
     21118     21121     21121     21122     21121     21123     21121     21124
     21124     21125     21124     21126     21124     21127     21127     21128
     21127     21129     21127     21130     21130     21131     21130     21132
     21130     21133     21134     21135     21134     21136     21134     21137
     21134     21138     21138     21139     21138     21140     21138     21141
     21141     21142     21141     21143     21141     21148     21148     21144
     21144     21147     21144     21145     21144     21146     21149     21150
     21149     21151     21149     21152     21149     21147     21152     21153
     21152     21160     21152     21154     21160     21161     21160     21162
     21160     21163     21154     21155     21155     21157     21155     21156
     21157     21158     21157     21159     21157     21169     21169     21170
     21169     21171     21169     21172     21172     21173     21172     21174
     21172     21175     21175     21176     21175     21177     21175     21178
     21178     21179     21178     21180     21178     21181     21181     21182
     21181     21183     21181     21184     21184     21185     21184     21186
     21184     21187     21187     21188     21187     21192     21187     21189
     21192     21193     21192     21194     21192     21189     21194     21195
     21194     21196     21194     21197     21197     21198     21197     21199
     21197     21200     21200     21201     21200     21202     21200     21203
     21203     21204     21203     21205     21203     21206     21206     21207
     21206     21208     21206     21209     21209     21210     21209     21211
     21209     21212     21189     21190     21189     21191     21163     21164
     21164     21166     21164     21165     21166     21167     21166     21168
     21166     21213     21213     21214     21213     21215     21213     21216
     21216     21217     21216     21218     21216     21219     21219     21220
     21219     21221     21219     21222     21222     21223     21222     21224
     21222     21225     21225     21226     21225     21227     21225     21228
     21228     21229     21228     21230     21228     21231     21231     21232
     21231     21233     21231     21234     21234     21235     21234     21236
     21234     21237     21237     21238     21237     21239     21237     21240
     21240     21241     21240     21242     21240     21243     21243     21244
     21243     21245     21243     21246     21246     21247     21246     21248
     21246     21249     21249     21250     21249     21251     21249     21252
     21252     21253     21252     21254     21252     21255     21260     21259
     21259     21256     21256     21257     21256     21258     21256     21261
     21264     21263     21263     21261     21261     21262     21261     21265
     21265     21266     21265     21267     21265     21272     21272     21268
     21268     21271     21268     21269     21268     21270     21273     21274
     21273     21275     21273     21276     21273     21271     21276     21277
     21276     21284     21276     21278     21284     21285     21284     21286
     21284     21287     21278     21279     21279     21281     21279     21280
     21281     21282     21281     21283     21281     21293     21293     21294
     21293     21295     21293     21296     21296     21297     21296     21298
     21296     21299     21299     21300     21299     21301     21299     21302
     21302     21303     21302     21304     21302     21305     21305     21306
     21305     21307     21305     21308     21308     21309     21308     21310
     21308     21311     21311     21312     21311     21316     21311     21313
     21316     21317     21316     21318     21316     21313     21318     21319
     21318     21320     21318     21321     21321     21322     21321     21323
     21321     21324     21324     21325     21324     21326     21324     21327
     21327     21328     21327     21329     21327     21330     21330     21331
     21330     21332     21330     21333     21333     21334     21333     21335
     21333     21336     21313     21314     21313     21315     21287     21288
     21288     21290     21288     21289     21290     21291     21290     21292
     21290     21337     21337     21338     21337     21339     21337     21340
     21340     21341     21340     21342     21340     21343     21343     21344
     21343     21345     21343     21346     21346     21347     21346     21348
     21346     21349     21349     21350     21349     21351     21349     21352
     21352     21353     21352     21354     21352     21355     21355     21356
     21355     21357     21355     21358     21358     21359     21358     21360
     21358     21361     21361     21362     21361     21363     21361     21364
     21364     21365     21364     21366     21364     21367     21367     21368
     21367     21369     21367     21370     21370     21371     21370     21372
     21370     21373     21373     21374     21373     21375     21373     21376
     21376     21377     21376     21378     21376     21379     21380     21381
     21380     21382     21380     21383     21380     21384     21384     21385
     21384     21386     21384     21387     21387     21388     21387     21389
     21387     21394     21394     21390     21390     21393     21390     21391
     21390     21392     21395     21396     21395     21397     21395     21398
     21395     21393     21398     21399     21398     21406     21398     21400
     21406     21407     21406     21408     21406     21409     21400     21401
     21401     21403     21401     21402     21403     21404     21403     21405
     21403     21415     21415     21416     21415     21417     21415     21418
     21418     21419     21418     21420     21418     21421     21421     21422
     21421     21423     21421     21424     21424     21425     21424     21426
     21424     21427     21427     21428     21427     21429     21427     21430
     21430     21431     21430     21432     21430     21433     21433     21434
     21433     21438     21433     21435     21438     21439     21438     21440
     21438     21435     21440     21441     21440     21442     21440     21443
     21443     21444     21443     21445     21443     21446     21446     21447
     21446     21448     21446     21449     21449     21450     21449     21451
     21449     21452     21452     21453     21452     21454     21452     21455
     21455     21456     21455     21457     21455     21458     21435     21436
     21435     21437     21409     21410     21410     21412     21410     21411
     21412     21413     21412     21414     21412     21459     21459     21460
     21459     21461     21459     21462     21462     21463     21462     21464
     21462     21465     21465     21466     21465     21467     21465     21468
     21468     21469     21468     21470     21468     21471     21471     21472
     21471     21473     21471     21474     21474     21475     21474     21476
     21474     21477     21477     21478     21477     21479     21477     21480
     21480     21481     21480     21482     21480     21483     21483     21484
     21483     21485     21483     21486     21486     21487     21486     21488
     21486     21489     21489     21490     21489     21491     21489     21492
     21492     21493     21492     21494     21492     21495     21495     21496
     21495     21497     21495     21498     21498     21499     21498     21500
     21498     21501     21502     21503     21502     21504     21502     21505
     21502     21506     21506     21507     21506     21508     21506     21509
     21509     21510     21509     21511     21509     21516     21516     21512
     21512     21515     21512     21513     21512     21514     21517     21518
     21517     21519     21517     21520     21517     21515     21520     21521
     21520     21528     21520     21522     21528     21529     21528     21530
     21528     21531     21522     21523     21523     21525     21523     21524
     21525     21526     21525     21527     21525     21537     21537     21538
     21537     21539     21537     21540     21540     21541     21540     21542
     21540     21543     21543     21544     21543     21545     21543     21546
     21546     21547     21546     21548     21546     21549     21549     21550
     21549     21551     21549     21552     21552     21553     21552     21554
     21552     21555     21555     21556     21555     21560     21555     21557
     21560     21561     21560     21562     21560     21557     21562     21563
     21562     21564     21562     21565     21565     21566     21565     21567
     21565     21568     21568     21569     21568     21570     21568     21571
     21571     21572     21571     21573     21571     21574     21574     21575
     21574     21576     21574     21577     21577     21578     21577     21579
     21577     21580     21557     21558     21557     21559     21531     21532
     21532     21534     21532     21533     21534     21535     21534     21536
     21534     21581     21581     21582     21581     21583     21581     21584
     21584     21585     21584     21586     21584     21587     21587     21588
     21587     21589     21587     21590     21590     21591     21590     21592
     21590     21593     21593     21594     21593     21595     21593     21596
     21596     21597     21596     21598     21596     21599     21599     21600
     21599     21601     21599     21602     21602     21603     21602     21604
     21602     21605     21605     21606     21605     21607     21605     21608
     21608     21609     21608     21610     21608     21611     21611     21612
     21611     21613     21611     21614     21614     21615     21614     21616
     21614     21617     21617     21618     21617     21619     21617     21620
     21620     21621     21620     21622     21620     21623     21624     21625
     21624     21626     21624     21627     21624     21628     21628     21629
     21628     21630     21628     21631     21631     21632     21631     21633
     21631     21638     21638     21634     21634     21637     21634     21635
     21634     21636     21639     21640     21639     21641     21639     21642
     21639     21637     21642     21643     21642     21650     21642     21644
     21650     21651     21650     21652     21650     21653     21644     21645
     21645     21647     21645     21646     21647     21648     21647     21649
     21647     21659     21659     21660     21659     21661     21659     21662
     21662     21663     21662     21664     21662     21665     21665     21666
     21665     21667     21665     21668     21668     21669     21668     21670
     21668     21671     21671     21672     21671     21673     21671     21674
     21674     21675     21674     21676     21674     21677     21677     21678
     21677     21682     21677     21679     21682     21683     21682     21684
     21682     21679     21684     21685     21684     21686     21684     21687
     21687     21688     21687     21689     21687     21690     21690     21691
     21690     21692     21690     21693     21693     21694     21693     21695
     21693     21696     21696     21697     21696     21698     21696     21699
     21699     21700     21699     21701     21699     21702     21679     21680
     21679     21681     21653     21654     21654     21656     21654     21655
     21656     21657     21656     21658     21656     21703     21703     21704
     21703     21705     21703     21706     21706     21707     21706     21708
     21706     21709     21709     21710     21709     21711     21709     21712
     21712     21713     21712     21714     21712     21715     21715     21716
     21715     21717     21715     21718     21718     21719     21718     21720
     21718     21721     21721     21722     21721     21723     21721     21724
     21724     21725     21724     21726     21724     21727     21727     21728
     21727     21729     21727     21730     21730     21731     21730     21732
     21730     21733     21733     21734     21733     21735     21733     21736
     21736     21737     21736     21738     21736     21739     21739     21740
     21739     21741     21739     21742     21742     21743     21742     21744
     21742     21745     21750     21749     21749     21746     21746     21747
     21746     21748     21746     21751     21754     21753     21753     21751
     21751     21752     21751     21755     21755     21756     21755     21757
     21755     21762     21762     21758     21758     21761     21758     21759
     21758     21760     21763     21764     21763     21765     21763     21766
     21763     21761     21766     21767     21766     21774     21766     21768
     21774     21775     21774     21776     21774     21777     21768     21769
     21769     21771     21769     21770     21771     21772     21771     21773
     21771     21783     21783     21784     21783     21785     21783     21786
     21786     21787     21786     21788     21786     21789     21789     21790
     21789     21791     21789     21792     21792     21793     21792     21794
     21792     21795     21795     21796     21795     21797     21795     21798
     21798     21799     21798     21800     21798     21801     21801     21802
     21801     21806     21801     21803     21806     21807     21806     21808
     21806     21803     21808     21809     21808     21810     21808     21811
     21811     21812     21811     21813     21811     21814     21814     21815
     21814     21816     21814     21817     21817     21818     21817     21819
     21817     21820     21820     21821     21820     21822     21820     21823
     21823     21824     21823     21825     21823     21826     21803     21804
     21803     21805     21777     21778     21778     21780     21778     21779
     21780     21781     21780     21782     21780     21827     21827     21828
     21827     21829     21827     21830     21830     21831     21830     21832
     21830     21833     21833     21834     21833     21835     21833     21836
     21836     21837     21836     21838     21836     21839     21839     21840
     21839     21841     21839     21842     21842     21843     21842     21844
     21842     21845     21845     21846     21845     21847     21845     21848
     21848     21849     21848     21850     21848     21851     21851     21852
     21851     21853     21851     21854     21854     21855     21854     21856
     21854     21857     21857     21858     21857     21859     21857     21860
     21860     21861     21860     21862     21860     21863     21863     21864
     21863     21865     21863     21866     21866     21867     21866     21868
     21866     21869     21870     21871     21870     21872     21870     21873
     21870     21874     21874     21875     21874     21876     21874     21877
     21877     21878     21877     21879     21877     21884     21884     21880
     21880     21883     21880     21881     21880     21882     21885     21886
     21885     21887     21885     21888     21885     21883     21888     21889
     21888     21896     21888     21890     21896     21897     21896     21898
     21896     21899     21890     21891     21891     21893     21891     21892
     21893     21894     21893     21895     21893     21905     21905     21906
     21905     21907     21905     21908     21908     21909     21908     21910
     21908     21911     21911     21912     21911     21913     21911     21914
     21914     21915     21914     21916     21914     21917     21917     21918
     21917     21919     21917     21920     21920     21921     21920     21922
     21920     21923     21923     21924     21923     21928     21923     21925
     21928     21929     21928     21930     21928     21925     21930     21931
     21930     21932     21930     21933     21933     21934     21933     21935
     21933     21936     21936     21937     21936     21938     21936     21939
     21939     21940     21939     21941     21939     21942     21942     21943
     21942     21944     21942     21945     21945     21946     21945     21947
     21945     21948     21925     21926     21925     21927     21899     21900
     21900     21902     21900     21901     21902     21903     21902     21904
     21902     21949     21949     21950     21949     21951     21949     21952
     21952     21953     21952     21954     21952     21955     21955     21956
     21955     21957     21955     21958     21958     21959     21958     21960
     21958     21961     21961     21962     21961     21963     21961     21964
     21964     21965     21964     21966     21964     21967     21967     21968
     21967     21969     21967     21970     21970     21971     21970     21972
     21970     21973     21973     21974     21973     21975     21973     21976
     21976     21977     21976     21978     21976     21979     21979     21980
     21979     21981     21979     21982     21982     21983     21982     21984
     21982     21985     21985     21986     21985     21987     21985     21988
     21989     21990     21989     21991     21989     21992     21989     21993
     21993     21994     21993     21995     21993     21996     21996     21997
     21996     21998     21996     22003     22003     21999     21999     22002
     21999     22000     21999     22001     22004     22005     22004     22006
     22004     22007     22004     22002     22007     22008     22007     22015
     22007     22009     22015     22016     22015     22017     22015     22018
     22009     22010     22010     22012     22010     22011     22012     22013
     22012     22014     22012     22024     22024     22025     22024     22026
     22024     22027     22027     22028     22027     22029     22027     22030
     22030     22031     22030     22032     22030     22033     22033     22034
     22033     22035     22033     22036     22036     22037     22036     22038
     22036     22039     22039     22040     22039     22041     22039     22042
     22042     22043     22042     22047     22042     22044     22047     22048
     22047     22049     22047     22044     22049     22050     22049     22051
     22049     22052     22052     22053     22052     22054     22052     22055
     22055     22056     22055     22057     22055     22058     22058     22059
     22058     22060     22058     22061     22061     22062     22061     22063
     22061     22064     22064     22065     22064     22066     22064     22067
     22044     22045     22044     22046     22018     22019     22019     22021
     22019     22020     22021     22022     22021     22023     22021     22068
     22068     22069     22068     22070     22068     22071     22071     22072
     22071     22073     22071     22074     22074     22075     22074     22076
     22074     22077     22077     22078     22077     22079     22077     22080
     22080     22081     22080     22082     22080     22083     22083     22084
     22083     22085     22083     22086     22086     22087     22086     22088
     22086     22089     22089     22090     22089     22091     22089     22092
     22092     22093     22092     22094     22092     22095     22095     22096
     22095     22097     22095     22098     22098     22099     22098     22100
     22098     22101     22101     22102     22101     22103     22101     22104
     22104     22105     22104     22106     22104     22107     22107     22108
     22107     22109     22107     22110     22111     22112     22111     22113
     22111     22114     22111     22115     22115     22116     22115     22117
     22115     22118     22118     22119     22118     22120     22118     22125
     22125     22121     22121     22124     22121     22122     22121     22123
     22126     22127     22126     22128     22126     22129     22126     22124
     22129     22130     22129     22137     22129     22131     22137     22138
     22137     22139     22137     22140     22131     22132     22132     22134
     22132     22133     22134     22135     22134     22136     22134     22146
     22146     22147     22146     22148     22146     22149     22149     22150
     22149     22151     22149     22152     22152     22153     22152     22154
     22152     22155     22155     22156     22155     22157     22155     22158
     22158     22159     22158     22160     22158     22161     22161     22162
     22161     22163     22161     22164     22164     22165     22164     22166
     22166     22167     22166     22168     22168     22169     22168     22170
     22168     22171     22171     22172     22171     22173     22171     22174
     22174     22175     22174     22176     22174     22177     22177     22178
     22177     22179     22177     22180     22180     22181     22180     22182
     22180     22183     22183     22184     22183     22185     22183     22186
     22140     22141     22141     22143     22141     22142     22143     22144
     22143     22145     22143     22187     22187     22188     22187     22189
     22187     22190     22190     22191     22190     22192     22190     22193
     22193     22194     22193     22195     22193     22196     22196     22197
     22196     22198     22196     22199     22199     22200     22199     22201
     22199     22202     22202     22203     22202     22204     22202     22205
     22205     22206     22205     22207     22207     22208     22207     22209
     22209     22210     22209     22211     22209     22212     22212     22213
     22212     22214     22212     22215     22215     22216     22215     22217
     22215     22218     22218     22219     22218     22220     22218     22221
     22221     22222     22221     22223     22221     22224     22224     22225
     22224     22226     22224     22227     22227     22228     22227     22229
     22227     22230     22230     22231     22230     22232     22230     22233
     22234     22235     22234     22236     22234     22237     22234     22238
     22238     22239     22238     22240     22238     22241     22241     22242
     22241     22243     22241     22248     22248     22244     22244     22247
     22244     22245     22244     22246     22249     22250     22249     22251
     22249     22252     22249     22247     22252     22253     22252     22260
     22252     22254     22260     22261     22260     22262     22260     22263
     22254     22255     22255     22257     22255     22256     22257     22258
     22257     22259     22257     22269     22269     22270     22269     22271
     22269     22272     22272     22273     22272     22274     22272     22275
     22275     22276     22275     22277     22275     22278     22278     22279
     22278     22280     22278     22281     22281     22282     22281     22283
     22281     22284     22284     22285     22284     22286     22284     22287
     22287     22288     22287     22292     22287     22289     22292     22293
     22292     22294     22292     22289     22294     22295     22294     22296
     22294     22297     22297     22298     22297     22299     22297     22300
     22300     22301     22300     22302     22300     22303     22303     22304
     22303     22305     22303     22306     22306     22307     22306     22308
     22306     22309     22309     22310     22309     22311     22309     22312
     22289     22290     22289     22291     22263     22264     22264     22266
     22264     22265     22266     22267     22266     22268     22266     22313
     22313     22314     22313     22315     22313     22316     22316     22317
     22316     22318     22316     22319     22319     22320     22319     22321
     22319     22322     22322     22323     22322     22324     22322     22325
     22325     22326     22325     22327     22325     22328     22328     22329
     22328     22330     22328     22331     22331     22332     22331     22333
     22331     22334     22334     22335     22334     22336     22334     22337
     22337     22338     22337     22339     22337     22340     22340     22341
     22340     22342     22340     22343     22343     22344     22343     22345
     22343     22346     22346     22347     22346     22348     22346     22349
     22349     22350     22349     22351     22349     22352     22353     22354
     22353     22355     22353     22356     22353     22357     22357     22358
     22357     22359     22357     22360     22360     22361     22360     22362
     22360     22367     22367     22363     22363     22366     22363     22364
     22363     22365     22368     22369     22368     22370     22368     22371
     22368     22366     22371     22372     22371     22379     22371     22373
     22379     22380     22379     22381     22379     22382     22373     22374
     22374     22376     22374     22375     22376     22377     22376     22378
     22376     22388     22388     22389     22388     22390     22388     22391
     22391     22392     22391     22393     22391     22394     22394     22395
     22394     22396     22394     22397     22397     22398     22397     22399
     22397     22400     22400     22401     22400     22402     22400     22403
     22403     22404     22403     22405     22403     22406     22406     22407
     22406     22411     22406     22408     22411     22412     22411     22413
     22411     22408     22413     22414     22413     22415     22413     22416
     22416     22417     22416     22418     22416     22419     22419     22420
     22419     22421     22419     22422     22422     22423     22422     22424
     22422     22425     22425     22426     22425     22427     22425     22428
     22428     22429     22428     22430     22428     22431     22408     22409
     22408     22410     22382     22383     22383     22385     22383     22384
     22385     22386     22385     22387     22385     22432     22432     22433
     22432     22434     22432     22435     22435     22436     22435     22437
     22435     22438     22438     22439     22438     22440     22438     22441
     22441     22442     22441     22443     22441     22444     22444     22445
     22444     22446     22444     22447     22447     22448     22447     22449
     22447     22450     22450     22451     22450     22452     22450     22453
     22453     22454     22453     22455     22453     22456     22456     22457
     22456     22458     22456     22459     22459     22460     22459     22461
     22459     22462     22462     22463     22462     22464     22462     22465
     22465     22466     22465     22467     22465     22468     22468     22469
     22468     22470     22468     22471     22471     22472     22471     22473
     22471     22474     22475     22476     22475     22477     22475     22478
     22475     22479     22479     22480     22479     22481     22479     22482
     22482     22483     22482     22484     22482     22489     22489     22485
     22485     22488     22485     22486     22485     22487     22490     22491
     22490     22492     22490     22493     22490     22488     22493     22494
     22493     22501     22493     22495     22501     22502     22501     22503
     22501     22504     22495     22496     22496     22498     22496     22497
     22498     22499     22498     22500     22498     22510     22510     22511
     22510     22512     22510     22513     22513     22514     22513     22515
     22513     22516     22516     22517     22516     22518     22516     22519
     22519     22520     22519     22521     22519     22522     22522     22523
     22522     22524     22522     22525     22525     22526     22525     22527
     22525     22528     22528     22529     22528     22533     22528     22530
     22533     22534     22533     22535     22533     22530     22535     22536
     22535     22537     22535     22538     22538     22539     22538     22540
     22538     22541     22541     22542     22541     22543     22541     22544
     22544     22545     22544     22546     22544     22547     22547     22548
     22547     22549     22547     22550     22550     22551     22550     22552
     22550     22553     22530     22531     22530     22532     22504     22505
     22505     22507     22505     22506     22507     22508     22507     22509
     22507     22554     22554     22555     22554     22556     22554     22557
     22557     22558     22557     22559     22557     22560     22560     22561
     22560     22562     22560     22563     22563     22564     22563     22565
     22563     22566     22566     22567     22566     22568     22566     22569
     22569     22570     22569     22571     22569     22572     22572     22573
     22572     22574     22572     22575     22575     22576     22575     22577
     22575     22578     22578     22579     22578     22580     22578     22581
     22581     22582     22581     22583     22581     22584     22584     22585
     22584     22586     22584     22587     22587     22588     22587     22589
     22587     22590     22590     22591     22590     22592     22590     22593
     22594     22595     22594     22596     22594     22597     22594     22598
     22598     22599     22598     22600     22598     22601     22601     22602
     22601     22603     22601     22608     22608     22604     22604     22607
     22604     22605     22604     22606     22609     22610     22609     22611
     22609     22612     22609     22607     22612     22613     22612     22620
     22612     22614     22620     22621     22620     22622     22620     22623
     22614     22615     22615     22617     22615     22616     22617     22618
     22617     22619     22617     22629     22629     22630     22629     22631
     22629     22632     22632     22633     22632     22634     22632     22635
     22635     22636     22635     22637     22635     22638     22638     22639
     22638     22640     22638     22641     22641     22642     22641     22643
     22641     22644     22644     22645     22644     22646     22644     22647
     22647     22648     22647     22652     22647     22649     22652     22653
     22652     22654     22652     22649     22654     22655     22654     22656
     22654     22657     22657     22658     22657     22659     22657     22660
     22660     22661     22660     22662     22660     22663     22663     22664
     22663     22665     22663     22666     22666     22667     22666     22668
     22666     22669     22669     22670     22669     22671     22669     22672
     22649     22650     22649     22651     22623     22624     22624     22626
     22624     22625     22626     22627     22626     22628     22626     22673
     22673     22674     22673     22675     22673     22676     22676     22677
     22676     22678     22676     22679     22679     22680     22679     22681
     22679     22682     22682     22683     22682     22684     22682     22685
     22685     22686     22685     22687     22685     22688     22688     22689
     22688     22690     22688     22691     22691     22692     22691     22693
     22691     22694     22694     22695     22694     22696     22694     22697
     22697     22698     22697     22699     22697     22700     22700     22701
     22700     22702     22700     22703     22703     22704     22703     22705
     22703     22706     22706     22707     22706     22708     22706     22709
     22709     22710     22709     22711     22709     22712     22713     22714
     22713     22715     22713     22716     22713     22717     22717     22718
     22717     22719     22717     22720     22720     22721     22720     22722
     22720     22727     22727     22723     22723     22726     22723     22724
     22723     22725     22728     22729     22728     22730     22728     22731
     22728     22726     22731     22732     22731     22739     22731     22733
     22739     22740     22739     22741     22739     22742     22733     22734
     22734     22736     22734     22735     22736     22737     22736     22738
     22736     22748     22748     22749     22748     22750     22748     22751
     22751     22752     22751     22753     22751     22754     22754     22755
     22754     22756     22754     22757     22757     22758     22757     22759
     22757     22760     22760     22761     22760     22762     22760     22763
     22763     22764     22763     22765     22763     22766     22766     22767
     22766     22771     22766     22768     22771     22772     22771     22773
     22771     22768     22773     22774     22773     22775     22773     22776
     22776     22777     22776     22778     22776     22779     22779     22780
     22779     22781     22779     22782     22782     22783     22782     22784
     22782     22785     22785     22786     22785     22787     22785     22788
     22788     22789     22788     22790     22788     22791     22768     22769
     22768     22770     22742     22743     22743     22745     22743     22744
     22745     22746     22745     22747     22745     22792     22792     22793
     22792     22794     22792     22795     22795     22796     22795     22797
     22795     22798     22798     22799     22798     22800     22798     22801
     22801     22802     22801     22803     22801     22804     22804     22805
     22804     22806     22804     22807     22807     22808     22807     22809
     22807     22810     22810     22811     22810     22812     22810     22813
     22813     22814     22813     22815     22813     22816     22816     22817
     22816     22818     22816     22819     22819     22820     22819     22821
     22819     22822     22822     22823     22822     22824     22822     22825
     22825     22826     22825     22827     22825     22828     22828     22829
     22828     22830     22828     22831     22831     22832     22831     22833
     22831     22834     22835     22836     22835     22837     22835     22838
     22835     22839     22839     22840     22839     22841     22839     22842
     22842     22843     22842     22844     22842     22849     22849     22845
     22845     22848     22845     22846     22845     22847     22850     22851
     22850     22852     22850     22853     22850     22848     22853     22854
     22853     22861     22853     22855     22861     22862     22861     22863
     22861     22864     22855     22856     22856     22858     22856     22857
     22858     22859     22858     22860     22858     22870     22870     22871
     22870     22872     22870     22873     22873     22874     22873     22875
     22873     22876     22876     22877     22876     22878     22876     22879
     22879     22880     22879     22881     22879     22882     22882     22883
     22882     22884     22882     22885     22885     22886     22885     22887
     22885     22888     22888     22889     22888     22890     22890     22891
     22890     22892     22892     22893     22892     22894     22892     22895
     22895     22896     22895     22897     22895     22898     22898     22899
     22898     22900     22898     22901     22901     22902     22901     22903
     22901     22904     22904     22905     22904     22906     22904     22907
     22907     22908     22907     22909     22907     22910     22864     22865
     22865     22867     22865     22866     22867     22868     22867     22869
     22867     22911     22911     22912     22911     22913     22911     22914
     22914     22915     22914     22916     22914     22917     22917     22918
     22917     22919     22917     22920     22920     22921     22920     22922
     22920     22923     22923     22924     22923     22925     22923     22926
     22926     22927     22926     22928     22926     22929     22929     22930
     22929     22931     22931     22932     22931     22933     22933     22934
     22933     22935     22933     22936     22936     22937     22936     22938
     22936     22939     22939     22940     22939     22941     22939     22942
     22942     22943     22942     22944     22942     22945     22945     22946
     22945     22947     22945     22948     22948     22949     22948     22950
     22948     22951     22951     22952     22951     22953     22951     22954
     22954     22955     22954     22956     22954     22957     22958     22959
     22958     22960     22958     22961     22958     22962     22962     22963
     22962     22964     22962     22965     22965     22966     22965     22967
     22965     22972     22972     22968     22968     22971     22968     22969
     22968     22970     22973     22974     22973     22975     22973     22976
     22973     22971     22976     22977     22976     22984     22976     22978
     22984     22985     22984     22986     22984     22987     22978     22979
     22979     22981     22979     22980     22981     22982     22981     22983
     22981     22993     22993     22994     22993     22995     22993     22996
     22996     22997     22996     22998     22996     22999     22999     23000
     22999     23001     22999     23002     23002     23003     23002     23004
     23002     23005     23005     23006     23005     23007     23005     23008
     23008     23009     23008     23010     23008     23011     23011     23012
     23011     23016     23011     23013     23016     23017     23016     23018
     23016     23013     23018     23019     23018     23020     23018     23021
     23021     23022     23021     23023     23021     23024     23024     23025
     23024     23026     23024     23027     23027     23028     23027     23029
     23027     23030     23030     23031     23030     23032     23030     23033
     23033     23034     23033     23035     23033     23036     23013     23014
     23013     23015     22987     22988     22988     22990     22988     22989
     22990     22991     22990     22992     22990     23037     23037     23038
     23037     23039     23037     23040     23040     23041     23040     23042
     23040     23043     23043     23044     23043     23045     23043     23046
     23046     23047     23046     23048     23046     23049     23049     23050
     23049     23051     23049     23052     23052     23053     23052     23054
     23052     23055     23055     23056     23055     23057     23055     23058
     23058     23059     23058     23060     23058     23061     23061     23062
     23061     23063     23061     23064     23064     23065     23064     23066
     23064     23067     23067     23068     23067     23069     23067     23070
     23070     23071     23070     23072     23070     23073     23073     23074
     23073     23075     23073     23076     23076     23077     23076     23078
     23076     23079     23080     23081     23080     23082     23080     23083
     23080     23084     23084     23085     23084     23086     23084     23087
     23087     23088     23087     23089     23087     23094     23094     23090
     23090     23093     23090     23091     23090     23092     23095     23096
     23095     23097     23095     23098     23095     23093     23098     23099
     23098     23106     23098     23100     23106     23107     23106     23108
     23106     23109     23100     23101     23101     23103     23101     23102
     23103     23104     23103     23105     23103     23115     23115     23116
     23115     23117     23115     23118     23118     23119     23118     23120
     23118     23121     23121     23122     23121     23123     23121     23124
     23124     23125     23124     23126     23124     23127     23127     23128
     23127     23129     23127     23130     23130     23131     23130     23132
     23130     23133     23133     23134     23133     23138     23133     23135
     23138     23139     23138     23140     23138     23135     23140     23141
     23140     23142     23140     23143     23143     23144     23143     23145
     23143     23146     23146     23147     23146     23148     23146     23149
     23149     23150     23149     23151     23149     23152     23152     23153
     23152     23154     23152     23155     23155     23156     23155     23157
     23155     23158     23135     23136     23135     23137     23109     23110
     23110     23112     23110     23111     23112     23113     23112     23114
     23112     23159     23159     23160     23159     23161     23159     23162
     23162     23163     23162     23164     23162     23165     23165     23166
     23165     23167     23165     23168     23168     23169     23168     23170
     23168     23171     23171     23172     23171     23173     23171     23174
     23174     23175     23174     23176     23174     23177     23177     23178
     23177     23179     23177     23180     23180     23181     23180     23182
     23180     23183     23183     23184     23183     23185     23183     23186
     23186     23187     23186     23188     23186     23189     23189     23190
     23189     23191     23189     23192     23192     23193     23192     23194
     23192     23195     23195     23196     23195     23197     23195     23198
     23198     23199     23198     23200     23198     23201     23202     23203
     23202     23204     23202     23205     23202     23206     23206     23207
     23206     23208     23206     23209     23209     23210     23209     23211
     23209     23216     23216     23212     23212     23215     23212     23213
     23212     23214     23217     23218     23217     23219     23217     23220
     23217     23215     23220     23221     23220     23228     23220     23222
     23228     23229     23228     23230     23228     23231     23222     23223
     23223     23225     23223     23224     23225     23226     23225     23227
     23225     23237     23237     23238     23237     23239     23237     23240
     23240     23241     23240     23242     23240     23243     23243     23244
     23243     23245     23243     23246     23246     23247     23246     23248
     23246     23249     23249     23250     23249     23251     23249     23252
     23252     23253     23252     23254     23252     23255     23255     23256
     23255     23257     23257     23258     23257     23259     23259     23260
     23259     23261     23259     23262     23262     23263     23262     23264
     23262     23265     23265     23266     23265     23267     23265     23268
     23268     23269     23268     23270     23268     23271     23271     23272
     23271     23273     23271     23274     23274     23275     23274     23276
     23274     23277     23231     23232     23232     23234     23232     23233
     23234     23235     23234     23236     23234     23278     23278     23279
     23278     23280     23278     23281     23281     23282     23281     23283
     23281     23284     23284     23285     23284     23286     23284     23287
     23287     23288     23287     23289     23287     23290     23290     23291
     23290     23292     23290     23293     23293     23294     23293     23295
     23293     23296     23296     23297     23296     23298     23298     23299
     23298     23300     23300     23301     23300     23302     23300     23303
     23303     23304     23303     23305     23303     23306     23306     23307
     23306     23308     23306     23309     23309     23310     23309     23311
     23309     23312     23312     23313     23312     23314     23312     23315
     23315     23316     23315     23317     23315     23318     23318     23319
     23318     23320     23318     23321     23321     23322     23321     23323
     23321     23324     23325     23326     23325     23327     23325     23328
     23325     23329     23329     23330     23329     23331     23329     23332
     23332     23333     23332     23334     23332     23339     23339     23335
     23335     23338     23335     23336     23335     23337     23340     23341
     23340     23342     23340     23343     23340     23338     23343     23344
     23343     23351     23343     23345     23351     23352     23351     23353
     23351     23354     23345     23346     23346     23348     23346     23347
     23348     23349     23348     23350     23348     23360     23360     23361
     23360     23362     23360     23363     23363     23364     23363     23365
     23363     23366     23366     23367     23366     23368     23366     23369
     23369     23370     23369     23371     23369     23372     23372     23373
     23372     23374     23372     23375     23375     23376     23375     23377
     23375     23378     23378     23379     23378     23383     23378     23380
     23383     23384     23383     23385     23383     23380     23385     23386
     23385     23387     23385     23388     23388     23389     23388     23390
     23388     23391     23391     23392     23391     23393     23391     23394
     23394     23395     23394     23396     23394     23397     23397     23398
     23397     23399     23397     23400     23400     23401     23400     23402
     23400     23403     23380     23381     23380     23382     23354     23355
     23355     23357     23355     23356     23357     23358     23357     23359
     23357     23404     23404     23405     23404     23406     23404     23407
     23407     23408     23407     23409     23407     23410     23410     23411
     23410     23412     23410     23413     23413     23414     23413     23415
     23413     23416     23416     23417     23416     23418     23416     23419
     23419     23420     23419     23421     23419     23422     23422     23423
     23422     23424     23422     23425     23425     23426     23425     23427
     23425     23428     23428     23429     23428     23430     23428     23431
     23431     23432     23431     23433     23431     23434     23434     23435
     23434     23436     23434     23437     23437     23438     23437     23439
     23437     23440     23440     23441     23440     23442     23440     23443
     23443     23444     23443     23445     23443     23446     23447     23448
     23447     23449     23447     23450     23447     23451     23451     23452
     23451     23453     23451     23454     23454     23455     23454     23456
     23454     23461     23461     23457     23457     23460     23457     23458
     23457     23459     23462     23463     23462     23464     23462     23465
     23462     23460     23465     23466     23465     23473     23465     23467
     23473     23474     23473     23475     23473     23476     23467     23468
     23468     23470     23468     23469     23470     23471     23470     23472
     23470     23482     23482     23483     23482     23484     23482     23485
     23485     23486     23485     23487     23485     23488     23488     23489
     23488     23490     23488     23491     23491     23492     23491     23493
     23491     23494     23494     23495     23494     23496     23494     23497
     23497     23498     23497     23499     23497     23500     23500     23501
     23500     23505     23500     23502     23505     23506     23505     23507
     23505     23502     23507     23508     23507     23509     23507     23510
     23510     23511     23510     23512     23510     23513     23513     23514
     23513     23515     23513     23516     23516     23517     23516     23518
     23516     23519     23519     23520     23519     23521     23519     23522
     23522     23523     23522     23524     23522     23525     23502     23503
     23502     23504     23476     23477     23477     23479     23477     23478
     23479     23480     23479     23481     23479     23526     23526     23527
     23526     23528     23526     23529     23529     23530     23529     23531
     23529     23532     23532     23533     23532     23534     23532     23535
     23535     23536     23535     23537     23535     23538     23538     23539
     23538     23540     23538     23541     23541     23542     23541     23543
     23541     23544     23544     23545     23544     23546     23544     23547
     23547     23548     23547     23549     23547     23550     23550     23551
     23550     23552     23550     23553     23553     23554     23553     23555
     23553     23556     23556     23557     23556     23558     23556     23559
     23559     23560     23559     23561     23559     23562     23562     23563
     23562     23564     23562     23565     23565     23566     23565     23567
     23565     23568     23569     23570     23569     23571     23569     23572
     23569     23573     23573     23574     23573     23575     23573     23576
     23576     23577     23576     23578     23576     23583     23583     23579
     23579     23582     23579     23580     23579     23581     23584     23585
     23584     23586     23584     23587     23584     23582     23587     23588
     23587     23595     23587     23589     23595     23596     23595     23597
     23595     23598     23589     23590     23590     23592     23590     23591
     23592     23593     23592     23594     23592     23604     23604     23605
     23604     23606     23604     23607     23607     23608     23607     23609
     23607     23610     23610     23611     23610     23612     23610     23613
     23613     23614     23613     23615     23613     23616     23616     23617
     23616     23618     23616     23619     23619     23620     23619     23621
     23619     23622     23622     23623     23622     23627     23622     23624
     23627     23628     23627     23629     23627     23624     23629     23630
     23629     23631     23629     23632     23632     23633     23632     23634
     23632     23635     23635     23636     23635     23637     23635     23638
     23638     23639     23638     23640     23638     23641     23641     23642
     23641     23643     23641     23644     23644     23645     23644     23646
     23644     23647     23624     23625     23624     23626     23598     23599
     23599     23601     23599     23600     23601     23602     23601     23603
     23601     23648     23648     23649     23648     23650     23648     23651
     23651     23652     23651     23653     23651     23654     23654     23655
     23654     23656     23654     23657     23657     23658     23657     23659
     23657     23660     23660     23661     23660     23662     23660     23663
     23663     23664     23663     23665     23663     23666     23666     23667
     23666     23668     23666     23669     23669     23670     23669     23671
     23669     23672     23672     23673     23672     23674     23672     23675
     23675     23676     23675     23677     23675     23678     23678     23679
     23678     23680     23678     23681     23681     23682     23681     23683
     23681     23684     23684     23685     23684     23686     23684     23687
     23687     23688     23687     23689     23687     23690     23691     23692
     23691     23693     23691     23694     23691     23695     23695     23696
     23695     23697     23695     23698     23698     23699     23698     23700
     23698     23705     23705     23701     23701     23704     23701     23702
     23701     23703     23706     23707     23706     23708     23706     23709
     23706     23704     23709     23710     23709     23717     23709     23711
     23717     23718     23717     23719     23717     23720     23711     23712
     23712     23714     23712     23713     23714     23715     23714     23716
     23714     23726     23726     23727     23726     23728     23726     23729
     23729     23730     23729     23731     23729     23732     23732     23733
     23732     23734     23732     23735     23735     23736     23735     23737
     23735     23738     23738     23739     23738     23740     23738     23741
     23741     23742     23741     23743     23741     23744     23744     23745
     23744     23749     23744     23746     23749     23750     23749     23751
     23749     23746     23751     23752     23751     23753     23751     23754
     23754     23755     23754     23756     23754     23757     23757     23758
     23757     23759     23757     23760     23760     23761     23760     23762
     23760     23763     23763     23764     23763     23765     23763     23766
     23766     23767     23766     23768     23766     23769     23746     23747
     23746     23748     23720     23721     23721     23723     23721     23722
     23723     23724     23723     23725     23723     23770     23770     23771
     23770     23772     23770     23773     23773     23774     23773     23775
     23773     23776     23776     23777     23776     23778     23776     23779
     23779     23780     23779     23781     23779     23782     23782     23783
     23782     23784     23782     23785     23785     23786     23785     23787
     23785     23788     23788     23789     23788     23790     23788     23791
     23791     23792     23791     23793     23791     23794     23794     23795
     23794     23796     23794     23797     23797     23798     23797     23799
     23797     23800     23800     23801     23800     23802     23800     23803
     23803     23804     23803     23805     23803     23806     23806     23807
     23806     23808     23806     23809     23809     23810     23809     23811
     23809     23812     23813     23814     23813     23815     23813     23816
     23813     23817     23817     23818     23817     23819     23817     23820
     23820     23821     23820     23822     23820     23827     23827     23823
     23823     23826     23823     23824     23823     23825     23828     23829
     23828     23830     23828     23831     23828     23826     23831     23832
     23831     23839     23831     23833     23839     23840     23839     23841
     23839     23842     23833     23834     23834     23836     23834     23835
     23836     23837     23836     23838     23836     23848     23848     23849
     23848     23850     23848     23851     23851     23852     23851     23853
     23851     23854     23854     23855     23854     23856     23854     23857
     23857     23858     23857     23859     23857     23860     23860     23861
     23860     23862     23860     23863     23863     23864     23863     23865
     23863     23866     23866     23867     23866     23871     23866     23868
     23871     23872     23871     23873     23871     23868     23873     23874
     23873     23875     23873     23876     23876     23877     23876     23878
     23876     23879     23879     23880     23879     23881     23879     23882
     23882     23883     23882     23884     23882     23885     23885     23886
     23885     23887     23885     23888     23888     23889     23888     23890
     23888     23891     23868     23869     23868     23870     23842     23843
     23843     23845     23843     23844     23845     23846     23845     23847
     23845     23892     23892     23893     23892     23894     23892     23895
     23895     23896     23895     23897     23895     23898     23898     23899
     23898     23900     23898     23901     23901     23902     23901     23903
     23901     23904     23904     23905     23904     23906     23904     23907
     23907     23908     23907     23909     23907     23910     23910     23911
     23910     23912     23910     23913     23913     23914     23913     23915
     23913     23916     23916     23917     23916     23918     23916     23919
     23919     23920     23919     23921     23919     23922     23922     23923
     23922     23924     23922     23925     23925     23926     23925     23927
     23925     23928     23928     23929     23928     23930     23928     23931
     23931     23932     23931     23933     23931     23934     23935     23936
     23935     23937     23935     23938     23935     23939     23939     23940
     23939     23941     23939     23942     23942     23943     23942     23944
     23942     23949     23949     23945     23945     23948     23945     23946
     23945     23947     23950     23951     23950     23952     23950     23953
     23950     23948     23953     23954     23953     23961     23953     23955
     23961     23962     23961     23963     23961     23964     23955     23956
     23956     23958     23956     23957     23958     23959     23958     23960
     23958     23970     23970     23971     23970     23972     23970     23973
     23973     23974     23973     23975     23973     23976     23976     23977
     23976     23978     23976     23979     23979     23980     23979     23981
     23979     23982     23982     23983     23982     23984     23982     23985
     23985     23986     23985     23987     23985     23988     23988     23989
     23988     23993     23988     23990     23993     23994     23993     23995
     23993     23990     23995     23996     23995     23997     23995     23998
     23998     23999     23998     24000     23998     24001     24001     24002
     24001     24003     24001     24004     24004     24005     24004     24006
     24004     24007     24007     24008     24007     24009     24007     24010
     24010     24011     24010     24012     24010     24013     23990     23991
     23990     23992     23964     23965     23965     23967     23965     23966
     23967     23968     23967     23969     23967     24014     24014     24015
     24014     24016     24014     24017     24017     24018     24017     24019
     24017     24020     24020     24021     24020     24022     24020     24023
     24023     24024     24023     24025     24023     24026     24026     24027
     24026     24028     24026     24029     24029     24030     24029     24031
     24029     24032     24032     24033     24032     24034     24032     24035
     24035     24036     24035     24037     24035     24038     24038     24039
     24038     24040     24038     24041     24041     24042     24041     24043
     24041     24044     24044     24045     24044     24046     24044     24047
     24047     24048     24047     24049     24047     24050     24050     24051
     24050     24052     24050     24053     24054     24055     24054     24056
     24054     24057     24054     24058     24058     24059     24058     24060
     24058     24061     24061     24062     24061     24063     24061     24068
     24068     24064     24064     24067     24064     24065     24064     24066
     24069     24070     24069     24071     24069     24072     24069     24067
     24072     24073     24072     24080     24072     24074     24080     24081
     24080     24082     24080     24083     24074     24075     24075     24077
     24075     24076     24077     24078     24077     24079     24077     24089
     24089     24090     24089     24091     24089     24092     24092     24093
     24092     24094     24092     24095     24095     24096     24095     24097
     24095     24098     24098     24099     24098     24100     24098     24101
     24101     24102     24101     24103     24101     24104     24104     24105
     24104     24106     24104     24107     24107     24108     24107     24112
     24107     24109     24112     24113     24112     24114     24112     24109
     24114     24115     24114     24116     24114     24117     24117     24118
     24117     24119     24117     24120     24120     24121     24120     24122
     24120     24123     24123     24124     24123     24125     24123     24126
     24126     24127     24126     24128     24126     24129     24129     24130
     24129     24131     24129     24132     24109     24110     24109     24111
     24083     24084     24084     24086     24084     24085     24086     24087
     24086     24088     24086     24133     24133     24134     24133     24135
     24133     24136     24136     24137     24136     24138     24136     24139
     24139     24140     24139     24141     24139     24142     24142     24143
     24142     24144     24142     24145     24145     24146     24145     24147
     24145     24148     24148     24149     24148     24150     24148     24151
     24151     24152     24151     24153     24151     24154     24154     24155
     24154     24156     24154     24157     24157     24158     24157     24159
     24157     24160     24160     24161     24160     24162     24160     24163
     24163     24164     24163     24165     24163     24166     24166     24167
     24166     24168     24166     24169     24169     24170     24169     24171
     24169     24172     24172     24173     24172     24174     24172     24175
     24176     24177     24176     24178     24176     24179     24176     24180
     24180     24181     24180     24182     24180     24183     24183     24184
     24183     24185     24183     24190     24190     24186     24186     24189
     24186     24187     24186     24188     24191     24192     24191     24193
     24191     24194     24191     24189     24194     24195     24194     24202
     24194     24196     24202     24203     24202     24204     24202     24205
     24196     24197     24197     24199     24197     24198     24199     24200
     24199     24201     24199     24211     24211     24212     24211     24213
     24211     24214     24214     24215     24214     24216     24214     24217
     24217     24218     24217     24219     24217     24220     24220     24221
     24220     24222     24220     24223     24223     24224     24223     24225
     24223     24226     24226     24227     24226     24228     24226     24229
     24229     24230     24229     24231     24231     24232     24231     24233
     24233     24234     24233     24235     24233     24236     24236     24237
     24236     24238     24236     24239     24239     24240     24239     24241
     24239     24242     24242     24243     24242     24244     24242     24245
     24245     24246     24245     24247     24245     24248     24248     24249
     24248     24250     24248     24251     24251     24252     24251     24253
     24251     24254     24254     24255     24254     24256     24254     24257
     24205     24206     24206     24208     24206     24207     24208     24209
     24208     24210     24208     24258     24258     24259     24258     24260
     24258     24261     24261     24262     24261     24263     24261     24264
     24264     24265     24264     24266     24264     24267     24267     24268
     24267     24269     24267     24270     24270     24271     24270     24272
     24270     24273     24273     24274     24273     24275     24273     24276
     24276     24277     24276     24278     24276     24279     24279     24280
     24279     24281     24279     24282     24282     24283     24282     24284
     24282     24285     24285     24286     24285     24287     24285     24288
     24288     24289     24288     24290     24288     24291     24291     24292
     24291     24293     24291     24294     24294     24295     24294     24296
     24294     24297     24297     24298     24297     24299     24297     24300
     24301     24302     24301     24303     24301     24304     24301     24305
     24305     24306     24305     24307     24305     24308     24308     24309
     24308     24310     24308     24315     24315     24311     24311     24314
     24311     24312     24311     24313     24316     24317     24316     24318
     24316     24319     24316     24314     24319     24320     24319     24327
     24319     24321     24327     24328     24327     24329     24327     24330
     24321     24322     24322     24324     24322     24323     24324     24325
     24324     24326     24324     24336     24336     24337     24336     24338
     24336     24339     24339     24340     24339     24341     24339     24342
     24342     24343     24342     24344     24342     24345     24345     24346
     24345     24347     24345     24348     24348     24349     24348     24350
     24348     24351     24351     24352     24351     24353     24351     24354
     24354     24355     24354     24359     24354     24356     24359     24360
     24359     24361     24359     24356     24361     24362     24361     24363
     24361     24364     24364     24365     24364     24366     24364     24367
     24367     24368     24367     24369     24367     24370     24370     24371
     24370     24372     24370     24373     24373     24374     24373     24375
     24373     24376     24376     24377     24376     24378     24376     24379
     24356     24357     24356     24358     24330     24331     24331     24333
     24331     24332     24333     24334     24333     24335     24333     24380
     24380     24381     24380     24382     24380     24383     24383     24384
     24383     24385     24383     24386     24386     24387     24386     24388
     24386     24389     24389     24390     24389     24391     24389     24392
     24392     24393     24392     24394     24392     24395     24395     24396
     24395     24397     24395     24398     24398     24399     24398     24400
     24398     24401     24401     24402     24401     24403     24401     24404
     24404     24405     24404     24406     24404     24407     24407     24408
     24407     24409     24407     24410     24410     24411     24410     24412
     24410     24413     24413     24414     24413     24415     24413     24416
     24416     24417     24416     24418     24416     24419     24419     24420
     24419     24421     24419     24422     24423     24424     24423     24425
     24423     24426     24423     24427     24427     24428     24427     24429
     24427     24430     24430     24431     24430     24432     24430     24437
     24437     24433     24433     24436     24433     24434     24433     24435
     24438     24439     24438     24440     24438     24441     24438     24436
     24441     24442     24441     24449     24441     24443     24449     24450
     24449     24451     24449     24452     24443     24444     24444     24446
     24444     24445     24446     24447     24446     24448     24446     24458
     24458     24459     24458     24460     24458     24461     24461     24462
     24461     24463     24461     24464     24464     24465     24464     24466
     24464     24467     24467     24468     24467     24469     24467     24470
     24470     24471     24470     24472     24470     24473     24473     24474
     24473     24475     24473     24476     24476     24477     24476     24478
     24478     24479     24478     24480     24480     24481     24480     24482
     24480     24483     24483     24484     24483     24485     24483     24486
     24486     24487     24486     24488     24486     24489     24489     24490
     24489     24491     24489     24492     24492     24493     24492     24494
     24492     24495     24495     24496     24495     24497     24495     24498
     24498     24499     24498     24500     24498     24501     24501     24502
     24501     24503     24501     24504     24452     24453     24453     24455
     24453     24454     24455     24456     24455     24457     24455     24505
     24505     24506     24505     24507     24505     24508     24508     24509
     24508     24510     24508     24511     24511     24512     24511     24513
     24511     24514     24514     24515     24514     24516     24514     24517
     24517     24518     24517     24519     24517     24520     24520     24521
     24520     24522     24520     24523     24523     24524     24523     24525
     24523     24526     24526     24527     24526     24528     24526     24529
     24529     24530     24529     24531     24529     24532     24532     24533
     24532     24534     24532     24535     24535     24536     24535     24537
     24535     24538     24538     24539     24538     24540     24538     24541
     24541     24542     24541     24543     24541     24544     24544     24545
     24544     24546     24544     24547     24548     24549     24548     24550
     24548     24551     24548     24552     24552     24553     24552     24554
     24552     24555     24555     24556     24555     24557     24555     24562
     24562     24558     24558     24561     24558     24559     24558     24560
     24563     24564     24563     24565     24563     24566     24563     24561
     24566     24567     24566     24574     24566     24568     24574     24575
     24574     24576     24574     24577     24568     24569     24569     24571
     24569     24570     24571     24572     24571     24573     24571     24583
     24583     24584     24583     24585     24583     24586     24586     24587
     24586     24588     24586     24589     24589     24590     24589     24591
     24589     24592     24592     24593     24592     24594     24592     24595
     24595     24596     24595     24597     24595     24598     24598     24599
     24598     24600     24598     24601     24601     24602     24601     24603
     24603     24604     24603     24605     24605     24606     24605     24607
     24605     24608     24608     24609     24608     24610     24608     24611
     24611     24612     24611     24613     24611     24614     24614     24615
     24614     24616     24614     24617     24617     24618     24617     24619
     24617     24620     24620     24621     24620     24622     24620     24623
     24623     24624     24623     24625     24623     24626     24626     24627
     24626     24628     24626     24629     24577     24578     24578     24580
     24578     24579     24580     24581     24580     24582     24580     24630
     24630     24631     24630     24632     24630     24633     24633     24634
     24633     24635     24633     24636     24636     24637     24636     24638
     24636     24639     24639     24640     24639     24641     24639     24642
     24642     24643     24642     24644     24642     24645     24645     24646
     24645     24647     24645     24648     24648     24649     24648     24650
     24648     24651     24651     24652     24651     24653     24651     24654
     24654     24655     24654     24656     24654     24657     24657     24658
     24657     24659     24657     24660     24660     24661     24660     24662
     24660     24663     24663     24664     24663     24665     24663     24666
     24666     24667     24666     24668     24666     24669     24669     24670
     24669     24671     24669     24672     24673     24674     24673     24675
     24673     24676     24673     24677     24677     24678     24677     24679
     24677     24680     24680     24681     24680     24682     24680     24687
     24687     24683     24683     24686     24683     24684     24683     24685
     24688     24689     24688     24690     24688     24691     24688     24686
     24691     24692     24691     24699     24691     24693     24699     24700
     24699     24701     24699     24702     24693     24694     24694     24696
     24694     24695     24696     24697     24696     24698     24696     24708
     24708     24709     24708     24710     24708     24711     24711     24712
     24711     24713     24711     24714     24714     24715     24714     24716
     24714     24717     24717     24718     24717     24719     24717     24720
     24720     24721     24720     24722     24720     24723     24723     24724
     24723     24725     24723     24726     24726     24727     24726     24728
     24728     24729     24728     24730     24730     24731     24730     24732
     24730     24733     24733     24734     24733     24735     24733     24736
     24736     24737     24736     24738     24736     24739     24739     24740
     24739     24741     24739     24742     24742     24743     24742     24744
     24742     24745     24745     24746     24745     24747     24745     24748
     24702     24703     24703     24705     24703     24704     24705     24706
     24705     24707     24705     24749     24749     24750     24749     24751
     24749     24752     24752     24753     24752     24754     24752     24755
     24755     24756     24755     24757     24755     24758     24758     24759
     24758     24760     24758     24761     24761     24762     24761     24763
     24761     24764     24764     24765     24764     24766     24764     24767
     24767     24768     24767     24769     24769     24770     24769     24771
     24771     24772     24771     24773     24771     24774     24774     24775
     24774     24776     24774     24777     24777     24778     24777     24779
     24777     24780     24780     24781     24780     24782     24780     24783
     24783     24784     24783     24785     24783     24786     24786     24787
     24786     24788     24786     24789     24789     24790     24789     24791
     24789     24792     24792     24793     24792     24794     24792     24795
     24800     24799     24799     24796     24796     24797     24796     24798
     24796     24801     24804     24803     24803     24801     24801     24802
     24801     24805     24805     24806     24805     24807     24805     24812
     24812     24808     24808     24811     24808     24809     24808     24810
     24813     24814     24813     24815     24813     24816     24813     24811
     24816     24817     24816     24824     24816     24818     24824     24825
     24824     24826     24824     24827     24818     24819     24819     24821
     24819     24820     24821     24822     24821     24823     24821     24833
     24833     24834     24833     24835     24833     24836     24836     24837
     24836     24838     24836     24839     24839     24840     24839     24841
     24839     24842     24842     24843     24842     24844     24842     24845
     24845     24846     24845     24847     24845     24848     24848     24849
     24848     24850     24848     24851     24851     24852     24851     24853
     24853     24854     24853     24855     24855     24856     24855     24857
     24855     24858     24858     24859     24858     24860     24858     24861
     24861     24862     24861     24863     24861     24864     24864     24865
     24864     24866     24864     24867     24867     24868     24867     24869
     24867     24870     24870     24871     24870     24872     24870     24873
     24827     24828     24828     24830     24828     24829     24830     24831
     24830     24832     24830     24874     24874     24875     24874     24876
     24874     24877     24877     24878     24877     24879     24877     24880
     24880     24881     24880     24882     24880     24883     24883     24884
     24883     24885     24883     24886     24886     24887     24886     24888
     24886     24889     24889     24890     24889     24891     24889     24892
     24892     24893     24892     24894     24892     24895     24895     24896
     24895     24897     24895     24898     24898     24899     24898     24900
     24898     24901     24901     24902     24901     24903     24901     24904
     24904     24905     24904     24906     24904     24907     24907     24908
     24907     24909     24907     24910     24910     24911     24910     24912
     24910     24913     24913     24914     24913     24915     24913     24916
     24921     24920     24920     24917     24917     24918     24917     24919
     24917     24922     24925     24924     24924     24922     24922     24923
     24922     24926     24926     24927     24926     24928     24926     24933
     24933     24929     24929     24932     24929     24930     24929     24931
     24934     24935     24934     24936     24934     24937     24934     24932
     24937     24938     24937     24945     24937     24939     24945     24946
     24945     24947     24945     24948     24939     24940     24940     24942
     24940     24941     24942     24943     24942     24944     24942     24954
     24954     24955     24954     24956     24954     24957     24957     24958
     24957     24959     24957     24960     24960     24961     24960     24962
     24960     24963     24963     24964     24963     24965     24963     24966
     24966     24967     24966     24968     24966     24969     24969     24970
     24969     24971     24969     24972     24972     24973     24972     24977
     24972     24974     24977     24978     24977     24979     24977     24974
     24979     24980     24979     24981     24979     24982     24982     24983
     24982     24984     24982     24985     24985     24986     24985     24987
     24985     24988     24988     24989     24988     24990     24988     24991
     24991     24992     24991     24993     24991     24994     24994     24995
     24994     24996     24994     24997     24974     24975     24974     24976
     24948     24949     24949     24951     24949     24950     24951     24952
     24951     24953     24951     24998     24998     24999     24998     25000
     24998     25001     25001     25002     25001     25003     25001     25004
     25004     25005     25004     25006     25004     25007     25007     25008
     25007     25009     25007     25010     25010     25011     25010     25012
     25010     25013     25013     25014     25013     25015     25013     25016
     25016     25017     25016     25018     25016     25019     25019     25020
     25019     25021     25019     25022     25022     25023     25022     25024
     25022     25025     25025     25026     25025     25027     25025     25028
     25028     25029     25028     25030     25028     25031     25031     25032
     25031     25033     25031     25034     25034     25035     25034     25036
     25034     25037     25037     25038     25037     25039     25037     25040
     25041     25042     25041     25043     25041     25044     25041     25045
     25045     25046     25045     25047     25045     25048     25048     25049
     25048     25050     25048     25055     25055     25051     25051     25054
     25051     25052     25051     25053     25056     25057     25056     25058
     25056     25059     25056     25054     25059     25060     25059     25067
     25059     25061     25067     25068     25067     25069     25067     25070
     25061     25062     25062     25064     25062     25063     25064     25065
     25064     25066     25064     25076     25076     25077     25076     25078
     25076     25079     25079     25080     25079     25081     25079     25082
     25082     25083     25082     25084     25082     25085     25085     25086
     25085     25087     25085     25088     25088     25089     25088     25090
     25088     25091     25091     25092     25091     25093     25091     25094
     25094     25095     25094     25096     25096     25097     25096     25098
     25098     25099     25098     25100     25098     25101     25101     25102
     25101     25103     25101     25104     25104     25105     25104     25106
     25104     25107     25107     25108     25107     25109     25107     25110
     25110     25111     25110     25112     25110     25113     25113     25114
     25113     25115     25113     25116     25070     25071     25071     25073
     25071     25072     25073     25074     25073     25075     25073     25117
     25117     25118     25117     25119     25117     25120     25120     25121
     25120     25122     25120     25123     25123     25124     25123     25125
     25123     25126     25126     25127     25126     25128     25126     25129
     25129     25130     25129     25131     25129     25132     25132     25133
     25132     25134     25132     25135     25135     25136     25135     25137
     25137     25138     25137     25139     25139     25140     25139     25141
     25139     25142     25142     25143     25142     25144     25142     25145
     25145     25146     25145     25147     25145     25148     25148     25149
     25148     25150     25148     25151     25151     25152     25151     25153
     25151     25154     25154     25155     25154     25156     25154     25157
     25157     25158     25157     25159     25157     25160     25160     25161
     25160     25162     25160     25163     25164     25165     25164     25166
     25164     25167     25164     25168     25168     25169     25168     25170
     25168     25171     25171     25172     25171     25173     25171     25178
     25178     25174     25174     25177     25174     25175     25174     25176
     25179     25180     25179     25181     25179     25182     25179     25177
     25182     25183     25182     25190     25182     25184     25190     25191
     25190     25192     25190     25193     25184     25185     25185     25187
     25185     25186     25187     25188     25187     25189     25187     25199
     25199     25200     25199     25201     25199     25202     25202     25203
     25202     25204     25202     25205     25205     25206     25205     25207
     25205     25208     25208     25209     25208     25210     25208     25211
     25211     25212     25211     25213     25211     25214     25214     25215
     25214     25216     25214     25217     25217     25218     25217     25222
     25217     25219     25222     25223     25222     25224     25222     25219
     25224     25225     25224     25226     25224     25227     25227     25228
     25227     25229     25227     25230     25230     25231     25230     25232
     25230     25233     25233     25234     25233     25235     25233     25236
     25236     25237     25236     25238     25236     25239     25239     25240
     25239     25241     25239     25242     25219     25220     25219     25221
     25193     25194     25194     25196     25194     25195     25196     25197
     25196     25198     25196     25243     25243     25244     25243     25245
     25243     25246     25246     25247     25246     25248     25246     25249
     25249     25250     25249     25251     25249     25252     25252     25253
     25252     25254     25252     25255     25255     25256     25255     25257
     25255     25258     25258     25259     25258     25260     25258     25261
     25261     25262     25261     25263     25261     25264     25264     25265
     25264     25266     25264     25267     25267     25268     25267     25269
     25267     25270     25270     25271     25270     25272     25270     25273
     25273     25274     25273     25275     25273     25276     25276     25277
     25276     25278     25276     25279     25279     25280     25279     25281
     25279     25282     25282     25283     25282     25284     25282     25285
     25286     25287     25286     25288     25286     25289     25286     25290
     25290     25291     25290     25292     25290     25293     25293     25294
     25293     25295     25293     25300     25300     25296     25296     25299
     25296     25297     25296     25298     25301     25302     25301     25303
     25301     25304     25301     25299     25304     25305     25304     25312
     25304     25306     25312     25313     25312     25314     25312     25315
     25306     25307     25307     25309     25307     25308     25309     25310
     25309     25311     25309     25321     25321     25322     25321     25323
     25321     25324     25324     25325     25324     25326     25324     25327
     25327     25328     25327     25329     25327     25330     25330     25331
     25330     25332     25330     25333     25333     25334     25333     25335
     25333     25336     25336     25337     25336     25338     25336     25339
     25339     25340     25339     25344     25339     25341     25344     25345
     25344     25346     25344     25341     25346     25347     25346     25348
     25346     25349     25349     25350     25349     25351     25349     25352
     25352     25353     25352     25354     25352     25355     25355     25356
     25355     25357     25355     25358     25358     25359     25358     25360
     25358     25361     25361     25362     25361     25363     25361     25364
     25341     25342     25341     25343     25315     25316     25316     25318
     25316     25317     25318     25319     25318     25320     25318     25365
     25365     25366     25365     25367     25365     25368     25368     25369
     25368     25370     25368     25371     25371     25372     25371     25373
     25371     25374     25374     25375     25374     25376     25374     25377
     25377     25378     25377     25379     25377     25380     25380     25381
     25380     25382     25380     25383     25383     25384     25383     25385
     25383     25386     25386     25387     25386     25388     25386     25389
     25389     25390     25389     25391     25389     25392     25392     25393
     25392     25394     25392     25395     25395     25396     25395     25397
     25395     25398     25398     25399     25398     25400     25398     25401
     25401     25402     25401     25403     25401     25404     25404     25405
     25404     25406     25404     25407     25412     25411     25411     25408
     25408     25409     25408     25410     25408     25413     25416     25415
     25415     25413     25413     25414     25413     25417     25417     25418
     25417     25419     25417     25424     25424     25420     25420     25423
     25420     25421     25420     25422     25425     25426     25425     25427
     25425     25428     25425     25423     25428     25429     25428     25436
     25428     25430     25436     25437     25436     25438     25436     25439
     25430     25431     25431     25433     25431     25432     25433     25434
     25433     25435     25433     25445     25445     25446     25445     25447
     25445     25448     25448     25449     25448     25450     25448     25451
     25451     25452     25451     25453     25451     25454     25454     25455
     25454     25456     25454     25457     25457     25458     25457     25459
     25457     25460     25460     25461     25460     25462     25460     25463
     25463     25464     25463     25468     25463     25465     25468     25469
     25468     25470     25468     25465     25470     25471     25470     25472
     25470     25473     25473     25474     25473     25475     25473     25476
     25476     25477     25476     25478     25476     25479     25479     25480
     25479     25481     25479     25482     25482     25483     25482     25484
     25482     25485     25485     25486     25485     25487     25485     25488
     25465     25466     25465     25467     25439     25440     25440     25442
     25440     25441     25442     25443     25442     25444     25442     25489
     25489     25490     25489     25491     25489     25492     25492     25493
     25492     25494     25492     25495     25495     25496     25495     25497
     25495     25498     25498     25499     25498     25500     25498     25501
     25501     25502     25501     25503     25501     25504     25504     25505
     25504     25506     25504     25507     25507     25508     25507     25509
     25507     25510     25510     25511     25510     25512     25510     25513
     25513     25514     25513     25515     25513     25516     25516     25517
     25516     25518     25516     25519     25519     25520     25519     25521
     25519     25522     25522     25523     25522     25524     25522     25525
     25525     25526     25525     25527     25525     25528     25528     25529
     25528     25530     25528     25531     25536     25535     25535     25532
     25532     25533     25532     25534     25532     25537     25540     25539
     25539     25537     25537     25538     25537     25541     25541     25542
     25541     25543     25541     25548     25548     25544     25544     25547
     25544     25545     25544     25546     25549     25550     25549     25551
     25549     25552     25549     25547     25552     25553     25552     25560
     25552     25554     25560     25561     25560     25562     25560     25563
     25554     25555     25555     25557     25555     25556     25557     25558
     25557     25559     25557     25569     25569     25570     25569     25571
     25569     25572     25572     25573     25572     25574     25572     25575
     25575     25576     25575     25577     25575     25578     25578     25579
     25578     25580     25578     25581     25581     25582     25581     25583
     25581     25584     25584     25585     25584     25586     25584     25587
     25587     25588     25587     25592     25587     25589     25592     25593
     25592     25594     25592     25589     25594     25595     25594     25596
     25594     25597     25597     25598     25597     25599     25597     25600
     25600     25601     25600     25602     25600     25603     25603     25604
     25603     25605     25603     25606     25606     25607     25606     25608
     25606     25609     25609     25610     25609     25611     25609     25612
     25589     25590     25589     25591     25563     25564     25564     25566
     25564     25565     25566     25567     25566     25568     25566     25613
     25613     25614     25613     25615     25613     25616     25616     25617
     25616     25618     25616     25619     25619     25620     25619     25621
     25619     25622     25622     25623     25622     25624     25622     25625
     25625     25626     25625     25627     25625     25628     25628     25629
     25628     25630     25628     25631     25631     25632     25631     25633
     25631     25634     25634     25635     25634     25636     25634     25637
     25637     25638     25637     25639     25637     25640     25640     25641
     25640     25642     25640     25643     25643     25644     25643     25645
     25643     25646     25646     25647     25646     25648     25646     25649
     25649     25650     25649     25651     25649     25652     25652     25653
     25652     25654     25652     25655     25656     25657     25656     25658
     25656     25659     25656     25660     25660     25661     25660     25662
     25660     25663     25663     25664     25663     25665     25663     25670
     25670     25666     25666     25669     25666     25667     25666     25668
     25671     25672     25671     25673     25671     25674     25671     25669
     25674     25675     25674     25682     25674     25676     25682     25683
     25682     25684     25682     25685     25676     25677     25677     25679
     25677     25678     25679     25680     25679     25681     25679     25691
     25691     25692     25691     25693     25691     25694     25694     25695
     25694     25696     25694     25697     25697     25698     25697     25699
     25697     25700     25700     25701     25700     25702     25700     25703
     25703     25704     25703     25705     25703     25706     25706     25707
     25706     25708     25706     25709     25709     25710     25709     25714
     25709     25711     25714     25715     25714     25716     25714     25711
     25716     25717     25716     25718     25716     25719     25719     25720
     25719     25721     25719     25722     25722     25723     25722     25724
     25722     25725     25725     25726     25725     25727     25725     25728
     25728     25729     25728     25730     25728     25731     25731     25732
     25731     25733     25731     25734     25711     25712     25711     25713
     25685     25686     25686     25688     25686     25687     25688     25689
     25688     25690     25688     25735     25735     25736     25735     25737
     25735     25738     25738     25739     25738     25740     25738     25741
     25741     25742     25741     25743     25741     25744     25744     25745
     25744     25746     25744     25747     25747     25748     25747     25749
     25747     25750     25750     25751     25750     25752     25750     25753
     25753     25754     25753     25755     25753     25756     25756     25757
     25756     25758     25756     25759     25759     25760     25759     25761
     25759     25762     25762     25763     25762     25764     25762     25765
     25765     25766     25765     25767     25765     25768     25768     25769
     25768     25770     25768     25771     25771     25772     25771     25773
     25771     25774     25774     25775     25774     25776     25774     25777
     25782     25781     25781     25778     25778     25779     25778     25780
     25778     25783     25786     25785     25785     25783     25783     25784
     25783     25787     25787     25788     25787     25789     25787     25794
     25794     25790     25790     25793     25790     25791     25790     25792
     25795     25796     25795     25797     25795     25798     25795     25793
     25798     25799     25798     25806     25798     25800     25806     25807
     25806     25808     25806     25809     25800     25801     25801     25803
     25801     25802     25803     25804     25803     25805     25803     25815
     25815     25816     25815     25817     25815     25818     25818     25819
     25818     25820     25818     25821     25821     25822     25821     25823
     25821     25824     25824     25825     25824     25826     25824     25827
     25827     25828     25827     25829     25827     25830     25830     25831
     25830     25832     25830     25833     25833     25834     25833     25835
     25835     25836     25835     25837     25837     25838     25837     25839
     25837     25840     25840     25841     25840     25842     25840     25843
     25843     25844     25843     25845     25843     25846     25846     25847
     25846     25848     25846     25849     25849     25850     25849     25851
     25849     25852     25852     25853     25852     25854     25852     25855
     25809     25810     25810     25812     25810     25811     25812     25813
     25812     25814     25812     25856     25856     25857     25856     25858
     25856     25859     25859     25860     25859     25861     25859     25862
     25862     25863     25862     25864     25862     25865     25865     25866
     25865     25867     25865     25868     25868     25869     25868     25870
     25868     25871     25871     25872     25871     25873     25871     25874
     25874     25875     25874     25876     25874     25877     25877     25878
     25877     25879     25877     25880     25880     25881     25880     25882
     25880     25883     25883     25884     25883     25885     25883     25886
     25886     25887     25886     25888     25886     25889     25889     25890
     25889     25891     25889     25892     25892     25893     25892     25894
     25892     25895     25895     25896     25895     25897     25895     25898
     25899     25900     25899     25901     25899     25902     25899     25903
     25903     25904     25903     25905     25903     25906     25906     25907
     25906     25908     25906     25913     25913     25909     25909     25912
     25909     25910     25909     25911     25914     25915     25914     25916
     25914     25917     25914     25912     25917     25918     25917     25925
     25917     25919     25925     25926     25925     25927     25925     25928
     25919     25920     25920     25922     25920     25921     25922     25923
     25922     25924     25922     25934     25934     25935     25934     25936
     25934     25937     25937     25938     25937     25939     25937     25940
     25940     25941     25940     25942     25940     25943     25943     25944
     25943     25945     25943     25946     25946     25947     25946     25948
     25946     25949     25949     25950     25949     25951     25949     25952
     25952     25953     25952     25957     25952     25954     25957     25958
     25957     25959     25957     25954     25959     25960     25959     25961
     25959     25962     25962     25963     25962     25964     25962     25965
     25965     25966     25965     25967     25965     25968     25968     25969
     25968     25970     25968     25971     25971     25972     25971     25973
     25971     25974     25974     25975     25974     25976     25974     25977
     25954     25955     25954     25956     25928     25929     25929     25931
     25929     25930     25931     25932     25931     25933     25931     25978
     25978     25979     25978     25980     25978     25981     25981     25982
     25981     25983     25981     25984     25984     25985     25984     25986
     25984     25987     25987     25988     25987     25989     25987     25990
     25990     25991     25990     25992     25990     25993     25993     25994
     25993     25995     25993     25996     25996     25997     25996     25998
     25996     25999     25999     26000     25999     26001     25999     26002
     26002     26003     26002     26004     26002     26005     26005     26006
     26005     26007     26005     26008     26008     26009     26008     26010
     26008     26011     26011     26012     26011     26013     26011     26014
     26014     26015     26014     26016     26014     26017     26017     26018
     26017     26019     26017     26020     26021     26022     26021     26023
     26021     26024     26021     26025     26025     26026     26025     26027
     26025     26028     26028     26029     26028     26030     26028     26035
     26035     26031     26031     26034     26031     26032     26031     26033
     26036     26037     26036     26038     26036     26039     26036     26034
     26039     26040     26039     26047     26039     26041     26047     26048
     26047     26049     26047     26050     26041     26042     26042     26044
     26042     26043     26044     26045     26044     26046     26044     26056
     26056     26057     26056     26058     26056     26059     26059     26060
     26059     26061     26059     26062     26062     26063     26062     26064
     26062     26065     26065     26066     26065     26067     26065     26068
     26068     26069     26068     26070     26068     26071     26071     26072
     26071     26073     26071     26074     26074     26075     26074     26076
     26076     26077     26076     26078     26078     26079     26078     26080
     26078     26081     26081     26082     26081     26083     26081     26084
     26084     26085     26084     26086     26084     26087     26087     26088
     26087     26089     26087     26090     26090     26091     26090     26092
     26090     26093     26093     26094     26093     26095     26093     26096
     26050     26051     26051     26053     26051     26052     26053     26054
     26053     26055     26053     26097     26097     26098     26097     26099
     26097     26100     26100     26101     26100     26102     26100     26103
     26103     26104     26103     26105     26103     26106     26106     26107
     26106     26108     26106     26109     26109     26110     26109     26111
     26109     26112     26112     26113     26112     26114     26112     26115
     26115     26116     26115     26117     26117     26118     26117     26119
     26119     26120     26119     26121     26119     26122     26122     26123
     26122     26124     26122     26125     26125     26126     26125     26127
     26125     26128     26128     26129     26128     26130     26128     26131
     26131     26132     26131     26133     26131     26134     26134     26135
     26134     26136     26134     26137     26137     26138     26137     26139
     26137     26140     26140     26141     26140     26142     26140     26143
     26144     26145     26144     26146     26144     26147     26144     26148
     26148     26149     26148     26150     26148     26151     26151     26152
     26151     26153     26151     26158     26158     26154     26154     26157
     26154     26155     26154     26156     26159     26160     26159     26161
     26159     26162     26159     26157     26162     26163     26162     26170
     26162     26164     26170     26171     26170     26172     26170     26173
     26164     26165     26165     26167     26165     26166     26167     26168
     26167     26169     26167     26179     26179     26180     26179     26181
     26179     26182     26182     26183     26182     26184     26182     26185
     26185     26186     26185     26187     26185     26188     26188     26189
     26188     26190     26188     26191     26191     26192     26191     26193
     26191     26194     26194     26195     26194     26196     26194     26197
     26197     26198     26197     26202     26197     26199     26202     26203
     26202     26204     26202     26199     26204     26205     26204     26206
     26204     26207     26207     26208     26207     26209     26207     26210
     26210     26211     26210     26212     26210     26213     26213     26214
     26213     26215     26213     26216     26216     26217     26216     26218
     26216     26219     26219     26220     26219     26221     26219     26222
     26199     26200     26199     26201     26173     26174     26174     26176
     26174     26175     26176     26177     26176     26178     26176     26223
     26223     26224     26223     26225     26223     26226     26226     26227
     26226     26228     26226     26229     26229     26230     26229     26231
     26229     26232     26232     26233     26232     26234     26232     26235
     26235     26236     26235     26237     26235     26238     26238     26239
     26238     26240     26238     26241     26241     26242     26241     26243
     26241     26244     26244     26245     26244     26246     26244     26247
     26247     26248     26247     26249     26247     26250     26250     26251
     26250     26252     26250     26253     26253     26254     26253     26255
     26253     26256     26256     26257     26256     26258     26256     26259
     26259     26260     26259     26261     26259     26262     26267     26266
     26266     26263     26263     26264     26263     26265     26263     26268
     26271     26270     26270     26268     26268     26269     26268     26272
     26272     26273     26272     26274     26272     26279     26279     26275
     26275     26278     26275     26276     26275     26277     26280     26281
     26280     26282     26280     26283     26280     26278     26283     26284
     26283     26291     26283     26285     26291     26292     26291     26293
     26291     26294     26285     26286     26286     26288     26286     26287
     26288     26289     26288     26290     26288     26300     26300     26301
     26300     26302     26300     26303     26303     26304     26303     26305
     26303     26306     26306     26307     26306     26308     26306     26309
     26309     26310     26309     26311     26309     26312     26312     26313
     26312     26314     26312     26315     26315     26316     26315     26317
     26315     26318     26318     26319     26318     26323     26318     26320
     26323     26324     26323     26325     26323     26320     26325     26326
     26325     26327     26325     26328     26328     26329     26328     26330
     26328     26331     26331     26332     26331     26333     26331     26334
     26334     26335     26334     26336     26334     26337     26337     26338
     26337     26339     26337     26340     26340     26341     26340     26342
     26340     26343     26320     26321     26320     26322     26294     26295
     26295     26297     26295     26296     26297     26298     26297     26299
     26297     26344     26344     26345     26344     26346     26344     26347
     26347     26348     26347     26349     26347     26350     26350     26351
     26350     26352     26350     26353     26353     26354     26353     26355
     26353     26356     26356     26357     26356     26358     26356     26359
     26359     26360     26359     26361     26359     26362     26362     26363
     26362     26364     26362     26365     26365     26366     26365     26367
     26365     26368     26368     26369     26368     26370     26368     26371
     26371     26372     26371     26373     26371     26374     26374     26375
     26374     26376     26374     26377     26377     26378     26377     26379
     26377     26380     26380     26381     26380     26382     26380     26383
     26383     26384     26383     26385     26383     26386     26387     26388
     26387     26389     26387     26390     26387     26391     26391     26392
     26391     26393     26391     26394     26394     26395     26394     26396
     26394     26401     26401     26397     26397     26400     26397     26398
     26397     26399     26402     26403     26402     26404     26402     26405
     26402     26400     26405     26406     26405     26413     26405     26407
     26413     26414     26413     26415     26413     26416     26407     26408
     26408     26410     26408     26409     26410     26411     26410     26412
     26410     26422     26422     26423     26422     26424     26422     26425
     26425     26426     26425     26427     26425     26428     26428     26429
     26428     26430     26428     26431     26431     26432     26431     26433
     26431     26434     26434     26435     26434     26436     26434     26437
     26437     26438     26437     26439     26437     26440     26440     26441
     26440     26445     26440     26442     26445     26446     26445     26447
     26445     26442     26447     26448     26447     26449     26447     26450
     26450     26451     26450     26452     26450     26453     26453     26454
     26453     26455     26453     26456     26456     26457     26456     26458
     26456     26459     26459     26460     26459     26461     26459     26462
     26462     26463     26462     26464     26462     26465     26442     26443
     26442     26444     26416     26417     26417     26419     26417     26418
     26419     26420     26419     26421     26419     26466     26466     26467
     26466     26468     26466     26469     26469     26470     26469     26471
     26469     26472     26472     26473     26472     26474     26472     26475
     26475     26476     26475     26477     26475     26478     26478     26479
     26478     26480     26478     26481     26481     26482     26481     26483
     26481     26484     26484     26485     26484     26486     26484     26487
     26487     26488     26487     26489     26487     26490     26490     26491
     26490     26492     26490     26493     26493     26494     26493     26495
     26493     26496     26496     26497     26496     26498     26496     26499
     26499     26500     26499     26501     26499     26502     26502     26503
     26502     26504     26502     26505     26505     26506     26505     26507
     26505     26508     26513     26512     26512     26509     26509     26510
     26509     26511     26509     26514     26517     26516     26516     26514
     26514     26515     26514     26518     26518     26519     26518     26520
     26518     26525     26525     26521     26521     26524     26521     26522
     26521     26523     26526     26527     26526     26528     26526     26529
     26526     26524     26529     26530     26529     26537     26529     26531
     26537     26538     26537     26539     26537     26540     26531     26532
     26532     26534     26532     26533     26534     26535     26534     26536
     26534     26546     26546     26547     26546     26548     26546     26549
     26549     26550     26549     26551     26549     26552     26552     26553
     26552     26554     26552     26555     26555     26556     26555     26557
     26555     26558     26558     26559     26558     26560     26558     26561
     26561     26562     26561     26563     26561     26564     26564     26565
     26564     26566     26566     26567     26566     26568     26568     26569
     26568     26570     26568     26571     26571     26572     26571     26573
     26571     26574     26574     26575     26574     26576     26574     26577
     26577     26578     26577     26579     26577     26580     26580     26581
     26580     26582     26580     26583     26583     26584     26583     26585
     26583     26586     26540     26541     26541     26543     26541     26542
     26543     26544     26543     26545     26543     26587     26587     26588
     26587     26589     26587     26590     26590     26591     26590     26592
     26590     26593     26593     26594     26593     26595     26593     26596
     26596     26597     26596     26598     26596     26599     26599     26600
     26599     26601     26599     26602     26602     26603     26602     26604
     26602     26605     26605     26606     26605     26607     26605     26608
     26608     26609     26608     26610     26608     26611     26611     26612
     26611     26613     26611     26614     26614     26615     26614     26616
     26614     26617     26617     26618     26617     26619     26617     26620
     26620     26621     26620     26622     26620     26623     26623     26624
     26623     26625     26623     26626     26626     26627     26626     26628
     26626     26629     26630     26631     26630     26632     26630     26633
     26630     26634     26634     26635     26634     26636     26634     26637
     26637     26638     26637     26639     26637     26644     26644     26640
     26640     26643     26640     26641     26640     26642     26645     26646
     26645     26647     26645     26648     26645     26643     26648     26649
     26648     26656     26648     26650     26656     26657     26656     26658
     26656     26659     26650     26651     26651     26653     26651     26652
     26653     26654     26653     26655     26653     26665     26665     26666
     26665     26667     26665     26668     26668     26669     26668     26670
     26668     26671     26671     26672     26671     26673     26671     26674
     26674     26675     26674     26676     26674     26677     26677     26678
     26677     26679     26677     26680     26680     26681     26680     26682
     26680     26683     26683     26684     26683     26688     26683     26685
     26688     26689     26688     26690     26688     26685     26690     26691
     26690     26692     26690     26693     26693     26694     26693     26695
     26693     26696     26696     26697     26696     26698     26696     26699
     26699     26700     26699     26701     26699     26702     26702     26703
     26702     26704     26702     26705     26705     26706     26705     26707
     26705     26708     26685     26686     26685     26687     26659     26660
     26660     26662     26660     26661     26662     26663     26662     26664
     26662     26709     26709     26710     26709     26711     26709     26712
     26712     26713     26712     26714     26712     26715     26715     26716
     26715     26717     26715     26718     26718     26719     26718     26720
     26718     26721     26721     26722     26721     26723     26721     26724
     26724     26725     26724     26726     26724     26727     26727     26728
     26727     26729     26727     26730     26730     26731     26730     26732
     26730     26733     26733     26734     26733     26735     26733     26736
     26736     26737     26736     26738     26736     26739     26739     26740
     26739     26741     26739     26742     26742     26743     26742     26744
     26742     26745     26745     26746     26745     26747     26745     26748
     26748     26749     26748     26750     26748     26751     26752     26753
     26752     26754     26752     26755     26752     26756     26756     26757
     26756     26758     26756     26759     26759     26760     26759     26761
     26759     26766     26766     26762     26762     26765     26762     26763
     26762     26764     26767     26768     26767     26769     26767     26770
     26767     26765     26770     26771     26770     26778     26770     26772
     26778     26779     26778     26780     26778     26781     26772     26773
     26773     26775     26773     26774     26775     26776     26775     26777
     26775     26787     26787     26788     26787     26789     26787     26790
     26790     26791     26790     26792     26790     26793     26793     26794
     26793     26795     26793     26796     26796     26797     26796     26798
     26796     26799     26799     26800     26799     26801     26799     26802
     26802     26803     26802     26804     26802     26805     26805     26806
     26805     26810     26805     26807     26810     26811     26810     26812
     26810     26807     26812     26813     26812     26814     26812     26815
     26815     26816     26815     26817     26815     26818     26818     26819
     26818     26820     26818     26821     26821     26822     26821     26823
     26821     26824     26824     26825     26824     26826     26824     26827
     26827     26828     26827     26829     26827     26830     26807     26808
     26807     26809     26781     26782     26782     26784     26782     26783
     26784     26785     26784     26786     26784     26831     26831     26832
     26831     26833     26831     26834     26834     26835     26834     26836
     26834     26837     26837     26838     26837     26839     26837     26840
     26840     26841     26840     26842     26840     26843     26843     26844
     26843     26845     26843     26846     26846     26847     26846     26848
     26846     26849     26849     26850     26849     26851     26849     26852
     26852     26853     26852     26854     26852     26855     26855     26856
     26855     26857     26855     26858     26858     26859     26858     26860
     26858     26861     26861     26862     26861     26863     26861     26864
     26864     26865     26864     26866     26864     26867     26867     26868
     26867     26869     26867     26870     26870     26871     26870     26872
     26870     26873     26874     26875     26874     26876     26874     26877
     26874     26878     26878     26879     26878     26880     26878     26881
     26881     26882     26881     26883     26881     26888     26888     26884
     26884     26887     26884     26885     26884     26886     26889     26890
     26889     26891     26889     26892     26889     26887     26892     26893
     26892     26900     26892     26894     26900     26901     26900     26902
     26900     26903     26894     26895     26895     26897     26895     26896
     26897     26898     26897     26899     26897     26909     26909     26910
     26909     26911     26909     26912     26912     26913     26912     26914
     26912     26915     26915     26916     26915     26917     26915     26918
     26918     26919     26918     26920     26918     26921     26921     26922
     26921     26923     26921     26924     26924     26925     26924     26926
     26924     26927     26927     26928     26927     26929     26929     26930
     26929     26931     26931     26932     26931     26933     26931     26934
     26934     26935     26934     26936     26934     26937     26937     26938
     26937     26939     26937     26940     26940     26941     26940     26942
     26940     26943     26943     26944     26943     26945     26943     26946
     26946     26947     26946     26948     26946     26949     26903     26904
     26904     26906     26904     26905     26906     26907     26906     26908
     26906     26950     26950     26951     26950     26952     26950     26953
     26953     26954     26953     26955     26953     26956     26956     26957
     26956     26958     26956     26959     26959     26960     26959     26961
     26959     26962     26962     26963     26962     26964     26962     26965
     26965     26966     26965     26967     26965     26968     26968     26969
     26968     26970     26970     26971     26970     26972     26972     26973
     26972     26974     26972     26975     26975     26976     26975     26977
     26975     26978     26978     26979     26978     26980     26978     26981
     26981     26982     26981     26983     26981     26984     26984     26985
     26984     26986     26984     26987     26987     26988     26987     26989
     26987     26990     26990     26991     26990     26992     26990     26993
     26993     26994     26993     26995     26993     26996     26997     26998
     26997     26999     26997     27000     26997     27001     27001     27002
     27001     27003     27001     27004     27004     27005     27004     27006
     27004     27011     27011     27007     27007     27010     27007     27008
     27007     27009     27012     27013     27012     27014     27012     27015
     27012     27010     27015     27016     27015     27023     27015     27017
     27023     27024     27023     27025     27023     27026     27017     27018
     27018     27020     27018     27019     27020     27021     27020     27022
     27020     27032     27032     27033     27032     27034     27032     27035
     27035     27036     27035     27037     27035     27038     27038     27039
     27038     27040     27038     27041     27041     27042     27041     27043
     27041     27044     27044     27045     27044     27046     27044     27047
     27047     27048     27047     27049     27047     27050     27050     27051
     27050     27055     27050     27052     27055     27056     27055     27057
     27055     27052     27057     27058     27057     27059     27057     27060
     27060     27061     27060     27062     27060     27063     27063     27064
     27063     27065     27063     27066     27066     27067     27066     27068
     27066     27069     27069     27070     27069     27071     27069     27072
     27072     27073     27072     27074     27072     27075     27052     27053
     27052     27054     27026     27027     27027     27029     27027     27028
     27029     27030     27029     27031     27029     27076     27076     27077
     27076     27078     27076     27079     27079     27080     27079     27081
     27079     27082     27082     27083     27082     27084     27082     27085
     27085     27086     27085     27087     27085     27088     27088     27089
     27088     27090     27088     27091     27091     27092     27091     27093
     27091     27094     27094     27095     27094     27096     27094     27097
     27097     27098     27097     27099     27097     27100     27100     27101
     27100     27102     27100     27103     27103     27104     27103     27105
     27103     27106     27106     27107     27106     27108     27106     27109
     27109     27110     27109     27111     27109     27112     27112     27113
     27112     27114     27112     27115     27115     27116     27115     27117
     27115     27118     27123     27122     27122     27119     27119     27120
     27119     27121     27119     27124     27127     27126     27126     27124
     27124     27125     27124     27128     27128     27129     27128     27130
     27128     27135     27135     27131     27131     27134     27131     27132
     27131     27133     27136     27137     27136     27138     27136     27139
     27136     27134     27139     27140     27139     27147     27139     27141
     27147     27148     27147     27149     27147     27150     27141     27142
     27142     27144     27142     27143     27144     27145     27144     27146
     27144     27156     27156     27157     27156     27158     27156     27159
     27159     27160     27159     27161     27159     27162     27162     27163
     27162     27164     27162     27165     27165     27166     27165     27167
     27165     27168     27168     27169     27168     27170     27168     27171
     27171     27172     27171     27173     27171     27174     27174     27175
     27174     27179     27174     27176     27179     27180     27179     27181
     27179     27176     27181     27182     27181     27183     27181     27184
     27184     27185     27184     27186     27184     27187     27187     27188
     27187     27189     27187     27190     27190     27191     27190     27192
     27190     27193     27193     27194     27193     27195     27193     27196
     27196     27197     27196     27198     27196     27199     27176     27177
     27176     27178     27150     27151     27151     27153     27151     27152
     27153     27154     27153     27155     27153     27200     27200     27201
     27200     27202     27200     27203     27203     27204     27203     27205
     27203     27206     27206     27207     27206     27208     27206     27209
     27209     27210     27209     27211     27209     27212     27212     27213
     27212     27214     27212     27215     27215     27216     27215     27217
     27215     27218     27218     27219     27218     27220     27218     27221
     27221     27222     27221     27223     27221     27224     27224     27225
     27224     27226     27224     27227     27227     27228     27227     27229
     27227     27230     27230     27231     27230     27232     27230     27233
     27233     27234     27233     27235     27233     27236     27236     27237
     27236     27238     27236     27239     27239     27240     27239     27241
     27239     27242     27243     27244     27243     27245     27243     27246
     27243     27247     27247     27248     27247     27249     27247     27250
     27250     27251     27250     27252     27250     27257     27257     27253
     27253     27256     27253     27254     27253     27255     27258     27259
     27258     27260     27258     27261     27258     27256     27261     27262
     27261     27269     27261     27263     27269     27270     27269     27271
     27269     27272     27263     27264     27264     27266     27264     27265
     27266     27267     27266     27268     27266     27278     27278     27279
     27278     27280     27278     27281     27281     27282     27281     27283
     27281     27284     27284     27285     27284     27286     27284     27287
     27287     27288     27287     27289     27287     27290     27290     27291
     27290     27292     27290     27293     27293     27294     27293     27295
     27293     27296     27296     27297     27296     27301     27296     27298
     27301     27302     27301     27303     27301     27298     27303     27304
     27303     27305     27303     27306     27306     27307     27306     27308
     27306     27309     27309     27310     27309     27311     27309     27312
     27312     27313     27312     27314     27312     27315     27315     27316
     27315     27317     27315     27318     27318     27319     27318     27320
     27318     27321     27298     27299     27298     27300     27272     27273
     27273     27275     27273     27274     27275     27276     27275     27277
     27275     27322     27322     27323     27322     27324     27322     27325
     27325     27326     27325     27327     27325     27328     27328     27329
     27328     27330     27328     27331     27331     27332     27331     27333
     27331     27334     27334     27335     27334     27336     27334     27337
     27337     27338     27337     27339     27337     27340     27340     27341
     27340     27342     27340     27343     27343     27344     27343     27345
     27343     27346     27346     27347     27346     27348     27346     27349
     27349     27350     27349     27351     27349     27352     27352     27353
     27352     27354     27352     27355     27355     27356     27355     27357
     27355     27358     27358     27359     27358     27360     27358     27361
     27361     27362     27361     27363     27361     27364     27365     27366
     27365     27367     27365     27368     27365     27369     27369     27370
     27369     27371     27369     27372     27372     27373     27372     27374
     27372     27379     27379     27375     27375     27378     27375     27376
     27375     27377     27380     27381     27380     27382     27380     27383
     27380     27378     27383     27384     27383     27391     27383     27385
     27391     27392     27391     27393     27391     27394     27385     27386
     27386     27388     27386     27387     27388     27389     27388     27390
     27388     27400     27400     27401     27400     27402     27400     27403
     27403     27404     27403     27405     27403     27406     27406     27407
     27406     27408     27406     27409     27409     27410     27409     27411
     27409     27412     27412     27413     27412     27414     27412     27415
     27415     27416     27415     27417     27415     27418     27418     27419
     27418     27423     27418     27420     27423     27424     27423     27425
     27423     27420     27425     27426     27425     27427     27425     27428
     27428     27429     27428     27430     27428     27431     27431     27432
     27431     27433     27431     27434     27434     27435     27434     27436
     27434     27437     27437     27438     27437     27439     27437     27440
     27440     27441     27440     27442     27440     27443     27420     27421
     27420     27422     27394     27395     27395     27397     27395     27396
     27397     27398     27397     27399     27397     27444     27444     27445
     27444     27446     27444     27447     27447     27448     27447     27449
     27447     27450     27450     27451     27450     27452     27450     27453
     27453     27454     27453     27455     27453     27456     27456     27457
     27456     27458     27456     27459     27459     27460     27459     27461
     27459     27462     27462     27463     27462     27464     27462     27465
     27465     27466     27465     27467     27465     27468     27468     27469
     27468     27470     27468     27471     27471     27472     27471     27473
     27471     27474     27474     27475     27474     27476     27474     27477
     27477     27478     27477     27479     27477     27480     27480     27481
     27480     27482     27480     27483     27483     27484     27483     27485
     27483     27486     27487     27488     27487     27489     27487     27490
     27487     27491     27491     27492     27491     27493     27491     27494
     27494     27495     27494     27496     27494     27501     27501     27497
     27497     27500     27497     27498     27497     27499     27502     27503
     27502     27504     27502     27505     27502     27500     27505     27506
     27505     27513     27505     27507     27513     27514     27513     27515
     27513     27516     27507     27508     27508     27510     27508     27509
     27510     27511     27510     27512     27510     27522     27522     27523
     27522     27524     27522     27525     27525     27526     27525     27527
     27525     27528     27528     27529     27528     27530     27528     27531
     27531     27532     27531     27533     27531     27534     27534     27535
     27534     27536     27534     27537     27537     27538     27537     27539
     27537     27540     27540     27541     27540     27545     27540     27542
     27545     27546     27545     27547     27545     27542     27547     27548
     27547     27549     27547     27550     27550     27551     27550     27552
     27550     27553     27553     27554     27553     27555     27553     27556
     27556     27557     27556     27558     27556     27559     27559     27560
     27559     27561     27559     27562     27562     27563     27562     27564
     27562     27565     27542     27543     27542     27544     27516     27517
     27517     27519     27517     27518     27519     27520     27519     27521
     27519     27566     27566     27567     27566     27568     27566     27569
     27569     27570     27569     27571     27569     27572     27572     27573
     27572     27574     27572     27575     27575     27576     27575     27577
     27575     27578     27578     27579     27578     27580     27578     27581
     27581     27582     27581     27583     27581     27584     27584     27585
     27584     27586     27584     27587     27587     27588     27587     27589
     27587     27590     27590     27591     27590     27592     27590     27593
     27593     27594     27593     27595     27593     27596     27596     27597
     27596     27598     27596     27599     27599     27600     27599     27601
     27599     27602     27602     27603     27602     27604     27602     27605
     27605     27606     27605     27607     27605     27608     27609     27610
     27609     27611     27609     27612     27609     27613     27613     27614
     27613     27615     27613     27616     27616     27617     27616     27618
     27616     27623     27623     27619     27619     27622     27619     27620
     27619     27621     27624     27625     27624     27626     27624     27627
     27624     27622     27627     27628     27627     27635     27627     27629
     27635     27636     27635     27637     27635     27638     27629     27630
     27630     27632     27630     27631     27632     27633     27632     27634
     27632     27644     27644     27645     27644     27646     27644     27647
     27647     27648     27647     27649     27647     27650     27650     27651
     27650     27652     27650     27653     27653     27654     27653     27655
     27653     27656     27656     27657     27656     27658     27656     27659
     27659     27660     27659     27661     27659     27662     27662     27663
     27662     27667     27662     27664     27667     27668     27667     27669
     27667     27664     27669     27670     27669     27671     27669     27672
     27672     27673     27672     27674     27672     27675     27675     27676
     27675     27677     27675     27678     27678     27679     27678     27680
     27678     27681     27681     27682     27681     27683     27681     27684
     27684     27685     27684     27686     27684     27687     27664     27665
     27664     27666     27638     27639     27639     27641     27639     27640
     27641     27642     27641     27643     27641     27688     27688     27689
     27688     27690     27688     27691     27691     27692     27691     27693
     27691     27694     27694     27695     27694     27696     27694     27697
     27697     27698     27697     27699     27697     27700     27700     27701
     27700     27702     27700     27703     27703     27704     27703     27705
     27703     27706     27706     27707     27706     27708     27706     27709
     27709     27710     27709     27711     27709     27712     27712     27713
     27712     27714     27712     27715     27715     27716     27715     27717
     27715     27718     27718     27719     27718     27720     27718     27721
     27721     27722     27721     27723     27721     27724     27724     27725
     27724     27726     27724     27727     27727     27728     27727     27729
     27727     27730     27731     27732     27731     27733     27731     27734
     27731     27735     27735     27736     27735     27737     27735     27738
     27738     27739     27738     27740     27738     27745     27745     27741
     27741     27744     27741     27742     27741     27743     27746     27747
     27746     27748     27746     27749     27746     27744     27749     27750
     27749     27757     27749     27751     27757     27758     27757     27759
     27757     27760     27751     27752     27752     27754     27752     27753
     27754     27755     27754     27756     27754     27766     27766     27767
     27766     27768     27766     27769     27769     27770     27769     27771
     27769     27772     27772     27773     27772     27774     27772     27775
     27775     27776     27775     27777     27775     27778     27778     27779
     27778     27780     27778     27781     27781     27782     27781     27783
     27781     27784     27784     27785     27784     27786     27786     27787
     27786     27788     27788     27789     27788     27790     27788     27791
     27791     27792     27791     27793     27791     27794     27794     27795
     27794     27796     27794     27797     27797     27798     27797     27799
     27797     27800     27800     27801     27800     27802     27800     27803
     27803     27804     27803     27805     27803     27806     27806     27807
     27806     27808     27806     27809     27809     27810     27809     27811
     27809     27812     27760     27761     27761     27763     27761     27762
     27763     27764     27763     27765     27763     27813     27813     27814
     27813     27815     27813     27816     27816     27817     27816     27818
     27816     27819     27819     27820     27819     27821     27819     27822
     27822     27823     27822     27824     27822     27825     27825     27826
     27825     27827     27825     27828     27828     27829     27828     27830
     27828     27831     27831     27832     27831     27833     27831     27834
     27834     27835     27834     27836     27834     27837     27837     27838
     27837     27839     27837     27840     27840     27841     27840     27842
     27840     27843     27843     27844     27843     27845     27843     27846
     27846     27847     27846     27848     27846     27849     27849     27850
     27849     27851     27849     27852     27852     27853     27852     27854
     27852     27855     27871     27867     27871     27872     27871     27873
     27867     27869     27867     27868     27869     27870     27867     27856
     27856     27857     27856     27858     27871     27877     27856     27862
     27874     27877     27874     27878     27874     27875     27874     27876
     27859     27862     27859     27863     27859     27860     27859     27861
     27878     27879     27879     27880     27879     27881     27879     27882
     27882     27883     27882     27884     27882     27890     27890     27891
     27890     27892     27890     27893     27863     27864     27864     27865
     27864     27866     27864     27899     27899     27900     27899     27901
     27899     27907     27907     27908     27907     27909     27907     27910
     27884     27885     27893     27894     27901     27902     27910     27911
     27885     27886     27885     27887     27887     27888     27887     27889
     27887     27916     27916     27917     27916     27918     27916     27919
     27919     27920     27919     27921     27919     27922     27922     27923
     27922     27924     27922     27925     27925     27926     27925     27927
     27925     27928     27928     27929     27928     27930     27928     27931
     27931     27932     27931     27933     27931     27934     27934     27935
     27934     27936     27934     27937     27937     27938     27937     27939
     27937     27940     27940     27941     27940     27942     27942     27943
     27942     27944     27944     27945     27944     27946     27944     27947
     27947     27948     27947     27949     27947     27950     27950     27951
     27950     27952     27950     27953     27953     27954     27953     27955
     27953     27956     27956     27957     27956     27958     27956     27959
     27959     27960     27959     27961     27959     27962     27894     27895
     27894     27896     27896     27897     27896     27898     27896     27963
     27963     27964     27963     27965     27963     27966     27966     27967
     27966     27968     27966     27969     27969     27970     27969     27971
     27969     27972     27972     27973     27972     27974     27972     27975
     27975     27976     27975     27977     27975     27978     27978     27979
     27978     27980     27978     27981     27981     27982     27981     27983
     27981     27984     27984     27985     27984     27986     27984     27987
     27987     27988     27987     27989     27987     27990     27990     27991
     27990     27992     27990     27993     27993     27994     27993     27995
     27993     27996     27996     27997     27996     27998     27996     27999
     27999     28000     27999     28001     27999     28002     28002     28003
     28002     28004     28002     28005     27902     27903     27902     27904
     27904     27905     27904     27906     27904     28006     28006     28007
     28006     28008     28006     28009     28009     28010     28009     28011
     28009     28012     28012     28013     28012     28014     28012     28015
     28015     28016     28015     28017     28015     28018     28018     28019
     28018     28020     28018     28021     28021     28022     28021     28023
     28021     28024     28024     28025     28024     28026     28024     28027
     28027     28028     28027     28029     28027     28030     28030     28031
     28030     28032     28032     28033     28032     28034     28034     28035
     28034     28036     28034     28037     28037     28038     28037     28039
     28037     28040     28040     28041     28040     28042     28040     28043
     28043     28044     28043     28045     28043     28046     28046     28047
     28046     28048     28046     28049     28049     28050     28049     28051
     28049     28052     27911     27912     27911     27913     27913     27914
     27913     27915     27913     28053     28053     28054     28053     28055
     28053     28056     28056     28057     28056     28058     28056     28059
     28059     28060     28059     28061     28059     28062     28062     28063
     28062     28064     28062     28065     28065     28066     28065     28067
     28065     28068     28068     28069     28068     28070     28068     28071
     28071     28072     28071     28073     28071     28074     28074     28075
     28074     28076     28074     28077     28077     28078     28077     28079
     28077     28080     28080     28081     28080     28082     28080     28083
     28083     28084     28083     28085     28083     28086     28086     28087
     28086     28088     28086     28089     28089     28090     28089     28091
     28089     28092     28092     28093     28092     28094     28092     28095
     28096     28097     28096     28098     28096     28099     28096     28100
     28100     28101     28100     28102     28100     28103     28103     28104
     28103     28105     28103     28110     28110     28106     28106     28109
     28106     28107     28106     28108     28111     28112     28111     28113
     28111     28114     28111     28109     28114     28115     28114     28122
     28114     28116     28122     28123     28122     28124     28122     28125
     28116     28117     28117     28119     28117     28118     28119     28120
     28119     28121     28119     28131     28131     28132     28131     28133
     28131     28134     28134     28135     28134     28136     28134     28137
     28137     28138     28137     28139     28137     28140     28140     28141
     28140     28142     28140     28143     28143     28144     28143     28145
     28143     28146     28146     28147     28146     28148     28146     28149
     28149     28150     28149     28151     28151     28152     28151     28153
     28153     28154     28153     28155     28153     28156     28156     28157
     28156     28158     28156     28159     28159     28160     28159     28161
     28159     28162     28162     28163     28162     28164     28162     28165
     28165     28166     28165     28167     28165     28168     28168     28169
     28168     28170     28168     28171     28125     28126     28126     28128
     28126     28127     28128     28129     28128     28130     28128     28172
     28172     28173     28172     28174     28172     28175     28175     28176
     28175     28177     28175     28178     28178     28179     28178     28180
     28178     28181     28181     28182     28181     28183     28181     28184
     28184     28185     28184     28186     28184     28187     28187     28188
     28187     28189     28187     28190     28190     28191     28190     28192
     28192     28193     28192     28194     28194     28195     28194     28196
     28194     28197     28197     28198     28197     28199     28197     28200
     28200     28201     28200     28202     28200     28203     28203     28204
     28203     28205     28203     28206     28206     28207     28206     28208
     28206     28209     28209     28210     28209     28211     28209     28212
     28212     28213     28212     28214     28212     28215     28215     28216
     28215     28217     28215     28218     28219     28220     28219     28221
     28219     28222     28219     28223     28223     28224     28223     28225
     28223     28226     28226     28227     28226     28228     28226     28233
     28233     28229     28229     28232     28229     28230     28229     28231
     28234     28235     28234     28236     28234     28237     28234     28232
     28237     28238     28237     28245     28237     28239     28245     28246
     28245     28247     28245     28248     28239     28240     28240     28242
     28240     28241     28242     28243     28242     28244     28242     28254
     28254     28255     28254     28256     28254     28257     28257     28258
     28257     28259     28257     28260     28260     28261     28260     28262
     28260     28263     28263     28264     28263     28265     28263     28266
     28266     28267     28266     28268     28266     28269     28269     28270
     28269     28271     28269     28272     28272     28273     28272     28277
     28272     28274     28277     28278     28277     28279     28277     28274
     28279     28280     28279     28281     28279     28282     28282     28283
     28282     28284     28282     28285     28285     28286     28285     28287
     28285     28288     28288     28289     28288     28290     28288     28291
     28291     28292     28291     28293     28291     28294     28294     28295
     28294     28296     28294     28297     28274     28275     28274     28276
     28248     28249     28249     28251     28249     28250     28251     28252
     28251     28253     28251     28298     28298     28299     28298     28300
     28298     28301     28301     28302     28301     28303     28301     28304
     28304     28305     28304     28306     28304     28307     28307     28308
     28307     28309     28307     28310     28310     28311     28310     28312
     28310     28313     28313     28314     28313     28315     28313     28316
     28316     28317     28316     28318     28316     28319     28319     28320
     28319     28321     28319     28322     28322     28323     28322     28324
     28322     28325     28325     28326     28325     28327     28325     28328
     28328     28329     28328     28330     28328     28331     28331     28332
     28331     28333     28331     28334     28334     28335     28334     28336
     28334     28337     28338     28339     28338     28340     28338     28341
     28338     28342     28342     28343     28342     28344     28342     28345
     28345     28346     28345     28347     28345     28352     28352     28348
     28348     28351     28348     28349     28348     28350     28353     28354
     28353     28355     28353     28356     28353     28351     28356     28357
     28356     28364     28356     28358     28364     28365     28364     28366
     28364     28367     28358     28359     28359     28361     28359     28360
     28361     28362     28361     28363     28361     28373     28373     28374
     28373     28375     28373     28376     28376     28377     28376     28378
     28376     28379     28379     28380     28379     28381     28379     28382
     28382     28383     28382     28384     28382     28385     28385     28386
     28385     28387     28385     28388     28388     28389     28388     28390
     28388     28391     28391     28392     28391     28396     28391     28393
     28396     28397     28396     28398     28396     28393     28398     28399
     28398     28400     28398     28401     28401     28402     28401     28403
     28401     28404     28404     28405     28404     28406     28404     28407
     28407     28408     28407     28409     28407     28410     28410     28411
     28410     28412     28410     28413     28413     28414     28413     28415
     28413     28416     28393     28394     28393     28395     28367     28368
     28368     28370     28368     28369     28370     28371     28370     28372
     28370     28417     28417     28418     28417     28419     28417     28420
     28420     28421     28420     28422     28420     28423     28423     28424
     28423     28425     28423     28426     28426     28427     28426     28428
     28426     28429     28429     28430     28429     28431     28429     28432
     28432     28433     28432     28434     28432     28435     28435     28436
     28435     28437     28435     28438     28438     28439     28438     28440
     28438     28441     28441     28442     28441     28443     28441     28444
     28444     28445     28444     28446     28444     28447     28447     28448
     28447     28449     28447     28450     28450     28451     28450     28452
     28450     28453     28453     28454     28453     28455     28453     28456
     28457     28458     28457     28459     28457     28460     28457     28461
     28461     28462     28461     28463     28461     28464     28464     28465
     28464     28466     28464     28471     28471     28467     28467     28470
     28467     28468     28467     28469     28472     28473     28472     28474
     28472     28475     28472     28470     28475     28476     28475     28483
     28475     28477     28483     28484     28483     28485     28483     28486
     28477     28478     28478     28480     28478     28479     28480     28481
     28480     28482     28480     28492     28492     28493     28492     28494
     28492     28495     28495     28496     28495     28497     28495     28498
     28498     28499     28498     28500     28498     28501     28501     28502
     28501     28503     28501     28504     28504     28505     28504     28506
     28504     28507     28507     28508     28507     28509     28507     28510
     28510     28511     28510     28515     28510     28512     28515     28516
     28515     28517     28515     28512     28517     28518     28517     28519
     28517     28520     28520     28521     28520     28522     28520     28523
     28523     28524     28523     28525     28523     28526     28526     28527
     28526     28528     28526     28529     28529     28530     28529     28531
     28529     28532     28532     28533     28532     28534     28532     28535
     28512     28513     28512     28514     28486     28487     28487     28489
     28487     28488     28489     28490     28489     28491     28489     28536
     28536     28537     28536     28538     28536     28539     28539     28540
     28539     28541     28539     28542     28542     28543     28542     28544
     28542     28545     28545     28546     28545     28547     28545     28548
     28548     28549     28548     28550     28548     28551     28551     28552
     28551     28553     28551     28554     28554     28555     28554     28556
     28554     28557     28557     28558     28557     28559     28557     28560
     28560     28561     28560     28562     28560     28563     28563     28564
     28563     28565     28563     28566     28566     28567     28566     28568
     28566     28569     28569     28570     28569     28571     28569     28572
     28572     28573     28572     28574     28572     28575     28575     28576
     28575     28577     28575     28578     28579     28580     28579     28581
     28579     28582     28579     28583     28583     28584     28583     28585
     28583     28586     28586     28587     28586     28588     28586     28593
     28593     28589     28589     28592     28589     28590     28589     28591
     28594     28595     28594     28596     28594     28597     28594     28592
     28597     28598     28597     28605     28597     28599     28605     28606
     28605     28607     28605     28608     28599     28600     28600     28602
     28600     28601     28602     28603     28602     28604     28602     28614
     28614     28615     28614     28616     28614     28617     28617     28618
     28617     28619     28617     28620     28620     28621     28620     28622
     28620     28623     28623     28624     28623     28625     28623     28626
     28626     28627     28626     28628     28626     28629     28629     28630
     28629     28631     28629     28632     28632     28633     28632     28637
     28632     28634     28637     28638     28637     28639     28637     28634
     28639     28640     28639     28641     28639     28642     28642     28643
     28642     28644     28642     28645     28645     28646     28645     28647
     28645     28648     28648     28649     28648     28650     28648     28651
     28651     28652     28651     28653     28651     28654     28654     28655
     28654     28656     28654     28657     28634     28635     28634     28636
     28608     28609     28609     28611     28609     28610     28611     28612
     28611     28613     28611     28658     28658     28659     28658     28660
     28658     28661     28661     28662     28661     28663     28661     28664
     28664     28665     28664     28666     28664     28667     28667     28668
     28667     28669     28667     28670     28670     28671     28670     28672
     28670     28673     28673     28674     28673     28675     28673     28676
     28676     28677     28676     28678     28676     28679     28679     28680
     28679     28681     28679     28682     28682     28683     28682     28684
     28682     28685     28685     28686     28685     28687     28685     28688
     28688     28689     28688     28690     28688     28691     28691     28692
     28691     28693     28691     28694     28694     28695     28694     28696
     28694     28697     28697     28698     28697     28699     28697     28700
     28705     28704     28704     28701     28701     28702     28701     28703
     28701     28706     28709     28708     28708     28706     28706     28707
     28706     28710     28710     28711     28710     28712     28710     28717
     28717     28713     28713     28716     28713     28714     28713     28715
     28718     28719     28718     28720     28718     28721     28718     28716
     28721     28722     28721     28729     28721     28723     28729     28730
     28729     28731     28729     28732     28723     28724     28724     28726
     28724     28725     28726     28727     28726     28728     28726     28738
     28738     28739     28738     28740     28738     28741     28741     28742
     28741     28743     28741     28744     28744     28745     28744     28746
     28744     28747     28747     28748     28747     28749     28747     28750
     28750     28751     28750     28752     28750     28753     28753     28754
     28753     28755     28753     28756     28756     28757     28756     28761
     28756     28758     28761     28762     28761     28763     28761     28758
     28763     28764     28763     28765     28763     28766     28766     28767
     28766     28768     28766     28769     28769     28770     28769     28771
     28769     28772     28772     28773     28772     28774     28772     28775
     28775     28776     28775     28777     28775     28778     28778     28779
     28778     28780     28778     28781     28758     28759     28758     28760
     28732     28733     28733     28735     28733     28734     28735     28736
     28735     28737     28735     28782     28782     28783     28782     28784
     28782     28785     28785     28786     28785     28787     28785     28788
     28788     28789     28788     28790     28788     28791     28791     28792
     28791     28793     28791     28794     28794     28795     28794     28796
     28794     28797     28797     28798     28797     28799     28797     28800
     28800     28801     28800     28802     28800     28803     28803     28804
     28803     28805     28803     28806     28806     28807     28806     28808
     28806     28809     28809     28810     28809     28811     28809     28812
     28812     28813     28812     28814     28812     28815     28815     28816
     28815     28817     28815     28818     28818     28819     28818     28820
     28818     28821     28821     28822     28821     28823     28821     28824
     28825     28826     28825     28827     28825     28828     28825     28829
     28829     28830     28829     28831     28829     28832     28832     28833
     28832     28834     28832     28839     28839     28835     28835     28838
     28835     28836     28835     28837     28840     28841     28840     28842
     28840     28843     28840     28838     28843     28844     28843     28851
     28843     28845     28851     28852     28851     28853     28851     28854
     28845     28846     28846     28848     28846     28847     28848     28849
     28848     28850     28848     28860     28860     28861     28860     28862
     28860     28863     28863     28864     28863     28865     28863     28866
     28866     28867     28866     28868     28866     28869     28869     28870
     28869     28871     28869     28872     28872     28873     28872     28874
     28872     28875     28875     28876     28875     28877     28875     28878
     28878     28879     28878     28883     28878     28880     28883     28884
     28883     28885     28883     28880     28885     28886     28885     28887
     28885     28888     28888     28889     28888     28890     28888     28891
     28891     28892     28891     28893     28891     28894     28894     28895
     28894     28896     28894     28897     28897     28898     28897     28899
     28897     28900     28900     28901     28900     28902     28900     28903
     28880     28881     28880     28882     28854     28855     28855     28857
     28855     28856     28857     28858     28857     28859     28857     28904
     28904     28905     28904     28906     28904     28907     28907     28908
     28907     28909     28907     28910     28910     28911     28910     28912
     28910     28913     28913     28914     28913     28915     28913     28916
     28916     28917     28916     28918     28916     28919     28919     28920
     28919     28921     28919     28922     28922     28923     28922     28924
     28922     28925     28925     28926     28925     28927     28925     28928
     28928     28929     28928     28930     28928     28931     28931     28932
     28931     28933     28931     28934     28934     28935     28934     28936
     28934     28937     28937     28938     28937     28939     28937     28940
     28940     28941     28940     28942     28940     28943     28943     28944
     28943     28945     28943     28946     28947     28948     28947     28949
     28947     28950     28947     28951     28951     28952     28951     28953
     28951     28954     28954     28955     28954     28956     28954     28961
     28961     28957     28957     28960     28957     28958     28957     28959
     28962     28963     28962     28964     28962     28965     28962     28960
     28965     28966     28965     28973     28965     28967     28973     28974
     28973     28975     28973     28976     28967     28968     28968     28970
     28968     28969     28970     28971     28970     28972     28970     28982
     28982     28983     28982     28984     28982     28985     28985     28986
     28985     28987     28985     28988     28988     28989     28988     28990
     28988     28991     28991     28992     28991     28993     28991     28994
     28994     28995     28994     28996     28994     28997     28997     28998
     28997     28999     28997     29000     29000     29001     29000     29005
     29000     29002     29005     29006     29005     29007     29005     29002
     29007     29008     29007     29009     29007     29010     29010     29011
     29010     29012     29010     29013     29013     29014     29013     29015
     29013     29016     29016     29017     29016     29018     29016     29019
     29019     29020     29019     29021     29019     29022     29022     29023
     29022     29024     29022     29025     29002     29003     29002     29004
     28976     28977     28977     28979     28977     28978     28979     28980
     28979     28981     28979     29026     29026     29027     29026     29028
     29026     29029     29029     29030     29029     29031     29029     29032
     29032     29033     29032     29034     29032     29035     29035     29036
     29035     29037     29035     29038     29038     29039     29038     29040
     29038     29041     29041     29042     29041     29043     29041     29044
     29044     29045     29044     29046     29044     29047     29047     29048
     29047     29049     29047     29050     29050     29051     29050     29052
     29050     29053     29053     29054     29053     29055     29053     29056
     29056     29057     29056     29058     29056     29059     29059     29060
     29059     29061     29059     29062     29062     29063     29062     29064
     29062     29065     29070     29069     29069     29066     29066     29067
     29066     29068     29066     29071     29074     29073     29073     29071
     29071     29072     29071     29075     29075     29076     29075     29077
     29075     29082     29082     29078     29078     29081     29078     29079
     29078     29080     29083     29084     29083     29085     29083     29086
     29083     29081     29086     29087     29086     29094     29086     29088
     29094     29095     29094     29096     29094     29097     29088     29089
     29089     29091     29089     29090     29091     29092     29091     29093
     29091     29103     29103     29104     29103     29105     29103     29106
     29106     29107     29106     29108     29106     29109     29109     29110
     29109     29111     29109     29112     29112     29113     29112     29114
     29112     29115     29115     29116     29115     29117     29115     29118
     29118     29119     29118     29120     29118     29121     29121     29122
     29121     29126     29121     29123     29126     29127     29126     29128
     29126     29123     29128     29129     29128     29130     29128     29131
     29131     29132     29131     29133     29131     29134     29134     29135
     29134     29136     29134     29137     29137     29138     29137     29139
     29137     29140     29140     29141     29140     29142     29140     29143
     29143     29144     29143     29145     29143     29146     29123     29124
     29123     29125     29097     29098     29098     29100     29098     29099
     29100     29101     29100     29102     29100     29147     29147     29148
     29147     29149     29147     29150     29150     29151     29150     29152
     29150     29153     29153     29154     29153     29155     29153     29156
     29156     29157     29156     29158     29156     29159     29159     29160
     29159     29161     29159     29162     29162     29163     29162     29164
     29162     29165     29165     29166     29165     29167     29165     29168
     29168     29169     29168     29170     29168     29171     29171     29172
     29171     29173     29171     29174     29174     29175     29174     29176
     29174     29177     29177     29178     29177     29179     29177     29180
     29180     29181     29180     29182     29180     29183     29183     29184
     29183     29185     29183     29186     29186     29187     29186     29188
     29186     29189     29190     29191     29190     29192     29190     29193
     29190     29194     29194     29195     29194     29196     29194     29197
     29197     29198     29197     29199     29197     29204     29204     29200
     29200     29203     29200     29201     29200     29202     29205     29206
     29205     29207     29205     29208     29205     29203     29208     29209
     29208     29216     29208     29210     29216     29217     29216     29218
     29216     29219     29210     29211     29211     29213     29211     29212
     29213     29214     29213     29215     29213     29225     29225     29226
     29225     29227     29225     29228     29228     29229     29228     29230
     29228     29231     29231     29232     29231     29233     29231     29234
     29234     29235     29234     29236     29234     29237     29237     29238
     29237     29239     29237     29240     29240     29241     29240     29242
     29240     29243     29243     29244     29243     29248     29243     29245
     29248     29249     29248     29250     29248     29245     29250     29251
     29250     29252     29250     29253     29253     29254     29253     29255
     29253     29256     29256     29257     29256     29258     29256     29259
     29259     29260     29259     29261     29259     29262     29262     29263
     29262     29264     29262     29265     29265     29266     29265     29267
     29265     29268     29245     29246     29245     29247     29219     29220
     29220     29222     29220     29221     29222     29223     29222     29224
     29222     29269     29269     29270     29269     29271     29269     29272
     29272     29273     29272     29274     29272     29275     29275     29276
     29275     29277     29275     29278     29278     29279     29278     29280
     29278     29281     29281     29282     29281     29283     29281     29284
     29284     29285     29284     29286     29284     29287     29287     29288
     29287     29289     29287     29290     29290     29291     29290     29292
     29290     29293     29293     29294     29293     29295     29293     29296
     29296     29297     29296     29298     29296     29299     29299     29300
     29299     29301     29299     29302     29302     29303     29302     29304
     29302     29305     29305     29306     29305     29307     29305     29308
     29308     29309     29308     29310     29308     29311     29312     29313
     29312     29314     29312     29315     29312     29316     29316     29317
     29316     29318     29316     29319     29319     29320     29319     29321
     29319     29326     29326     29322     29322     29325     29322     29323
     29322     29324     29327     29328     29327     29329     29327     29330
     29327     29325     29330     29331     29330     29338     29330     29332
     29338     29339     29338     29340     29338     29341     29332     29333
     29333     29335     29333     29334     29335     29336     29335     29337
     29335     29347     29347     29348     29347     29349     29347     29350
     29350     29351     29350     29352     29350     29353     29353     29354
     29353     29355     29353     29356     29356     29357     29356     29358
     29356     29359     29359     29360     29359     29361     29359     29362
     29362     29363     29362     29364     29362     29365     29365     29366
     29365     29370     29365     29367     29370     29371     29370     29372
     29370     29367     29372     29373     29372     29374     29372     29375
     29375     29376     29375     29377     29375     29378     29378     29379
     29378     29380     29378     29381     29381     29382     29381     29383
     29381     29384     29384     29385     29384     29386     29384     29387
     29387     29388     29387     29389     29387     29390     29367     29368
     29367     29369     29341     29342     29342     29344     29342     29343
     29344     29345     29344     29346     29344     29391     29391     29392
     29391     29393     29391     29394     29394     29395     29394     29396
     29394     29397     29397     29398     29397     29399     29397     29400
     29400     29401     29400     29402     29400     29403     29403     29404
     29403     29405     29403     29406     29406     29407     29406     29408
     29406     29409     29409     29410     29409     29411     29409     29412
     29412     29413     29412     29414     29412     29415     29415     29416
     29415     29417     29415     29418     29418     29419     29418     29420
     29418     29421     29421     29422     29421     29423     29421     29424
     29424     29425     29424     29426     29424     29427     29427     29428
     29427     29429     29427     29430     29430     29431     29430     29432
     29430     29433     29434     29435     29434     29436     29434     29437
     29434     29438     29438     29439     29438     29440     29438     29441
     29441     29442     29441     29443     29441     29448     29448     29444
     29444     29447     29444     29445     29444     29446     29449     29450
     29449     29451     29449     29452     29449     29447     29452     29453
     29452     29460     29452     29454     29460     29461     29460     29462
     29460     29463     29454     29455     29455     29457     29455     29456
     29457     29458     29457     29459     29457     29469     29469     29470
     29469     29471     29469     29472     29472     29473     29472     29474
     29472     29475     29475     29476     29475     29477     29475     29478
     29478     29479     29478     29480     29478     29481     29481     29482
     29481     29483     29481     29484     29484     29485     29484     29486
     29484     29487     29487     29488     29487     29492     29487     29489
     29492     29493     29492     29494     29492     29489     29494     29495
     29494     29496     29494     29497     29497     29498     29497     29499
     29497     29500     29500     29501     29500     29502     29500     29503
     29503     29504     29503     29505     29503     29506     29506     29507
     29506     29508     29506     29509     29509     29510     29509     29511
     29509     29512     29489     29490     29489     29491     29463     29464
     29464     29466     29464     29465     29466     29467     29466     29468
     29466     29513     29513     29514     29513     29515     29513     29516
     29516     29517     29516     29518     29516     29519     29519     29520
     29519     29521     29519     29522     29522     29523     29522     29524
     29522     29525     29525     29526     29525     29527     29525     29528
     29528     29529     29528     29530     29528     29531     29531     29532
     29531     29533     29531     29534     29534     29535     29534     29536
     29534     29537     29537     29538     29537     29539     29537     29540
     29540     29541     29540     29542     29540     29543     29543     29544
     29543     29545     29543     29546     29546     29547     29546     29548
     29546     29549     29549     29550     29549     29551     29549     29552
     29552     29553     29552     29554     29552     29555     29556     29557
     29556     29558     29556     29559     29556     29560     29560     29561
     29560     29562     29560     29563     29563     29564     29563     29565
     29563     29570     29570     29566     29566     29569     29566     29567
     29566     29568     29571     29572     29571     29573     29571     29574
     29571     29569     29574     29575     29574     29582     29574     29576
     29582     29583     29582     29584     29582     29585     29576     29577
     29577     29579     29577     29578     29579     29580     29579     29581
     29579     29591     29591     29592     29591     29593     29591     29594
     29594     29595     29594     29596     29594     29597     29597     29598
     29597     29599     29597     29600     29600     29601     29600     29602
     29600     29603     29603     29604     29603     29605     29603     29606
     29606     29607     29606     29608     29606     29609     29609     29610
     29609     29614     29609     29611     29614     29615     29614     29616
     29614     29611     29616     29617     29616     29618     29616     29619
     29619     29620     29619     29621     29619     29622     29622     29623
     29622     29624     29622     29625     29625     29626     29625     29627
     29625     29628     29628     29629     29628     29630     29628     29631
     29631     29632     29631     29633     29631     29634     29611     29612
     29611     29613     29585     29586     29586     29588     29586     29587
     29588     29589     29588     29590     29588     29635     29635     29636
     29635     29637     29635     29638     29638     29639     29638     29640
     29638     29641     29641     29642     29641     29643     29641     29644
     29644     29645     29644     29646     29644     29647     29647     29648
     29647     29649     29647     29650     29650     29651     29650     29652
     29650     29653     29653     29654     29653     29655     29653     29656
     29656     29657     29656     29658     29656     29659     29659     29660
     29659     29661     29659     29662     29662     29663     29662     29664
     29662     29665     29665     29666     29665     29667     29665     29668
     29668     29669     29668     29670     29668     29671     29671     29672
     29671     29673     29671     29674     29674     29675     29674     29676
     29674     29677     29682     29681     29681     29678     29678     29679
     29678     29680     29678     29683     29686     29685     29685     29683
     29683     29684     29683     29687     29687     29688     29687     29689
     29687     29694     29694     29690     29690     29693     29690     29691
     29690     29692     29695     29696     29695     29697     29695     29698
     29695     29693     29698     29699     29698     29706     29698     29700
     29706     29707     29706     29708     29706     29709     29700     29701
     29701     29703     29701     29702     29703     29704     29703     29705
     29703     29715     29715     29716     29715     29717     29715     29718
     29718     29719     29718     29720     29718     29721     29721     29722
     29721     29723     29721     29724     29724     29725     29724     29726
     29724     29727     29727     29728     29727     29729     29727     29730
     29730     29731     29730     29732     29730     29733     29733     29734
     29733     29738     29733     29735     29738     29739     29738     29740
     29738     29735     29740     29741     29740     29742     29740     29743
     29743     29744     29743     29745     29743     29746     29746     29747
     29746     29748     29746     29749     29749     29750     29749     29751
     29749     29752     29752     29753     29752     29754     29752     29755
     29755     29756     29755     29757     29755     29758     29735     29736
     29735     29737     29709     29710     29710     29712     29710     29711
     29712     29713     29712     29714     29712     29759     29759     29760
     29759     29761     29759     29762     29762     29763     29762     29764
     29762     29765     29765     29766     29765     29767     29765     29768
     29768     29769     29768     29770     29768     29771     29771     29772
     29771     29773     29771     29774     29774     29775     29774     29776
     29774     29777     29777     29778     29777     29779     29777     29780
     29780     29781     29780     29782     29780     29783     29783     29784
     29783     29785     29783     29786     29786     29787     29786     29788
     29786     29789     29789     29790     29789     29791     29789     29792
     29792     29793     29792     29794     29792     29795     29795     29796
     29795     29797     29795     29798     29798     29799     29798     29800
     29798     29801     29802     29803     29802     29804     29802     29805
     29802     29806     29806     29807     29806     29808     29806     29809
     29809     29810     29809     29811     29809     29816     29816     29812
     29812     29815     29812     29813     29812     29814     29817     29818
     29817     29819     29817     29820     29817     29815     29820     29821
     29820     29828     29820     29822     29828     29829     29828     29830
     29828     29831     29822     29823     29823     29825     29823     29824
     29825     29826     29825     29827     29825     29837     29837     29838
     29837     29839     29837     29840     29840     29841     29840     29842
     29840     29843     29843     29844     29843     29845     29843     29846
     29846     29847     29846     29848     29846     29849     29849     29850
     29849     29851     29849     29852     29852     29853     29852     29854
     29852     29855     29855     29856     29855     29860     29855     29857
     29860     29861     29860     29862     29860     29857     29862     29863
     29862     29864     29862     29865     29865     29866     29865     29867
     29865     29868     29868     29869     29868     29870     29868     29871
     29871     29872     29871     29873     29871     29874     29874     29875
     29874     29876     29874     29877     29877     29878     29877     29879
     29877     29880     29857     29858     29857     29859     29831     29832
     29832     29834     29832     29833     29834     29835     29834     29836
     29834     29881     29881     29882     29881     29883     29881     29884
     29884     29885     29884     29886     29884     29887     29887     29888
     29887     29889     29887     29890     29890     29891     29890     29892
     29890     29893     29893     29894     29893     29895     29893     29896
     29896     29897     29896     29898     29896     29899     29899     29900
     29899     29901     29899     29902     29902     29903     29902     29904
     29902     29905     29905     29906     29905     29907     29905     29908
     29908     29909     29908     29910     29908     29911     29911     29912
     29911     29913     29911     29914     29914     29915     29914     29916
     29914     29917     29917     29918     29917     29919     29917     29920
     29920     29921     29920     29922     29920     29923     29924     29925
     29924     29926     29924     29927     29924     29928     29928     29929
     29928     29930     29928     29931     29931     29932     29931     29933
     29931     29938     29938     29934     29934     29937     29934     29935
     29934     29936     29939     29940     29939     29941     29939     29942
     29939     29937     29942     29943     29942     29950     29942     29944
     29950     29951     29950     29952     29950     29953     29944     29945
     29945     29947     29945     29946     29947     29948     29947     29949
     29947     29959     29959     29960     29959     29961     29959     29962
     29962     29963     29962     29964     29962     29965     29965     29966
     29965     29967     29965     29968     29968     29969     29968     29970
     29968     29971     29971     29972     29971     29973     29971     29974
     29974     29975     29974     29976     29974     29977     29977     29978
     29977     29979     29979     29980     29979     29981     29981     29982
     29981     29983     29981     29984     29984     29985     29984     29986
     29984     29987     29987     29988     29987     29989     29987     29990
     29990     29991     29990     29992     29990     29993     29993     29994
     29993     29995     29993     29996     29996     29997     29996     29998
     29996     29999     29999     30000     29999     30001     29999     30002
     30002     30003     30002     30004     30002     30005     29953     29954
     29954     29956     29954     29955     29956     29957     29956     29958
     29956     30006     30006     30007     30006     30008     30006     30009
     30009     30010     30009     30011     30009     30012     30012     30013
     30012     30014     30012     30015     30015     30016     30015     30017
     30015     30018     30018     30019     30018     30020     30018     30021
     30021     30022     30021     30023     30021     30024     30024     30025
     30024     30026     30024     30027     30027     30028     30027     30029
     30027     30030     30030     30031     30030     30032     30030     30033
     30033     30034     30033     30035     30033     30036     30036     30037
     30036     30038     30036     30039     30039     30040     30039     30041
     30039     30042     30042     30043     30042     30044     30042     30045
     30045     30046     30045     30047     30045     30048     30049     30050
     30049     30051     30049     30052     30049     30053     30053     30054
     30053     30055     30053     30056     30056     30057     30056     30058
     30056     30063     30063     30059     30059     30062     30059     30060
     30059     30061     30064     30065     30064     30066     30064     30067
     30064     30062     30067     30068     30067     30075     30067     30069
     30075     30076     30075     30077     30075     30078     30069     30070
     30070     30072     30070     30071     30072     30073     30072     30074
     30072     30084     30084     30085     30084     30086     30084     30087
     30087     30088     30087     30089     30087     30090     30090     30091
     30090     30092     30090     30093     30093     30094     30093     30095
     30093     30096     30096     30097     30096     30098     30096     30099
     30099     30100     30099     30101     30099     30102     30102     30103
     30102     30104     30104     30105     30104     30106     30106     30107
     30106     30108     30106     30109     30109     30110     30109     30111
     30109     30112     30112     30113     30112     30114     30112     30115
     30115     30116     30115     30117     30115     30118     30118     30119
     30118     30120     30118     30121     30121     30122     30121     30123
     30121     30124     30124     30125     30124     30126     30124     30127
     30127     30128     30127     30129     30127     30130     30078     30079
     30079     30081     30079     30080     30081     30082     30081     30083
     30081     30131     30131     30132     30131     30133     30131     30134
     30134     30135     30134     30136     30134     30137     30137     30138
     30137     30139     30137     30140     30140     30141     30140     30142
     30140     30143     30143     30144     30143     30145     30143     30146
     30146     30147     30146     30148     30146     30149     30149     30150
     30149     30151     30149     30152     30152     30153     30152     30154
     30152     30155     30155     30156     30155     30157     30155     30158
     30158     30159     30158     30160     30158     30161     30161     30162
     30161     30163     30161     30164     30164     30165     30164     30166
     30164     30167     30167     30168     30167     30169     30167     30170
     30170     30171     30170     30172     30170     30173     30174     30175
     30174     30176     30174     30177     30174     30178     30178     30179
     30178     30180     30178     30181     30181     30182     30181     30183
     30181     30188     30188     30184     30184     30187     30184     30185
     30184     30186     30189     30190     30189     30191     30189     30192
     30189     30187     30192     30193     30192     30200     30192     30194
     30200     30201     30200     30202     30200     30203     30194     30195
     30195     30197     30195     30196     30197     30198     30197     30199
     30197     30209     30209     30210     30209     30211     30209     30212
     30212     30213     30212     30214     30212     30215     30215     30216
     30215     30217     30215     30218     30218     30219     30218     30220
     30218     30221     30221     30222     30221     30223     30221     30224
     30224     30225     30224     30226     30224     30227     30227     30228
     30227     30229     30229     30230     30229     30231     30231     30232
     30231     30233     30231     30234     30234     30235     30234     30236
     30234     30237     30237     30238     30237     30239     30237     30240
     30240     30241     30240     30242     30240     30243     30243     30244
     30243     30245     30243     30246     30246     30247     30246     30248
     30246     30249     30203     30204     30204     30206     30204     30205
     30206     30207     30206     30208     30206     30250     30250     30251
     30250     30252     30250     30253     30253     30254     30253     30255
     30253     30256     30256     30257     30256     30258     30256     30259
     30259     30260     30259     30261     30259     30262     30262     30263
     30262     30264     30262     30265     30265     30266     30265     30267
     30265     30268     30268     30269     30268     30270     30270     30271
     30270     30272     30272     30273     30272     30274     30272     30275
     30275     30276     30275     30277     30275     30278     30278     30279
     30278     30280     30278     30281     30281     30282     30281     30283
     30281     30284     30284     30285     30284     30286     30284     30287
     30287     30288     30287     30289     30287     30290     30290     30291
     30290     30292     30290     30293     30293     30294     30293     30295
     30293     30296     30297     30298     30297     30299     30297     30300
     30297     30301     30301     30302     30301     30303     30301     30304
     30304     30305     30304     30306     30304     30311     30311     30307
     30307     30310     30307     30308     30307     30309     30312     30313
     30312     30314     30312     30315     30312     30310     30315     30316
     30315     30323     30315     30317     30323     30324     30323     30325
     30323     30326     30317     30318     30318     30320     30318     30319
     30320     30321     30320     30322     30320     30332     30332     30333
     30332     30334     30332     30335     30335     30336     30335     30337
     30335     30338     30338     30339     30338     30340     30338     30341
     30341     30342     30341     30343     30341     30344     30344     30345
     30344     30346     30344     30347     30347     30348     30347     30349
     30347     30350     30350     30351     30350     30355     30350     30352
     30355     30356     30355     30357     30355     30352     30357     30358
     30357     30359     30357     30360     30360     30361     30360     30362
     30360     30363     30363     30364     30363     30365     30363     30366
     30366     30367     30366     30368     30366     30369     30369     30370
     30369     30371     30369     30372     30372     30373     30372     30374
     30372     30375     30352     30353     30352     30354     30326     30327
     30327     30329     30327     30328     30329     30330     30329     30331
     30329     30376     30376     30377     30376     30378     30376     30379
     30379     30380     30379     30381     30379     30382     30382     30383
     30382     30384     30382     30385     30385     30386     30385     30387
     30385     30388     30388     30389     30388     30390     30388     30391
     30391     30392     30391     30393     30391     30394     30394     30395
     30394     30396     30394     30397     30397     30398     30397     30399
     30397     30400     30400     30401     30400     30402     30400     30403
     30403     30404     30403     30405     30403     30406     30406     30407
     30406     30408     30406     30409     30409     30410     30409     30411
     30409     30412     30412     30413     30412     30414     30412     30415
     30416     30417     30416     30418     30416     30419     30416     30420
     30420     30421     30420     30422     30420     30423     30423     30424
     30423     30425     30423     30430     30430     30426     30426     30429
     30426     30427     30426     30428     30431     30432     30431     30433
     30431     30434     30431     30429     30434     30435     30434     30442
     30434     30436     30442     30443     30442     30444     30442     30445
     30436     30437     30437     30439     30437     30438     30439     30440
     30439     30441     30439     30451     30451     30452     30451     30453
     30451     30454     30454     30455     30454     30456     30454     30457
     30457     30458     30457     30459     30457     30460     30460     30461
     30460     30462     30460     30463     30463     30464     30463     30465
     30463     30466     30466     30467     30466     30468     30466     30469
     30469     30470     30469     30474     30469     30471     30474     30475
     30474     30476     30474     30471     30476     30477     30476     30478
     30476     30479     30479     30480     30479     30481     30479     30482
     30482     30483     30482     30484     30482     30485     30485     30486
     30485     30487     30485     30488     30488     30489     30488     30490
     30488     30491     30491     30492     30491     30493     30491     30494
     30471     30472     30471     30473     30445     30446     30446     30448
     30446     30447     30448     30449     30448     30450     30448     30495
     30495     30496     30495     30497     30495     30498     30498     30499
     30498     30500     30498     30501     30501     30502     30501     30503
     30501     30504     30504     30505     30504     30506     30504     30507
     30507     30508     30507     30509     30507     30510     30510     30511
     30510     30512     30510     30513     30513     30514     30513     30515
     30513     30516     30516     30517     30516     30518     30516     30519
     30519     30520     30519     30521     30519     30522     30522     30523
     30522     30524     30522     30525     30525     30526     30525     30527
     30525     30528     30528     30529     30528     30530     30528     30531
     30531     30532     30531     30533     30531     30534     30534     30535
     30534     30536     30534     30537     30538     30539     30538     30540
     30538     30541     30538     30542     30542     30543     30542     30544
     30542     30545     30545     30546     30545     30547     30545     30552
     30552     30548     30548     30551     30548     30549     30548     30550
     30553     30554     30553     30555     30553     30556     30553     30551
     30556     30557     30556     30564     30556     30558     30564     30565
     30564     30566     30564     30567     30558     30559     30559     30561
     30559     30560     30561     30562     30561     30563     30561     30573
     30573     30574     30573     30575     30573     30576     30576     30577
     30576     30578     30576     30579     30579     30580     30579     30581
     30579     30582     30582     30583     30582     30584     30582     30585
     30585     30586     30585     30587     30585     30588     30588     30589
     30588     30590     30588     30591     30591     30592     30591     30596
     30591     30593     30596     30597     30596     30598     30596     30593
     30598     30599     30598     30600     30598     30601     30601     30602
     30601     30603     30601     30604     30604     30605     30604     30606
     30604     30607     30607     30608     30607     30609     30607     30610
     30610     30611     30610     30612     30610     30613     30613     30614
     30613     30615     30613     30616     30593     30594     30593     30595
     30567     30568     30568     30570     30568     30569     30570     30571
     30570     30572     30570     30617     30617     30618     30617     30619
     30617     30620     30620     30621     30620     30622     30620     30623
     30623     30624     30623     30625     30623     30626     30626     30627
     30626     30628     30626     30629     30629     30630     30629     30631
     30629     30632     30632     30633     30632     30634     30632     30635
     30635     30636     30635     30637     30635     30638     30638     30639
     30638     30640     30638     30641     30641     30642     30641     30643
     30641     30644     30644     30645     30644     30646     30644     30647
     30647     30648     30647     30649     30647     30650     30650     30651
     30650     30652     30650     30653     30653     30654     30653     30655
     30653     30656     30657     30658     30657     30659     30657     30660
     30657     30661     30661     30662     30661     30663     30661     30664
     30664     30665     30664     30666     30664     30671     30671     30667
     30667     30670     30667     30668     30667     30669     30672     30673
     30672     30674     30672     30675     30672     30670     30675     30676
     30675     30683     30675     30677     30683     30684     30683     30685
     30683     30686     30677     30678     30678     30680     30678     30679
     30680     30681     30680     30682     30680     30692     30692     30693
     30692     30694     30692     30695     30695     30696     30695     30697
     30695     30698     30698     30699     30698     30700     30698     30701
     30701     30702     30701     30703     30701     30704     30704     30705
     30704     30706     30704     30707     30707     30708     30707     30709
     30707     30710     30710     30711     30710     30715     30710     30712
     30715     30716     30715     30717     30715     30712     30717     30718
     30717     30719     30717     30720     30720     30721     30720     30722
     30720     30723     30723     30724     30723     30725     30723     30726
     30726     30727     30726     30728     30726     30729     30729     30730
     30729     30731     30729     30732     30732     30733     30732     30734
     30732     30735     30712     30713     30712     30714     30686     30687
     30687     30689     30687     30688     30689     30690     30689     30691
     30689     30736     30736     30737     30736     30738     30736     30739
     30739     30740     30739     30741     30739     30742     30742     30743
     30742     30744     30742     30745     30745     30746     30745     30747
     30745     30748     30748     30749     30748     30750     30748     30751
     30751     30752     30751     30753     30751     30754     30754     30755
     30754     30756     30754     30757     30757     30758     30757     30759
     30757     30760     30760     30761     30760     30762     30760     30763
     30763     30764     30763     30765     30763     30766     30766     30767
     30766     30768     30766     30769     30769     30770     30769     30771
     30769     30772     30772     30773     30772     30774     30772     30775
     30775     30776     30775     30777     30775     30778     30779     30780
     30779     30781     30779     30782     30779     30783     30783     30784
     30783     30785     30783     30786     30786     30787     30786     30788
     30786     30793     30793     30789     30789     30792     30789     30790
     30789     30791     30794     30795     30794     30796     30794     30797
     30794     30792     30797     30798     30797     30805     30797     30799
     30805     30806     30805     30807     30805     30808     30799     30800
     30800     30802     30800     30801     30802     30803     30802     30804
     30802     30814     30814     30815     30814     30816     30814     30817
     30817     30818     30817     30819     30817     30820     30820     30821
     30820     30822     30820     30823     30823     30824     30823     30825
     30823     30826     30826     30827     30826     30828     30826     30829
     30829     30830     30829     30831     30829     30832     30832     30833
     30832     30837     30832     30834     30837     30838     30837     30839
     30837     30834     30839     30840     30839     30841     30839     30842
     30842     30843     30842     30844     30842     30845     30845     30846
     30845     30847     30845     30848     30848     30849     30848     30850
     30848     30851     30851     30852     30851     30853     30851     30854
     30854     30855     30854     30856     30854     30857     30834     30835
     30834     30836     30808     30809     30809     30811     30809     30810
     30811     30812     30811     30813     30811     30858     30858     30859
     30858     30860     30858     30861     30861     30862     30861     30863
     30861     30864     30864     30865     30864     30866     30864     30867
     30867     30868     30867     30869     30867     30870     30870     30871
     30870     30872     30870     30873     30873     30874     30873     30875
     30873     30876     30876     30877     30876     30878     30876     30879
     30879     30880     30879     30881     30879     30882     30882     30883
     30882     30884     30882     30885     30885     30886     30885     30887
     30885     30888     30888     30889     30888     30890     30888     30891
     30891     30892     30891     30893     30891     30894     30894     30895
     30894     30896     30894     30897     30897     30898     30897     30899
     30897     30900     30901     30902     30901     30903     30901     30904
     30901     30905     30905     30906     30905     30907     30905     30908
     30908     30909     30908     30910     30908     30915     30915     30911
     30911     30914     30911     30912     30911     30913     30916     30917
     30916     30918     30916     30919     30916     30914     30919     30920
     30919     30927     30919     30921     30927     30928     30927     30929
     30927     30930     30921     30922     30922     30924     30922     30923
     30924     30925     30924     30926     30924     30936     30936     30937
     30936     30938     30936     30939     30939     30940     30939     30941
     30939     30942     30942     30943     30942     30944     30942     30945
     30945     30946     30945     30947     30945     30948     30948     30949
     30948     30950     30948     30951     30951     30952     30951     30953
     30951     30954     30954     30955     30954     30959     30954     30956
     30959     30960     30959     30961     30959     30956     30961     30962
     30961     30963     30961     30964     30964     30965     30964     30966
     30964     30967     30967     30968     30967     30969     30967     30970
     30970     30971     30970     30972     30970     30973     30973     30974
     30973     30975     30973     30976     30976     30977     30976     30978
     30976     30979     30956     30957     30956     30958     30930     30931
     30931     30933     30931     30932     30933     30934     30933     30935
     30933     30980     30980     30981     30980     30982     30980     30983
     30983     30984     30983     30985     30983     30986     30986     30987
     30986     30988     30986     30989     30989     30990     30989     30991
     30989     30992     30992     30993     30992     30994     30992     30995
     30995     30996     30995     30997     30995     30998     30998     30999
     30998     31000     30998     31001     31001     31002     31001     31003
     31001     31004     31004     31005     31004     31006     31004     31007
     31007     31008     31007     31009     31007     31010     31010     31011
     31010     31012     31010     31013     31013     31014     31013     31015
     31013     31016     31016     31017     31016     31018     31016     31019
     31019     31020     31019     31021     31019     31022     31023     31024
     31023     31025     31023     31026     31023     31027     31027     31028
     31027     31029     31027     31030     31030     31031     31030     31032
     31030     31037     31037     31033     31033     31036     31033     31034
     31033     31035     31038     31039     31038     31040     31038     31041
     31038     31036     31041     31042     31041     31049     31041     31043
     31049     31050     31049     31051     31049     31052     31043     31044
     31044     31046     31044     31045     31046     31047     31046     31048
     31046     31058     31058     31059     31058     31060     31058     31061
     31061     31062     31061     31063     31061     31064     31064     31065
     31064     31066     31064     31067     31067     31068     31067     31069
     31067     31070     31070     31071     31070     31072     31070     31073
     31073     31074     31073     31075     31073     31076     31076     31077
     31076     31078     31078     31079     31078     31080     31080     31081
     31080     31082     31080     31083     31083     31084     31083     31085
     31083     31086     31086     31087     31086     31088     31086     31089
     31089     31090     31089     31091     31089     31092     31092     31093
     31092     31094     31092     31095     31095     31096     31095     31097
     31095     31098     31098     31099     31098     31100     31098     31101
     31101     31102     31101     31103     31101     31104     31052     31053
     31053     31055     31053     31054     31055     31056     31055     31057
     31055     31105     31105     31106     31105     31107     31105     31108
     31108     31109     31108     31110     31108     31111     31111     31112
     31111     31113     31111     31114     31114     31115     31114     31116
     31114     31117     31117     31118     31117     31119     31117     31120
     31120     31121     31120     31122     31120     31123     31123     31124
     31123     31125     31123     31126     31126     31127     31126     31128
     31126     31129     31129     31130     31129     31131     31129     31132
     31132     31133     31132     31134     31132     31135     31135     31136
     31135     31137     31135     31138     31138     31139     31138     31140
     31138     31141     31141     31142     31141     31143     31141     31144
     31144     31145     31144     31146     31144     31147     31152     31151
     31151     31148     31148     31149     31148     31150     31148     31153
     31156     31155     31155     31153     31153     31154     31153     31157
     31157     31158     31157     31159     31157     31164     31164     31160
     31160     31163     31160     31161     31160     31162     31165     31166
     31165     31167     31165     31168     31165     31163     31168     31169
     31168     31176     31168     31170     31176     31177     31176     31178
     31176     31179     31170     31171     31171     31173     31171     31172
     31173     31174     31173     31175     31173     31185     31185     31186
     31185     31187     31185     31188     31188     31189     31188     31190
     31188     31191     31191     31192     31191     31193     31191     31194
     31194     31195     31194     31196     31194     31197     31197     31198
     31197     31199     31197     31200     31200     31201     31200     31202
     31200     31203     31203     31204     31203     31208     31203     31205
     31208     31209     31208     31210     31208     31205     31210     31211
     31210     31212     31210     31213     31213     31214     31213     31215
     31213     31216     31216     31217     31216     31218     31216     31219
     31219     31220     31219     31221     31219     31222     31222     31223
     31222     31224     31222     31225     31225     31226     31225     31227
     31225     31228     31205     31206     31205     31207     31179     31180
     31180     31182     31180     31181     31182     31183     31182     31184
     31182     31229     31229     31230     31229     31231     31229     31232
     31232     31233     31232     31234     31232     31235     31235     31236
     31235     31237     31235     31238     31238     31239     31238     31240
     31238     31241     31241     31242     31241     31243     31241     31244
     31244     31245     31244     31246     31244     31247     31247     31248
     31247     31249     31247     31250     31250     31251     31250     31252
     31250     31253     31253     31254     31253     31255     31253     31256
     31256     31257     31256     31258     31256     31259     31259     31260
     31259     31261     31259     31262     31262     31263     31262     31264
     31262     31265     31265     31266     31265     31267     31265     31268
     31268     31269     31268     31270     31268     31271     31272     31273
     31272     31274     31272     31275     31272     31276     31276     31277
     31276     31278     31276     31279     31279     31280     31279     31281
     31279     31286     31286     31282     31282     31285     31282     31283
     31282     31284     31287     31288     31287     31289     31287     31290
     31287     31285     31290     31291     31290     31298     31290     31292
     31298     31299     31298     31300     31298     31301     31292     31293
     31293     31295     31293     31294     31295     31296     31295     31297
     31295     31307     31307     31308     31307     31309     31307     31310
     31310     31311     31310     31312     31310     31313     31313     31314
     31313     31315     31313     31316     31316     31317     31316     31318
     31316     31319     31319     31320     31319     31321     31319     31322
     31322     31323     31322     31324     31322     31325     31325     31326
     31325     31327     31327     31328     31327     31329     31329     31330
     31329     31331     31329     31332     31332     31333     31332     31334
     31332     31335     31335     31336     31335     31337     31335     31338
     31338     31339     31338     31340     31338     31341     31341     31342
     31341     31343     31341     31344     31344     31345     31344     31346
     31344     31347     31347     31348     31347     31349     31347     31350
     31350     31351     31350     31352     31350     31353     31301     31302
     31302     31304     31302     31303     31304     31305     31304     31306
     31304     31354     31354     31355     31354     31356     31354     31357
     31357     31358     31357     31359     31357     31360     31360     31361
     31360     31362     31360     31363     31363     31364     31363     31365
     31363     31366     31366     31367     31366     31368     31366     31369
     31369     31370     31369     31371     31369     31372     31372     31373
     31372     31374     31372     31375     31375     31376     31375     31377
     31375     31378     31378     31379     31378     31380     31378     31381
     31381     31382     31381     31383     31381     31384     31384     31385
     31384     31386     31384     31387     31387     31388     31387     31389
     31387     31390     31390     31391     31390     31392     31390     31393
     31393     31394     31393     31395     31393     31396     31397     31398
     31397     31399     31397     31400     31397     31401     31401     31402
     31401     31403     31401     31404     31404     31405     31404     31406
     31404     31411     31411     31407     31407     31410     31407     31408
     31407     31409     31412     31413     31412     31414     31412     31415
     31412     31410     31415     31416     31415     31423     31415     31417
     31423     31424     31423     31425     31423     31426     31417     31418
     31418     31420     31418     31419     31420     31421     31420     31422
     31420     31432     31432     31433     31432     31434     31432     31435
     31435     31436     31435     31437     31435     31438     31438     31439
     31438     31440     31438     31441     31441     31442     31441     31443
     31441     31444     31444     31445     31444     31446     31444     31447
     31447     31448     31447     31449     31447     31450     31450     31451
     31450     31455     31450     31452     31455     31456     31455     31457
     31455     31452     31457     31458     31457     31459     31457     31460
     31460     31461     31460     31462     31460     31463     31463     31464
     31463     31465     31463     31466     31466     31467     31466     31468
     31466     31469     31469     31470     31469     31471     31469     31472
     31472     31473     31472     31474     31472     31475     31452     31453
     31452     31454     31426     31427     31427     31429     31427     31428
     31429     31430     31429     31431     31429     31476     31476     31477
     31476     31478     31476     31479     31479     31480     31479     31481
     31479     31482     31482     31483     31482     31484     31482     31485
     31485     31486     31485     31487     31485     31488     31488     31489
     31488     31490     31488     31491     31491     31492     31491     31493
     31491     31494     31494     31495     31494     31496     31494     31497
     31497     31498     31497     31499     31497     31500     31500     31501
     31500     31502     31500     31503     31503     31504     31503     31505
     31503     31506     31506     31507     31506     31508     31506     31509
     31509     31510     31509     31511     31509     31512     31512     31513
     31512     31514     31512     31515     31515     31516     31515     31517
     31515     31518     31519     31520     31519     31521     31519     31522
     31519     31523     31523     31524     31523     31525     31523     31526
     31526     31527     31526     31528     31526     31533     31533     31529
     31529     31532     31529     31530     31529     31531     31534     31535
     31534     31536     31534     31537     31534     31532     31537     31538
     31537     31545     31537     31539     31545     31546     31545     31547
     31545     31548     31539     31540     31540     31542     31540     31541
     31542     31543     31542     31544     31542     31554     31554     31555
     31554     31556     31554     31557     31557     31558     31557     31559
     31557     31560     31560     31561     31560     31562     31560     31563
     31563     31564     31563     31565     31563     31566     31566     31567
     31566     31568     31566     31569     31569     31570     31569     31571
     31569     31572     31572     31573     31572     31574     31574     31575
     31574     31576     31576     31577     31576     31578     31576     31579
     31579     31580     31579     31581     31579     31582     31582     31583
     31582     31584     31582     31585     31585     31586     31585     31587
     31585     31588     31588     31589     31588     31590     31588     31591
     31591     31592     31591     31593     31591     31594     31594     31595
     31594     31596     31594     31597     31597     31598     31597     31599
     31597     31600     31548     31549     31549     31551     31549     31550
     31551     31552     31551     31553     31551     31601     31601     31602
     31601     31603     31601     31604     31604     31605     31604     31606
     31604     31607     31607     31608     31607     31609     31607     31610
     31610     31611     31610     31612     31610     31613     31613     31614
     31613     31615     31613     31616     31616     31617     31616     31618
     31616     31619     31619     31620     31619     31621     31619     31622
     31622     31623     31622     31624     31622     31625     31625     31626
     31625     31627     31625     31628     31628     31629     31628     31630
     31628     31631     31631     31632     31631     31633     31631     31634
     31634     31635     31634     31636     31634     31637     31637     31638
     31637     31639     31637     31640     31640     31641     31640     31642
     31640     31643     31644     31645     31644     31646     31644     31647
     31644     31648     31648     31649     31648     31650     31648     31651
     31651     31652     31651     31653     31651     31658     31658     31654
     31654     31657     31654     31655     31654     31656     31659     31660
     31659     31661     31659     31662     31659     31657     31662     31663
     31662     31670     31662     31664     31670     31671     31670     31672
     31670     31673     31664     31665     31665     31667     31665     31666
     31667     31668     31667     31669     31667     31679     31679     31680
     31679     31681     31679     31682     31682     31683     31682     31684
     31682     31685     31685     31686     31685     31687     31685     31688
     31688     31689     31688     31690     31688     31691     31691     31692
     31691     31693     31691     31694     31694     31695     31694     31696
     31694     31697     31697     31698     31697     31702     31697     31699
     31702     31703     31702     31704     31702     31699     31704     31705
     31704     31706     31704     31707     31707     31708     31707     31709
     31707     31710     31710     31711     31710     31712     31710     31713
     31713     31714     31713     31715     31713     31716     31716     31717
     31716     31718     31716     31719     31719     31720     31719     31721
     31719     31722     31699     31700     31699     31701     31673     31674
     31674     31676     31674     31675     31676     31677     31676     31678
     31676     31723     31723     31724     31723     31725     31723     31726
     31726     31727     31726     31728     31726     31729     31729     31730
     31729     31731     31729     31732     31732     31733     31732     31734
     31732     31735     31735     31736     31735     31737     31735     31738
     31738     31739     31738     31740     31738     31741     31741     31742
     31741     31743     31741     31744     31744     31745     31744     31746
     31744     31747     31747     31748     31747     31749     31747     31750
     31750     31751     31750     31752     31750     31753     31753     31754
     31753     31755     31753     31756     31756     31757     31756     31758
     31756     31759     31759     31760     31759     31761     31759     31762
     31762     31763     31762     31764     31762     31765     31766     31767
     31766     31768     31766     31769     31766     31770     31770     31771
     31770     31772     31770     31773     31773     31774     31773     31775
     31773     31780     31780     31776     31776     31779     31776     31777
     31776     31778     31781     31782     31781     31783     31781     31784
     31781     31779     31784     31785     31784     31792     31784     31786
     31792     31793     31792     31794     31792     31795     31786     31787
     31787     31789     31787     31788     31789     31790     31789     31791
     31789     31801     31801     31802     31801     31803     31801     31804
     31804     31805     31804     31806     31804     31807     31807     31808
     31807     31809     31807     31810     31810     31811     31810     31812
     31810     31813     31813     31814     31813     31815     31813     31816
     31816     31817     31816     31818     31816     31819     31819     31820
     31819     31824     31819     31821     31824     31825     31824     31826
     31824     31821     31826     31827     31826     31828     31826     31829
     31829     31830     31829     31831     31829     31832     31832     31833
     31832     31834     31832     31835     31835     31836     31835     31837
     31835     31838     31838     31839     31838     31840     31838     31841
     31841     31842     31841     31843     31841     31844     31821     31822
     31821     31823     31795     31796     31796     31798     31796     31797
     31798     31799     31798     31800     31798     31845     31845     31846
     31845     31847     31845     31848     31848     31849     31848     31850
     31848     31851     31851     31852     31851     31853     31851     31854
     31854     31855     31854     31856     31854     31857     31857     31858
     31857     31859     31857     31860     31860     31861     31860     31862
     31860     31863     31863     31864     31863     31865     31863     31866
     31866     31867     31866     31868     31866     31869     31869     31870
     31869     31871     31869     31872     31872     31873     31872     31874
     31872     31875     31875     31876     31875     31877     31875     31878
     31878     31879     31878     31880     31878     31881     31881     31882
     31881     31883     31881     31884     31884     31885     31884     31886
     31884     31887     31888     31889     31888     31890     31888     31891
     31888     31892     31892     31893     31892     31894     31892     31895
     31895     31896     31895     31897     31895     31902     31902     31898
     31898     31901     31898     31899     31898     31900     31903     31904
     31903     31905     31903     31906     31903     31901     31906     31907
     31906     31914     31906     31908     31914     31915     31914     31916
     31914     31917     31908     31909     31909     31911     31909     31910
     31911     31912     31911     31913     31911     31923     31923     31924
     31923     31925     31923     31926     31926     31927     31926     31928
     31926     31929     31929     31930     31929     31931     31929     31932
     31932     31933     31932     31934     31932     31935     31935     31936
     31935     31937     31935     31938     31938     31939     31938     31940
     31938     31941     31941     31942     31941     31943     31943     31944
     31943     31945     31945     31946     31945     31947     31945     31948
     31948     31949     31948     31950     31948     31951     31951     31952
     31951     31953     31951     31954     31954     31955     31954     31956
     31954     31957     31957     31958     31957     31959     31957     31960
     31960     31961     31960     31962     31960     31963     31917     31918
     31918     31920     31918     31919     31920     31921     31920     31922
     31920     31964     31964     31965     31964     31966     31964     31967
     31967     31968     31967     31969     31967     31970     31970     31971
     31970     31972     31970     31973     31973     31974     31973     31975
     31973     31976     31976     31977     31976     31978     31976     31979
     31979     31980     31979     31981     31979     31982     31982     31983
     31982     31984     31984     31985     31984     31986     31986     31987
     31986     31988     31986     31989     31989     31990     31989     31991
     31989     31992     31992     31993     31992     31994     31992     31995
     31995     31996     31995     31997     31995     31998     31998     31999
     31998     32000     31998     32001     32001     32002     32001     32003
     32001     32004     32004     32005     32004     32006     32004     32007
     32007     32008     32007     32009     32007     32010     32011     32012
     32011     32013     32011     32014     32011     32015     32015     32016
     32015     32017     32015     32018     32018     32019     32018     32020
     32018     32025     32025     32021     32021     32024     32021     32022
     32021     32023     32026     32027     32026     32028     32026     32029
     32026     32024     32029     32030     32029     32037     32029     32031
     32037     32038     32037     32039     32037     32040     32031     32032
     32032     32034     32032     32033     32034     32035     32034     32036
     32034     32046     32046     32047     32046     32048     32046     32049
     32049     32050     32049     32051     32049     32052     32052     32053
     32052     32054     32052     32055     32055     32056     32055     32057
     32055     32058     32058     32059     32058     32060     32058     32061
     32061     32062     32061     32063     32061     32064     32064     32065
     32064     32069     32064     32066     32069     32070     32069     32071
     32069     32066     32071     32072     32071     32073     32071     32074
     32074     32075     32074     32076     32074     32077     32077     32078
     32077     32079     32077     32080     32080     32081     32080     32082
     32080     32083     32083     32084     32083     32085     32083     32086
     32086     32087     32086     32088     32086     32089     32066     32067
     32066     32068     32040     32041     32041     32043     32041     32042
     32043     32044     32043     32045     32043     32090     32090     32091
     32090     32092     32090     32093     32093     32094     32093     32095
     32093     32096     32096     32097     32096     32098     32096     32099
     32099     32100     32099     32101     32099     32102     32102     32103
     32102     32104     32102     32105     32105     32106     32105     32107
     32105     32108     32108     32109     32108     32110     32108     32111
     32111     32112     32111     32113     32111     32114     32114     32115
     32114     32116     32114     32117     32117     32118     32117     32119
     32117     32120     32120     32121     32120     32122     32120     32123
     32123     32124     32123     32125     32123     32126     32126     32127
     32126     32128     32126     32129     32129     32130     32129     32131
     32129     32132     32133     32134     32133     32135     32133     32136
     32133     32137     32137     32138     32137     32139     32137     32140
     32140     32141     32140     32142     32140     32147     32147     32143
     32143     32146     32143     32144     32143     32145     32148     32149
     32148     32150     32148     32151     32148     32146     32151     32152
     32151     32159     32151     32153     32159     32160     32159     32161
     32159     32162     32153     32154     32154     32156     32154     32155
     32156     32157     32156     32158     32156     32168     32168     32169
     32168     32170     32168     32171     32171     32172     32171     32173
     32171     32174     32174     32175     32174     32176     32174     32177
     32177     32178     32177     32179     32177     32180     32180     32181
     32180     32182     32180     32183     32183     32184     32183     32185
     32183     32186     32186     32187     32186     32191     32186     32188
     32191     32192     32191     32193     32191     32188     32193     32194
     32193     32195     32193     32196     32196     32197     32196     32198
     32196     32199     32199     32200     32199     32201     32199     32202
     32202     32203     32202     32204     32202     32205     32205     32206
     32205     32207     32205     32208     32208     32209     32208     32210
     32208     32211     32188     32189     32188     32190     32162     32163
     32163     32165     32163     32164     32165     32166     32165     32167
     32165     32212     32212     32213     32212     32214     32212     32215
     32215     32216     32215     32217     32215     32218     32218     32219
     32218     32220     32218     32221     32221     32222     32221     32223
     32221     32224     32224     32225     32224     32226     32224     32227
     32227     32228     32227     32229     32227     32230     32230     32231
     32230     32232     32230     32233     32233     32234     32233     32235
     32233     32236     32236     32237     32236     32238     32236     32239
     32239     32240     32239     32241     32239     32242     32242     32243
     32242     32244     32242     32245     32245     32246     32245     32247
     32245     32248     32248     32249     32248     32250     32248     32251
     32251     32252     32251     32253     32251     32254     32255     32256
     32255     32257     32255     32258     32255     32259     32259     32260
     32259     32261     32259     32262     32262     32263     32262     32264
     32262     32269     32269     32265     32265     32268     32265     32266
     32265     32267     32270     32271     32270     32272     32270     32273
     32270     32268     32273     32274     32273     32281     32273     32275
     32281     32282     32281     32283     32281     32284     32275     32276
     32276     32278     32276     32277     32278     32279     32278     32280
     32278     32290     32290     32291     32290     32292     32290     32293
     32293     32294     32293     32295     32293     32296     32296     32297
     32296     32298     32296     32299     32299     32300     32299     32301
     32299     32302     32302     32303     32302     32304     32302     32305
     32305     32306     32305     32307     32305     32308     32308     32309
     32308     32310     32310     32311     32310     32312     32312     32313
     32312     32314     32312     32315     32315     32316     32315     32317
     32315     32318     32318     32319     32318     32320     32318     32321
     32321     32322     32321     32323     32321     32324     32324     32325
     32324     32326     32324     32327     32327     32328     32327     32329
     32327     32330     32330     32331     32330     32332     32330     32333
     32333     32334     32333     32335     32333     32336     32284     32285
     32285     32287     32285     32286     32287     32288     32287     32289
     32287     32337     32337     32338     32337     32339     32337     32340
     32340     32341     32340     32342     32340     32343     32343     32344
     32343     32345     32343     32346     32346     32347     32346     32348
     32346     32349     32349     32350     32349     32351     32349     32352
     32352     32353     32352     32354     32352     32355     32355     32356
     32355     32357     32355     32358     32358     32359     32358     32360
     32358     32361     32361     32362     32361     32363     32361     32364
     32364     32365     32364     32366     32364     32367     32367     32368
     32367     32369     32367     32370     32370     32371     32370     32372
     32370     32373     32373     32374     32373     32375     32373     32376
     32376     32377     32376     32378     32376     32379     32384     32383
     32383     32380     32380     32381     32380     32382     32380     32385
     32388     32387     32387     32385     32385     32386     32385     32389
     32389     32390     32389     32391     32389     32396     32396     32392
     32392     32395     32392     32393     32392     32394     32397     32398
     32397     32399     32397     32400     32397     32395     32400     32401
     32400     32408     32400     32402     32408     32409     32408     32410
     32408     32411     32402     32403     32403     32405     32403     32404
     32405     32406     32405     32407     32405     32417     32417     32418
     32417     32419     32417     32420     32420     32421     32420     32422
     32420     32423     32423     32424     32423     32425     32423     32426
     32426     32427     32426     32428     32426     32429     32429     32430
     32429     32431     32429     32432     32432     32433     32432     32434
     32432     32435     32435     32436     32435     32437     32437     32438
     32437     32439     32439     32440     32439     32441     32439     32442
     32442     32443     32442     32444     32442     32445     32445     32446
     32445     32447     32445     32448     32448     32449     32448     32450
     32448     32451     32451     32452     32451     32453     32451     32454
     32454     32455     32454     32456     32454     32457     32411     32412
     32412     32414     32412     32413     32414     32415     32414     32416
     32414     32458     32458     32459     32458     32460     32458     32461
     32461     32462     32461     32463     32461     32464     32464     32465
     32464     32466     32464     32467     32467     32468     32467     32469
     32467     32470     32470     32471     32470     32472     32470     32473
     32473     32474     32473     32475     32473     32476     32476     32477
     32476     32478     32476     32479     32479     32480     32479     32481
     32479     32482     32482     32483     32482     32484     32482     32485
     32485     32486     32485     32487     32485     32488     32488     32489
     32488     32490     32488     32491     32491     32492     32491     32493
     32491     32494     32494     32495     32494     32496     32494     32497
     32497     32498     32497     32499     32497     32500     32501     32502
     32501     32503     32501     32504     32501     32505     32505     32506
     32505     32507     32505     32508     32508     32509     32508     32510
     32508     32515     32515     32511     32511     32514     32511     32512
     32511     32513     32516     32517     32516     32518     32516     32519
     32516     32514     32519     32520     32519     32527     32519     32521
     32527     32528     32527     32529     32527     32530     32521     32522
     32522     32524     32522     32523     32524     32525     32524     32526
     32524     32536     32536     32537     32536     32538     32536     32539
     32539     32540     32539     32541     32539     32542     32542     32543
     32542     32544     32542     32545     32545     32546     32545     32547
     32545     32548     32548     32549     32548     32550     32548     32551
     32551     32552     32551     32553     32551     32554     32554     32555
     32554     32556     32556     32557     32556     32558     32558     32559
     32558     32560     32558     32561     32561     32562     32561     32563
     32561     32564     32564     32565     32564     32566     32564     32567
     32567     32568     32567     32569     32567     32570     32570     32571
     32570     32572     32570     32573     32573     32574     32573     32575
     32573     32576     32530     32531     32531     32533     32531     32532
     32533     32534     32533     32535     32533     32577     32577     32578
     32577     32579     32577     32580     32580     32581     32580     32582
     32580     32583     32583     32584     32583     32585     32583     32586
     32586     32587     32586     32588     32586     32589     32589     32590
     32589     32591     32589     32592     32592     32593     32592     32594
     32592     32595     32595     32596     32595     32597     32597     32598
     32597     32599     32599     32600     32599     32601     32599     32602
     32602     32603     32602     32604     32602     32605     32605     32606
     32605     32607     32605     32608     32608     32609     32608     32610
     32608     32611     32611     32612     32611     32613     32611     32614
     32614     32615     32614     32616     32614     32617     32617     32618
     32617     32619     32617     32620     32620     32621     32620     32622
     32620     32623     32624     32625     32624     32626     32624     32627
     32624     32628     32628     32629     32628     32630     32628     32631
     32631     32632     32631     32633     32631     32638     32638     32634
     32634     32637     32634     32635     32634     32636     32639     32640
     32639     32641     32639     32642     32639     32637     32642     32643
     32642     32650     32642     32644     32650     32651     32650     32652
     32650     32653     32644     32645     32645     32647     32645     32646
     32647     32648     32647     32649     32647     32659     32659     32660
     32659     32661     32659     32662     32662     32663     32662     32664
     32662     32665     32665     32666     32665     32667     32665     32668
     32668     32669     32668     32670     32668     32671     32671     32672
     32671     32673     32671     32674     32674     32675     32674     32676
     32674     32677     32677     32678     32677     32682     32677     32679
     32682     32683     32682     32684     32682     32679     32684     32685
     32684     32686     32684     32687     32687     32688     32687     32689
     32687     32690     32690     32691     32690     32692     32690     32693
     32693     32694     32693     32695     32693     32696     32696     32697
     32696     32698     32696     32699     32699     32700     32699     32701
     32699     32702     32679     32680     32679     32681     32653     32654
     32654     32656     32654     32655     32656     32657     32656     32658
     32656     32703     32703     32704     32703     32705     32703     32706
     32706     32707     32706     32708     32706     32709     32709     32710
     32709     32711     32709     32712     32712     32713     32712     32714
     32712     32715     32715     32716     32715     32717     32715     32718
     32718     32719     32718     32720     32718     32721     32721     32722
     32721     32723     32721     32724     32724     32725     32724     32726
     32724     32727     32727     32728     32727     32729     32727     32730
     32730     32731     32730     32732     32730     32733     32733     32734
     32733     32735     32733     32736     32736     32737     32736     32738
     32736     32739     32739     32740     32739     32741     32739     32742
     32747     32746     32746     32743     32743     32744     32743     32745
     32743     32748     32751     32750     32750     32748     32748     32749
     32748     32752     32752     32753     32752     32754     32752     32759
     32759     32755     32755     32758     32755     32756     32755     32757
     32760     32761     32760     32762     32760     32763     32760     32758
     32763     32764     32763     32771     32763     32765     32771     32772
     32771     32773     32771     32774     32765     32766     32766     32768
     32766     32767     32768     32769     32768     32770     32768     32780
     32780     32781     32780     32782     32780     32783     32783     32784
     32783     32785     32783     32786     32786     32787     32786     32788
     32786     32789     32789     32790     32789     32791     32789     32792
     32792     32793     32792     32794     32792     32795     32795     32796
     32795     32797     32795     32798     32798     32799     32798     32800
     32800     32801     32800     32802     32802     32803     32802     32804
     32802     32805     32805     32806     32805     32807     32805     32808
     32808     32809     32808     32810     32808     32811     32811     32812
     32811     32813     32811     32814     32814     32815     32814     32816
     32814     32817     32817     32818     32817     32819     32817     32820
     32774     32775     32775     32777     32775     32776     32777     32778
     32777     32779     32777     32821     32821     32822     32821     32823
     32821     32824     32824     32825     32824     32826     32824     32827
     32827     32828     32827     32829     32827     32830     32830     32831
     32830     32832     32830     32833     32833     32834     32833     32835
     32833     32836     32836     32837     32836     32838     32836     32839
     32839     32840     32839     32841     32839     32842     32842     32843
     32842     32844     32842     32845     32845     32846     32845     32847
     32845     32848     32848     32849     32848     32850     32848     32851
     32851     32852     32851     32853     32851     32854     32854     32855
     32854     32856     32854     32857     32857     32858     32857     32859
     32857     32860     32860     32861     32860     32862     32860     32863
     32864     32865     32864     32866     32864     32867     32864     32868
     32868     32869     32868     32870     32868     32871     32871     32872
     32871     32873     32871     32878     32878     32874     32874     32877
     32874     32875     32874     32876     32879     32880     32879     32881
     32879     32882     32879     32877     32882     32883     32882     32890
     32882     32884     32890     32891     32890     32892     32890     32893
     32884     32885     32885     32887     32885     32886     32887     32888
     32887     32889     32887     32899     32899     32900     32899     32901
     32899     32902     32902     32903     32902     32904     32902     32905
     32905     32906     32905     32907     32905     32908     32908     32909
     32908     32910     32908     32911     32911     32912     32911     32913
     32911     32914     32914     32915     32914     32916     32914     32917
     32917     32918     32917     32922     32917     32919     32922     32923
     32922     32924     32922     32919     32924     32925     32924     32926
     32924     32927     32927     32928     32927     32929     32927     32930
     32930     32931     32930     32932     32930     32933     32933     32934
     32933     32935     32933     32936     32936     32937     32936     32938
     32936     32939     32939     32940     32939     32941     32939     32942
     32919     32920     32919     32921     32893     32894     32894     32896
     32894     32895     32896     32897     32896     32898     32896     32943
     32943     32944     32943     32945     32943     32946     32946     32947
     32946     32948     32946     32949     32949     32950     32949     32951
     32949     32952     32952     32953     32952     32954     32952     32955
     32955     32956     32955     32957     32955     32958     32958     32959
     32958     32960     32958     32961     32961     32962     32961     32963
     32961     32964     32964     32965     32964     32966     32964     32967
     32967     32968     32967     32969     32967     32970     32970     32971
     32970     32972     32970     32973     32973     32974     32973     32975
     32973     32976     32976     32977     32976     32978     32976     32979
     32979     32980     32979     32981     32979     32982     32983     32984
     32983     32985     32983     32986     32983     32987     32987     32988
     32987     32989     32987     32990     32990     32991     32990     32992
     32990     32997     32997     32993     32993     32996     32993     32994
     32993     32995     32998     32999     32998     33000     32998     33001
     32998     32996     33001     33002     33001     33009     33001     33003
     33009     33010     33009     33011     33009     33012     33003     33004
     33004     33006     33004     33005     33006     33007     33006     33008
     33006     33018     33018     33019     33018     33020     33018     33021
     33021     33022     33021     33023     33021     33024     33024     33025
     33024     33026     33024     33027     33027     33028     33027     33029
     33027     33030     33030     33031     33030     33032     33030     33033
     33033     33034     33033     33035     33033     33036     33036     33037
     33036     33038     33038     33039     33038     33040     33040     33041
     33040     33042     33040     33043     33043     33044     33043     33045
     33043     33046     33046     33047     33046     33048     33046     33049
     33049     33050     33049     33051     33049     33052     33052     33053
     33052     33054     33052     33055     33055     33056     33055     33057
     33055     33058     33058     33059     33058     33060     33058     33061
     33061     33062     33061     33063     33061     33064     33012     33013
     33013     33015     33013     33014     33015     33016     33015     33017
     33015     33065     33065     33066     33065     33067     33065     33068
     33068     33069     33068     33070     33068     33071     33071     33072
     33071     33073     33071     33074     33074     33075     33074     33076
     33074     33077     33077     33078     33077     33079     33077     33080
     33080     33081     33080     33082     33080     33083     33083     33084
     33083     33085     33083     33086     33086     33087     33086     33088
     33086     33089     33089     33090     33089     33091     33089     33092
     33092     33093     33092     33094     33092     33095     33095     33096
     33095     33097     33095     33098     33098     33099     33098     33100
     33098     33101     33101     33102     33101     33103     33101     33104
     33104     33105     33104     33106     33104     33107     33108     33109
     33108     33110     33108     33111     33108     33112     33112     33113
     33112     33114     33112     33115     33115     33116     33115     33117
     33115     33122     33122     33118     33118     33121     33118     33119
     33118     33120     33123     33124     33123     33125     33123     33126
     33123     33121     33126     33127     33126     33134     33126     33128
     33134     33135     33134     33136     33134     33137     33128     33129
     33129     33131     33129     33130     33131     33132     33131     33133
     33131     33143     33143     33144     33143     33145     33143     33146
     33146     33147     33146     33148     33146     33149     33149     33150
     33149     33151     33149     33152     33152     33153     33152     33154
     33152     33155     33155     33156     33155     33157     33155     33158
     33158     33159     33158     33160     33158     33161     33161     33162
     33161     33166     33161     33163     33166     33167     33166     33168
     33166     33163     33168     33169     33168     33170     33168     33171
     33171     33172     33171     33173     33171     33174     33174     33175
     33174     33176     33174     33177     33177     33178     33177     33179
     33177     33180     33180     33181     33180     33182     33180     33183
     33183     33184     33183     33185     33183     33186     33163     33164
     33163     33165     33137     33138     33138     33140     33138     33139
     33140     33141     33140     33142     33140     33187     33187     33188
     33187     33189     33187     33190     33190     33191     33190     33192
     33190     33193     33193     33194     33193     33195     33193     33196
     33196     33197     33196     33198     33196     33199     33199     33200
     33199     33201     33199     33202     33202     33203     33202     33204
     33202     33205     33205     33206     33205     33207     33205     33208
     33208     33209     33208     33210     33208     33211     33211     33212
     33211     33213     33211     33214     33214     33215     33214     33216
     33214     33217     33217     33218     33217     33219     33217     33220
     33220     33221     33220     33222     33220     33223     33223     33224
     33223     33225     33223     33226     33226     33227     33226     33228
     33226     33229     33230     33231     33230     33232     33230     33233
     33230     33234     33234     33235     33234     33236     33234     33237
     33237     33238     33237     33239     33237     33244     33244     33240
     33240     33243     33240     33241     33240     33242     33245     33246
     33245     33247     33245     33248     33245     33243     33248     33249
     33248     33256     33248     33250     33256     33257     33256     33258
     33256     33259     33250     33251     33251     33253     33251     33252
     33253     33254     33253     33255     33253     33265     33265     33266
     33265     33267     33265     33268     33268     33269     33268     33270
     33268     33271     33271     33272     33271     33273     33271     33274
     33274     33275     33274     33276     33274     33277     33277     33278
     33277     33279     33277     33280     33280     33281     33280     33282
     33280     33283     33283     33284     33283     33288     33283     33285
     33288     33289     33288     33290     33288     33285     33290     33291
     33290     33292     33290     33293     33293     33294     33293     33295
     33293     33296     33296     33297     33296     33298     33296     33299
     33299     33300     33299     33301     33299     33302     33302     33303
     33302     33304     33302     33305     33305     33306     33305     33307
     33305     33308     33285     33286     33285     33287     33259     33260
     33260     33262     33260     33261     33262     33263     33262     33264
     33262     33309     33309     33310     33309     33311     33309     33312
     33312     33313     33312     33314     33312     33315     33315     33316
     33315     33317     33315     33318     33318     33319     33318     33320
     33318     33321     33321     33322     33321     33323     33321     33324
     33324     33325     33324     33326     33324     33327     33327     33328
     33327     33329     33327     33330     33330     33331     33330     33332
     33330     33333     33333     33334     33333     33335     33333     33336
     33336     33337     33336     33338     33336     33339     33339     33340
     33339     33341     33339     33342     33342     33343     33342     33344
     33342     33345     33345     33346     33345     33347     33345     33348
     33348     33349     33348     33350     33348     33351     33352     33353
     33352     33354     33352     33355     33352     33356     33356     33357
     33356     33358     33356     33359     33359     33360     33359     33361
     33359     33366     33366     33362     33362     33365     33362     33363
     33362     33364     33367     33368     33367     33369     33367     33370
     33367     33365     33370     33371     33370     33378     33370     33372
     33378     33379     33378     33380     33378     33381     33372     33373
     33373     33375     33373     33374     33375     33376     33375     33377
     33375     33387     33387     33388     33387     33389     33387     33390
     33390     33391     33390     33392     33390     33393     33393     33394
     33393     33395     33393     33396     33396     33397     33396     33398
     33396     33399     33399     33400     33399     33401     33399     33402
     33402     33403     33402     33404     33402     33405     33405     33406
     33405     33407     33407     33408     33407     33409     33409     33410
     33409     33411     33409     33412     33412     33413     33412     33414
     33412     33415     33415     33416     33415     33417     33415     33418
     33418     33419     33418     33420     33418     33421     33421     33422
     33421     33423     33421     33424     33424     33425     33424     33426
     33424     33427     33381     33382     33382     33384     33382     33383
     33384     33385     33384     33386     33384     33428     33428     33429
     33428     33430     33428     33431     33431     33432     33431     33433
     33431     33434     33434     33435     33434     33436     33434     33437
     33437     33438     33437     33439     33437     33440     33440     33441
     33440     33442     33440     33443     33443     33444     33443     33445
     33443     33446     33446     33447     33446     33448     33448     33449
     33448     33450     33450     33451     33450     33452     33450     33453
     33453     33454     33453     33455     33453     33456     33456     33457
     33456     33458     33456     33459     33459     33460     33459     33461
     33459     33462     33462     33463     33462     33464     33462     33465
     33465     33466     33465     33467     33465     33468     33468     33469
     33468     33470     33468     33471     33471     33472     33471     33473
     33471     33474     33479     33478     33478     33475     33475     33476
     33475     33477     33475     33480     33483     33482     33482     33480
     33480     33481     33480     33484     33484     33485     33484     33486
     33484     33491     33491     33487     33487     33490     33487     33488
     33487     33489     33492     33493     33492     33494     33492     33495
     33492     33490     33495     33496     33495     33503     33495     33497
     33503     33504     33503     33505     33503     33506     33497     33498
     33498     33500     33498     33499     33500     33501     33500     33502
     33500     33512     33512     33513     33512     33514     33512     33515
     33515     33516     33515     33517     33515     33518     33518     33519
     33518     33520     33518     33521     33521     33522     33521     33523
     33521     33524     33524     33525     33524     33526     33524     33527
     33527     33528     33527     33529     33527     33530     33530     33531
     33530     33532     33532     33533     33532     33534     33534     33535
     33534     33536     33534     33537     33537     33538     33537     33539
     33537     33540     33540     33541     33540     33542     33540     33543
     33543     33544     33543     33545     33543     33546     33546     33547
     33546     33548     33546     33549     33549     33550     33549     33551
     33549     33552     33506     33507     33507     33509     33507     33508
     33509     33510     33509     33511     33509     33553     33553     33554
     33553     33555     33553     33556     33556     33557     33556     33558
     33556     33559     33559     33560     33559     33561     33559     33562
     33562     33563     33562     33564     33562     33565     33565     33566
     33565     33567     33565     33568     33568     33569     33568     33570
     33568     33571     33571     33572     33571     33573     33571     33574
     33574     33575     33574     33576     33574     33577     33577     33578
     33577     33579     33577     33580     33580     33581     33580     33582
     33580     33583     33583     33584     33583     33585     33583     33586
     33586     33587     33586     33588     33586     33589     33589     33590
     33589     33591     33589     33592     33592     33593     33592     33594
     33592     33595     33596     33597     33596     33598     33596     33599
     33596     33600     33600     33601     33600     33602     33600     33603
     33603     33604     33603     33605     33603     33610     33610     33606
     33606     33609     33606     33607     33606     33608     33611     33612
     33611     33613     33611     33614     33611     33609     33614     33615
     33614     33622     33614     33616     33622     33623     33622     33624
     33622     33625     33616     33617     33617     33619     33617     33618
     33619     33620     33619     33621     33619     33631     33631     33632
     33631     33633     33631     33634     33634     33635     33634     33636
     33634     33637     33637     33638     33637     33639     33637     33640
     33640     33641     33640     33642     33640     33643     33643     33644
     33643     33645     33643     33646     33646     33647     33646     33648
     33646     33649     33649     33650     33649     33654     33649     33651
     33654     33655     33654     33656     33654     33651     33656     33657
     33656     33658     33656     33659     33659     33660     33659     33661
     33659     33662     33662     33663     33662     33664     33662     33665
     33665     33666     33665     33667     33665     33668     33668     33669
     33668     33670     33668     33671     33671     33672     33671     33673
     33671     33674     33651     33652     33651     33653     33625     33626
     33626     33628     33626     33627     33628     33629     33628     33630
     33628     33675     33675     33676     33675     33677     33675     33678
     33678     33679     33678     33680     33678     33681     33681     33682
     33681     33683     33681     33684     33684     33685     33684     33686
     33684     33687     33687     33688     33687     33689     33687     33690
     33690     33691     33690     33692     33690     33693     33693     33694
     33693     33695     33693     33696     33696     33697     33696     33698
     33696     33699     33699     33700     33699     33701     33699     33702
     33702     33703     33702     33704     33702     33705     33705     33706
     33705     33707     33705     33708     33708     33709     33708     33710
     33708     33711     33711     33712     33711     33713     33711     33714
     33714     33715     33714     33716     33714     33717     33718     33719
     33718     33720     33718     33721     33718     33722     33722     33723
     33722     33724     33722     33725     33725     33726     33725     33727
     33725     33732     33732     33728     33728     33731     33728     33729
     33728     33730     33733     33734     33733     33735     33733     33736
     33733     33731     33736     33737     33736     33744     33736     33738
     33744     33745     33744     33746     33744     33747     33738     33739
     33739     33741     33739     33740     33741     33742     33741     33743
     33741     33753     33753     33754     33753     33755     33753     33756
     33756     33757     33756     33758     33756     33759     33759     33760
     33759     33761     33759     33762     33762     33763     33762     33764
     33762     33765     33765     33766     33765     33767     33765     33768
     33768     33769     33768     33770     33768     33771     33771     33772
     33771     33776     33771     33773     33776     33777     33776     33778
     33776     33773     33778     33779     33778     33780     33778     33781
     33781     33782     33781     33783     33781     33784     33784     33785
     33784     33786     33784     33787     33787     33788     33787     33789
     33787     33790     33790     33791     33790     33792     33790     33793
     33793     33794     33793     33795     33793     33796     33773     33774
     33773     33775     33747     33748     33748     33750     33748     33749
     33750     33751     33750     33752     33750     33797     33797     33798
     33797     33799     33797     33800     33800     33801     33800     33802
     33800     33803     33803     33804     33803     33805     33803     33806
     33806     33807     33806     33808     33806     33809     33809     33810
     33809     33811     33809     33812     33812     33813     33812     33814
     33812     33815     33815     33816     33815     33817     33815     33818
     33818     33819     33818     33820     33818     33821     33821     33822
     33821     33823     33821     33824     33824     33825     33824     33826
     33824     33827     33827     33828     33827     33829     33827     33830
     33830     33831     33830     33832     33830     33833     33833     33834
     33833     33835     33833     33836     33836     33837     33836     33838
     33836     33839     33840     33841     33840     33842     33840     33843
     33840     33844     33844     33845     33844     33846     33844     33847
     33847     33848     33847     33849     33847     33854     33854     33850
     33850     33853     33850     33851     33850     33852     33855     33856
     33855     33857     33855     33858     33855     33853     33858     33859
     33858     33866     33858     33860     33866     33867     33866     33868
     33866     33869     33860     33861     33861     33863     33861     33862
     33863     33864     33863     33865     33863     33875     33875     33876
     33875     33877     33875     33878     33878     33879     33878     33880
     33878     33881     33881     33882     33881     33883     33881     33884
     33884     33885     33884     33886     33884     33887     33887     33888
     33887     33889     33887     33890     33890     33891     33890     33892
     33890     33893     33893     33894     33893     33898     33893     33895
     33898     33899     33898     33900     33898     33895     33900     33901
     33900     33902     33900     33903     33903     33904     33903     33905
     33903     33906     33906     33907     33906     33908     33906     33909
     33909     33910     33909     33911     33909     33912     33912     33913
     33912     33914     33912     33915     33915     33916     33915     33917
     33915     33918     33895     33896     33895     33897     33869     33870
     33870     33872     33870     33871     33872     33873     33872     33874
     33872     33919     33919     33920     33919     33921     33919     33922
     33922     33923     33922     33924     33922     33925     33925     33926
     33925     33927     33925     33928     33928     33929     33928     33930
     33928     33931     33931     33932     33931     33933     33931     33934
     33934     33935     33934     33936     33934     33937     33937     33938
     33937     33939     33937     33940     33940     33941     33940     33942
     33940     33943     33943     33944     33943     33945     33943     33946
     33946     33947     33946     33948     33946     33949     33949     33950
     33949     33951     33949     33952     33952     33953     33952     33954
     33952     33955     33955     33956     33955     33957     33955     33958
     33958     33959     33958     33960     33958     33961     33962     33963
     33962     33964     33962     33965     33962     33966     33966     33967
     33966     33968     33966     33969     33969     33970     33969     33971
     33969     33976     33976     33972     33972     33975     33972     33973
     33972     33974     33977     33978     33977     33979     33977     33980
     33977     33975     33980     33981     33980     33988     33980     33982
     33988     33989     33988     33990     33988     33991     33982     33983
     33983     33985     33983     33984     33985     33986     33985     33987
     33985     33997     33997     33998     33997     33999     33997     34000
     34000     34001     34000     34002     34000     34003     34003     34004
     34003     34005     34003     34006     34006     34007     34006     34008
     34006     34009     34009     34010     34009     34011     34009     34012
     34012     34013     34012     34014     34012     34015     34015     34016
     34015     34020     34015     34017     34020     34021     34020     34022
     34020     34017     34022     34023     34022     34024     34022     34025
     34025     34026     34025     34027     34025     34028     34028     34029
     34028     34030     34028     34031     34031     34032     34031     34033
     34031     34034     34034     34035     34034     34036     34034     34037
     34037     34038     34037     34039     34037     34040     34017     34018
     34017     34019     33991     33992     33992     33994     33992     33993
     33994     33995     33994     33996     33994     34041     34041     34042
     34041     34043     34041     34044     34044     34045     34044     34046
     34044     34047     34047     34048     34047     34049     34047     34050
     34050     34051     34050     34052     34050     34053     34053     34054
     34053     34055     34053     34056     34056     34057     34056     34058
     34056     34059     34059     34060     34059     34061     34059     34062
     34062     34063     34062     34064     34062     34065     34065     34066
     34065     34067     34065     34068     34068     34069     34068     34070
     34068     34071     34071     34072     34071     34073     34071     34074
     34074     34075     34074     34076     34074     34077     34077     34078
     34077     34079     34077     34080     34080     34081     34080     34082
     34080     34083     34084     34085     34084     34086     34084     34087
     34084     34088     34088     34089     34088     34090     34088     34091
     34091     34092     34091     34093     34091     34098     34098     34094
     34094     34097     34094     34095     34094     34096     34099     34100
     34099     34101     34099     34102     34099     34097     34102     34103
     34102     34110     34102     34104     34110     34111     34110     34112
     34110     34113     34104     34105     34105     34107     34105     34106
     34107     34108     34107     34109     34107     34119     34119     34120
     34119     34121     34119     34122     34122     34123     34122     34124
     34122     34125     34125     34126     34125     34127     34125     34128
     34128     34129     34128     34130     34128     34131     34131     34132
     34131     34133     34131     34134     34134     34135     34134     34136
     34134     34137     34137     34138     34137     34142     34137     34139
     34142     34143     34142     34144     34142     34139     34144     34145
     34144     34146     34144     34147     34147     34148     34147     34149
     34147     34150     34150     34151     34150     34152     34150     34153
     34153     34154     34153     34155     34153     34156     34156     34157
     34156     34158     34156     34159     34159     34160     34159     34161
     34159     34162     34139     34140     34139     34141     34113     34114
     34114     34116     34114     34115     34116     34117     34116     34118
     34116     34163     34163     34164     34163     34165     34163     34166
     34166     34167     34166     34168     34166     34169     34169     34170
     34169     34171     34169     34172     34172     34173     34172     34174
     34172     34175     34175     34176     34175     34177     34175     34178
     34178     34179     34178     34180     34178     34181     34181     34182
     34181     34183     34181     34184     34184     34185     34184     34186
     34184     34187     34187     34188     34187     34189     34187     34190
     34190     34191     34190     34192     34190     34193     34193     34194
     34193     34195     34193     34196     34196     34197     34196     34198
     34196     34199     34199     34200     34199     34201     34199     34202
     34202     34203     34202     34204     34202     34205     34206     34207
     34206     34208     34206     34209     34206     34210     34210     34211
     34210     34212     34210     34213     34213     34214     34213     34215
     34213     34220     34220     34216     34216     34219     34216     34217
     34216     34218     34221     34222     34221     34223     34221     34224
     34221     34219     34224     34225     34224     34232     34224     34226
     34232     34233     34232     34234     34232     34235     34226     34227
     34227     34229     34227     34228     34229     34230     34229     34231
     34229     34241     34241     34242     34241     34243     34241     34244
     34244     34245     34244     34246     34244     34247     34247     34248
     34247     34249     34247     34250     34250     34251     34250     34252
     34250     34253     34253     34254     34253     34255     34253     34256
     34256     34257     34256     34258     34256     34259     34259     34260
     34259     34264     34259     34261     34264     34265     34264     34266
     34264     34261     34266     34267     34266     34268     34266     34269
     34269     34270     34269     34271     34269     34272     34272     34273
     34272     34274     34272     34275     34275     34276     34275     34277
     34275     34278     34278     34279     34278     34280     34278     34281
     34281     34282     34281     34283     34281     34284     34261     34262
     34261     34263     34235     34236     34236     34238     34236     34237
     34238     34239     34238     34240     34238     34285     34285     34286
     34285     34287     34285     34288     34288     34289     34288     34290
     34288     34291     34291     34292     34291     34293     34291     34294
     34294     34295     34294     34296     34294     34297     34297     34298
     34297     34299     34297     34300     34300     34301     34300     34302
     34300     34303     34303     34304     34303     34305     34303     34306
     34306     34307     34306     34308     34306     34309     34309     34310
     34309     34311     34309     34312     34312     34313     34312     34314
     34312     34315     34315     34316     34315     34317     34315     34318
     34318     34319     34318     34320     34318     34321     34321     34322
     34321     34323     34321     34324     34324     34325     34324     34326
     34324     34327     34328     34329     34328     34330     34328     34331
     34328     34332     34332     34333     34332     34334     34332     34335
     34335     34336     34335     34337     34335     34342     34342     34338
     34338     34341     34338     34339     34338     34340     34343     34344
     34343     34345     34343     34346     34343     34341     34346     34347
     34346     34354     34346     34348     34354     34355     34354     34356
     34354     34357     34348     34349     34349     34351     34349     34350
     34351     34352     34351     34353     34351     34363     34363     34364
     34363     34365     34363     34366     34366     34367     34366     34368
     34366     34369     34369     34370     34369     34371     34369     34372
     34372     34373     34372     34374     34372     34375     34375     34376
     34375     34377     34375     34378     34378     34379     34378     34380
     34378     34381     34381     34382     34381     34386     34381     34383
     34386     34387     34386     34388     34386     34383     34388     34389
     34388     34390     34388     34391     34391     34392     34391     34393
     34391     34394     34394     34395     34394     34396     34394     34397
     34397     34398     34397     34399     34397     34400     34400     34401
     34400     34402     34400     34403     34403     34404     34403     34405
     34403     34406     34383     34384     34383     34385     34357     34358
     34358     34360     34358     34359     34360     34361     34360     34362
     34360     34407     34407     34408     34407     34409     34407     34410
     34410     34411     34410     34412     34410     34413     34413     34414
     34413     34415     34413     34416     34416     34417     34416     34418
     34416     34419     34419     34420     34419     34421     34419     34422
     34422     34423     34422     34424     34422     34425     34425     34426
     34425     34427     34425     34428     34428     34429     34428     34430
     34428     34431     34431     34432     34431     34433     34431     34434
     34434     34435     34434     34436     34434     34437     34437     34438
     34437     34439     34437     34440     34440     34441     34440     34442
     34440     34443     34443     34444     34443     34445     34443     34446
     34446     34447     34446     34448     34446     34449     34454     34453
     34453     34450     34450     34451     34450     34452     34450     34455
     34458     34457     34457     34455     34455     34456     34455     34459
     34459     34460     34459     34461     34459     34466     34466     34462
     34462     34465     34462     34463     34462     34464     34467     34468
     34467     34469     34467     34470     34467     34465     34470     34471
     34470     34478     34470     34472     34478     34479     34478     34480
     34478     34481     34472     34473     34473     34475     34473     34474
     34475     34476     34475     34477     34475     34487     34487     34488
     34487     34489     34487     34490     34490     34491     34490     34492
     34490     34493     34493     34494     34493     34495     34493     34496
     34496     34497     34496     34498     34496     34499     34499     34500
     34499     34501     34499     34502     34502     34503     34502     34504
     34502     34505     34505     34506     34505     34507     34507     34508
     34507     34509     34509     34510     34509     34511     34509     34512
     34512     34513     34512     34514     34512     34515     34515     34516
     34515     34517     34515     34518     34518     34519     34518     34520
     34518     34521     34521     34522     34521     34523     34521     34524
     34524     34525     34524     34526     34524     34527     34481     34482
     34482     34484     34482     34483     34484     34485     34484     34486
     34484     34528     34528     34529     34528     34530     34528     34531
     34531     34532     34531     34533     34531     34534     34534     34535
     34534     34536     34534     34537     34537     34538     34537     34539
     34537     34540     34540     34541     34540     34542     34540     34543
     34543     34544     34543     34545     34543     34546     34546     34547
     34546     34548     34546     34549     34549     34550     34549     34551
     34549     34552     34552     34553     34552     34554     34552     34555
     34555     34556     34555     34557     34555     34558     34558     34559
     34558     34560     34558     34561     34561     34562     34561     34563
     34561     34564     34564     34565     34564     34566     34564     34567
     34567     34568     34567     34569     34567     34570     34571     34572
     34571     34573     34571     34574     34571     34575     34575     34576
     34575     34577     34575     34578     34578     34579     34578     34580
     34578     34585     34585     34581     34581     34584     34581     34582
     34581     34583     34586     34587     34586     34588     34586     34589
     34586     34584     34589     34590     34589     34597     34589     34591
     34597     34598     34597     34599     34597     34600     34591     34592
     34592     34594     34592     34593     34594     34595     34594     34596
     34594     34606     34606     34607     34606     34608     34606     34609
     34609     34610     34609     34611     34609     34612     34612     34613
     34612     34614     34612     34615     34615     34616     34615     34617
     34615     34618     34618     34619     34618     34620     34618     34621
     34621     34622     34621     34623     34621     34624     34624     34625
     34624     34626     34626     34627     34626     34628     34628     34629
     34628     34630     34628     34631     34631     34632     34631     34633
     34631     34634     34634     34635     34634     34636     34634     34637
     34637     34638     34637     34639     34637     34640     34640     34641
     34640     34642     34640     34643     34643     34644     34643     34645
     34643     34646     34600     34601     34601     34603     34601     34602
     34603     34604     34603     34605     34603     34647     34647     34648
     34647     34649     34647     34650     34650     34651     34650     34652
     34650     34653     34653     34654     34653     34655     34653     34656
     34656     34657     34656     34658     34656     34659     34659     34660
     34659     34661     34659     34662     34662     34663     34662     34664
     34662     34665     34665     34666     34665     34667     34667     34668
     34667     34669     34669     34670     34669     34671     34669     34672
     34672     34673     34672     34674     34672     34675     34675     34676
     34675     34677     34675     34678     34678     34679     34678     34680
     34678     34681     34681     34682     34681     34683     34681     34684
     34684     34685     34684     34686     34684     34687     34687     34688
     34687     34689     34687     34690     34690     34691     34690     34692
     34690     34693     34694     34695     34694     34696     34694     34697
     34694     34698     34698     34699     34698     34700     34698     34701
     34701     34702     34701     34703     34701     34708     34708     34704
     34704     34707     34704     34705     34704     34706     34709     34710
     34709     34711     34709     34712     34709     34707     34712     34713
     34712     34720     34712     34714     34720     34721     34720     34722
     34720     34723     34714     34715     34715     34717     34715     34716
     34717     34718     34717     34719     34717     34729     34729     34730
     34729     34731     34729     34732     34732     34733     34732     34734
     34732     34735     34735     34736     34735     34737     34735     34738
     34738     34739     34738     34740     34738     34741     34741     34742
     34741     34743     34741     34744     34744     34745     34744     34746
     34744     34747     34747     34748     34747     34752     34747     34749
     34752     34753     34752     34754     34752     34749     34754     34755
     34754     34756     34754     34757     34757     34758     34757     34759
     34757     34760     34760     34761     34760     34762     34760     34763
     34763     34764     34763     34765     34763     34766     34766     34767
     34766     34768     34766     34769     34769     34770     34769     34771
     34769     34772     34749     34750     34749     34751     34723     34724
     34724     34726     34724     34725     34726     34727     34726     34728
     34726     34773     34773     34774     34773     34775     34773     34776
     34776     34777     34776     34778     34776     34779     34779     34780
     34779     34781     34779     34782     34782     34783     34782     34784
     34782     34785     34785     34786     34785     34787     34785     34788
     34788     34789     34788     34790     34788     34791     34791     34792
     34791     34793     34791     34794     34794     34795     34794     34796
     34794     34797     34797     34798     34797     34799     34797     34800
     34800     34801     34800     34802     34800     34803     34803     34804
     34803     34805     34803     34806     34806     34807     34806     34808
     34806     34809     34809     34810     34809     34811     34809     34812
     34812     34813     34812     34814     34812     34815     34820     34819
     34819     34816     34816     34817     34816     34818     34816     34821
     34824     34823     34823     34821     34821     34822     34821     34825
     34825     34826     34825     34827     34825     34832     34832     34828
     34828     34831     34828     34829     34828     34830     34833     34834
     34833     34835     34833     34836     34833     34831     34836     34837
     34836     34844     34836     34838     34844     34845     34844     34846
     34844     34847     34838     34839     34839     34841     34839     34840
     34841     34842     34841     34843     34841     34853     34853     34854
     34853     34855     34853     34856     34856     34857     34856     34858
     34856     34859     34859     34860     34859     34861     34859     34862
     34862     34863     34862     34864     34862     34865     34865     34866
     34865     34867     34865     34868     34868     34869     34868     34870
     34868     34871     34871     34872     34871     34873     34873     34874
     34873     34875     34875     34876     34875     34877     34875     34878
     34878     34879     34878     34880     34878     34881     34881     34882
     34881     34883     34881     34884     34884     34885     34884     34886
     34884     34887     34887     34888     34887     34889     34887     34890
     34890     34891     34890     34892     34890     34893     34847     34848
     34848     34850     34848     34849     34850     34851     34850     34852
     34850     34894     34894     34895     34894     34896     34894     34897
     34897     34898     34897     34899     34897     34900     34900     34901
     34900     34902     34900     34903     34903     34904     34903     34905
     34903     34906     34906     34907     34906     34908     34906     34909
     34909     34910     34909     34911     34909     34912     34912     34913
     34912     34914     34912     34915     34915     34916     34915     34917
     34915     34918     34918     34919     34918     34920     34918     34921
     34921     34922     34921     34923     34921     34924     34924     34925
     34924     34926     34924     34927     34927     34928     34927     34929
     34927     34930     34930     34931     34930     34932     34930     34933
     34933     34934     34933     34935     34933     34936     34941     34940
     34940     34937     34937     34938     34937     34939     34937     34942
     34945     34944     34944     34942     34942     34943     34942     34946
     34946     34947     34946     34948     34946     34953     34953     34949
     34949     34952     34949     34950     34949     34951     34954     34955
     34954     34956     34954     34957     34954     34952     34957     34958
     34957     34965     34957     34959     34965     34966     34965     34967
     34965     34968     34959     34960     34960     34962     34960     34961
     34962     34963     34962     34964     34962     34974     34974     34975
     34974     34976     34974     34977     34977     34978     34977     34979
     34977     34980     34980     34981     34980     34982     34980     34983
     34983     34984     34983     34985     34983     34986     34986     34987
     34986     34988     34986     34989     34989     34990     34989     34991
     34989     34992     34992     34993     34992     34994     34994     34995
     34994     34996     34996     34997     34996     34998     34996     34999
     34999     35000     34999     35001     34999     35002     35002     35003
     35002     35004     35002     35005     35005     35006     35005     35007
     35005     35008     35008     35009     35008     35010     35008     35011
     35011     35012     35011     35013     35011     35014     34968     34969
     34969     34971     34969     34970     34971     34972     34971     34973
     34971     35015     35015     35016     35015     35017     35015     35018
     35018     35019     35018     35020     35018     35021     35021     35022
     35021     35023     35021     35024     35024     35025     35024     35026
     35024     35027     35027     35028     35027     35029     35027     35030
     35030     35031     35030     35032     35030     35033     35033     35034
     35033     35035     35033     35036     35036     35037     35036     35038
     35036     35039     35039     35040     35039     35041     35039     35042
     35042     35043     35042     35044     35042     35045     35045     35046
     35045     35047     35045     35048     35048     35049     35048     35050
     35048     35051     35051     35052     35051     35053     35051     35054
     35054     35055     35054     35056     35054     35057     35058     35059
     35058     35060     35058     35061     35058     35062     35062     35063
     35062     35064     35062     35065     35065     35066     35065     35067
     35065     35072     35072     35068     35068     35071     35068     35069
     35068     35070     35073     35074     35073     35075     35073     35076
     35073     35071     35076     35077     35076     35084     35076     35078
     35084     35085     35084     35086     35084     35087     35078     35079
     35079     35081     35079     35080     35081     35082     35081     35083
     35081     35093     35093     35094     35093     35095     35093     35096
     35096     35097     35096     35098     35096     35099     35099     35100
     35099     35101     35099     35102     35102     35103     35102     35104
     35102     35105     35105     35106     35105     35107     35105     35108
     35108     35109     35108     35110     35108     35111     35111     35112
     35111     35116     35111     35113     35116     35117     35116     35118
     35116     35113     35118     35119     35118     35120     35118     35121
     35121     35122     35121     35123     35121     35124     35124     35125
     35124     35126     35124     35127     35127     35128     35127     35129
     35127     35130     35130     35131     35130     35132     35130     35133
     35133     35134     35133     35135     35133     35136     35113     35114
     35113     35115     35087     35088     35088     35090     35088     35089
     35090     35091     35090     35092     35090     35137     35137     35138
     35137     35139     35137     35140     35140     35141     35140     35142
     35140     35143     35143     35144     35143     35145     35143     35146
     35146     35147     35146     35148     35146     35149     35149     35150
     35149     35151     35149     35152     35152     35153     35152     35154
     35152     35155     35155     35156     35155     35157     35155     35158
     35158     35159     35158     35160     35158     35161     35161     35162
     35161     35163     35161     35164     35164     35165     35164     35166
     35164     35167     35167     35168     35167     35169     35167     35170
     35170     35171     35170     35172     35170     35173     35173     35174
     35173     35175     35173     35176     35176     35177     35176     35178
     35176     35179     35184     35183     35183     35180     35180     35181
     35180     35182     35180     35185     35188     35187     35187     35185
     35185     35186     35185     35189     35189     35190     35189     35191
     35189     35196     35196     35192     35192     35195     35192     35193
     35192     35194     35197     35198     35197     35199     35197     35200
     35197     35195     35200     35201     35200     35208     35200     35202
     35208     35209     35208     35210     35208     35211     35202     35203
     35203     35205     35203     35204     35205     35206     35205     35207
     35205     35217     35217     35218     35217     35219     35217     35220
     35220     35221     35220     35222     35220     35223     35223     35224
     35223     35225     35223     35226     35226     35227     35226     35228
     35226     35229     35229     35230     35229     35231     35229     35232
     35232     35233     35232     35234     35232     35235     35235     35236
     35235     35237     35237     35238     35237     35239     35239     35240
     35239     35241     35239     35242     35242     35243     35242     35244
     35242     35245     35245     35246     35245     35247     35245     35248
     35248     35249     35248     35250     35248     35251     35251     35252
     35251     35253     35251     35254     35254     35255     35254     35256
     35254     35257     35211     35212     35212     35214     35212     35213
     35214     35215     35214     35216     35214     35258     35258     35259
     35258     35260     35258     35261     35261     35262     35261     35263
     35261     35264     35264     35265     35264     35266     35264     35267
     35267     35268     35267     35269     35267     35270     35270     35271
     35270     35272     35270     35273     35273     35274     35273     35275
     35273     35276     35276     35277     35276     35278     35276     35279
     35279     35280     35279     35281     35279     35282     35282     35283
     35282     35284     35282     35285     35285     35286     35285     35287
     35285     35288     35288     35289     35288     35290     35288     35291
     35291     35292     35291     35293     35291     35294     35294     35295
     35294     35296     35294     35297     35297     35298     35297     35299
     35297     35300     35316     35312     35316     35317     35316     35318
     35312     35314     35312     35313     35314     35315     35312     35301
     35301     35302     35301     35303     35316     35322     35301     35307
     35319     35322     35319     35323     35319     35320     35319     35321
     35304     35307     35304     35308     35304     35305     35304     35306
     35323     35324     35324     35325     35324     35326     35324     35327
     35327     35328     35327     35329     35327     35335     35335     35336
     35335     35337     35335     35338     35308     35309     35309     35310
     35309     35311     35309     35344     35344     35345     35344     35346
     35344     35352     35352     35353     35352     35354     35352     35355
     35329     35330     35338     35339     35346     35347     35355     35356
     35330     35331     35330     35332     35332     35333     35332     35334
     35332     35361     35361     35362     35361     35363     35361     35364
     35364     35365     35364     35366     35364     35367     35367     35368
     35367     35369     35367     35370     35370     35371     35370     35372
     35370     35373     35373     35374     35373     35375     35373     35376
     35376     35377     35376     35378     35376     35379     35379     35380
     35379     35381     35379     35382     35382     35383     35382     35384
     35382     35385     35385     35386     35385     35387     35387     35388
     35387     35389     35389     35390     35389     35391     35389     35392
     35392     35393     35392     35394     35392     35395     35395     35396
     35395     35397     35395     35398     35398     35399     35398     35400
     35398     35401     35401     35402     35401     35403     35401     35404
     35404     35405     35404     35406     35404     35407     35339     35340
     35339     35341     35341     35342     35341     35343     35341     35408
     35408     35409     35408     35410     35408     35411     35411     35412
     35411     35413     35411     35414     35414     35415     35414     35416
     35414     35417     35417     35418     35417     35419     35417     35420
     35420     35421     35420     35422     35420     35423     35423     35424
     35423     35425     35423     35426     35426     35427     35426     35428
     35426     35429     35429     35430     35429     35431     35429     35432
     35432     35433     35432     35434     35432     35435     35435     35436
     35435     35437     35435     35438     35438     35439     35438     35440
     35438     35441     35441     35442     35441     35443     35441     35444
     35444     35445     35444     35446     35444     35447     35447     35448
     35447     35449     35447     35450     35347     35348     35347     35349
     35349     35350     35349     35351     35349     35451     35451     35452
     35451     35453     35451     35454     35454     35455     35454     35456
     35454     35457     35457     35458     35457     35459     35457     35460
     35460     35461     35460     35462     35460     35463     35463     35464
     35463     35465     35463     35466     35466     35467     35466     35468
     35466     35469     35469     35470     35469     35471     35469     35472
     35472     35473     35472     35474     35472     35475     35475     35476
     35475     35477     35477     35478     35477     35479     35479     35480
     35479     35481     35479     35482     35482     35483     35482     35484
     35482     35485     35485     35486     35485     35487     35485     35488
     35488     35489     35488     35490     35488     35491     35491     35492
     35491     35493     35491     35494     35494     35495     35494     35496
     35494     35497     35356     35357     35356     35358     35358     35359
     35358     35360     35358     35498     35498     35499     35498     35500
     35498     35501     35501     35502     35501     35503     35501     35504
     35504     35505     35504     35506     35504     35507     35507     35508
     35507     35509     35507     35510     35510     35511     35510     35512
     35510     35513     35513     35514     35513     35515     35513     35516
     35516     35517     35516     35518     35516     35519     35519     35520
     35519     35521     35519     35522     35522     35523     35522     35524
     35522     35525     35525     35526     35525     35527     35525     35528
     35528     35529     35528     35530     35528     35531     35531     35532
     35531     35533     35531     35534     35534     35535     35534     35536
     35534     35537     35537     35538     35537     35539     35537     35540
     35541     35542     35541     35543     35541     35544     35541     35545
     35545     35546     35545     35547     35545     35548     35548     35549
     35548     35550     35548     35555     35555     35551     35551     35554
     35551     35552     35551     35553     35556     35557     35556     35558
     35556     35559     35556     35554     35559     35560     35559     35567
     35559     35561     35567     35568     35567     35569     35567     35570
     35561     35562     35562     35564     35562     35563     35564     35565
     35564     35566     35564     35576     35576     35577     35576     35578
     35576     35579     35579     35580     35579     35581     35579     35582
     35582     35583     35582     35584     35582     35585     35585     35586
     35585     35587     35585     35588     35588     35589     35588     35590
     35588     35591     35591     35592     35591     35593     35591     35594
     35594     35595     35594     35599     35594     35596     35599     35600
     35599     35601     35599     35596     35601     35602     35601     35603
     35601     35604     35604     35605     35604     35606     35604     35607
     35607     35608     35607     35609     35607     35610     35610     35611
     35610     35612     35610     35613     35613     35614     35613     35615
     35613     35616     35616     35617     35616     35618     35616     35619
     35596     35597     35596     35598     35570     35571     35571     35573
     35571     35572     35573     35574     35573     35575     35573     35620
     35620     35621     35620     35622     35620     35623     35623     35624
     35623     35625     35623     35626     35626     35627     35626     35628
     35626     35629     35629     35630     35629     35631     35629     35632
     35632     35633     35632     35634     35632     35635     35635     35636
     35635     35637     35635     35638     35638     35639     35638     35640
     35638     35641     35641     35642     35641     35643     35641     35644
     35644     35645     35644     35646     35644     35647     35647     35648
     35647     35649     35647     35650     35650     35651     35650     35652
     35650     35653     35653     35654     35653     35655     35653     35656
     35656     35657     35656     35658     35656     35659     35659     35660
     35659     35661     35659     35662     35663     35664     35663     35665
     35663     35666     35663     35667     35667     35668     35667     35669
     35667     35670     35670     35671     35670     35672     35670     35677
     35677     35673     35673     35676     35673     35674     35673     35675
     35678     35679     35678     35680     35678     35681     35678     35676
     35681     35682     35681     35689     35681     35683     35689     35690
     35689     35691     35689     35692     35683     35684     35684     35686
     35684     35685     35686     35687     35686     35688     35686     35698
     35698     35699     35698     35700     35698     35701     35701     35702
     35701     35703     35701     35704     35704     35705     35704     35706
     35704     35707     35707     35708     35707     35709     35707     35710
     35710     35711     35710     35712     35710     35713     35713     35714
     35713     35715     35713     35716     35716     35717     35716     35721
     35716     35718     35721     35722     35721     35723     35721     35718
     35723     35724     35723     35725     35723     35726     35726     35727
     35726     35728     35726     35729     35729     35730     35729     35731
     35729     35732     35732     35733     35732     35734     35732     35735
     35735     35736     35735     35737     35735     35738     35738     35739
     35738     35740     35738     35741     35718     35719     35718     35720
     35692     35693     35693     35695     35693     35694     35695     35696
     35695     35697     35695     35742     35742     35743     35742     35744
     35742     35745     35745     35746     35745     35747     35745     35748
     35748     35749     35748     35750     35748     35751     35751     35752
     35751     35753     35751     35754     35754     35755     35754     35756
     35754     35757     35757     35758     35757     35759     35757     35760
     35760     35761     35760     35762     35760     35763     35763     35764
     35763     35765     35763     35766     35766     35767     35766     35768
     35766     35769     35769     35770     35769     35771     35769     35772
     35772     35773     35772     35774     35772     35775     35775     35776
     35775     35777     35775     35778     35778     35779     35778     35780
     35778     35781     35781     35782     35781     35783     35781     35784
     35785     35786     35785     35787     35785     35788     35785     35789
     35789     35790     35789     35791     35789     35792     35792     35793
     35792     35794     35792     35799     35799     35795     35795     35798
     35795     35796     35795     35797     35800     35801     35800     35802
     35800     35803     35800     35798     35803     35804     35803     35811
     35803     35805     35811     35812     35811     35813     35811     35814
     35805     35806     35806     35808     35806     35807     35808     35809
     35808     35810     35808     35820     35820     35821     35820     35822
     35820     35823     35823     35824     35823     35825     35823     35826
     35826     35827     35826     35828     35826     35829     35829     35830
     35829     35831     35829     35832     35832     35833     35832     35834
     35832     35835     35835     35836     35835     35837     35835     35838
     35838     35839     35838     35843     35838     35840     35843     35844
     35843     35845     35843     35840     35845     35846     35845     35847
     35845     35848     35848     35849     35848     35850     35848     35851
     35851     35852     35851     35853     35851     35854     35854     35855
     35854     35856     35854     35857     35857     35858     35857     35859
     35857     35860     35860     35861     35860     35862     35860     35863
     35840     35841     35840     35842     35814     35815     35815     35817
     35815     35816     35817     35818     35817     35819     35817     35864
     35864     35865     35864     35866     35864     35867     35867     35868
     35867     35869     35867     35870     35870     35871     35870     35872
     35870     35873     35873     35874     35873     35875     35873     35876
     35876     35877     35876     35878     35876     35879     35879     35880
     35879     35881     35879     35882     35882     35883     35882     35884
     35882     35885     35885     35886     35885     35887     35885     35888
     35888     35889     35888     35890     35888     35891     35891     35892
     35891     35893     35891     35894     35894     35895     35894     35896
     35894     35897     35897     35898     35897     35899     35897     35900
     35900     35901     35900     35902     35900     35903     35903     35904
     35903     35905     35903     35906     35911     35910     35910     35907
     35907     35908     35907     35909     35907     35912     35915     35914
     35914     35912     35912     35913     35912     35916     35916     35917
     35916     35918     35916     35923     35923     35919     35919     35922
     35919     35920     35919     35921     35924     35925     35924     35926
     35924     35927     35924     35922     35927     35928     35927     35935
     35927     35929     35935     35936     35935     35937     35935     35938
     35929     35930     35930     35932     35930     35931     35932     35933
     35932     35934     35932     35944     35944     35945     35944     35946
     35944     35947     35947     35948     35947     35949     35947     35950
     35950     35951     35950     35952     35950     35953     35953     35954
     35953     35955     35953     35956     35956     35957     35956     35958
     35956     35959     35959     35960     35959     35961     35959     35962
     35962     35963     35962     35964     35964     35965     35964     35966
     35966     35967     35966     35968     35966     35969     35969     35970
     35969     35971     35969     35972     35972     35973     35972     35974
     35972     35975     35975     35976     35975     35977     35975     35978
     35978     35979     35978     35980     35978     35981     35981     35982
     35981     35983     35981     35984     35938     35939     35939     35941
     35939     35940     35941     35942     35941     35943     35941     35985
     35985     35986     35985     35987     35985     35988     35988     35989
     35988     35990     35988     35991     35991     35992     35991     35993
     35991     35994     35994     35995     35994     35996     35994     35997
     35997     35998     35997     35999     35997     36000     36000     36001
     36000     36002     36000     36003     36003     36004     36003     36005
     36003     36006     36006     36007     36006     36008     36006     36009
     36009     36010     36009     36011     36009     36012     36012     36013
     36012     36014     36012     36015     36015     36016     36015     36017
     36015     36018     36018     36019     36018     36020     36018     36021
     36021     36022     36021     36023     36021     36024     36024     36025
     36024     36026     36024     36027     36028     36029     36028     36030
     36028     36031     36028     36032     36032     36033     36032     36034
     36032     36035     36035     36036     36035     36037     36035     36042
     36042     36038     36038     36041     36038     36039     36038     36040
     36043     36044     36043     36045     36043     36046     36043     36041
     36046     36047     36046     36054     36046     36048     36054     36055
     36054     36056     36054     36057     36048     36049     36049     36051
     36049     36050     36051     36052     36051     36053     36051     36063
     36063     36064     36063     36065     36063     36066     36066     36067
     36066     36068     36066     36069     36069     36070     36069     36071
     36069     36072     36072     36073     36072     36074     36072     36075
     36075     36076     36075     36077     36075     36078     36078     36079
     36078     36080     36078     36081     36081     36082     36081     36083
     36083     36084     36083     36085     36085     36086     36085     36087
     36085     36088     36088     36089     36088     36090     36088     36091
     36091     36092     36091     36093     36091     36094     36094     36095
     36094     36096     36094     36097     36097     36098     36097     36099
     36097     36100     36100     36101     36100     36102     36100     36103
     36057     36058     36058     36060     36058     36059     36060     36061
     36060     36062     36060     36104     36104     36105     36104     36106
     36104     36107     36107     36108     36107     36109     36107     36110
     36110     36111     36110     36112     36110     36113     36113     36114
     36113     36115     36113     36116     36116     36117     36116     36118
     36116     36119     36119     36120     36119     36121     36119     36122
     36122     36123     36122     36124     36124     36125     36124     36126
     36126     36127     36126     36128     36126     36129     36129     36130
     36129     36131     36129     36132     36132     36133     36132     36134
     36132     36135     36135     36136     36135     36137     36135     36138
     36138     36139     36138     36140     36138     36141     36141     36142
     36141     36143     36141     36144     36144     36145     36144     36146
     36144     36147     36147     36148     36147     36149     36147     36150
     36151     36152     36151     36153     36151     36154     36151     36155
     36155     36156     36155     36157     36155     36158     36158     36159
     36158     36160     36158     36165     36165     36161     36161     36164
     36161     36162     36161     36163     36166     36167     36166     36168
     36166     36169     36166     36164     36169     36170     36169     36177
     36169     36171     36177     36178     36177     36179     36177     36180
     36171     36172     36172     36174     36172     36173     36174     36175
     36174     36176     36174     36186     36186     36187     36186     36188
     36186     36189     36189     36190     36189     36191     36189     36192
     36192     36193     36192     36194     36192     36195     36195     36196
     36195     36197     36195     36198     36198     36199     36198     36200
     36198     36201     36201     36202     36201     36203     36201     36204
     36204     36205     36204     36209     36204     36206     36209     36210
     36209     36211     36209     36206     36211     36212     36211     36213
     36211     36214     36214     36215     36214     36216     36214     36217
     36217     36218     36217     36219     36217     36220     36220     36221
     36220     36222     36220     36223     36223     36224     36223     36225
     36223     36226     36226     36227     36226     36228     36226     36229
     36206     36207     36206     36208     36180     36181     36181     36183
     36181     36182     36183     36184     36183     36185     36183     36230
     36230     36231     36230     36232     36230     36233     36233     36234
     36233     36235     36233     36236     36236     36237     36236     36238
     36236     36239     36239     36240     36239     36241     36239     36242
     36242     36243     36242     36244     36242     36245     36245     36246
     36245     36247     36245     36248     36248     36249     36248     36250
     36248     36251     36251     36252     36251     36253     36251     36254
     36254     36255     36254     36256     36254     36257     36257     36258
     36257     36259     36257     36260     36260     36261     36260     36262
     36260     36263     36263     36264     36263     36265     36263     36266
     36266     36267     36266     36268     36266     36269     36269     36270
     36269     36271     36269     36272     36273     36274     36273     36275
     36273     36276     36273     36277     36277     36278     36277     36279
     36277     36280     36280     36281     36280     36282     36280     36287
     36287     36283     36283     36286     36283     36284     36283     36285
     36288     36289     36288     36290     36288     36291     36288     36286
     36291     36292     36291     36299     36291     36293     36299     36300
     36299     36301     36299     36302     36293     36294     36294     36296
     36294     36295     36296     36297     36296     36298     36296     36308
     36308     36309     36308     36310     36308     36311     36311     36312
     36311     36313     36311     36314     36314     36315     36314     36316
     36314     36317     36317     36318     36317     36319     36317     36320
     36320     36321     36320     36322     36320     36323     36323     36324
     36323     36325     36323     36326     36326     36327     36326     36331
     36326     36328     36331     36332     36331     36333     36331     36328
     36333     36334     36333     36335     36333     36336     36336     36337
     36336     36338     36336     36339     36339     36340     36339     36341
     36339     36342     36342     36343     36342     36344     36342     36345
     36345     36346     36345     36347     36345     36348     36348     36349
     36348     36350     36348     36351     36328     36329     36328     36330
     36302     36303     36303     36305     36303     36304     36305     36306
     36305     36307     36305     36352     36352     36353     36352     36354
     36352     36355     36355     36356     36355     36357     36355     36358
     36358     36359     36358     36360     36358     36361     36361     36362
     36361     36363     36361     36364     36364     36365     36364     36366
     36364     36367     36367     36368     36367     36369     36367     36370
     36370     36371     36370     36372     36370     36373     36373     36374
     36373     36375     36373     36376     36376     36377     36376     36378
     36376     36379     36379     36380     36379     36381     36379     36382
     36382     36383     36382     36384     36382     36385     36385     36386
     36385     36387     36385     36388     36388     36389     36388     36390
     36388     36391     36392     36393     36392     36394     36392     36395
     36392     36396     36396     36397     36396     36398     36396     36399
     36399     36400     36399     36401     36399     36406     36406     36402
     36402     36405     36402     36403     36402     36404     36407     36408
     36407     36409     36407     36410     36407     36405     36410     36411
     36410     36418     36410     36412     36418     36419     36418     36420
     36418     36421     36412     36413     36413     36415     36413     36414
     36415     36416     36415     36417     36415     36427     36427     36428
     36427     36429     36427     36430     36430     36431     36430     36432
     36430     36433     36433     36434     36433     36435     36433     36436
     36436     36437     36436     36438     36436     36439     36439     36440
     36439     36441     36439     36442     36442     36443     36442     36444
     36442     36445     36445     36446     36445     36447     36447     36448
     36447     36449     36449     36450     36449     36451     36449     36452
     36452     36453     36452     36454     36452     36455     36455     36456
     36455     36457     36455     36458     36458     36459     36458     36460
     36458     36461     36461     36462     36461     36463     36461     36464
     36464     36465     36464     36466     36464     36467     36467     36468
     36467     36469     36467     36470     36470     36471     36470     36472
     36470     36473     36421     36422     36422     36424     36422     36423
     36424     36425     36424     36426     36424     36474     36474     36475
     36474     36476     36474     36477     36477     36478     36477     36479
     36477     36480     36480     36481     36480     36482     36480     36483
     36483     36484     36483     36485     36483     36486     36486     36487
     36486     36488     36486     36489     36489     36490     36489     36491
     36489     36492     36492     36493     36492     36494     36492     36495
     36495     36496     36495     36497     36495     36498     36498     36499
     36498     36500     36498     36501     36501     36502     36501     36503
     36501     36504     36504     36505     36504     36506     36504     36507
     36507     36508     36507     36509     36507     36510     36510     36511
     36510     36512     36510     36513     36513     36514     36513     36515
     36513     36516     36521     36520     36520     36517     36517     36518
     36517     36519     36517     36522     36525     36524     36524     36522
     36522     36523     36522     36526     36526     36527     36526     36528
     36526     36533     36533     36529     36529     36532     36529     36530
     36529     36531     36534     36535     36534     36536     36534     36537
     36534     36532     36537     36538     36537     36545     36537     36539
     36545     36546     36545     36547     36545     36548     36539     36540
     36540     36542     36540     36541     36542     36543     36542     36544
     36542     36554     36554     36555     36554     36556     36554     36557
     36557     36558     36557     36559     36557     36560     36560     36561
     36560     36562     36560     36563     36563     36564     36563     36565
     36563     36566     36566     36567     36566     36568     36566     36569
     36569     36570     36569     36571     36569     36572     36572     36573
     36572     36577     36572     36574     36577     36578     36577     36579
     36577     36574     36579     36580     36579     36581     36579     36582
     36582     36583     36582     36584     36582     36585     36585     36586
     36585     36587     36585     36588     36588     36589     36588     36590
     36588     36591     36591     36592     36591     36593     36591     36594
     36594     36595     36594     36596     36594     36597     36574     36575
     36574     36576     36548     36549     36549     36551     36549     36550
     36551     36552     36551     36553     36551     36598     36598     36599
     36598     36600     36598     36601     36601     36602     36601     36603
     36601     36604     36604     36605     36604     36606     36604     36607
     36607     36608     36607     36609     36607     36610     36610     36611
     36610     36612     36610     36613     36613     36614     36613     36615
     36613     36616     36616     36617     36616     36618     36616     36619
     36619     36620     36619     36621     36619     36622     36622     36623
     36622     36624     36622     36625     36625     36626     36625     36627
     36625     36628     36628     36629     36628     36630     36628     36631
     36631     36632     36631     36633     36631     36634     36634     36635
     36634     36636     36634     36637     36637     36638     36637     36639
     36637     36640     36641     36642     36641     36643     36641     36644
     36641     36645     36645     36646     36645     36647     36645     36648
     36648     36649     36648     36650     36648     36655     36655     36651
     36651     36654     36651     36652     36651     36653     36656     36657
     36656     36658     36656     36659     36656     36654     36659     36660
     36659     36667     36659     36661     36667     36668     36667     36669
     36667     36670     36661     36662     36662     36664     36662     36663
     36664     36665     36664     36666     36664     36676     36676     36677
     36676     36678     36676     36679     36679     36680     36679     36681
     36679     36682     36682     36683     36682     36684     36682     36685
     36685     36686     36685     36687     36685     36688     36688     36689
     36688     36690     36688     36691     36691     36692     36691     36693
     36691     36694     36694     36695     36694     36699     36694     36696
     36699     36700     36699     36701     36699     36696     36701     36702
     36701     36703     36701     36704     36704     36705     36704     36706
     36704     36707     36707     36708     36707     36709     36707     36710
     36710     36711     36710     36712     36710     36713     36713     36714
     36713     36715     36713     36716     36716     36717     36716     36718
     36716     36719     36696     36697     36696     36698     36670     36671
     36671     36673     36671     36672     36673     36674     36673     36675
     36673     36720     36720     36721     36720     36722     36720     36723
     36723     36724     36723     36725     36723     36726     36726     36727
     36726     36728     36726     36729     36729     36730     36729     36731
     36729     36732     36732     36733     36732     36734     36732     36735
     36735     36736     36735     36737     36735     36738     36738     36739
     36738     36740     36738     36741     36741     36742     36741     36743
     36741     36744     36744     36745     36744     36746     36744     36747
     36747     36748     36747     36749     36747     36750     36750     36751
     36750     36752     36750     36753     36753     36754     36753     36755
     36753     36756     36756     36757     36756     36758     36756     36759
     36759     36760     36759     36761     36759     36762     36763     36764
     36763     36765     36763     36766     36763     36767     36767     36768
     36767     36769     36767     36770     36770     36771     36770     36772
     36770     36777     36777     36773     36773     36776     36773     36774
     36773     36775     36778     36779     36778     36780     36778     36781
     36778     36776     36781     36782     36781     36789     36781     36783
     36789     36790     36789     36791     36789     36792     36783     36784
     36784     36786     36784     36785     36786     36787     36786     36788
     36786     36798     36798     36799     36798     36800     36798     36801
     36801     36802     36801     36803     36801     36804     36804     36805
     36804     36806     36804     36807     36807     36808     36807     36809
     36807     36810     36810     36811     36810     36812     36810     36813
     36813     36814     36813     36815     36813     36816     36816     36817
     36816     36821     36816     36818     36821     36822     36821     36823
     36821     36818     36823     36824     36823     36825     36823     36826
     36826     36827     36826     36828     36826     36829     36829     36830
     36829     36831     36829     36832     36832     36833     36832     36834
     36832     36835     36835     36836     36835     36837     36835     36838
     36838     36839     36838     36840     36838     36841     36818     36819
     36818     36820     36792     36793     36793     36795     36793     36794
     36795     36796     36795     36797     36795     36842     36842     36843
     36842     36844     36842     36845     36845     36846     36845     36847
     36845     36848     36848     36849     36848     36850     36848     36851
     36851     36852     36851     36853     36851     36854     36854     36855
     36854     36856     36854     36857     36857     36858     36857     36859
     36857     36860     36860     36861     36860     36862     36860     36863
     36863     36864     36863     36865     36863     36866     36866     36867
     36866     36868     36866     36869     36869     36870     36869     36871
     36869     36872     36872     36873     36872     36874     36872     36875
     36875     36876     36875     36877     36875     36878     36878     36879
     36878     36880     36878     36881     36881     36882     36881     36883
     36881     36884     36885     36886     36885     36887     36885     36888
     36885     36889     36889     36890     36889     36891     36889     36892
     36892     36893     36892     36894     36892     36899     36899     36895
     36895     36898     36895     36896     36895     36897     36900     36901
     36900     36902     36900     36903     36900     36898     36903     36904
     36903     36911     36903     36905     36911     36912     36911     36913
     36911     36914     36905     36906     36906     36908     36906     36907
     36908     36909     36908     36910     36908     36920     36920     36921
     36920     36922     36920     36923     36923     36924     36923     36925
     36923     36926     36926     36927     36926     36928     36926     36929
     36929     36930     36929     36931     36929     36932     36932     36933
     36932     36934     36932     36935     36935     36936     36935     36937
     36935     36938     36938     36939     36938     36943     36938     36940
     36943     36944     36943     36945     36943     36940     36945     36946
     36945     36947     36945     36948     36948     36949     36948     36950
     36948     36951     36951     36952     36951     36953     36951     36954
     36954     36955     36954     36956     36954     36957     36957     36958
     36957     36959     36957     36960     36960     36961     36960     36962
     36960     36963     36940     36941     36940     36942     36914     36915
     36915     36917     36915     36916     36917     36918     36917     36919
     36917     36964     36964     36965     36964     36966     36964     36967
     36967     36968     36967     36969     36967     36970     36970     36971
     36970     36972     36970     36973     36973     36974     36973     36975
     36973     36976     36976     36977     36976     36978     36976     36979
     36979     36980     36979     36981     36979     36982     36982     36983
     36982     36984     36982     36985     36985     36986     36985     36987
     36985     36988     36988     36989     36988     36990     36988     36991
     36991     36992     36991     36993     36991     36994     36994     36995
     36994     36996     36994     36997     36997     36998     36997     36999
     36997     37000     37000     37001     37000     37002     37000     37003
     37003     37004     37003     37005     37003     37006     37007     37008
     37007     37009     37007     37010     37007     37011     37011     37012
     37011     37013     37011     37014     37014     37015     37014     37016
     37014     37021     37021     37017     37017     37020     37017     37018
     37017     37019     37022     37023     37022     37024     37022     37025
     37022     37020     37025     37026     37025     37033     37025     37027
     37033     37034     37033     37035     37033     37036     37027     37028
     37028     37030     37028     37029     37030     37031     37030     37032
     37030     37042     37042     37043     37042     37044     37042     37045
     37045     37046     37045     37047     37045     37048     37048     37049
     37048     37050     37048     37051     37051     37052     37051     37053
     37051     37054     37054     37055     37054     37056     37054     37057
     37057     37058     37057     37059     37057     37060     37060     37061
     37060     37065     37060     37062     37065     37066     37065     37067
     37065     37062     37067     37068     37067     37069     37067     37070
     37070     37071     37070     37072     37070     37073     37073     37074
     37073     37075     37073     37076     37076     37077     37076     37078
     37076     37079     37079     37080     37079     37081     37079     37082
     37082     37083     37082     37084     37082     37085     37062     37063
     37062     37064     37036     37037     37037     37039     37037     37038
     37039     37040     37039     37041     37039     37086     37086     37087
     37086     37088     37086     37089     37089     37090     37089     37091
     37089     37092     37092     37093     37092     37094     37092     37095
     37095     37096     37095     37097     37095     37098     37098     37099
     37098     37100     37098     37101     37101     37102     37101     37103
     37101     37104     37104     37105     37104     37106     37104     37107
     37107     37108     37107     37109     37107     37110     37110     37111
     37110     37112     37110     37113     37113     37114     37113     37115
     37113     37116     37116     37117     37116     37118     37116     37119
     37119     37120     37119     37121     37119     37122     37122     37123
     37122     37124     37122     37125     37125     37126     37125     37127
     37125     37128     37129     37130     37129     37131     37129     37132
     37129     37133     37133     37134     37133     37135     37133     37136
     37136     37137     37136     37138     37136     37143     37143     37139
     37139     37142     37139     37140     37139     37141     37144     37145
     37144     37146     37144     37147     37144     37142     37147     37148
     37147     37155     37147     37149     37155     37156     37155     37157
     37155     37158     37149     37150     37150     37152     37150     37151
     37152     37153     37152     37154     37152     37164     37164     37165
     37164     37166     37164     37167     37167     37168     37167     37169
     37167     37170     37170     37171     37170     37172     37170     37173
     37173     37174     37173     37175     37173     37176     37176     37177
     37176     37178     37176     37179     37179     37180     37179     37181
     37179     37182     37182     37183     37182     37187     37182     37184
     37187     37188     37187     37189     37187     37184     37189     37190
     37189     37191     37189     37192     37192     37193     37192     37194
     37192     37195     37195     37196     37195     37197     37195     37198
     37198     37199     37198     37200     37198     37201     37201     37202
     37201     37203     37201     37204     37204     37205     37204     37206
     37204     37207     37184     37185     37184     37186     37158     37159
     37159     37161     37159     37160     37161     37162     37161     37163
     37161     37208     37208     37209     37208     37210     37208     37211
     37211     37212     37211     37213     37211     37214     37214     37215
     37214     37216     37214     37217     37217     37218     37217     37219
     37217     37220     37220     37221     37220     37222     37220     37223
     37223     37224     37223     37225     37223     37226     37226     37227
     37226     37228     37226     37229     37229     37230     37229     37231
     37229     37232     37232     37233     37232     37234     37232     37235
     37235     37236     37235     37237     37235     37238     37238     37239
     37238     37240     37238     37241     37241     37242     37241     37243
     37241     37244     37244     37245     37244     37246     37244     37247
     37247     37248     37247     37249     37247     37250     37251     37252
     37251     37253     37251     37254     37251     37255     37255     37256
     37255     37257     37255     37258     37258     37259     37258     37260
     37258     37265     37265     37261     37261     37264     37261     37262
     37261     37263     37266     37267     37266     37268     37266     37269
     37266     37264     37269     37270     37269     37277     37269     37271
     37277     37278     37277     37279     37277     37280     37271     37272
     37272     37274     37272     37273     37274     37275     37274     37276
     37274     37286     37286     37287     37286     37288     37286     37289
     37289     37290     37289     37291     37289     37292     37292     37293
     37292     37294     37292     37295     37295     37296     37295     37297
     37295     37298     37298     37299     37298     37300     37298     37301
     37301     37302     37301     37303     37301     37304     37304     37305
     37304     37309     37304     37306     37309     37310     37309     37311
     37309     37306     37311     37312     37311     37313     37311     37314
     37314     37315     37314     37316     37314     37317     37317     37318
     37317     37319     37317     37320     37320     37321     37320     37322
     37320     37323     37323     37324     37323     37325     37323     37326
     37326     37327     37326     37328     37326     37329     37306     37307
     37306     37308     37280     37281     37281     37283     37281     37282
     37283     37284     37283     37285     37283     37330     37330     37331
     37330     37332     37330     37333     37333     37334     37333     37335
     37333     37336     37336     37337     37336     37338     37336     37339
     37339     37340     37339     37341     37339     37342     37342     37343
     37342     37344     37342     37345     37345     37346     37345     37347
     37345     37348     37348     37349     37348     37350     37348     37351
     37351     37352     37351     37353     37351     37354     37354     37355
     37354     37356     37354     37357     37357     37358     37357     37359
     37357     37360     37360     37361     37360     37362     37360     37363
     37363     37364     37363     37365     37363     37366     37366     37367
     37366     37368     37366     37369     37369     37370     37369     37371
     37369     37372     37377     37376     37376     37373     37373     37374
     37373     37375     37373     37378     37381     37380     37380     37378
     37378     37379     37378     37382     37382     37383     37382     37384
     37382     37389     37389     37385     37385     37388     37385     37386
     37385     37387     37390     37391     37390     37392     37390     37393
     37390     37388     37393     37394     37393     37401     37393     37395
     37401     37402     37401     37403     37401     37404     37395     37396
     37396     37398     37396     37397     37398     37399     37398     37400
     37398     37410     37410     37411     37410     37412     37410     37413
     37413     37414     37413     37415     37413     37416     37416     37417
     37416     37418     37416     37419     37419     37420     37419     37421
     37419     37422     37422     37423     37422     37424     37422     37425
     37425     37426     37425     37427     37425     37428     37428     37429
     37428     37433     37428     37430     37433     37434     37433     37435
     37433     37430     37435     37436     37435     37437     37435     37438
     37438     37439     37438     37440     37438     37441     37441     37442
     37441     37443     37441     37444     37444     37445     37444     37446
     37444     37447     37447     37448     37447     37449     37447     37450
     37450     37451     37450     37452     37450     37453     37430     37431
     37430     37432     37404     37405     37405     37407     37405     37406
     37407     37408     37407     37409     37407     37454     37454     37455
     37454     37456     37454     37457     37457     37458     37457     37459
     37457     37460     37460     37461     37460     37462     37460     37463
     37463     37464     37463     37465     37463     37466     37466     37467
     37466     37468     37466     37469     37469     37470     37469     37471
     37469     37472     37472     37473     37472     37474     37472     37475
     37475     37476     37475     37477     37475     37478     37478     37479
     37478     37480     37478     37481     37481     37482     37481     37483
     37481     37484     37484     37485     37484     37486     37484     37487
     37487     37488     37487     37489     37487     37490     37490     37491
     37490     37492     37490     37493     37493     37494     37493     37495
     37493     37496     37497     37498     37497     37499     37497     37500
     37497     37501     37501     37502     37501     37503     37501     37504
     37504     37505     37504     37506     37504     37511     37511     37507
     37507     37510     37507     37508     37507     37509     37512     37513
     37512     37514     37512     37515     37512     37510     37515     37516
     37515     37523     37515     37517     37523     37524     37523     37525
     37523     37526     37517     37518     37518     37520     37518     37519
     37520     37521     37520     37522     37520     37532     37532     37533
     37532     37534     37532     37535     37535     37536     37535     37537
     37535     37538     37538     37539     37538     37540     37538     37541
     37541     37542     37541     37543     37541     37544     37544     37545
     37544     37546     37544     37547     37547     37548     37547     37549
     37547     37550     37550     37551     37550     37555     37550     37552
     37555     37556     37555     37557     37555     37552     37557     37558
     37557     37559     37557     37560     37560     37561     37560     37562
     37560     37563     37563     37564     37563     37565     37563     37566
     37566     37567     37566     37568     37566     37569     37569     37570
     37569     37571     37569     37572     37572     37573     37572     37574
     37572     37575     37552     37553     37552     37554     37526     37527
     37527     37529     37527     37528     37529     37530     37529     37531
     37529     37576     37576     37577     37576     37578     37576     37579
     37579     37580     37579     37581     37579     37582     37582     37583
     37582     37584     37582     37585     37585     37586     37585     37587
     37585     37588     37588     37589     37588     37590     37588     37591
     37591     37592     37591     37593     37591     37594     37594     37595
     37594     37596     37594     37597     37597     37598     37597     37599
     37597     37600     37600     37601     37600     37602     37600     37603
     37603     37604     37603     37605     37603     37606     37606     37607
     37606     37608     37606     37609     37609     37610     37609     37611
     37609     37612     37612     37613     37612     37614     37612     37615
     37615     37616     37615     37617     37615     37618     37619     37620
     37619     37621     37619     37622     37619     37623     37623     37624
     37623     37625     37623     37626     37626     37627     37626     37628
     37626     37633     37633     37629     37629     37632     37629     37630
     37629     37631     37634     37635     37634     37636     37634     37637
     37634     37632     37637     37638     37637     37645     37637     37639
     37645     37646     37645     37647     37645     37648     37639     37640
     37640     37642     37640     37641     37642     37643     37642     37644
     37642     37654     37654     37655     37654     37656     37654     37657
     37657     37658     37657     37659     37657     37660     37660     37661
     37660     37662     37660     37663     37663     37664     37663     37665
     37663     37666     37666     37667     37666     37668     37666     37669
     37669     37670     37669     37671     37669     37672     37672     37673
     37672     37677     37672     37674     37677     37678     37677     37679
     37677     37674     37679     37680     37679     37681     37679     37682
     37682     37683     37682     37684     37682     37685     37685     37686
     37685     37687     37685     37688     37688     37689     37688     37690
     37688     37691     37691     37692     37691     37693     37691     37694
     37694     37695     37694     37696     37694     37697     37674     37675
     37674     37676     37648     37649     37649     37651     37649     37650
     37651     37652     37651     37653     37651     37698     37698     37699
     37698     37700     37698     37701     37701     37702     37701     37703
     37701     37704     37704     37705     37704     37706     37704     37707
     37707     37708     37707     37709     37707     37710     37710     37711
     37710     37712     37710     37713     37713     37714     37713     37715
     37713     37716     37716     37717     37716     37718     37716     37719
     37719     37720     37719     37721     37719     37722     37722     37723
     37722     37724     37722     37725     37725     37726     37725     37727
     37725     37728     37728     37729     37728     37730     37728     37731
     37731     37732     37731     37733     37731     37734     37734     37735
     37734     37736     37734     37737     37737     37738     37737     37739
     37737     37740     37741     37742     37741     37743     37741     37744
     37741     37745     37745     37746     37745     37747     37745     37748
     37748     37749     37748     37750     37748     37755     37755     37751
     37751     37754     37751     37752     37751     37753     37756     37757
     37756     37758     37756     37759     37756     37754     37759     37760
     37759     37767     37759     37761     37767     37768     37767     37769
     37767     37770     37761     37762     37762     37764     37762     37763
     37764     37765     37764     37766     37764     37776     37776     37777
     37776     37778     37776     37779     37779     37780     37779     37781
     37779     37782     37782     37783     37782     37784     37782     37785
     37785     37786     37785     37787     37785     37788     37788     37789
     37788     37790     37788     37791     37791     37792     37791     37793
     37791     37794     37794     37795     37794     37796     37796     37797
     37796     37798     37798     37799     37798     37800     37798     37801
     37801     37802     37801     37803     37801     37804     37804     37805
     37804     37806     37804     37807     37807     37808     37807     37809
     37807     37810     37810     37811     37810     37812     37810     37813
     37813     37814     37813     37815     37813     37816     37816     37817
     37816     37818     37816     37819     37819     37820     37819     37821
     37819     37822     37770     37771     37771     37773     37771     37772
     37773     37774     37773     37775     37773     37823     37823     37824
     37823     37825     37823     37826     37826     37827     37826     37828
     37826     37829     37829     37830     37829     37831     37829     37832
     37832     37833     37832     37834     37832     37835     37835     37836
     37835     37837     37835     37838     37838     37839     37838     37840
     37838     37841     37841     37842     37841     37843     37841     37844
     37844     37845     37844     37846     37844     37847     37847     37848
     37847     37849     37847     37850     37850     37851     37850     37852
     37850     37853     37853     37854     37853     37855     37853     37856
     37856     37857     37856     37858     37856     37859     37859     37860
     37859     37861     37859     37862     37862     37863     37862     37864
     37862     37865     37866     37867     37866     37868     37866     37869
     37866     37870     37870     37871     37870     37872     37870     37873
     37873     37874     37873     37875     37873     37880     37880     37876
     37876     37879     37876     37877     37876     37878     37881     37882
     37881     37883     37881     37884     37881     37879     37884     37885
     37884     37892     37884     37886     37892     37893     37892     37894
     37892     37895     37886     37887     37887     37889     37887     37888
     37889     37890     37889     37891     37889     37901     37901     37902
     37901     37903     37901     37904     37904     37905     37904     37906
     37904     37907     37907     37908     37907     37909     37907     37910
     37910     37911     37910     37912     37910     37913     37913     37914
     37913     37915     37913     37916     37916     37917     37916     37918
     37916     37919     37919     37920     37919     37924     37919     37921
     37924     37925     37924     37926     37924     37921     37926     37927
     37926     37928     37926     37929     37929     37930     37929     37931
     37929     37932     37932     37933     37932     37934     37932     37935
     37935     37936     37935     37937     37935     37938     37938     37939
     37938     37940     37938     37941     37941     37942     37941     37943
     37941     37944     37921     37922     37921     37923     37895     37896
     37896     37898     37896     37897     37898     37899     37898     37900
     37898     37945     37945     37946     37945     37947     37945     37948
     37948     37949     37948     37950     37948     37951     37951     37952
     37951     37953     37951     37954     37954     37955     37954     37956
     37954     37957     37957     37958     37957     37959     37957     37960
     37960     37961     37960     37962     37960     37963     37963     37964
     37963     37965     37963     37966     37966     37967     37966     37968
     37966     37969     37969     37970     37969     37971     37969     37972
     37972     37973     37972     37974     37972     37975     37975     37976
     37975     37977     37975     37978     37978     37979     37978     37980
     37978     37981     37981     37982     37981     37983     37981     37984
     37984     37985     37984     37986     37984     37987     37988     37989
     37988     37990     37988     37991     37988     37992     37992     37993
     37992     37994     37992     37995     37995     37996     37995     37997
     37995     38002     38002     37998     37998     38001     37998     37999
     37998     38000     38003     38004     38003     38005     38003     38006
     38003     38001     38006     38007     38006     38014     38006     38008
     38014     38015     38014     38016     38014     38017     38008     38009
     38009     38011     38009     38010     38011     38012     38011     38013
     38011     38023     38023     38024     38023     38025     38023     38026
     38026     38027     38026     38028     38026     38029     38029     38030
     38029     38031     38029     38032     38032     38033     38032     38034
     38032     38035     38035     38036     38035     38037     38035     38038
     38038     38039     38038     38040     38038     38041     38041     38042
     38041     38043     38043     38044     38043     38045     38045     38046
     38045     38047     38045     38048     38048     38049     38048     38050
     38048     38051     38051     38052     38051     38053     38051     38054
     38054     38055     38054     38056     38054     38057     38057     38058
     38057     38059     38057     38060     38060     38061     38060     38062
     38060     38063     38063     38064     38063     38065     38063     38066
     38066     38067     38066     38068     38066     38069     38017     38018
     38018     38020     38018     38019     38020     38021     38020     38022
     38020     38070     38070     38071     38070     38072     38070     38073
     38073     38074     38073     38075     38073     38076     38076     38077
     38076     38078     38076     38079     38079     38080     38079     38081
     38079     38082     38082     38083     38082     38084     38082     38085
     38085     38086     38085     38087     38085     38088     38088     38089
     38088     38090     38088     38091     38091     38092     38091     38093
     38091     38094     38094     38095     38094     38096     38094     38097
     38097     38098     38097     38099     38097     38100     38100     38101
     38100     38102     38100     38103     38103     38104     38103     38105
     38103     38106     38106     38107     38106     38108     38106     38109
     38109     38110     38109     38111     38109     38112     38113     38114
     38113     38115     38113     38116     38113     38117     38117     38118
     38117     38119     38117     38120     38120     38121     38120     38122
     38120     38127     38127     38123     38123     38126     38123     38124
     38123     38125     38128     38129     38128     38130     38128     38131
     38128     38126     38131     38132     38131     38139     38131     38133
     38139     38140     38139     38141     38139     38142     38133     38134
     38134     38136     38134     38135     38136     38137     38136     38138
     38136     38148     38148     38149     38148     38150     38148     38151
     38151     38152     38151     38153     38151     38154     38154     38155
     38154     38156     38154     38157     38157     38158     38157     38159
     38157     38160     38160     38161     38160     38162     38160     38163
     38163     38164     38163     38165     38163     38166     38166     38167
     38166     38168     38168     38169     38168     38170     38170     38171
     38170     38172     38170     38173     38173     38174     38173     38175
     38173     38176     38176     38177     38176     38178     38176     38179
     38179     38180     38179     38181     38179     38182     38182     38183
     38182     38184     38182     38185     38185     38186     38185     38187
     38185     38188     38142     38143     38143     38145     38143     38144
     38145     38146     38145     38147     38145     38189     38189     38190
     38189     38191     38189     38192     38192     38193     38192     38194
     38192     38195     38195     38196     38195     38197     38195     38198
     38198     38199     38198     38200     38198     38201     38201     38202
     38201     38203     38201     38204     38204     38205     38204     38206
     38204     38207     38207     38208     38207     38209     38209     38210
     38209     38211     38211     38212     38211     38213     38211     38214
     38214     38215     38214     38216     38214     38217     38217     38218
     38217     38219     38217     38220     38220     38221     38220     38222
     38220     38223     38223     38224     38223     38225     38223     38226
     38226     38227     38226     38228     38226     38229     38229     38230
     38229     38231     38229     38232     38232     38233     38232     38234
     38232     38235     38236     38237     38236     38238     38236     38239
     38236     38240     38240     38241     38240     38242     38240     38243
     38243     38244     38243     38245     38243     38250     38250     38246
     38246     38249     38246     38247     38246     38248     38251     38252
     38251     38253     38251     38254     38251     38249     38254     38255
     38254     38262     38254     38256     38262     38263     38262     38264
     38262     38265     38256     38257     38257     38259     38257     38258
     38259     38260     38259     38261     38259     38271     38271     38272
     38271     38273     38271     38274     38274     38275     38274     38276
     38274     38277     38277     38278     38277     38279     38277     38280
     38280     38281     38280     38282     38280     38283     38283     38284
     38283     38285     38283     38286     38286     38287     38286     38288
     38286     38289     38289     38290     38289     38294     38289     38291
     38294     38295     38294     38296     38294     38291     38296     38297
     38296     38298     38296     38299     38299     38300     38299     38301
     38299     38302     38302     38303     38302     38304     38302     38305
     38305     38306     38305     38307     38305     38308     38308     38309
     38308     38310     38308     38311     38311     38312     38311     38313
     38311     38314     38291     38292     38291     38293     38265     38266
     38266     38268     38266     38267     38268     38269     38268     38270
     38268     38315     38315     38316     38315     38317     38315     38318
     38318     38319     38318     38320     38318     38321     38321     38322
     38321     38323     38321     38324     38324     38325     38324     38326
     38324     38327     38327     38328     38327     38329     38327     38330
     38330     38331     38330     38332     38330     38333     38333     38334
     38333     38335     38333     38336     38336     38337     38336     38338
     38336     38339     38339     38340     38339     38341     38339     38342
     38342     38343     38342     38344     38342     38345     38345     38346
     38345     38347     38345     38348     38348     38349     38348     38350
     38348     38351     38351     38352     38351     38353     38351     38354
     38355     38356     38355     38357     38355     38358     38355     38359
     38359     38360     38359     38361     38359     38362     38362     38363
     38362     38364     38362     38369     38369     38365     38365     38368
     38365     38366     38365     38367     38370     38371     38370     38372
     38370     38373     38370     38368     38373     38374     38373     38381
     38373     38375     38381     38382     38381     38383     38381     38384
     38375     38376     38376     38378     38376     38377     38378     38379
     38378     38380     38378     38390     38390     38391     38390     38392
     38390     38393     38393     38394     38393     38395     38393     38396
     38396     38397     38396     38398     38396     38399     38399     38400
     38399     38401     38399     38402     38402     38403     38402     38404
     38402     38405     38405     38406     38405     38407     38405     38408
     38408     38409     38408     38413     38408     38410     38413     38414
     38413     38415     38413     38410     38415     38416     38415     38417
     38415     38418     38418     38419     38418     38420     38418     38421
     38421     38422     38421     38423     38421     38424     38424     38425
     38424     38426     38424     38427     38427     38428     38427     38429
     38427     38430     38430     38431     38430     38432     38430     38433
     38410     38411     38410     38412     38384     38385     38385     38387
     38385     38386     38387     38388     38387     38389     38387     38434
     38434     38435     38434     38436     38434     38437     38437     38438
     38437     38439     38437     38440     38440     38441     38440     38442
     38440     38443     38443     38444     38443     38445     38443     38446
     38446     38447     38446     38448     38446     38449     38449     38450
     38449     38451     38449     38452     38452     38453     38452     38454
     38452     38455     38455     38456     38455     38457     38455     38458
     38458     38459     38458     38460     38458     38461     38461     38462
     38461     38463     38461     38464     38464     38465     38464     38466
     38464     38467     38467     38468     38467     38469     38467     38470
     38470     38471     38470     38472     38470     38473     38473     38474
     38473     38475     38473     38476     38477     38478     38477     38479
     38477     38480     38477     38481     38481     38482     38481     38483
     38481     38484     38484     38485     38484     38486     38484     38491
     38491     38487     38487     38490     38487     38488     38487     38489
     38492     38493     38492     38494     38492     38495     38492     38490
     38495     38496     38495     38503     38495     38497     38503     38504
     38503     38505     38503     38506     38497     38498     38498     38500
     38498     38499     38500     38501     38500     38502     38500     38512
     38512     38513     38512     38514     38512     38515     38515     38516
     38515     38517     38515     38518     38518     38519     38518     38520
     38518     38521     38521     38522     38521     38523     38521     38524
     38524     38525     38524     38526     38524     38527     38527     38528
     38527     38529     38527     38530     38530     38531     38530     38535
     38530     38532     38535     38536     38535     38537     38535     38532
     38537     38538     38537     38539     38537     38540     38540     38541
     38540     38542     38540     38543     38543     38544     38543     38545
     38543     38546     38546     38547     38546     38548     38546     38549
     38549     38550     38549     38551     38549     38552     38552     38553
     38552     38554     38552     38555     38532     38533     38532     38534
     38506     38507     38507     38509     38507     38508     38509     38510
     38509     38511     38509     38556     38556     38557     38556     38558
     38556     38559     38559     38560     38559     38561     38559     38562
     38562     38563     38562     38564     38562     38565     38565     38566
     38565     38567     38565     38568     38568     38569     38568     38570
     38568     38571     38571     38572     38571     38573     38571     38574
     38574     38575     38574     38576     38574     38577     38577     38578
     38577     38579     38577     38580     38580     38581     38580     38582
     38580     38583     38583     38584     38583     38585     38583     38586
     38586     38587     38586     38588     38586     38589     38589     38590
     38589     38591     38589     38592     38592     38593     38592     38594
     38592     38595     38595     38596     38595     38597     38595     38598
     38599     38600     38599     38601     38599     38602     38599     38603
     38603     38604     38603     38605     38603     38606     38606     38607
     38606     38608     38606     38613     38613     38609     38609     38612
     38609     38610     38609     38611     38614     38615     38614     38616
     38614     38617     38614     38612     38617     38618     38617     38625
     38617     38619     38625     38626     38625     38627     38625     38628
     38619     38620     38620     38622     38620     38621     38622     38623
     38622     38624     38622     38634     38634     38635     38634     38636
     38634     38637     38637     38638     38637     38639     38637     38640
     38640     38641     38640     38642     38640     38643     38643     38644
     38643     38645     38643     38646     38646     38647     38646     38648
     38646     38649     38649     38650     38649     38651     38649     38652
     38652     38653     38652     38654     38654     38655     38654     38656
     38656     38657     38656     38658     38656     38659     38659     38660
     38659     38661     38659     38662     38662     38663     38662     38664
     38662     38665     38665     38666     38665     38667     38665     38668
     38668     38669     38668     38670     38668     38671     38671     38672
     38671     38673     38671     38674     38674     38675     38674     38676
     38674     38677     38677     38678     38677     38679     38677     38680
     38628     38629     38629     38631     38629     38630     38631     38632
     38631     38633     38631     38681     38681     38682     38681     38683
     38681     38684     38684     38685     38684     38686     38684     38687
     38687     38688     38687     38689     38687     38690     38690     38691
     38690     38692     38690     38693     38693     38694     38693     38695
     38693     38696     38696     38697     38696     38698     38696     38699
     38699     38700     38699     38701     38699     38702     38702     38703
     38702     38704     38702     38705     38705     38706     38705     38707
     38705     38708     38708     38709     38708     38710     38708     38711
     38711     38712     38711     38713     38711     38714     38714     38715
     38714     38716     38714     38717     38717     38718     38717     38719
     38717     38720     38720     38721     38720     38722     38720     38723
     38724     38725     38724     38726     38724     38727     38724     38728
     38728     38729     38728     38730     38728     38731     38731     38732
     38731     38733     38731     38738     38738     38734     38734     38737
     38734     38735     38734     38736     38739     38740     38739     38741
     38739     38742     38739     38737     38742     38743     38742     38750
     38742     38744     38750     38751     38750     38752     38750     38753
     38744     38745     38745     38747     38745     38746     38747     38748
     38747     38749     38747     38759     38759     38760     38759     38761
     38759     38762     38762     38763     38762     38764     38762     38765
     38765     38766     38765     38767     38765     38768     38768     38769
     38768     38770     38768     38771     38771     38772     38771     38773
     38771     38774     38774     38775     38774     38776     38774     38777
     38777     38778     38777     38782     38777     38779     38782     38783
     38782     38784     38782     38779     38784     38785     38784     38786
     38784     38787     38787     38788     38787     38789     38787     38790
     38790     38791     38790     38792     38790     38793     38793     38794
     38793     38795     38793     38796     38796     38797     38796     38798
     38796     38799     38799     38800     38799     38801     38799     38802
     38779     38780     38779     38781     38753     38754     38754     38756
     38754     38755     38756     38757     38756     38758     38756     38803
     38803     38804     38803     38805     38803     38806     38806     38807
     38806     38808     38806     38809     38809     38810     38809     38811
     38809     38812     38812     38813     38812     38814     38812     38815
     38815     38816     38815     38817     38815     38818     38818     38819
     38818     38820     38818     38821     38821     38822     38821     38823
     38821     38824     38824     38825     38824     38826     38824     38827
     38827     38828     38827     38829     38827     38830     38830     38831
     38830     38832     38830     38833     38833     38834     38833     38835
     38833     38836     38836     38837     38836     38838     38836     38839
     38839     38840     38839     38841     38839     38842     38842     38843
     38842     38844     38842     38845     38846     38847     38846     38848
     38846     38849     38846     38850     38850     38851     38850     38852
     38850     38853     38853     38854     38853     38855     38853     38860
     38860     38856     38856     38859     38856     38857     38856     38858
     38861     38862     38861     38863     38861     38864     38861     38859
     38864     38865     38864     38872     38864     38866     38872     38873
     38872     38874     38872     38875     38866     38867     38867     38869
     38867     38868     38869     38870     38869     38871     38869     38881
     38881     38882     38881     38883     38881     38884     38884     38885
     38884     38886     38884     38887     38887     38888     38887     38889
     38887     38890     38890     38891     38890     38892     38890     38893
     38893     38894     38893     38895     38893     38896     38896     38897
     38896     38898     38896     38899     38899     38900     38899     38904
     38899     38901     38904     38905     38904     38906     38904     38901
     38906     38907     38906     38908     38906     38909     38909     38910
     38909     38911     38909     38912     38912     38913     38912     38914
     38912     38915     38915     38916     38915     38917     38915     38918
     38918     38919     38918     38920     38918     38921     38921     38922
     38921     38923     38921     38924     38901     38902     38901     38903
     38875     38876     38876     38878     38876     38877     38878     38879
     38878     38880     38878     38925     38925     38926     38925     38927
     38925     38928     38928     38929     38928     38930     38928     38931
     38931     38932     38931     38933     38931     38934     38934     38935
     38934     38936     38934     38937     38937     38938     38937     38939
     38937     38940     38940     38941     38940     38942     38940     38943
     38943     38944     38943     38945     38943     38946     38946     38947
     38946     38948     38946     38949     38949     38950     38949     38951
     38949     38952     38952     38953     38952     38954     38952     38955
     38955     38956     38955     38957     38955     38958     38958     38959
     38958     38960     38958     38961     38961     38962     38961     38963
     38961     38964     38965     38966     38965     38967     38965     38968
     38965     38969     38969     38970     38969     38971     38969     38972
     38972     38973     38972     38974     38972     38979     38979     38975
     38975     38978     38975     38976     38975     38977     38980     38981
     38980     38982     38980     38983     38980     38978     38983     38984
     38983     38991     38983     38985     38991     38992     38991     38993
     38991     38994     38985     38986     38986     38988     38986     38987
     38988     38989     38988     38990     38988     39000     39000     39001
     39000     39002     39000     39003     39003     39004     39003     39005
     39003     39006     39006     39007     39006     39008     39006     39009
     39009     39010     39009     39011     39009     39012     39012     39013
     39012     39014     39012     39015     39015     39016     39015     39017
     39015     39018     39018     39019     39018     39023     39018     39020
     39023     39024     39023     39025     39023     39020     39025     39026
     39025     39027     39025     39028     39028     39029     39028     39030
     39028     39031     39031     39032     39031     39033     39031     39034
     39034     39035     39034     39036     39034     39037     39037     39038
     39037     39039     39037     39040     39040     39041     39040     39042
     39040     39043     39020     39021     39020     39022     38994     38995
     38995     38997     38995     38996     38997     38998     38997     38999
     38997     39044     39044     39045     39044     39046     39044     39047
     39047     39048     39047     39049     39047     39050     39050     39051
     39050     39052     39050     39053     39053     39054     39053     39055
     39053     39056     39056     39057     39056     39058     39056     39059
     39059     39060     39059     39061     39059     39062     39062     39063
     39062     39064     39062     39065     39065     39066     39065     39067
     39065     39068     39068     39069     39068     39070     39068     39071
     39071     39072     39071     39073     39071     39074     39074     39075
     39074     39076     39074     39077     39077     39078     39077     39079
     39077     39080     39080     39081     39080     39082     39080     39083
     39084     39085     39084     39086     39084     39087     39084     39088
     39088     39089     39088     39090     39088     39091     39091     39092
     39091     39093     39091     39098     39098     39094     39094     39097
     39094     39095     39094     39096     39099     39100     39099     39101
     39099     39102     39099     39097     39102     39103     39102     39110
     39102     39104     39110     39111     39110     39112     39110     39113
     39104     39105     39105     39107     39105     39106     39107     39108
     39107     39109     39107     39119     39119     39120     39119     39121
     39119     39122     39122     39123     39122     39124     39122     39125
     39125     39126     39125     39127     39125     39128     39128     39129
     39128     39130     39128     39131     39131     39132     39131     39133
     39131     39134     39134     39135     39134     39136     39134     39137
     39137     39138     39137     39139     39139     39140     39139     39141
     39141     39142     39141     39143     39141     39144     39144     39145
     39144     39146     39144     39147     39147     39148     39147     39149
     39147     39150     39150     39151     39150     39152     39150     39153
     39153     39154     39153     39155     39153     39156     39156     39157
     39156     39158     39156     39159     39159     39160     39159     39161
     39159     39162     39162     39163     39162     39164     39162     39165
     39113     39114     39114     39116     39114     39115     39116     39117
     39116     39118     39116     39166     39166     39167     39166     39168
     39166     39169     39169     39170     39169     39171     39169     39172
     39172     39173     39172     39174     39172     39175     39175     39176
     39175     39177     39175     39178     39178     39179     39178     39180
     39178     39181     39181     39182     39181     39183     39181     39184
     39184     39185     39184     39186     39184     39187     39187     39188
     39187     39189     39187     39190     39190     39191     39190     39192
     39190     39193     39193     39194     39193     39195     39193     39196
     39196     39197     39196     39198     39196     39199     39199     39200
     39199     39201     39199     39202     39202     39203     39202     39204
     39202     39205     39205     39206     39205     39207     39205     39208
     39209     39210     39209     39211     39209     39212     39209     39213
     39213     39214     39213     39215     39213     39216     39216     39217
     39216     39218     39216     39223     39223     39219     39219     39222
     39219     39220     39219     39221     39224     39225     39224     39226
     39224     39227     39224     39222     39227     39228     39227     39235
     39227     39229     39235     39236     39235     39237     39235     39238
     39229     39230     39230     39232     39230     39231     39232     39233
     39232     39234     39232     39244     39244     39245     39244     39246
     39244     39247     39247     39248     39247     39249     39247     39250
     39250     39251     39250     39252     39250     39253     39253     39254
     39253     39255     39253     39256     39256     39257     39256     39258
     39256     39259     39259     39260     39259     39261     39259     39262
     39262     39263     39262     39267     39262     39264     39267     39268
     39267     39269     39267     39264     39269     39270     39269     39271
     39269     39272     39272     39273     39272     39274     39272     39275
     39275     39276     39275     39277     39275     39278     39278     39279
     39278     39280     39278     39281     39281     39282     39281     39283
     39281     39284     39284     39285     39284     39286     39284     39287
     39264     39265     39264     39266     39238     39239     39239     39241
     39239     39240     39241     39242     39241     39243     39241     39288
     39288     39289     39288     39290     39288     39291     39291     39292
     39291     39293     39291     39294     39294     39295     39294     39296
     39294     39297     39297     39298     39297     39299     39297     39300
     39300     39301     39300     39302     39300     39303     39303     39304
     39303     39305     39303     39306     39306     39307     39306     39308
     39306     39309     39309     39310     39309     39311     39309     39312
     39312     39313     39312     39314     39312     39315     39315     39316
     39315     39317     39315     39318     39318     39319     39318     39320
     39318     39321     39321     39322     39321     39323     39321     39324
     39324     39325     39324     39326     39324     39327     39327     39328
     39327     39329     39327     39330     39335     39334     39334     39331
     39331     39332     39331     39333     39331     39336     39339     39338
     39338     39336     39336     39337     39336     39340     39340     39341
     39340     39342     39340     39347     39347     39343     39343     39346
     39343     39344     39343     39345     39348     39349     39348     39350
     39348     39351     39348     39346     39351     39352     39351     39359
     39351     39353     39359     39360     39359     39361     39359     39362
     39353     39354     39354     39356     39354     39355     39356     39357
     39356     39358     39356     39368     39368     39369     39368     39370
     39368     39371     39371     39372     39371     39373     39371     39374
     39374     39375     39374     39376     39374     39377     39377     39378
     39377     39379     39377     39380     39380     39381     39380     39382
     39380     39383     39383     39384     39383     39385     39383     39386
     39386     39387     39386     39391     39386     39388     39391     39392
     39391     39393     39391     39388     39393     39394     39393     39395
     39393     39396     39396     39397     39396     39398     39396     39399
     39399     39400     39399     39401     39399     39402     39402     39403
     39402     39404     39402     39405     39405     39406     39405     39407
     39405     39408     39408     39409     39408     39410     39408     39411
     39388     39389     39388     39390     39362     39363     39363     39365
     39363     39364     39365     39366     39365     39367     39365     39412
     39412     39413     39412     39414     39412     39415     39415     39416
     39415     39417     39415     39418     39418     39419     39418     39420
     39418     39421     39421     39422     39421     39423     39421     39424
     39424     39425     39424     39426     39424     39427     39427     39428
     39427     39429     39427     39430     39430     39431     39430     39432
     39430     39433     39433     39434     39433     39435     39433     39436
     39436     39437     39436     39438     39436     39439     39439     39440
     39439     39441     39439     39442     39442     39443     39442     39444
     39442     39445     39445     39446     39445     39447     39445     39448
     39448     39449     39448     39450     39448     39451     39451     39452
     39451     39453     39451     39454     39459     39458     39458     39455
     39455     39456     39455     39457     39455     39460     39463     39462
     39462     39460     39460     39461     39460     39464     39464     39465
     39464     39466     39464     39471     39471     39467     39467     39470
     39467     39468     39467     39469     39472     39473     39472     39474
     39472     39475     39472     39470     39475     39476     39475     39483
     39475     39477     39483     39484     39483     39485     39483     39486
     39477     39478     39478     39480     39478     39479     39480     39481
     39480     39482     39480     39492     39492     39493     39492     39494
     39492     39495     39495     39496     39495     39497     39495     39498
     39498     39499     39498     39500     39498     39501     39501     39502
     39501     39503     39501     39504     39504     39505     39504     39506
     39504     39507     39507     39508     39507     39509     39507     39510
     39510     39511     39510     39512     39512     39513     39512     39514
     39514     39515     39514     39516     39514     39517     39517     39518
     39517     39519     39517     39520     39520     39521     39520     39522
     39520     39523     39523     39524     39523     39525     39523     39526
     39526     39527     39526     39528     39526     39529     39529     39530
     39529     39531     39529     39532     39486     39487     39487     39489
     39487     39488     39489     39490     39489     39491     39489     39533
     39533     39534     39533     39535     39533     39536     39536     39537
     39536     39538     39536     39539     39539     39540     39539     39541
     39539     39542     39542     39543     39542     39544     39542     39545
     39545     39546     39545     39547     39545     39548     39548     39549
     39548     39550     39548     39551     39551     39552     39551     39553
     39551     39554     39554     39555     39554     39556     39554     39557
     39557     39558     39557     39559     39557     39560     39560     39561
     39560     39562     39560     39563     39563     39564     39563     39565
     39563     39566     39566     39567     39566     39568     39566     39569
     39569     39570     39569     39571     39569     39572     39572     39573
     39572     39574     39572     39575     39591     39587     39591     39592
     39591     39593     39587     39589     39587     39588     39589     39590
     39587     39576     39576     39577     39576     39578     39591     39597
     39576     39582     39594     39597     39594     39598     39594     39595
     39594     39596     39579     39582     39579     39583     39579     39580
     39579     39581     39598     39599     39599     39600     39599     39601
     39599     39602     39602     39603     39602     39604     39602     39610
     39610     39611     39610     39612     39610     39613     39583     39584
     39584     39585     39584     39586     39584     39619     39619     39620
     39619     39621     39619     39627     39627     39628     39627     39629
     39627     39630     39604     39605     39613     39614     39621     39622
     39630     39631     39605     39606     39605     39607     39607     39608
     39607     39609     39607     39636     39636     39637     39636     39638
     39636     39639     39639     39640     39639     39641     39639     39642
     39642     39643     39642     39644     39642     39645     39645     39646
     39645     39647     39645     39648     39648     39649     39648     39650
     39648     39651     39651     39652     39651     39653     39651     39654
     39654     39655     39654     39656     39654     39657     39657     39658
     39657     39659     39657     39660     39660     39661     39660     39662
     39662     39663     39662     39664     39664     39665     39664     39666
     39664     39667     39667     39668     39667     39669     39667     39670
     39670     39671     39670     39672     39670     39673     39673     39674
     39673     39675     39673     39676     39676     39677     39676     39678
     39676     39679     39679     39680     39679     39681     39679     39682
     39614     39615     39614     39616     39616     39617     39616     39618
     39616     39683     39683     39684     39683     39685     39683     39686
     39686     39687     39686     39688     39686     39689     39689     39690
     39689     39691     39689     39692     39692     39693     39692     39694
     39692     39695     39695     39696     39695     39697     39695     39698
     39698     39699     39698     39700     39698     39701     39701     39702
     39701     39703     39701     39704     39704     39705     39704     39706
     39704     39707     39707     39708     39707     39709     39707     39710
     39710     39711     39710     39712     39710     39713     39713     39714
     39713     39715     39713     39716     39716     39717     39716     39718
     39716     39719     39719     39720     39719     39721     39719     39722
     39722     39723     39722     39724     39722     39725     39622     39623
     39622     39624     39624     39625     39624     39626     39624     39726
     39726     39727     39726     39728     39726     39729     39729     39730
     39729     39731     39729     39732     39732     39733     39732     39734
     39732     39735     39735     39736     39735     39737     39735     39738
     39738     39739     39738     39740     39738     39741     39741     39742
     39741     39743     39741     39744     39744     39745     39744     39746
     39744     39747     39747     39748     39747     39749     39747     39750
     39750     39751     39750     39752     39752     39753     39752     39754
     39754     39755     39754     39756     39754     39757     39757     39758
     39757     39759     39757     39760     39760     39761     39760     39762
     39760     39763     39763     39764     39763     39765     39763     39766
     39766     39767     39766     39768     39766     39769     39769     39770
     39769     39771     39769     39772     39631     39632     39631     39633
     39633     39634     39633     39635     39633     39773     39773     39774
     39773     39775     39773     39776     39776     39777     39776     39778
     39776     39779     39779     39780     39779     39781     39779     39782
     39782     39783     39782     39784     39782     39785     39785     39786
     39785     39787     39785     39788     39788     39789     39788     39790
     39788     39791     39791     39792     39791     39793     39791     39794
     39794     39795     39794     39796     39794     39797     39797     39798
     39797     39799     39797     39800     39800     39801     39800     39802
     39800     39803     39803     39804     39803     39805     39803     39806
     39806     39807     39806     39808     39806     39809     39809     39810
     39809     39811     39809     39812     39812     39813     39812     39814
     39812     39815     39816     39817     39816     39818     39816     39819
     39816     39820     39820     39821     39820     39822     39820     39823
     39823     39824     39823     39825     39823     39830     39830     39826
     39826     39829     39826     39827     39826     39828     39831     39832
     39831     39833     39831     39834     39831     39829     39834     39835
     39834     39842     39834     39836     39842     39843     39842     39844
     39842     39845     39836     39837     39837     39839     39837     39838
     39839     39840     39839     39841     39839     39851     39851     39852
     39851     39853     39851     39854     39854     39855     39854     39856
     39854     39857     39857     39858     39857     39859     39857     39860
     39860     39861     39860     39862     39860     39863     39863     39864
     39863     39865     39863     39866     39866     39867     39866     39868
     39866     39869     39869     39870     39869     39874     39869     39871
     39874     39875     39874     39876     39874     39871     39876     39877
     39876     39878     39876     39879     39879     39880     39879     39881
     39879     39882     39882     39883     39882     39884     39882     39885
     39885     39886     39885     39887     39885     39888     39888     39889
     39888     39890     39888     39891     39891     39892     39891     39893
     39891     39894     39871     39872     39871     39873     39845     39846
     39846     39848     39846     39847     39848     39849     39848     39850
     39848     39895     39895     39896     39895     39897     39895     39898
     39898     39899     39898     39900     39898     39901     39901     39902
     39901     39903     39901     39904     39904     39905     39904     39906
     39904     39907     39907     39908     39907     39909     39907     39910
     39910     39911     39910     39912     39910     39913     39913     39914
     39913     39915     39913     39916     39916     39917     39916     39918
     39916     39919     39919     39920     39919     39921     39919     39922
     39922     39923     39922     39924     39922     39925     39925     39926
     39925     39927     39925     39928     39928     39929     39928     39930
     39928     39931     39931     39932     39931     39933     39931     39934
     39939     39938     39938     39935     39935     39936     39935     39937
     39935     39940     39943     39942     39942     39940     39940     39941
     39940     39944     39944     39945     39944     39946     39944     39951
     39951     39947     39947     39950     39947     39948     39947     39949
     39952     39953     39952     39954     39952     39955     39952     39950
     39955     39956     39955     39963     39955     39957     39963     39964
     39963     39965     39963     39966     39957     39958     39958     39960
     39958     39959     39960     39961     39960     39962     39960     39972
     39972     39973     39972     39974     39972     39975     39975     39976
     39975     39977     39975     39978     39978     39979     39978     39980
     39978     39981     39981     39982     39981     39983     39981     39984
     39984     39985     39984     39986     39984     39987     39987     39988
     39987     39989     39987     39990     39990     39991     39990     39995
     39990     39992     39995     39996     39995     39997     39995     39992
     39997     39998     39997     39999     39997     40000     40000     40001
     40000     40002     40000     40003     40003     40004     40003     40005
     40003     40006     40006     40007     40006     40008     40006     40009
     40009     40010     40009     40011     40009     40012     40012     40013
     40012     40014     40012     40015     39992     39993     39992     39994
     39966     39967     39967     39969     39967     39968     39969     39970
     39969     39971     39969     40016     40016     40017     40016     40018
     40016     40019     40019     40020     40019     40021     40019     40022
     40022     40023     40022     40024     40022     40025     40025     40026
     40025     40027     40025     40028     40028     40029     40028     40030
     40028     40031     40031     40032     40031     40033     40031     40034
     40034     40035     40034     40036     40034     40037     40037     40038
     40037     40039     40037     40040     40040     40041     40040     40042
     40040     40043     40043     40044     40043     40045     40043     40046
     40046     40047     40046     40048     40046     40049     40049     40050
     40049     40051     40049     40052     40052     40053     40052     40054
     40052     40055     40055     40056     40055     40057     40055     40058
     40059     40060     40059     40061     40059     40062     40059     40063
     40063     40064     40063     40065     40063     40066     40066     40067
     40066     40068     40066     40073     40073     40069     40069     40072
     40069     40070     40069     40071     40074     40075     40074     40076
     40074     40077     40074     40072     40077     40078     40077     40085
     40077     40079     40085     40086     40085     40087     40085     40088
     40079     40080     40080     40082     40080     40081     40082     40083
     40082     40084     40082     40094     40094     40095     40094     40096
     40094     40097     40097     40098     40097     40099     40097     40100
     40100     40101     40100     40102     40100     40103     40103     40104
     40103     40105     40103     40106     40106     40107     40106     40108
     40106     40109     40109     40110     40109     40111     40109     40112
     40112     40113     40112     40117     40112     40114     40117     40118
     40117     40119     40117     40114     40119     40120     40119     40121
     40119     40122     40122     40123     40122     40124     40122     40125
     40125     40126     40125     40127     40125     40128     40128     40129
     40128     40130     40128     40131     40131     40132     40131     40133
     40131     40134     40134     40135     40134     40136     40134     40137
     40114     40115     40114     40116     40088     40089     40089     40091
     40089     40090     40091     40092     40091     40093     40091     40138
     40138     40139     40138     40140     40138     40141     40141     40142
     40141     40143     40141     40144     40144     40145     40144     40146
     40144     40147     40147     40148     40147     40149     40147     40150
     40150     40151     40150     40152     40150     40153     40153     40154
     40153     40155     40153     40156     40156     40157     40156     40158
     40156     40159     40159     40160     40159     40161     40159     40162
     40162     40163     40162     40164     40162     40165     40165     40166
     40165     40167     40165     40168     40168     40169     40168     40170
     40168     40171     40171     40172     40171     40173     40171     40174
     40174     40175     40174     40176     40174     40177     40177     40178
     40177     40179     40177     40180     40181     40182     40181     40183
     40181     40184     40181     40185     40185     40186     40185     40187
     40185     40188     40188     40189     40188     40190     40188     40195
     40195     40191     40191     40194     40191     40192     40191     40193
     40196     40197     40196     40198     40196     40199     40196     40194
     40199     40200     40199     40207     40199     40201     40207     40208
     40207     40209     40207     40210     40201     40202     40202     40204
     40202     40203     40204     40205     40204     40206     40204     40216
     40216     40217     40216     40218     40216     40219     40219     40220
     40219     40221     40219     40222     40222     40223     40222     40224
     40222     40225     40225     40226     40225     40227     40225     40228
     40228     40229     40228     40230     40228     40231     40231     40232
     40231     40233     40231     40234     40234     40235     40234     40239
     40234     40236     40239     40240     40239     40241     40239     40236
     40241     40242     40241     40243     40241     40244     40244     40245
     40244     40246     40244     40247     40247     40248     40247     40249
     40247     40250     40250     40251     40250     40252     40250     40253
     40253     40254     40253     40255     40253     40256     40256     40257
     40256     40258     40256     40259     40236     40237     40236     40238
     40210     40211     40211     40213     40211     40212     40213     40214
     40213     40215     40213     40260     40260     40261     40260     40262
     40260     40263     40263     40264     40263     40265     40263     40266
     40266     40267     40266     40268     40266     40269     40269     40270
     40269     40271     40269     40272     40272     40273     40272     40274
     40272     40275     40275     40276     40275     40277     40275     40278
     40278     40279     40278     40280     40278     40281     40281     40282
     40281     40283     40281     40284     40284     40285     40284     40286
     40284     40287     40287     40288     40287     40289     40287     40290
     40290     40291     40290     40292     40290     40293     40293     40294
     40293     40295     40293     40296     40296     40297     40296     40298
     40296     40299     40299     40300     40299     40301     40299     40302
     40303     40304     40303     40305     40303     40306     40303     40307
     40307     40308     40307     40309     40307     40310     40310     40311
     40310     40312     40310     40317     40317     40313     40313     40316
     40313     40314     40313     40315     40318     40319     40318     40320
     40318     40321     40318     40316     40321     40322     40321     40329
     40321     40323     40329     40330     40329     40331     40329     40332
     40323     40324     40324     40326     40324     40325     40326     40327
     40326     40328     40326     40338     40338     40339     40338     40340
     40338     40341     40341     40342     40341     40343     40341     40344
     40344     40345     40344     40346     40344     40347     40347     40348
     40347     40349     40347     40350     40350     40351     40350     40352
     40350     40353     40353     40354     40353     40355     40353     40356
     40356     40357     40356     40361     40356     40358     40361     40362
     40361     40363     40361     40358     40363     40364     40363     40365
     40363     40366     40366     40367     40366     40368     40366     40369
     40369     40370     40369     40371     40369     40372     40372     40373
     40372     40374     40372     40375     40375     40376     40375     40377
     40375     40378     40378     40379     40378     40380     40378     40381
     40358     40359     40358     40360     40332     40333     40333     40335
     40333     40334     40335     40336     40335     40337     40335     40382
     40382     40383     40382     40384     40382     40385     40385     40386
     40385     40387     40385     40388     40388     40389     40388     40390
     40388     40391     40391     40392     40391     40393     40391     40394
     40394     40395     40394     40396     40394     40397     40397     40398
     40397     40399     40397     40400     40400     40401     40400     40402
     40400     40403     40403     40404     40403     40405     40403     40406
     40406     40407     40406     40408     40406     40409     40409     40410
     40409     40411     40409     40412     40412     40413     40412     40414
     40412     40415     40415     40416     40415     40417     40415     40418
     40418     40419     40418     40420     40418     40421     40426     40425
     40425     40422     40422     40423     40422     40424     40422     40427
     40430     40429     40429     40427     40427     40428     40427     40431
     40431     40432     40431     40433     40431     40438     40438     40434
     40434     40437     40434     40435     40434     40436     40439     40440
     40439     40441     40439     40442     40439     40437     40442     40443
     40442     40450     40442     40444     40450     40451     40450     40452
     40450     40453     40444     40445     40445     40447     40445     40446
     40447     40448     40447     40449     40447     40459     40459     40460
     40459     40461     40459     40462     40462     40463     40462     40464
     40462     40465     40465     40466     40465     40467     40465     40468
     40468     40469     40468     40470     40468     40471     40471     40472
     40471     40473     40471     40474     40474     40475     40474     40476
     40474     40477     40477     40478     40477     40479     40479     40480
     40479     40481     40481     40482     40481     40483     40481     40484
     40484     40485     40484     40486     40484     40487     40487     40488
     40487     40489     40487     40490     40490     40491     40490     40492
     40490     40493     40493     40494     40493     40495     40493     40496
     40496     40497     40496     40498     40496     40499     40453     40454
     40454     40456     40454     40455     40456     40457     40456     40458
     40456     40500     40500     40501     40500     40502     40500     40503
     40503     40504     40503     40505     40503     40506     40506     40507
     40506     40508     40506     40509     40509     40510     40509     40511
     40509     40512     40512     40513     40512     40514     40512     40515
     40515     40516     40515     40517     40515     40518     40518     40519
     40518     40520     40518     40521     40521     40522     40521     40523
     40521     40524     40524     40525     40524     40526     40524     40527
     40527     40528     40527     40529     40527     40530     40530     40531
     40530     40532     40530     40533     40533     40534     40533     40535
     40533     40536     40536     40537     40536     40538     40536     40539
     40539     40540     40539     40541     40539     40542     40543     40544
     40543     40545     40543     40546     40543     40547     40547     40548
     40547     40549     40547     40550     40550     40551     40550     40552
     40550     40557     40557     40553     40553     40556     40553     40554
     40553     40555     40558     40559     40558     40560     40558     40561
     40558     40556     40561     40562     40561     40569     40561     40563
     40569     40570     40569     40571     40569     40572     40563     40564
     40564     40566     40564     40565     40566     40567     40566     40568
     40566     40578     40578     40579     40578     40580     40578     40581
     40581     40582     40581     40583     40581     40584     40584     40585
     40584     40586     40584     40587     40587     40588     40587     40589
     40587     40590     40590     40591     40590     40592     40590     40593
     40593     40594     40593     40595     40593     40596     40596     40597
     40596     40601     40596     40598     40601     40602     40601     40603
     40601     40598     40603     40604     40603     40605     40603     40606
     40606     40607     40606     40608     40606     40609     40609     40610
     40609     40611     40609     40612     40612     40613     40612     40614
     40612     40615     40615     40616     40615     40617     40615     40618
     40618     40619     40618     40620     40618     40621     40598     40599
     40598     40600     40572     40573     40573     40575     40573     40574
     40575     40576     40575     40577     40575     40622     40622     40623
     40622     40624     40622     40625     40625     40626     40625     40627
     40625     40628     40628     40629     40628     40630     40628     40631
     40631     40632     40631     40633     40631     40634     40634     40635
     40634     40636     40634     40637     40637     40638     40637     40639
     40637     40640     40640     40641     40640     40642     40640     40643
     40643     40644     40643     40645     40643     40646     40646     40647
     40646     40648     40646     40649     40649     40650     40649     40651
     40649     40652     40652     40653     40652     40654     40652     40655
     40655     40656     40655     40657     40655     40658     40658     40659
     40658     40660     40658     40661     40666     40665     40665     40662
     40662     40663     40662     40664     40662     40667     40670     40669
     40669     40667     40667     40668     40667     40671     40671     40672
     40671     40673     40671     40678     40678     40674     40674     40677
     40674     40675     40674     40676     40679     40680     40679     40681
     40679     40682     40679     40677     40682     40683     40682     40690
     40682     40684     40690     40691     40690     40692     40690     40693
     40684     40685     40685     40687     40685     40686     40687     40688
     40687     40689     40687     40699     40699     40700     40699     40701
     40699     40702     40702     40703     40702     40704     40702     40705
     40705     40706     40705     40707     40705     40708     40708     40709
     40708     40710     40708     40711     40711     40712     40711     40713
     40711     40714     40714     40715     40714     40716     40714     40717
     40717     40718     40717     40719     40719     40720     40719     40721
     40721     40722     40721     40723     40721     40724     40724     40725
     40724     40726     40724     40727     40727     40728     40727     40729
     40727     40730     40730     40731     40730     40732     40730     40733
     40733     40734     40733     40735     40733     40736     40736     40737
     40736     40738     40736     40739     40693     40694     40694     40696
     40694     40695     40696     40697     40696     40698     40696     40740
     40740     40741     40740     40742     40740     40743     40743     40744
     40743     40745     40743     40746     40746     40747     40746     40748
     40746     40749     40749     40750     40749     40751     40749     40752
     40752     40753     40752     40754     40752     40755     40755     40756
     40755     40757     40755     40758     40758     40759     40758     40760
     40758     40761     40761     40762     40761     40763     40761     40764
     40764     40765     40764     40766     40764     40767     40767     40768
     40767     40769     40767     40770     40770     40771     40770     40772
     40770     40773     40773     40774     40773     40775     40773     40776
     40776     40777     40776     40778     40776     40779     40779     40780
     40779     40781     40779     40782     40787     40786     40786     40783
     40783     40784     40783     40785     40783     40788     40791     40790
     40790     40788     40788     40789     40788     40792     40792     40793
     40792     40794     40792     40799     40799     40795     40795     40798
     40795     40796     40795     40797     40800     40801     40800     40802
     40800     40803     40800     40798     40803     40804     40803     40811
     40803     40805     40811     40812     40811     40813     40811     40814
     40805     40806     40806     40808     40806     40807     40808     40809
     40808     40810     40808     40820     40820     40821     40820     40822
     40820     40823     40823     40824     40823     40825     40823     40826
     40826     40827     40826     40828     40826     40829     40829     40830
     40829     40831     40829     40832     40832     40833     40832     40834
     40832     40835     40835     40836     40835     40837     40835     40838
     40838     40839     40838     40843     40838     40840     40843     40844
     40843     40845     40843     40840     40845     40846     40845     40847
     40845     40848     40848     40849     40848     40850     40848     40851
     40851     40852     40851     40853     40851     40854     40854     40855
     40854     40856     40854     40857     40857     40858     40857     40859
     40857     40860     40860     40861     40860     40862     40860     40863
     40840     40841     40840     40842     40814     40815     40815     40817
     40815     40816     40817     40818     40817     40819     40817     40864
     40864     40865     40864     40866     40864     40867     40867     40868
     40867     40869     40867     40870     40870     40871     40870     40872
     40870     40873     40873     40874     40873     40875     40873     40876
     40876     40877     40876     40878     40876     40879     40879     40880
     40879     40881     40879     40882     40882     40883     40882     40884
     40882     40885     40885     40886     40885     40887     40885     40888
     40888     40889     40888     40890     40888     40891     40891     40892
     40891     40893     40891     40894     40894     40895     40894     40896
     40894     40897     40897     40898     40897     40899     40897     40900
     40900     40901     40900     40902     40900     40903     40903     40904
     40903     40905     40903     40906     40907     40908     40907     40909
     40907     40910     40907     40911     40911     40912     40911     40913
     40911     40914     40914     40915     40914     40916     40914     40921
     40921     40917     40917     40920     40917     40918     40917     40919
     40922     40923     40922     40924     40922     40925     40922     40920
     40925     40926     40925     40933     40925     40927     40933     40934
     40933     40935     40933     40936     40927     40928     40928     40930
     40928     40929     40930     40931     40930     40932     40930     40942
     40942     40943     40942     40944     40942     40945     40945     40946
     40945     40947     40945     40948     40948     40949     40948     40950
     40948     40951     40951     40952     40951     40953     40951     40954
     40954     40955     40954     40956     40954     40957     40957     40958
     40957     40959     40957     40960     40960     40961     40960     40965
     40960     40962     40965     40966     40965     40967     40965     40962
     40967     40968     40967     40969     40967     40970     40970     40971
     40970     40972     40970     40973     40973     40974     40973     40975
     40973     40976     40976     40977     40976     40978     40976     40979
     40979     40980     40979     40981     40979     40982     40982     40983
     40982     40984     40982     40985     40962     40963     40962     40964
     40936     40937     40937     40939     40937     40938     40939     40940
     40939     40941     40939     40986     40986     40987     40986     40988
     40986     40989     40989     40990     40989     40991     40989     40992
     40992     40993     40992     40994     40992     40995     40995     40996
     40995     40997     40995     40998     40998     40999     40998     41000
     40998     41001     41001     41002     41001     41003     41001     41004
     41004     41005     41004     41006     41004     41007     41007     41008
     41007     41009     41007     41010     41010     41011     41010     41012
     41010     41013     41013     41014     41013     41015     41013     41016
     41016     41017     41016     41018     41016     41019     41019     41020
     41019     41021     41019     41022     41022     41023     41022     41024
     41022     41025     41025     41026     41025     41027     41025     41028
     41029     41030     41029     41031     41029     41032     41029     41033
     41033     41034     41033     41035     41033     41036     41036     41037
     41036     41038     41036     41043     41043     41039     41039     41042
     41039     41040     41039     41041     41044     41045     41044     41046
     41044     41047     41044     41042     41047     41048     41047     41055
     41047     41049     41055     41056     41055     41057     41055     41058
     41049     41050     41050     41052     41050     41051     41052     41053
     41052     41054     41052     41064     41064     41065     41064     41066
     41064     41067     41067     41068     41067     41069     41067     41070
     41070     41071     41070     41072     41070     41073     41073     41074
     41073     41075     41073     41076     41076     41077     41076     41078
     41076     41079     41079     41080     41079     41081     41079     41082
     41082     41083     41082     41084     41084     41085     41084     41086
     41086     41087     41086     41088     41086     41089     41089     41090
     41089     41091     41089     41092     41092     41093     41092     41094
     41092     41095     41095     41096     41095     41097     41095     41098
     41098     41099     41098     41100     41098     41101     41101     41102
     41101     41103     41101     41104     41058     41059     41059     41061
     41059     41060     41061     41062     41061     41063     41061     41105
     41105     41106     41105     41107     41105     41108     41108     41109
     41108     41110     41108     41111     41111     41112     41111     41113
     41111     41114     41114     41115     41114     41116     41114     41117
     41117     41118     41117     41119     41117     41120     41120     41121
     41120     41122     41120     41123     41123     41124     41123     41125
     41125     41126     41125     41127     41127     41128     41127     41129
     41127     41130     41130     41131     41130     41132     41130     41133
     41133     41134     41133     41135     41133     41136     41136     41137
     41136     41138     41136     41139     41139     41140     41139     41141
     41139     41142     41142     41143     41142     41144     41142     41145
     41145     41146     41145     41147     41145     41148     41148     41149
     41148     41150     41148     41151     41152     41153     41152     41154
     41152     41155     41152     41156     41156     41157     41156     41158
     41156     41159     41159     41160     41159     41161     41159     41166
     41166     41162     41162     41165     41162     41163     41162     41164
     41167     41168     41167     41169     41167     41170     41167     41165
     41170     41171     41170     41178     41170     41172     41178     41179
     41178     41180     41178     41181     41172     41173     41173     41175
     41173     41174     41175     41176     41175     41177     41175     41187
     41187     41188     41187     41189     41187     41190     41190     41191
     41190     41192     41190     41193     41193     41194     41193     41195
     41193     41196     41196     41197     41196     41198     41196     41199
     41199     41200     41199     41201     41199     41202     41202     41203
     41202     41204     41202     41205     41205     41206     41205     41207
     41207     41208     41207     41209     41209     41210     41209     41211
     41209     41212     41212     41213     41212     41214     41212     41215
     41215     41216     41215     41217     41215     41218     41218     41219
     41218     41220     41218     41221     41221     41222     41221     41223
     41221     41224     41224     41225     41224     41226     41224     41227
     41181     41182     41182     41184     41182     41183     41184     41185
     41184     41186     41184     41228     41228     41229     41228     41230
     41228     41231     41231     41232     41231     41233     41231     41234
     41234     41235     41234     41236     41234     41237     41237     41238
     41237     41239     41237     41240     41240     41241     41240     41242
     41240     41243     41243     41244     41243     41245     41243     41246
     41246     41247     41246     41248     41248     41249     41248     41250
     41250     41251     41250     41252     41250     41253     41253     41254
     41253     41255     41253     41256     41256     41257     41256     41258
     41256     41259     41259     41260     41259     41261     41259     41262
     41262     41263     41262     41264     41262     41265     41265     41266
     41265     41267     41265     41268     41268     41269     41268     41270
     41268     41271     41271     41272     41271     41273     41271     41274
     41275     41276     41275     41277     41275     41278     41275     41279
     41279     41280     41279     41281     41279     41282     41282     41283
     41282     41284     41282     41289     41289     41285     41285     41288
     41285     41286     41285     41287     41290     41291     41290     41292
     41290     41293     41290     41288     41293     41294     41293     41301
     41293     41295     41301     41302     41301     41303     41301     41304
     41295     41296     41296     41298     41296     41297     41298     41299
     41298     41300     41298     41310     41310     41311     41310     41312
     41310     41313     41313     41314     41313     41315     41313     41316
     41316     41317     41316     41318     41316     41319     41319     41320
     41319     41321     41319     41322     41322     41323     41322     41324
     41322     41325     41325     41326     41325     41327     41325     41328
     41328     41329     41328     41333     41328     41330     41333     41334
     41333     41335     41333     41330     41335     41336     41335     41337
     41335     41338     41338     41339     41338     41340     41338     41341
     41341     41342     41341     41343     41341     41344     41344     41345
     41344     41346     41344     41347     41347     41348     41347     41349
     41347     41350     41350     41351     41350     41352     41350     41353
     41330     41331     41330     41332     41304     41305     41305     41307
     41305     41306     41307     41308     41307     41309     41307     41354
     41354     41355     41354     41356     41354     41357     41357     41358
     41357     41359     41357     41360     41360     41361     41360     41362
     41360     41363     41363     41364     41363     41365     41363     41366
     41366     41367     41366     41368     41366     41369     41369     41370
     41369     41371     41369     41372     41372     41373     41372     41374
     41372     41375     41375     41376     41375     41377     41375     41378
     41378     41379     41378     41380     41378     41381     41381     41382
     41381     41383     41381     41384     41384     41385     41384     41386
     41384     41387     41387     41388     41387     41389     41387     41390
     41390     41391     41390     41392     41390     41393     41394     41395
     41394     41396     41394     41397     41394     41398     41398     41399
     41398     41400     41398     41401     41401     41402     41401     41403
     41401     41408     41408     41404     41404     41407     41404     41405
     41404     41406     41409     41410     41409     41411     41409     41412
     41409     41407     41412     41413     41412     41420     41412     41414
     41420     41421     41420     41422     41420     41423     41414     41415
     41415     41417     41415     41416     41417     41418     41417     41419
     41417     41429     41429     41430     41429     41431     41429     41432
     41432     41433     41432     41434     41432     41435     41435     41436
     41435     41437     41435     41438     41438     41439     41438     41440
     41438     41441     41441     41442     41441     41443     41441     41444
     41444     41445     41444     41446     41444     41447     41447     41448
     41447     41449     41449     41450     41449     41451     41451     41452
     41451     41453     41451     41454     41454     41455     41454     41456
     41454     41457     41457     41458     41457     41459     41457     41460
     41460     41461     41460     41462     41460     41463     41463     41464
     41463     41465     41463     41466     41466     41467     41466     41468
     41466     41469     41423     41424     41424     41426     41424     41425
     41426     41427     41426     41428     41426     41470     41470     41471
     41470     41472     41470     41473     41473     41474     41473     41475
     41473     41476     41476     41477     41476     41478     41476     41479
     41479     41480     41479     41481     41479     41482     41482     41483
     41482     41484     41482     41485     41485     41486     41485     41487
     41485     41488     41488     41489     41488     41490     41490     41491
     41490     41492     41492     41493     41492     41494     41492     41495
     41495     41496     41495     41497     41495     41498     41498     41499
     41498     41500     41498     41501     41501     41502     41501     41503
     41501     41504     41504     41505     41504     41506     41504     41507
     41507     41508     41507     41509     41507     41510     41510     41511
     41510     41512     41510     41513     41513     41514     41513     41515
     41513     41516     41521     41520     41520     41517     41517     41518
     41517     41519     41517     41522     41525     41524     41524     41522
     41522     41523     41522     41526     41526     41527     41526     41528
     41526     41533     41533     41529     41529     41532     41529     41530
     41529     41531     41534     41535     41534     41536     41534     41537
     41534     41532     41537     41538     41537     41545     41537     41539
     41545     41546     41545     41547     41545     41548     41539     41540
     41540     41542     41540     41541     41542     41543     41542     41544
     41542     41554     41554     41555     41554     41556     41554     41557
     41557     41558     41557     41559     41557     41560     41560     41561
     41560     41562     41560     41563     41563     41564     41563     41565
     41563     41566     41566     41567     41566     41568     41566     41569
     41569     41570     41569     41571     41569     41572     41572     41573
     41572     41577     41572     41574     41577     41578     41577     41579
     41577     41574     41579     41580     41579     41581     41579     41582
     41582     41583     41582     41584     41582     41585     41585     41586
     41585     41587     41585     41588     41588     41589     41588     41590
     41588     41591     41591     41592     41591     41593     41591     41594
     41594     41595     41594     41596     41594     41597     41574     41575
     41574     41576     41548     41549     41549     41551     41549     41550
     41551     41552     41551     41553     41551     41598     41598     41599
     41598     41600     41598     41601     41601     41602     41601     41603
     41601     41604     41604     41605     41604     41606     41604     41607
     41607     41608     41607     41609     41607     41610     41610     41611
     41610     41612     41610     41613     41613     41614     41613     41615
     41613     41616     41616     41617     41616     41618     41616     41619
     41619     41620     41619     41621     41619     41622     41622     41623
     41622     41624     41622     41625     41625     41626     41625     41627
     41625     41628     41628     41629     41628     41630     41628     41631
     41631     41632     41631     41633     41631     41634     41634     41635
     41634     41636     41634     41637     41637     41638     41637     41639
     41637     41640     41641     41642     41641     41643     41641     41644
     41641     41645     41645     41646     41645     41647     41645     41648
     41648     41649     41648     41650     41648     41655     41655     41651
     41651     41654     41651     41652     41651     41653     41656     41657
     41656     41658     41656     41659     41656     41654     41659     41660
     41659     41667     41659     41661     41667     41668     41667     41669
     41667     41670     41661     41662     41662     41664     41662     41663
     41664     41665     41664     41666     41664     41676     41676     41677
     41676     41678     41676     41679     41679     41680     41679     41681
     41679     41682     41682     41683     41682     41684     41682     41685
     41685     41686     41685     41687     41685     41688     41688     41689
     41688     41690     41688     41691     41691     41692     41691     41693
     41691     41694     41694     41695     41694     41699     41694     41696
     41699     41700     41699     41701     41699     41696     41701     41702
     41701     41703     41701     41704     41704     41705     41704     41706
     41704     41707     41707     41708     41707     41709     41707     41710
     41710     41711     41710     41712     41710     41713     41713     41714
     41713     41715     41713     41716     41716     41717     41716     41718
     41716     41719     41696     41697     41696     41698     41670     41671
     41671     41673     41671     41672     41673     41674     41673     41675
     41673     41720     41720     41721     41720     41722     41720     41723
     41723     41724     41723     41725     41723     41726     41726     41727
     41726     41728     41726     41729     41729     41730     41729     41731
     41729     41732     41732     41733     41732     41734     41732     41735
     41735     41736     41735     41737     41735     41738     41738     41739
     41738     41740     41738     41741     41741     41742     41741     41743
     41741     41744     41744     41745     41744     41746     41744     41747
     41747     41748     41747     41749     41747     41750     41750     41751
     41750     41752     41750     41753     41753     41754     41753     41755
     41753     41756     41756     41757     41756     41758     41756     41759
     41760     41761     41760     41762     41760     41763     41760     41764
     41764     41765     41764     41766     41764     41767     41767     41768
     41767     41769     41767     41774     41774     41770     41770     41773
     41770     41771     41770     41772     41775     41776     41775     41777
     41775     41778     41775     41773     41778     41779     41778     41786
     41778     41780     41786     41787     41786     41788     41786     41789
     41780     41781     41781     41783     41781     41782     41783     41784
     41783     41785     41783     41795     41795     41796     41795     41797
     41795     41798     41798     41799     41798     41800     41798     41801
     41801     41802     41801     41803     41801     41804     41804     41805
     41804     41806     41804     41807     41807     41808     41807     41809
     41807     41810     41810     41811     41810     41812     41810     41813
     41813     41814     41813     41818     41813     41815     41818     41819
     41818     41820     41818     41815     41820     41821     41820     41822
     41820     41823     41823     41824     41823     41825     41823     41826
     41826     41827     41826     41828     41826     41829     41829     41830
     41829     41831     41829     41832     41832     41833     41832     41834
     41832     41835     41835     41836     41835     41837     41835     41838
     41815     41816     41815     41817     41789     41790     41790     41792
     41790     41791     41792     41793     41792     41794     41792     41839
     41839     41840     41839     41841     41839     41842     41842     41843
     41842     41844     41842     41845     41845     41846     41845     41847
     41845     41848     41848     41849     41848     41850     41848     41851
     41851     41852     41851     41853     41851     41854     41854     41855
     41854     41856     41854     41857     41857     41858     41857     41859
     41857     41860     41860     41861     41860     41862     41860     41863
     41863     41864     41863     41865     41863     41866     41866     41867
     41866     41868     41866     41869     41869     41870     41869     41871
     41869     41872     41872     41873     41872     41874     41872     41875
     41875     41876     41875     41877     41875     41878     41878     41879
     41878     41880     41878     41881     41882     41883     41882     41884
     41882     41885     41882     41886     41886     41887     41886     41888
     41886     41889     41889     41890     41889     41891     41889     41896
     41896     41892     41892     41895     41892     41893     41892     41894
     41897     41898     41897     41899     41897     41900     41897     41895
     41900     41901     41900     41908     41900     41902     41908     41909
     41908     41910     41908     41911     41902     41903     41903     41905
     41903     41904     41905     41906     41905     41907     41905     41917
     41917     41918     41917     41919     41917     41920     41920     41921
     41920     41922     41920     41923     41923     41924     41923     41925
     41923     41926     41926     41927     41926     41928     41926     41929
     41929     41930     41929     41931     41929     41932     41932     41933
     41932     41934     41932     41935     41935     41936     41935     41937
     41937     41938     41937     41939     41939     41940     41939     41941
     41939     41942     41942     41943     41942     41944     41942     41945
     41945     41946     41945     41947     41945     41948     41948     41949
     41948     41950     41948     41951     41951     41952     41951     41953
     41951     41954     41954     41955     41954     41956     41954     41957
     41957     41958     41957     41959     41957     41960     41960     41961
     41960     41962     41960     41963     41911     41912     41912     41914
     41912     41913     41914     41915     41914     41916     41914     41964
     41964     41965     41964     41966     41964     41967     41967     41968
     41967     41969     41967     41970     41970     41971     41970     41972
     41970     41973     41973     41974     41973     41975     41973     41976
     41976     41977     41976     41978     41976     41979     41979     41980
     41979     41981     41979     41982     41982     41983     41982     41984
     41982     41985     41985     41986     41985     41987     41985     41988
     41988     41989     41988     41990     41988     41991     41991     41992
     41991     41993     41991     41994     41994     41995     41994     41996
     41994     41997     41997     41998     41997     41999     41997     42000
     42000     42001     42000     42002     42000     42003     42003     42004
     42003     42005     42003     42006     42007     42008     42007     42009
     42007     42010     42007     42011     42011     42012     42011     42013
     42011     42014     42014     42015     42014     42016     42014     42021
     42021     42017     42017     42020     42017     42018     42017     42019
     42022     42023     42022     42024     42022     42025     42022     42020
     42025     42026     42025     42033     42025     42027     42033     42034
     42033     42035     42033     42036     42027     42028     42028     42030
     42028     42029     42030     42031     42030     42032     42030     42042
     42042     42043     42042     42044     42042     42045     42045     42046
     42045     42047     42045     42048     42048     42049     42048     42050
     42048     42051     42051     42052     42051     42053     42051     42054
     42054     42055     42054     42056     42054     42057     42057     42058
     42057     42059     42057     42060     42060     42061     42060     42062
     42062     42063     42062     42064     42064     42065     42064     42066
     42064     42067     42067     42068     42067     42069     42067     42070
     42070     42071     42070     42072     42070     42073     42073     42074
     42073     42075     42073     42076     42076     42077     42076     42078
     42076     42079     42079     42080     42079     42081     42079     42082
     42082     42083     42082     42084     42082     42085     42085     42086
     42085     42087     42085     42088     42036     42037     42037     42039
     42037     42038     42039     42040     42039     42041     42039     42089
     42089     42090     42089     42091     42089     42092     42092     42093
     42092     42094     42092     42095     42095     42096     42095     42097
     42095     42098     42098     42099     42098     42100     42098     42101
     42101     42102     42101     42103     42101     42104     42104     42105
     42104     42106     42104     42107     42107     42108     42107     42109
     42107     42110     42110     42111     42110     42112     42110     42113
     42113     42114     42113     42115     42113     42116     42116     42117
     42116     42118     42116     42119     42119     42120     42119     42121
     42119     42122     42122     42123     42122     42124     42122     42125
     42125     42126     42125     42127     42125     42128     42128     42129
     42128     42130     42128     42131     42132     42133     42132     42134
     42132     42135     42132     42136     42136     42137     42136     42138
     42136     42139     42139     42140     42139     42141     42139     42146
     42146     42142     42142     42145     42142     42143     42142     42144
     42147     42148     42147     42149     42147     42150     42147     42145
     42150     42151     42150     42158     42150     42152     42158     42159
     42158     42160     42158     42161     42152     42153     42153     42155
     42153     42154     42155     42156     42155     42157     42155     42167
     42167     42168     42167     42169     42167     42170     42170     42171
     42170     42172     42170     42173     42173     42174     42173     42175
     42173     42176     42176     42177     42176     42178     42176     42179
     42179     42180     42179     42181     42179     42182     42182     42183
     42182     42184     42182     42185     42185     42186     42185     42190
     42185     42187     42190     42191     42190     42192     42190     42187
     42192     42193     42192     42194     42192     42195     42195     42196
     42195     42197     42195     42198     42198     42199     42198     42200
     42198     42201     42201     42202     42201     42203     42201     42204
     42204     42205     42204     42206     42204     42207     42207     42208
     42207     42209     42207     42210     42187     42188     42187     42189
     42161     42162     42162     42164     42162     42163     42164     42165
     42164     42166     42164     42211     42211     42212     42211     42213
     42211     42214     42214     42215     42214     42216     42214     42217
     42217     42218     42217     42219     42217     42220     42220     42221
     42220     42222     42220     42223     42223     42224     42223     42225
     42223     42226     42226     42227     42226     42228     42226     42229
     42229     42230     42229     42231     42229     42232     42232     42233
     42232     42234     42232     42235     42235     42236     42235     42237
     42235     42238     42238     42239     42238     42240     42238     42241
     42241     42242     42241     42243     42241     42244     42244     42245
     42244     42246     42244     42247     42247     42248     42247     42249
     42247     42250     42250     42251     42250     42252     42250     42253
     42254     42255     42254     42256     42254     42257     42254     42258
     42258     42259     42258     42260     42258     42261     42261     42262
     42261     42263     42261     42268     42268     42264     42264     42267
     42264     42265     42264     42266     42269     42270     42269     42271
     42269     42272     42269     42267     42272     42273     42272     42280
     42272     42274     42280     42281     42280     42282     42280     42283
     42274     42275     42275     42277     42275     42276     42277     42278
     42277     42279     42277     42289     42289     42290     42289     42291
     42289     42292     42292     42293     42292     42294     42292     42295
     42295     42296     42295     42297     42295     42298     42298     42299
     42298     42300     42298     42301     42301     42302     42301     42303
     42301     42304     42304     42305     42304     42306     42304     42307
     42307     42308     42307     42312     42307     42309     42312     42313
     42312     42314     42312     42309     42314     42315     42314     42316
     42314     42317     42317     42318     42317     42319     42317     42320
     42320     42321     42320     42322     42320     42323     42323     42324
     42323     42325     42323     42326     42326     42327     42326     42328
     42326     42329     42329     42330     42329     42331     42329     42332
     42309     42310     42309     42311     42283     42284     42284     42286
     42284     42285     42286     42287     42286     42288     42286     42333
     42333     42334     42333     42335     42333     42336     42336     42337
     42336     42338     42336     42339     42339     42340     42339     42341
     42339     42342     42342     42343     42342     42344     42342     42345
     42345     42346     42345     42347     42345     42348     42348     42349
     42348     42350     42348     42351     42351     42352     42351     42353
     42351     42354     42354     42355     42354     42356     42354     42357
     42357     42358     42357     42359     42357     42360     42360     42361
     42360     42362     42360     42363     42363     42364     42363     42365
     42363     42366     42366     42367     42366     42368     42366     42369
     42369     42370     42369     42371     42369     42372     42372     42373
     42372     42374     42372     42375     42376     42377     42376     42378
     42376     42379     42376     42380     42380     42381     42380     42382
     42380     42383     42383     42384     42383     42385     42383     42390
     42390     42386     42386     42389     42386     42387     42386     42388
     42391     42392     42391     42393     42391     42394     42391     42389
     42394     42395     42394     42402     42394     42396     42402     42403
     42402     42404     42402     42405     42396     42397     42397     42399
     42397     42398     42399     42400     42399     42401     42399     42411
     42411     42412     42411     42413     42411     42414     42414     42415
     42414     42416     42414     42417     42417     42418     42417     42419
     42417     42420     42420     42421     42420     42422     42420     42423
     42423     42424     42423     42425     42423     42426     42426     42427
     42426     42428     42426     42429     42429     42430     42429     42434
     42429     42431     42434     42435     42434     42436     42434     42431
     42436     42437     42436     42438     42436     42439     42439     42440
     42439     42441     42439     42442     42442     42443     42442     42444
     42442     42445     42445     42446     42445     42447     42445     42448
     42448     42449     42448     42450     42448     42451     42451     42452
     42451     42453     42451     42454     42431     42432     42431     42433
     42405     42406     42406     42408     42406     42407     42408     42409
     42408     42410     42408     42455     42455     42456     42455     42457
     42455     42458     42458     42459     42458     42460     42458     42461
     42461     42462     42461     42463     42461     42464     42464     42465
     42464     42466     42464     42467     42467     42468     42467     42469
     42467     42470     42470     42471     42470     42472     42470     42473
     42473     42474     42473     42475     42473     42476     42476     42477
     42476     42478     42476     42479     42479     42480     42479     42481
     42479     42482     42482     42483     42482     42484     42482     42485
     42485     42486     42485     42487     42485     42488     42488     42489
     42488     42490     42488     42491     42491     42492     42491     42493
     42491     42494     42494     42495     42494     42496     42494     42497
     42498     42499     42498     42500     42498     42501     42498     42502
     42502     42503     42502     42504     42502     42505     42505     42506
     42505     42507     42505     42512     42512     42508     42508     42511
     42508     42509     42508     42510     42513     42514     42513     42515
     42513     42516     42513     42511     42516     42517     42516     42524
     42516     42518     42524     42525     42524     42526     42524     42527
     42518     42519     42519     42521     42519     42520     42521     42522
     42521     42523     42521     42533     42533     42534     42533     42535
     42533     42536     42536     42537     42536     42538     42536     42539
     42539     42540     42539     42541     42539     42542     42542     42543
     42542     42544     42542     42545     42545     42546     42545     42547
     42545     42548     42548     42549     42548     42550     42548     42551
     42551     42552     42551     42556     42551     42553     42556     42557
     42556     42558     42556     42553     42558     42559     42558     42560
     42558     42561     42561     42562     42561     42563     42561     42564
     42564     42565     42564     42566     42564     42567     42567     42568
     42567     42569     42567     42570     42570     42571     42570     42572
     42570     42573     42573     42574     42573     42575     42573     42576
     42553     42554     42553     42555     42527     42528     42528     42530
     42528     42529     42530     42531     42530     42532     42530     42577
     42577     42578     42577     42579     42577     42580     42580     42581
     42580     42582     42580     42583     42583     42584     42583     42585
     42583     42586     42586     42587     42586     42588     42586     42589
     42589     42590     42589     42591     42589     42592     42592     42593
     42592     42594     42592     42595     42595     42596     42595     42597
     42595     42598     42598     42599     42598     42600     42598     42601
     42601     42602     42601     42603     42601     42604     42604     42605
     42604     42606     42604     42607     42607     42608     42607     42609
     42607     42610     42610     42611     42610     42612     42610     42613
     42613     42614     42613     42615     42613     42616     42616     42617
     42616     42618     42616     42619     42620     42621     42620     42622
     42620     42623     42620     42624     42624     42625     42624     42626
     42624     42627     42627     42628     42627     42629     42627     42634
     42634     42630     42630     42633     42630     42631     42630     42632
     42635     42636     42635     42637     42635     42638     42635     42633
     42638     42639     42638     42646     42638     42640     42646     42647
     42646     42648     42646     42649     42640     42641     42641     42643
     42641     42642     42643     42644     42643     42645     42643     42655
     42655     42656     42655     42657     42655     42658     42658     42659
     42658     42660     42658     42661     42661     42662     42661     42663
     42661     42664     42664     42665     42664     42666     42664     42667
     42667     42668     42667     42669     42667     42670     42670     42671
     42670     42672     42670     42673     42673     42674     42673     42678
     42673     42675     42678     42679     42678     42680     42678     42675
     42680     42681     42680     42682     42680     42683     42683     42684
     42683     42685     42683     42686     42686     42687     42686     42688
     42686     42689     42689     42690     42689     42691     42689     42692
     42692     42693     42692     42694     42692     42695     42695     42696
     42695     42697     42695     42698     42675     42676     42675     42677
     42649     42650     42650     42652     42650     42651     42652     42653
     42652     42654     42652     42699     42699     42700     42699     42701
     42699     42702     42702     42703     42702     42704     42702     42705
     42705     42706     42705     42707     42705     42708     42708     42709
     42708     42710     42708     42711     42711     42712     42711     42713
     42711     42714     42714     42715     42714     42716     42714     42717
     42717     42718     42717     42719     42717     42720     42720     42721
     42720     42722     42720     42723     42723     42724     42723     42725
     42723     42726     42726     42727     42726     42728     42726     42729
     42729     42730     42729     42731     42729     42732     42732     42733
     42732     42734     42732     42735     42735     42736     42735     42737
     42735     42738     42739     42740     42739     42741     42739     42742
     42739     42743     42743     42744     42743     42745     42743     42746
     42746     42747     42746     42748     42746     42753     42753     42749
     42749     42752     42749     42750     42749     42751     42754     42755
     42754     42756     42754     42757     42754     42752     42757     42758
     42757     42765     42757     42759     42765     42766     42765     42767
     42765     42768     42759     42760     42760     42762     42760     42761
     42762     42763     42762     42764     42762     42774     42774     42775
     42774     42776     42774     42777     42777     42778     42777     42779
     42777     42780     42780     42781     42780     42782     42780     42783
     42783     42784     42783     42785     42783     42786     42786     42787
     42786     42788     42786     42789     42789     42790     42789     42791
     42789     42792     42792     42793     42792     42794     42794     42795
     42794     42796     42796     42797     42796     42798     42796     42799
     42799     42800     42799     42801     42799     42802     42802     42803
     42802     42804     42802     42805     42805     42806     42805     42807
     42805     42808     42808     42809     42808     42810     42808     42811
     42811     42812     42811     42813     42811     42814     42768     42769
     42769     42771     42769     42770     42771     42772     42771     42773
     42771     42815     42815     42816     42815     42817     42815     42818
     42818     42819     42818     42820     42818     42821     42821     42822
     42821     42823     42821     42824     42824     42825     42824     42826
     42824     42827     42827     42828     42827     42829     42827     42830
     42830     42831     42830     42832     42830     42833     42833     42834
     42833     42835     42835     42836     42835     42837     42837     42838
     42837     42839     42837     42840     42840     42841     42840     42842
     42840     42843     42843     42844     42843     42845     42843     42846
     42846     42847     42846     42848     42846     42849     42849     42850
     42849     42851     42849     42852     42852     42853     42852     42854
     42852     42855     42855     42856     42855     42857     42855     42858
     42858     42859     42858     42860     42858     42861     42862     42863
     42862     42864     42862     42865     42862     42866     42866     42867
     42866     42868     42866     42869     42869     42870     42869     42871
     42869     42876     42876     42872     42872     42875     42872     42873
     42872     42874     42877     42878     42877     42879     42877     42880
     42877     42875     42880     42881     42880     42888     42880     42882
     42888     42889     42888     42890     42888     42891     42882     42883
     42883     42885     42883     42884     42885     42886     42885     42887
     42885     42897     42897     42898     42897     42899     42897     42900
     42900     42901     42900     42902     42900     42903     42903     42904
     42903     42905     42903     42906     42906     42907     42906     42908
     42906     42909     42909     42910     42909     42911     42909     42912
     42912     42913     42912     42914     42912     42915     42915     42916
     42915     42917     42917     42918     42917     42919     42919     42920
     42919     42921     42919     42922     42922     42923     42922     42924
     42922     42925     42925     42926     42925     42927     42925     42928
     42928     42929     42928     42930     42928     42931     42931     42932
     42931     42933     42931     42934     42934     42935     42934     42936
     42934     42937     42937     42938     42937     42939     42937     42940
     42940     42941     42940     42942     42940     42943     42891     42892
     42892     42894     42892     42893     42894     42895     42894     42896
     42894     42944     42944     42945     42944     42946     42944     42947
     42947     42948     42947     42949     42947     42950     42950     42951
     42950     42952     42950     42953     42953     42954     42953     42955
     42953     42956     42956     42957     42956     42958     42956     42959
     42959     42960     42959     42961     42959     42962     42962     42963
     42962     42964     42962     42965     42965     42966     42965     42967
     42965     42968     42968     42969     42968     42970     42968     42971
     42971     42972     42971     42973     42971     42974     42974     42975
     42974     42976     42974     42977     42977     42978     42977     42979
     42977     42980     42980     42981     42980     42982     42980     42983
     42983     42984     42983     42985     42983     42986     42987     42988
     42987     42989     42987     42990     42987     42991     42991     42992
     42991     42993     42991     42994     42994     42995     42994     42996
     42994     43001     43001     42997     42997     43000     42997     42998
     42997     42999     43002     43003     43002     43004     43002     43005
     43002     43000     43005     43006     43005     43013     43005     43007
     43013     43014     43013     43015     43013     43016     43007     43008
     43008     43010     43008     43009     43010     43011     43010     43012
     43010     43022     43022     43023     43022     43024     43022     43025
     43025     43026     43025     43027     43025     43028     43028     43029
     43028     43030     43028     43031     43031     43032     43031     43033
     43031     43034     43034     43035     43034     43036     43034     43037
     43037     43038     43037     43039     43037     43040     43040     43041
     43040     43042     43042     43043     43042     43044     43044     43045
     43044     43046     43044     43047     43047     43048     43047     43049
     43047     43050     43050     43051     43050     43052     43050     43053
     43053     43054     43053     43055     43053     43056     43056     43057
     43056     43058     43056     43059     43059     43060     43059     43061
     43059     43062     43062     43063     43062     43064     43062     43065
     43065     43066     43065     43067     43065     43068     43016     43017
     43017     43019     43017     43018     43019     43020     43019     43021
     43019     43069     43069     43070     43069     43071     43069     43072
     43072     43073     43072     43074     43072     43075     43075     43076
     43075     43077     43075     43078     43078     43079     43078     43080
     43078     43081     43081     43082     43081     43083     43081     43084
     43084     43085     43084     43086     43084     43087     43087     43088
     43087     43089     43087     43090     43090     43091     43090     43092
     43090     43093     43093     43094     43093     43095     43093     43096
     43096     43097     43096     43098     43096     43099     43099     43100
     43099     43101     43099     43102     43102     43103     43102     43104
     43102     43105     43105     43106     43105     43107     43105     43108
     43108     43109     43108     43110     43108     43111     43116     43115
     43115     43112     43112     43113     43112     43114     43112     43117
     43120     43119     43119     43117     43117     43118     43117     43121
     43121     43122     43121     43123     43121     43128     43128     43124
     43124     43127     43124     43125     43124     43126     43129     43130
     43129     43131     43129     43132     43129     43127     43132     43133
     43132     43140     43132     43134     43140     43141     43140     43142
     43140     43143     43134     43135     43135     43137     43135     43136
     43137     43138     43137     43139     43137     43149     43149     43150
     43149     43151     43149     43152     43152     43153     43152     43154
     43152     43155     43155     43156     43155     43157     43155     43158
     43158     43159     43158     43160     43158     43161     43161     43162
     43161     43163     43161     43164     43164     43165     43164     43166
     43164     43167     43167     43168     43167     43169     43169     43170
     43169     43171     43171     43172     43171     43173     43171     43174
     43174     43175     43174     43176     43174     43177     43177     43178
     43177     43179     43177     43180     43180     43181     43180     43182
     43180     43183     43183     43184     43183     43185     43183     43186
     43186     43187     43186     43188     43186     43189     43143     43144
     43144     43146     43144     43145     43146     43147     43146     43148
     43146     43190     43190     43191     43190     43192     43190     43193
     43193     43194     43193     43195     43193     43196     43196     43197
     43196     43198     43196     43199     43199     43200     43199     43201
     43199     43202     43202     43203     43202     43204     43202     43205
     43205     43206     43205     43207     43205     43208     43208     43209
     43208     43210     43208     43211     43211     43212     43211     43213
     43211     43214     43214     43215     43214     43216     43214     43217
     43217     43218     43217     43219     43217     43220     43220     43221
     43220     43222     43220     43223     43223     43224     43223     43225
     43223     43226     43226     43227     43226     43228     43226     43229
     43229     43230     43229     43231     43229     43232     43233     43234
     43233     43235     43233     43236     43233     43237     43237     43238
     43237     43239     43237     43240     43240     43241     43240     43242
     43240     43247     43247     43243     43243     43246     43243     43244
     43243     43245     43248     43249     43248     43250     43248     43251
     43248     43246     43251     43252     43251     43259     43251     43253
     43259     43260     43259     43261     43259     43262     43253     43254
     43254     43256     43254     43255     43256     43257     43256     43258
     43256     43268     43268     43269     43268     43270     43268     43271
     43271     43272     43271     43273     43271     43274     43274     43275
     43274     43276     43274     43277     43277     43278     43277     43279
     43277     43280     43280     43281     43280     43282     43280     43283
     43283     43284     43283     43285     43283     43286     43286     43287
     43286     43291     43286     43288     43291     43292     43291     43293
     43291     43288     43293     43294     43293     43295     43293     43296
     43296     43297     43296     43298     43296     43299     43299     43300
     43299     43301     43299     43302     43302     43303     43302     43304
     43302     43305     43305     43306     43305     43307     43305     43308
     43308     43309     43308     43310     43308     43311     43288     43289
     43288     43290     43262     43263     43263     43265     43263     43264
     43265     43266     43265     43267     43265     43312     43312     43313
     43312     43314     43312     43315     43315     43316     43315     43317
     43315     43318     43318     43319     43318     43320     43318     43321
     43321     43322     43321     43323     43321     43324     43324     43325
     43324     43326     43324     43327     43327     43328     43327     43329
     43327     43330     43330     43331     43330     43332     43330     43333
     43333     43334     43333     43335     43333     43336     43336     43337
     43336     43338     43336     43339     43339     43340     43339     43341
     43339     43342     43342     43343     43342     43344     43342     43345
     43345     43346     43345     43347     43345     43348     43348     43349
     43348     43350     43348     43351     43351     43352     43351     43353
     43351     43354     43355     43356     43355     43357     43355     43358
     43355     43359     43359     43360     43359     43361     43359     43362
     43362     43363     43362     43364     43362     43369     43369     43365
     43365     43368     43365     43366     43365     43367     43370     43371
     43370     43372     43370     43373     43370     43368     43373     43374
     43373     43381     43373     43375     43381     43382     43381     43383
     43381     43384     43375     43376     43376     43378     43376     43377
     43378     43379     43378     43380     43378     43390     43390     43391
     43390     43392     43390     43393     43393     43394     43393     43395
     43393     43396     43396     43397     43396     43398     43396     43399
     43399     43400     43399     43401     43399     43402     43402     43403
     43402     43404     43402     43405     43405     43406     43405     43407
     43405     43408     43408     43409     43408     43410     43410     43411
     43410     43412     43412     43413     43412     43414     43412     43415
     43415     43416     43415     43417     43415     43418     43418     43419
     43418     43420     43418     43421     43421     43422     43421     43423
     43421     43424     43424     43425     43424     43426     43424     43427
     43427     43428     43427     43429     43427     43430     43430     43431
     43430     43432     43430     43433     43433     43434     43433     43435
     43433     43436     43384     43385     43385     43387     43385     43386
     43387     43388     43387     43389     43387     43437     43437     43438
     43437     43439     43437     43440     43440     43441     43440     43442
     43440     43443     43443     43444     43443     43445     43443     43446
     43446     43447     43446     43448     43446     43449     43449     43450
     43449     43451     43449     43452     43452     43453     43452     43454
     43452     43455     43455     43456     43455     43457     43455     43458
     43458     43459     43458     43460     43458     43461     43461     43462
     43461     43463     43461     43464     43464     43465     43464     43466
     43464     43467     43467     43468     43467     43469     43467     43470
     43470     43471     43470     43472     43470     43473     43473     43474
     43473     43475     43473     43476     43476     43477     43476     43478
     43476     43479     43480     43481     43480     43482     43480     43483
     43480     43484     43484     43485     43484     43486     43484     43487
     43487     43488     43487     43489     43487     43494     43494     43490
     43490     43493     43490     43491     43490     43492     43495     43496
     43495     43497     43495     43498     43495     43493     43498     43499
     43498     43506     43498     43500     43506     43507     43506     43508
     43506     43509     43500     43501     43501     43503     43501     43502
     43503     43504     43503     43505     43503     43515     43515     43516
     43515     43517     43515     43518     43518     43519     43518     43520
     43518     43521     43521     43522     43521     43523     43521     43524
     43524     43525     43524     43526     43524     43527     43527     43528
     43527     43529     43527     43530     43530     43531     43530     43532
     43530     43533     43533     43534     43533     43538     43533     43535
     43538     43539     43538     43540     43538     43535     43540     43541
     43540     43542     43540     43543     43543     43544     43543     43545
     43543     43546     43546     43547     43546     43548     43546     43549
     43549     43550     43549     43551     43549     43552     43552     43553
     43552     43554     43552     43555     43555     43556     43555     43557
     43555     43558     43535     43536     43535     43537     43509     43510
     43510     43512     43510     43511     43512     43513     43512     43514
     43512     43559     43559     43560     43559     43561     43559     43562
     43562     43563     43562     43564     43562     43565     43565     43566
     43565     43567     43565     43568     43568     43569     43568     43570
     43568     43571     43571     43572     43571     43573     43571     43574
     43574     43575     43574     43576     43574     43577     43577     43578
     43577     43579     43577     43580     43580     43581     43580     43582
     43580     43583     43583     43584     43583     43585     43583     43586
     43586     43587     43586     43588     43586     43589     43589     43590
     43589     43591     43589     43592     43592     43593     43592     43594
     43592     43595     43595     43596     43595     43597     43595     43598
     43599     43600     43599     43601     43599     43602     43599     43603
     43603     43604     43603     43605     43603     43606     43606     43607
     43606     43608     43606     43613     43613     43609     43609     43612
     43609     43610     43609     43611     43614     43615     43614     43616
     43614     43617     43614     43612     43617     43618     43617     43625
     43617     43619     43625     43626     43625     43627     43625     43628
     43619     43620     43620     43622     43620     43621     43622     43623
     43622     43624     43622     43634     43634     43635     43634     43636
     43634     43637     43637     43638     43637     43639     43637     43640
     43640     43641     43640     43642     43640     43643     43643     43644
     43643     43645     43643     43646     43646     43647     43646     43648
     43646     43649     43649     43650     43649     43651     43649     43652
     43652     43653     43652     43654     43654     43655     43654     43656
     43656     43657     43656     43658     43656     43659     43659     43660
     43659     43661     43659     43662     43662     43663     43662     43664
     43662     43665     43665     43666     43665     43667     43665     43668
     43668     43669     43668     43670     43668     43671     43671     43672
     43671     43673     43671     43674     43674     43675     43674     43676
     43674     43677     43677     43678     43677     43679     43677     43680
     43628     43629     43629     43631     43629     43630     43631     43632
     43631     43633     43631     43681     43681     43682     43681     43683
     43681     43684     43684     43685     43684     43686     43684     43687
     43687     43688     43687     43689     43687     43690     43690     43691
     43690     43692     43690     43693     43693     43694     43693     43695
     43693     43696     43696     43697     43696     43698     43696     43699
     43699     43700     43699     43701     43699     43702     43702     43703
     43702     43704     43702     43705     43705     43706     43705     43707
     43705     43708     43708     43709     43708     43710     43708     43711
     43711     43712     43711     43713     43711     43714     43714     43715
     43714     43716     43714     43717     43717     43718     43717     43719
     43717     43720     43720     43721     43720     43722     43720     43723
     43724     43725     43724     43726     43724     43727     43724     43728
     43728     43729     43728     43730     43728     43731     43731     43732
     43731     43733     43731     43738     43738     43734     43734     43737
     43734     43735     43734     43736     43739     43740     43739     43741
     43739     43742     43739     43737     43742     43743     43742     43750
     43742     43744     43750     43751     43750     43752     43750     43753
     43744     43745     43745     43747     43745     43746     43747     43748
     43747     43749     43747     43759     43759     43760     43759     43761
     43759     43762     43762     43763     43762     43764     43762     43765
     43765     43766     43765     43767     43765     43768     43768     43769
     43768     43770     43768     43771     43771     43772     43771     43773
     43771     43774     43774     43775     43774     43776     43774     43777
     43777     43778     43777     43782     43777     43779     43782     43783
     43782     43784     43782     43779     43784     43785     43784     43786
     43784     43787     43787     43788     43787     43789     43787     43790
     43790     43791     43790     43792     43790     43793     43793     43794
     43793     43795     43793     43796     43796     43797     43796     43798
     43796     43799     43799     43800     43799     43801     43799     43802
     43779     43780     43779     43781     43753     43754     43754     43756
     43754     43755     43756     43757     43756     43758     43756     43803
     43803     43804     43803     43805     43803     43806     43806     43807
     43806     43808     43806     43809     43809     43810     43809     43811
     43809     43812     43812     43813     43812     43814     43812     43815
     43815     43816     43815     43817     43815     43818     43818     43819
     43818     43820     43818     43821     43821     43822     43821     43823
     43821     43824     43824     43825     43824     43826     43824     43827
     43827     43828     43827     43829     43827     43830     43830     43831
     43830     43832     43830     43833     43833     43834     43833     43835
     43833     43836     43836     43837     43836     43838     43836     43839
     43839     43840     43839     43841     43839     43842     43842     43843
     43842     43844     43842     43845     43850     43849     43849     43846
     43846     43847     43846     43848     43846     43851     43854     43853
     43853     43851     43851     43852     43851     43855     43855     43856
     43855     43857     43855     43862     43862     43858     43858     43861
     43858     43859     43858     43860     43863     43864     43863     43865
     43863     43866     43863     43861     43866     43867     43866     43874
     43866     43868     43874     43875     43874     43876     43874     43877
     43868     43869     43869     43871     43869     43870     43871     43872
     43871     43873     43871     43883     43883     43884     43883     43885
     43883     43886     43886     43887     43886     43888     43886     43889
     43889     43890     43889     43891     43889     43892     43892     43893
     43892     43894     43892     43895     43895     43896     43895     43897
     43895     43898     43898     43899     43898     43900     43898     43901
     43901     43902     43901     43906     43901     43903     43906     43907
     43906     43908     43906     43903     43908     43909     43908     43910
     43908     43911     43911     43912     43911     43913     43911     43914
     43914     43915     43914     43916     43914     43917     43917     43918
     43917     43919     43917     43920     43920     43921     43920     43922
     43920     43923     43923     43924     43923     43925     43923     43926
     43903     43904     43903     43905     43877     43878     43878     43880
     43878     43879     43880     43881     43880     43882     43880     43927
     43927     43928     43927     43929     43927     43930     43930     43931
     43930     43932     43930     43933     43933     43934     43933     43935
     43933     43936     43936     43937     43936     43938     43936     43939
     43939     43940     43939     43941     43939     43942     43942     43943
     43942     43944     43942     43945     43945     43946     43945     43947
     43945     43948     43948     43949     43948     43950     43948     43951
     43951     43952     43951     43953     43951     43954     43954     43955
     43954     43956     43954     43957     43957     43958     43957     43959
     43957     43960     43960     43961     43960     43962     43960     43963
     43963     43964     43963     43965     43963     43966     43966     43967
     43966     43968     43966     43969     43970     43971     43970     43972
     43970     43973     43970     43974     43974     43975     43974     43976
     43974     43977     43977     43978     43977     43979     43977     43984
     43984     43980     43980     43983     43980     43981     43980     43982
     43985     43986     43985     43987     43985     43988     43985     43983
     43988     43989     43988     43996     43988     43990     43996     43997
     43996     43998     43996     43999     43990     43991     43991     43993
     43991     43992     43993     43994     43993     43995     43993     44005
     44005     44006     44005     44007     44005     44008     44008     44009
     44008     44010     44008     44011     44011     44012     44011     44013
     44011     44014     44014     44015     44014     44016     44014     44017
     44017     44018     44017     44019     44017     44020     44020     44021
     44020     44022     44020     44023     44023     44024     44023     44028
     44023     44025     44028     44029     44028     44030     44028     44025
     44030     44031     44030     44032     44030     44033     44033     44034
     44033     44035     44033     44036     44036     44037     44036     44038
     44036     44039     44039     44040     44039     44041     44039     44042
     44042     44043     44042     44044     44042     44045     44045     44046
     44045     44047     44045     44048     44025     44026     44025     44027
     43999     44000     44000     44002     44000     44001     44002     44003
     44002     44004     44002     44049     44049     44050     44049     44051
     44049     44052     44052     44053     44052     44054     44052     44055
     44055     44056     44055     44057     44055     44058     44058     44059
     44058     44060     44058     44061     44061     44062     44061     44063
     44061     44064     44064     44065     44064     44066     44064     44067
     44067     44068     44067     44069     44067     44070     44070     44071
     44070     44072     44070     44073     44073     44074     44073     44075
     44073     44076     44076     44077     44076     44078     44076     44079
     44079     44080     44079     44081     44079     44082     44082     44083
     44082     44084     44082     44085     44085     44086     44085     44087
     44085     44088     44088     44089     44088     44090     44088     44091
     44096     44095     44095     44092     44092     44093     44092     44094
     44092     44097     44100     44099     44099     44097     44097     44098
     44097     44101     44101     44102     44101     44103     44101     44108
     44108     44104     44104     44107     44104     44105     44104     44106
     44109     44110     44109     44111     44109     44112     44109     44107
     44112     44113     44112     44120     44112     44114     44120     44121
     44120     44122     44120     44123     44114     44115     44115     44117
     44115     44116     44117     44118     44117     44119     44117     44129
     44129     44130     44129     44131     44129     44132     44132     44133
     44132     44134     44132     44135     44135     44136     44135     44137
     44135     44138     44138     44139     44138     44140     44138     44141
     44141     44142     44141     44143     44141     44144     44144     44145
     44144     44146     44144     44147     44147     44148     44147     44149
     44149     44150     44149     44151     44151     44152     44151     44153
     44151     44154     44154     44155     44154     44156     44154     44157
     44157     44158     44157     44159     44157     44160     44160     44161
     44160     44162     44160     44163     44163     44164     44163     44165
     44163     44166     44166     44167     44166     44168     44166     44169
     44123     44124     44124     44126     44124     44125     44126     44127
     44126     44128     44126     44170     44170     44171     44170     44172
     44170     44173     44173     44174     44173     44175     44173     44176
     44176     44177     44176     44178     44176     44179     44179     44180
     44179     44181     44179     44182     44182     44183     44182     44184
     44182     44185     44185     44186     44185     44187     44185     44188
     44188     44189     44188     44190     44188     44191     44191     44192
     44191     44193     44191     44194     44194     44195     44194     44196
     44194     44197     44197     44198     44197     44199     44197     44200
     44200     44201     44200     44202     44200     44203     44203     44204
     44203     44205     44203     44206     44206     44207     44206     44208
     44206     44209     44209     44210     44209     44211     44209     44212
     44213     44214     44213     44215     44213     44216     44213     44217
     44217     44218     44217     44219     44217     44220     44220     44221
     44220     44222     44220     44227     44227     44223     44223     44226
     44223     44224     44223     44225     44228     44229     44228     44230
     44228     44231     44228     44226     44231     44232     44231     44239
     44231     44233     44239     44240     44239     44241     44239     44242
     44233     44234     44234     44236     44234     44235     44236     44237
     44236     44238     44236     44248     44248     44249     44248     44250
     44248     44251     44251     44252     44251     44253     44251     44254
     44254     44255     44254     44256     44254     44257     44257     44258
     44257     44259     44257     44260     44260     44261     44260     44262
     44260     44263     44263     44264     44263     44265     44263     44266
     44266     44267     44266     44271     44266     44268     44271     44272
     44271     44273     44271     44268     44273     44274     44273     44275
     44273     44276     44276     44277     44276     44278     44276     44279
     44279     44280     44279     44281     44279     44282     44282     44283
     44282     44284     44282     44285     44285     44286     44285     44287
     44285     44288     44288     44289     44288     44290     44288     44291
     44268     44269     44268     44270     44242     44243     44243     44245
     44243     44244     44245     44246     44245     44247     44245     44292
     44292     44293     44292     44294     44292     44295     44295     44296
     44295     44297     44295     44298     44298     44299     44298     44300
     44298     44301     44301     44302     44301     44303     44301     44304
     44304     44305     44304     44306     44304     44307     44307     44308
     44307     44309     44307     44310     44310     44311     44310     44312
     44310     44313     44313     44314     44313     44315     44313     44316
     44316     44317     44316     44318     44316     44319     44319     44320
     44319     44321     44319     44322     44322     44323     44322     44324
     44322     44325     44325     44326     44325     44327     44325     44328
     44328     44329     44328     44330     44328     44331     44331     44332
     44331     44333     44331     44334     44339     44338     44338     44335
     44335     44336     44335     44337     44335     44340     44343     44342
     44342     44340     44340     44341     44340     44344     44344     44345
     44344     44346     44344     44351     44351     44347     44347     44350
     44347     44348     44347     44349     44352     44353     44352     44354
     44352     44355     44352     44350     44355     44356     44355     44363
     44355     44357     44363     44364     44363     44365     44363     44366
     44357     44358     44358     44360     44358     44359     44360     44361
     44360     44362     44360     44372     44372     44373     44372     44374
     44372     44375     44375     44376     44375     44377     44375     44378
     44378     44379     44378     44380     44378     44381     44381     44382
     44381     44383     44381     44384     44384     44385     44384     44386
     44384     44387     44387     44388     44387     44389     44387     44390
     44390     44391     44390     44395     44390     44392     44395     44396
     44395     44397     44395     44392     44397     44398     44397     44399
     44397     44400     44400     44401     44400     44402     44400     44403
     44403     44404     44403     44405     44403     44406     44406     44407
     44406     44408     44406     44409     44409     44410     44409     44411
     44409     44412     44412     44413     44412     44414     44412     44415
     44392     44393     44392     44394     44366     44367     44367     44369
     44367     44368     44369     44370     44369     44371     44369     44416
     44416     44417     44416     44418     44416     44419     44419     44420
     44419     44421     44419     44422     44422     44423     44422     44424
     44422     44425     44425     44426     44425     44427     44425     44428
     44428     44429     44428     44430     44428     44431     44431     44432
     44431     44433     44431     44434     44434     44435     44434     44436
     44434     44437     44437     44438     44437     44439     44437     44440
     44440     44441     44440     44442     44440     44443     44443     44444
     44443     44445     44443     44446     44446     44447     44446     44448
     44446     44449     44449     44450     44449     44451     44449     44452
     44452     44453     44452     44454     44452     44455     44455     44456
     44455     44457     44455     44458     44459     44460     44459     44461
     44459     44462     44459     44463     44463     44464     44463     44465
     44463     44466     44466     44467     44466     44468     44466     44473
     44473     44469     44469     44472     44469     44470     44469     44471
     44474     44475     44474     44476     44474     44477     44474     44472
     44477     44478     44477     44485     44477     44479     44485     44486
     44485     44487     44485     44488     44479     44480     44480     44482
     44480     44481     44482     44483     44482     44484     44482     44494
     44494     44495     44494     44496     44494     44497     44497     44498
     44497     44499     44497     44500     44500     44501     44500     44502
     44500     44503     44503     44504     44503     44505     44503     44506
     44506     44507     44506     44508     44506     44509     44509     44510
     44509     44511     44509     44512     44512     44513     44512     44517
     44512     44514     44517     44518     44517     44519     44517     44514
     44519     44520     44519     44521     44519     44522     44522     44523
     44522     44524     44522     44525     44525     44526     44525     44527
     44525     44528     44528     44529     44528     44530     44528     44531
     44531     44532     44531     44533     44531     44534     44534     44535
     44534     44536     44534     44537     44514     44515     44514     44516
     44488     44489     44489     44491     44489     44490     44491     44492
     44491     44493     44491     44538     44538     44539     44538     44540
     44538     44541     44541     44542     44541     44543     44541     44544
     44544     44545     44544     44546     44544     44547     44547     44548
     44547     44549     44547     44550     44550     44551     44550     44552
     44550     44553     44553     44554     44553     44555     44553     44556
     44556     44557     44556     44558     44556     44559     44559     44560
     44559     44561     44559     44562     44562     44563     44562     44564
     44562     44565     44565     44566     44565     44567     44565     44568
     44568     44569     44568     44570     44568     44571     44571     44572
     44571     44573     44571     44574     44574     44575     44574     44576
     44574     44577     44577     44578     44577     44579     44577     44580
     44581     44582     44581     44583     44581     44584     44581     44585
     44585     44586     44585     44587     44585     44588     44588     44589
     44588     44590     44588     44595     44595     44591     44591     44594
     44591     44592     44591     44593     44596     44597     44596     44598
     44596     44599     44596     44594     44599     44600     44599     44607
     44599     44601     44607     44608     44607     44609     44607     44610
     44601     44602     44602     44604     44602     44603     44604     44605
     44604     44606     44604     44616     44616     44617     44616     44618
     44616     44619     44619     44620     44619     44621     44619     44622
     44622     44623     44622     44624     44622     44625     44625     44626
     44625     44627     44625     44628     44628     44629     44628     44630
     44628     44631     44631     44632     44631     44633     44631     44634
     44634     44635     44634     44639     44634     44636     44639     44640
     44639     44641     44639     44636     44641     44642     44641     44643
     44641     44644     44644     44645     44644     44646     44644     44647
     44647     44648     44647     44649     44647     44650     44650     44651
     44650     44652     44650     44653     44653     44654     44653     44655
     44653     44656     44656     44657     44656     44658     44656     44659
     44636     44637     44636     44638     44610     44611     44611     44613
     44611     44612     44613     44614     44613     44615     44613     44660
     44660     44661     44660     44662     44660     44663     44663     44664
     44663     44665     44663     44666     44666     44667     44666     44668
     44666     44669     44669     44670     44669     44671     44669     44672
     44672     44673     44672     44674     44672     44675     44675     44676
     44675     44677     44675     44678     44678     44679     44678     44680
     44678     44681     44681     44682     44681     44683     44681     44684
     44684     44685     44684     44686     44684     44687     44687     44688
     44687     44689     44687     44690     44690     44691     44690     44692
     44690     44693     44693     44694     44693     44695     44693     44696
     44696     44697     44696     44698     44696     44699     44699     44700
     44699     44701     44699     44702     44707     44706     44706     44703
     44703     44704     44703     44705     44703     44708     44711     44710
     44710     44708     44708     44709     44708     44712     44712     44713
     44712     44714     44712     44719     44719     44715     44715     44718
     44715     44716     44715     44717     44720     44721     44720     44722
     44720     44723     44720     44718     44723     44724     44723     44731
     44723     44725     44731     44732     44731     44733     44731     44734
     44725     44726     44726     44728     44726     44727     44728     44729
     44728     44730     44728     44740     44740     44741     44740     44742
     44740     44743     44743     44744     44743     44745     44743     44746
     44746     44747     44746     44748     44746     44749     44749     44750
     44749     44751     44749     44752     44752     44753     44752     44754
     44752     44755     44755     44756     44755     44757     44755     44758
     44758     44759     44758     44760     44760     44761     44760     44762
     44762     44763     44762     44764     44762     44765     44765     44766
     44765     44767     44765     44768     44768     44769     44768     44770
     44768     44771     44771     44772     44771     44773     44771     44774
     44774     44775     44774     44776     44774     44777     44777     44778
     44777     44779     44777     44780     44734     44735     44735     44737
     44735     44736     44737     44738     44737     44739     44737     44781
     44781     44782     44781     44783     44781     44784     44784     44785
     44784     44786     44784     44787     44787     44788     44787     44789
     44787     44790     44790     44791     44790     44792     44790     44793
     44793     44794     44793     44795     44793     44796     44796     44797
     44796     44798     44796     44799     44799     44800     44799     44801
     44799     44802     44802     44803     44802     44804     44802     44805
     44805     44806     44805     44807     44805     44808     44808     44809
     44808     44810     44808     44811     44811     44812     44811     44813
     44811     44814     44814     44815     44814     44816     44814     44817
     44817     44818     44817     44819     44817     44820     44820     44821
     44820     44822     44820     44823     44824     44825     44824     44826
     44824     44827     44824     44828     44828     44829     44828     44830
     44828     44831     44831     44832     44831     44833     44831     44838
     44838     44834     44834     44837     44834     44835     44834     44836
     44839     44840     44839     44841     44839     44842     44839     44837
     44842     44843     44842     44850     44842     44844     44850     44851
     44850     44852     44850     44853     44844     44845     44845     44847
     44845     44846     44847     44848     44847     44849     44847     44859
     44859     44860     44859     44861     44859     44862     44862     44863
     44862     44864     44862     44865     44865     44866     44865     44867
     44865     44868     44868     44869     44868     44870     44868     44871
     44871     44872     44871     44873     44871     44874     44874     44875
     44874     44876     44874     44877     44877     44878     44877     44882
     44877     44879     44882     44883     44882     44884     44882     44879
     44884     44885     44884     44886     44884     44887     44887     44888
     44887     44889     44887     44890     44890     44891     44890     44892
     44890     44893     44893     44894     44893     44895     44893     44896
     44896     44897     44896     44898     44896     44899     44899     44900
     44899     44901     44899     44902     44879     44880     44879     44881
     44853     44854     44854     44856     44854     44855     44856     44857
     44856     44858     44856     44903     44903     44904     44903     44905
     44903     44906     44906     44907     44906     44908     44906     44909
     44909     44910     44909     44911     44909     44912     44912     44913
     44912     44914     44912     44915     44915     44916     44915     44917
     44915     44918     44918     44919     44918     44920     44918     44921
     44921     44922     44921     44923     44921     44924     44924     44925
     44924     44926     44924     44927     44927     44928     44927     44929
     44927     44930     44930     44931     44930     44932     44930     44933
     44933     44934     44933     44935     44933     44936     44936     44937
     44936     44938     44936     44939     44939     44940     44939     44941
     44939     44942     44942     44943     44942     44944     44942     44945
     44946     44947     44946     44948     44946     44949     44946     44950
     44950     44951     44950     44952     44950     44953     44953     44954
     44953     44955     44953     44960     44960     44956     44956     44959
     44956     44957     44956     44958     44961     44962     44961     44963
     44961     44964     44961     44959     44964     44965     44964     44972
     44964     44966     44972     44973     44972     44974     44972     44975
     44966     44967     44967     44969     44967     44968     44969     44970
     44969     44971     44969     44981     44981     44982     44981     44983
     44981     44984     44984     44985     44984     44986     44984     44987
     44987     44988     44987     44989     44987     44990     44990     44991
     44990     44992     44990     44993     44993     44994     44993     44995
     44993     44996     44996     44997     44996     44998     44996     44999
     44999     45000     44999     45004     44999     45001     45004     45005
     45004     45006     45004     45001     45006     45007     45006     45008
     45006     45009     45009     45010     45009     45011     45009     45012
     45012     45013     45012     45014     45012     45015     45015     45016
     45015     45017     45015     45018     45018     45019     45018     45020
     45018     45021     45021     45022     45021     45023     45021     45024
     45001     45002     45001     45003     44975     44976     44976     44978
     44976     44977     44978     44979     44978     44980     44978     45025
     45025     45026     45025     45027     45025     45028     45028     45029
     45028     45030     45028     45031     45031     45032     45031     45033
     45031     45034     45034     45035     45034     45036     45034     45037
     45037     45038     45037     45039     45037     45040     45040     45041
     45040     45042     45040     45043     45043     45044     45043     45045
     45043     45046     45046     45047     45046     45048     45046     45049
     45049     45050     45049     45051     45049     45052     45052     45053
     45052     45054     45052     45055     45055     45056     45055     45057
     45055     45058     45058     45059     45058     45060     45058     45061
     45061     45062     45061     45063     45061     45064     45064     45065
     45064     45066     45064     45067     45068     45069     45068     45070
     45068     45071     45068     45072     45072     45073     45072     45074
     45072     45075     45075     45076     45075     45077     45075     45082
     45082     45078     45078     45081     45078     45079     45078     45080
     45083     45084     45083     45085     45083     45086     45083     45081
     45086     45087     45086     45094     45086     45088     45094     45095
     45094     45096     45094     45097     45088     45089     45089     45091
     45089     45090     45091     45092     45091     45093     45091     45103
     45103     45104     45103     45105     45103     45106     45106     45107
     45106     45108     45106     45109     45109     45110     45109     45111
     45109     45112     45112     45113     45112     45114     45112     45115
     45115     45116     45115     45117     45115     45118     45118     45119
     45118     45120     45118     45121     45121     45122     45121     45126
     45121     45123     45126     45127     45126     45128     45126     45123
     45128     45129     45128     45130     45128     45131     45131     45132
     45131     45133     45131     45134     45134     45135     45134     45136
     45134     45137     45137     45138     45137     45139     45137     45140
     45140     45141     45140     45142     45140     45143     45143     45144
     45143     45145     45143     45146     45123     45124     45123     45125
     45097     45098     45098     45100     45098     45099     45100     45101
     45100     45102     45100     45147     45147     45148     45147     45149
     45147     45150     45150     45151     45150     45152     45150     45153
     45153     45154     45153     45155     45153     45156     45156     45157
     45156     45158     45156     45159     45159     45160     45159     45161
     45159     45162     45162     45163     45162     45164     45162     45165
     45165     45166     45165     45167     45165     45168     45168     45169
     45168     45170     45168     45171     45171     45172     45171     45173
     45171     45174     45174     45175     45174     45176     45174     45177
     45177     45178     45177     45179     45177     45180     45180     45181
     45180     45182     45180     45183     45183     45184     45183     45185
     45183     45186     45186     45187     45186     45188     45186     45189
     45190     45191     45190     45192     45190     45193     45190     45194
     45194     45195     45194     45196     45194     45197     45197     45198
     45197     45199     45197     45204     45204     45200     45200     45203
     45200     45201     45200     45202     45205     45206     45205     45207
     45205     45208     45205     45203     45208     45209     45208     45216
     45208     45210     45216     45217     45216     45218     45216     45219
     45210     45211     45211     45213     45211     45212     45213     45214
     45213     45215     45213     45225     45225     45226     45225     45227
     45225     45228     45228     45229     45228     45230     45228     45231
     45231     45232     45231     45233     45231     45234     45234     45235
     45234     45236     45234     45237     45237     45238     45237     45239
     45237     45240     45240     45241     45240     45242     45240     45243
     45243     45244     45243     45248     45243     45245     45248     45249
     45248     45250     45248     45245     45250     45251     45250     45252
     45250     45253     45253     45254     45253     45255     45253     45256
     45256     45257     45256     45258     45256     45259     45259     45260
     45259     45261     45259     45262     45262     45263     45262     45264
     45262     45265     45265     45266     45265     45267     45265     45268
     45245     45246     45245     45247     45219     45220     45220     45222
     45220     45221     45222     45223     45222     45224     45222     45269
     45269     45270     45269     45271     45269     45272     45272     45273
     45272     45274     45272     45275     45275     45276     45275     45277
     45275     45278     45278     45279     45278     45280     45278     45281
     45281     45282     45281     45283     45281     45284     45284     45285
     45284     45286     45284     45287     45287     45288     45287     45289
     45287     45290     45290     45291     45290     45292     45290     45293
     45293     45294     45293     45295     45293     45296     45296     45297
     45296     45298     45296     45299     45299     45300     45299     45301
     45299     45302     45302     45303     45302     45304     45302     45305
     45305     45306     45305     45307     45305     45308     45308     45309
     45308     45310     45308     45311     45312     45313     45312     45314
     45312     45315     45312     45316     45316     45317     45316     45318
     45316     45319     45319     45320     45319     45321     45319     45326
     45326     45322     45322     45325     45322     45323     45322     45324
     45327     45328     45327     45329     45327     45330     45327     45325
     45330     45331     45330     45338     45330     45332     45338     45339
     45338     45340     45338     45341     45332     45333     45333     45335
     45333     45334     45335     45336     45335     45337     45335     45347
     45347     45348     45347     45349     45347     45350     45350     45351
     45350     45352     45350     45353     45353     45354     45353     45355
     45353     45356     45356     45357     45356     45358     45356     45359
     45359     45360     45359     45361     45359     45362     45362     45363
     45362     45364     45362     45365     45365     45366     45365     45367
     45367     45368     45367     45369     45369     45370     45369     45371
     45369     45372     45372     45373     45372     45374     45372     45375
     45375     45376     45375     45377     45375     45378     45378     45379
     45378     45380     45378     45381     45381     45382     45381     45383
     45381     45384     45384     45385     45384     45386     45384     45387
     45387     45388     45387     45389     45387     45390     45390     45391
     45390     45392     45390     45393     45341     45342     45342     45344
     45342     45343     45344     45345     45344     45346     45344     45394
     45394     45395     45394     45396     45394     45397     45397     45398
     45397     45399     45397     45400     45400     45401     45400     45402
     45400     45403     45403     45404     45403     45405     45403     45406
     45406     45407     45406     45408     45406     45409     45409     45410
     45409     45411     45409     45412     45412     45413     45412     45414
     45412     45415     45415     45416     45415     45417     45415     45418
     45418     45419     45418     45420     45418     45421     45421     45422
     45421     45423     45421     45424     45424     45425     45424     45426
     45424     45427     45427     45428     45427     45429     45427     45430
     45430     45431     45430     45432     45430     45433     45433     45434
     45433     45435     45433     45436     45437     45438     45437     45439
     45437     45440     45437     45441     45441     45442     45441     45443
     45441     45444     45444     45445     45444     45446     45444     45451
     45451     45447     45447     45450     45447     45448     45447     45449
     45452     45453     45452     45454     45452     45455     45452     45450
     45455     45456     45455     45463     45455     45457     45463     45464
     45463     45465     45463     45466     45457     45458     45458     45460
     45458     45459     45460     45461     45460     45462     45460     45472
     45472     45473     45472     45474     45472     45475     45475     45476
     45475     45477     45475     45478     45478     45479     45478     45480
     45478     45481     45481     45482     45481     45483     45481     45484
     45484     45485     45484     45486     45484     45487     45487     45488
     45487     45489     45487     45490     45490     45491     45490     45495
     45490     45492     45495     45496     45495     45497     45495     45492
     45497     45498     45497     45499     45497     45500     45500     45501
     45500     45502     45500     45503     45503     45504     45503     45505
     45503     45506     45506     45507     45506     45508     45506     45509
     45509     45510     45509     45511     45509     45512     45512     45513
     45512     45514     45512     45515     45492     45493     45492     45494
     45466     45467     45467     45469     45467     45468     45469     45470
     45469     45471     45469     45516     45516     45517     45516     45518
     45516     45519     45519     45520     45519     45521     45519     45522
     45522     45523     45522     45524     45522     45525     45525     45526
     45525     45527     45525     45528     45528     45529     45528     45530
     45528     45531     45531     45532     45531     45533     45531     45534
     45534     45535     45534     45536     45534     45537     45537     45538
     45537     45539     45537     45540     45540     45541     45540     45542
     45540     45543     45543     45544     45543     45545     45543     45546
     45546     45547     45546     45548     45546     45549     45549     45550
     45549     45551     45549     45552     45552     45553     45552     45554
     45552     45555     45555     45556     45555     45557     45555     45558
     45559     45560     45559     45561     45559     45562     45559     45563
     45563     45564     45563     45565     45563     45566     45566     45567
     45566     45568     45566     45573     45573     45569     45569     45572
     45569     45570     45569     45571     45574     45575     45574     45576
     45574     45577     45574     45572     45577     45578     45577     45585
     45577     45579     45585     45586     45585     45587     45585     45588
     45579     45580     45580     45582     45580     45581     45582     45583
     45582     45584     45582     45594     45594     45595     45594     45596
     45594     45597     45597     45598     45597     45599     45597     45600
     45600     45601     45600     45602     45600     45603     45603     45604
     45603     45605     45603     45606     45606     45607     45606     45608
     45606     45609     45609     45610     45609     45611     45609     45612
     45612     45613     45612     45617     45612     45614     45617     45618
     45617     45619     45617     45614     45619     45620     45619     45621
     45619     45622     45622     45623     45622     45624     45622     45625
     45625     45626     45625     45627     45625     45628     45628     45629
     45628     45630     45628     45631     45631     45632     45631     45633
     45631     45634     45634     45635     45634     45636     45634     45637
     45614     45615     45614     45616     45588     45589     45589     45591
     45589     45590     45591     45592     45591     45593     45591     45638
     45638     45639     45638     45640     45638     45641     45641     45642
     45641     45643     45641     45644     45644     45645     45644     45646
     45644     45647     45647     45648     45647     45649     45647     45650
     45650     45651     45650     45652     45650     45653     45653     45654
     45653     45655     45653     45656     45656     45657     45656     45658
     45656     45659     45659     45660     45659     45661     45659     45662
     45662     45663     45662     45664     45662     45665     45665     45666
     45665     45667     45665     45668     45668     45669     45668     45670
     45668     45671     45671     45672     45671     45673     45671     45674
     45674     45675     45674     45676     45674     45677     45677     45678
     45677     45679     45677     45680     45681     45682     45681     45683
     45681     45684     45681     45685     45685     45686     45685     45687
     45685     45688     45688     45689     45688     45690     45688     45695
     45695     45691     45691     45694     45691     45692     45691     45693
     45696     45697     45696     45698     45696     45699     45696     45694
     45699     45700     45699     45707     45699     45701     45707     45708
     45707     45709     45707     45710     45701     45702     45702     45704
     45702     45703     45704     45705     45704     45706     45704     45716
     45716     45717     45716     45718     45716     45719     45719     45720
     45719     45721     45719     45722     45722     45723     45722     45724
     45722     45725     45725     45726     45725     45727     45725     45728
     45728     45729     45728     45730     45728     45731     45731     45732
     45731     45733     45731     45734     45734     45735     45734     45736
     45736     45737     45736     45738     45738     45739     45738     45740
     45738     45741     45741     45742     45741     45743     45741     45744
     45744     45745     45744     45746     45744     45747     45747     45748
     45747     45749     45747     45750     45750     45751     45750     45752
     45750     45753     45753     45754     45753     45755     45753     45756
     45756     45757     45756     45758     45756     45759     45759     45760
     45759     45761     45759     45762     45710     45711     45711     45713
     45711     45712     45713     45714     45713     45715     45713     45763
     45763     45764     45763     45765     45763     45766     45766     45767
     45766     45768     45766     45769     45769     45770     45769     45771
     45769     45772     45772     45773     45772     45774     45772     45775
     45775     45776     45775     45777     45775     45778     45778     45779
     45778     45780     45778     45781     45781     45782     45781     45783
     45781     45784     45784     45785     45784     45786     45784     45787
     45787     45788     45787     45789     45787     45790     45790     45791
     45790     45792     45790     45793     45793     45794     45793     45795
     45793     45796     45796     45797     45796     45798     45796     45799
     45799     45800     45799     45801     45799     45802     45802     45803
     45802     45804     45802     45805     45806     45807     45806     45808
     45806     45809     45806     45810     45810     45811     45810     45812
     45810     45813     45813     45814     45813     45815     45813     45820
     45820     45816     45816     45819     45816     45817     45816     45818
     45821     45822     45821     45823     45821     45824     45821     45819
     45824     45825     45824     45832     45824     45826     45832     45833
     45832     45834     45832     45835     45826     45827     45827     45829
     45827     45828     45829     45830     45829     45831     45829     45841
     45841     45842     45841     45843     45841     45844     45844     45845
     45844     45846     45844     45847     45847     45848     45847     45849
     45847     45850     45850     45851     45850     45852     45850     45853
     45853     45854     45853     45855     45853     45856     45856     45857
     45856     45858     45856     45859     45859     45860     45859     45864
     45859     45861     45864     45865     45864     45866     45864     45861
     45866     45867     45866     45868     45866     45869     45869     45870
     45869     45871     45869     45872     45872     45873     45872     45874
     45872     45875     45875     45876     45875     45877     45875     45878
     45878     45879     45878     45880     45878     45881     45881     45882
     45881     45883     45881     45884     45861     45862     45861     45863
     45835     45836     45836     45838     45836     45837     45838     45839
     45838     45840     45838     45885     45885     45886     45885     45887
     45885     45888     45888     45889     45888     45890     45888     45891
     45891     45892     45891     45893     45891     45894     45894     45895
     45894     45896     45894     45897     45897     45898     45897     45899
     45897     45900     45900     45901     45900     45902     45900     45903
     45903     45904     45903     45905     45903     45906     45906     45907
     45906     45908     45906     45909     45909     45910     45909     45911
     45909     45912     45912     45913     45912     45914     45912     45915
     45915     45916     45915     45917     45915     45918     45918     45919
     45918     45920     45918     45921     45921     45922     45921     45923
     45921     45924     45924     45925     45924     45926     45924     45927
     45928     45929     45928     45930     45928     45931     45928     45932
     45932     45933     45932     45934     45932     45935     45935     45936
     45935     45937     45935     45942     45942     45938     45938     45941
     45938     45939     45938     45940     45943     45944     45943     45945
     45943     45946     45943     45941     45946     45947     45946     45954
     45946     45948     45954     45955     45954     45956     45954     45957
     45948     45949     45949     45951     45949     45950     45951     45952
     45951     45953     45951     45963     45963     45964     45963     45965
     45963     45966     45966     45967     45966     45968     45966     45969
     45969     45970     45969     45971     45969     45972     45972     45973
     45972     45974     45972     45975     45975     45976     45975     45977
     45975     45978     45978     45979     45978     45980     45978     45981
     45981     45982     45981     45986     45981     45983     45986     45987
     45986     45988     45986     45983     45988     45989     45988     45990
     45988     45991     45991     45992     45991     45993     45991     45994
     45994     45995     45994     45996     45994     45997     45997     45998
     45997     45999     45997     46000     46000     46001     46000     46002
     46000     46003     46003     46004     46003     46005     46003     46006
     45983     45984     45983     45985     45957     45958     45958     45960
     45958     45959     45960     45961     45960     45962     45960     46007
     46007     46008     46007     46009     46007     46010     46010     46011
     46010     46012     46010     46013     46013     46014     46013     46015
     46013     46016     46016     46017     46016     46018     46016     46019
     46019     46020     46019     46021     46019     46022     46022     46023
     46022     46024     46022     46025     46025     46026     46025     46027
     46025     46028     46028     46029     46028     46030     46028     46031
     46031     46032     46031     46033     46031     46034     46034     46035
     46034     46036     46034     46037     46037     46038     46037     46039
     46037     46040     46040     46041     46040     46042     46040     46043
     46043     46044     46043     46045     46043     46046     46046     46047
     46046     46048     46046     46049     46050     46051     46050     46052
     46050     46053     46050     46054     46054     46055     46054     46056
     46054     46057     46057     46058     46057     46059     46057     46064
     46064     46060     46060     46063     46060     46061     46060     46062
     46065     46066     46065     46067     46065     46068     46065     46063
     46068     46069     46068     46076     46068     46070     46076     46077
     46076     46078     46076     46079     46070     46071     46071     46073
     46071     46072     46073     46074     46073     46075     46073     46085
     46085     46086     46085     46087     46085     46088     46088     46089
     46088     46090     46088     46091     46091     46092     46091     46093
     46091     46094     46094     46095     46094     46096     46094     46097
     46097     46098     46097     46099     46097     46100     46100     46101
     46100     46102     46100     46103     46103     46104     46103     46105
     46105     46106     46105     46107     46107     46108     46107     46109
     46107     46110     46110     46111     46110     46112     46110     46113
     46113     46114     46113     46115     46113     46116     46116     46117
     46116     46118     46116     46119     46119     46120     46119     46121
     46119     46122     46122     46123     46122     46124     46122     46125
     46125     46126     46125     46127     46125     46128     46128     46129
     46128     46130     46128     46131     46079     46080     46080     46082
     46080     46081     46082     46083     46082     46084     46082     46132
     46132     46133     46132     46134     46132     46135     46135     46136
     46135     46137     46135     46138     46138     46139     46138     46140
     46138     46141     46141     46142     46141     46143     46141     46144
     46144     46145     46144     46146     46144     46147     46147     46148
     46147     46149     46147     46150     46150     46151     46150     46152
     46150     46153     46153     46154     46153     46155     46153     46156
     46156     46157     46156     46158     46156     46159     46159     46160
     46159     46161     46159     46162     46162     46163     46162     46164
     46162     46165     46165     46166     46165     46167     46165     46168
     46168     46169     46168     46170     46168     46171     46171     46172
     46171     46173     46171     46174     46175     46176     46175     46177
     46175     46178     46175     46179     46179     46180     46179     46181
     46179     46182     46182     46183     46182     46184     46182     46189
     46189     46185     46185     46188     46185     46186     46185     46187
     46190     46191     46190     46192     46190     46193     46190     46188
     46193     46194     46193     46201     46193     46195     46201     46202
     46201     46203     46201     46204     46195     46196     46196     46198
     46196     46197     46198     46199     46198     46200     46198     46210
     46210     46211     46210     46212     46210     46213     46213     46214
     46213     46215     46213     46216     46216     46217     46216     46218
     46216     46219     46219     46220     46219     46221     46219     46222
     46222     46223     46222     46224     46222     46225     46225     46226
     46225     46227     46225     46228     46228     46229     46228     46233
     46228     46230     46233     46234     46233     46235     46233     46230
     46235     46236     46235     46237     46235     46238     46238     46239
     46238     46240     46238     46241     46241     46242     46241     46243
     46241     46244     46244     46245     46244     46246     46244     46247
     46247     46248     46247     46249     46247     46250     46250     46251
     46250     46252     46250     46253     46230     46231     46230     46232
     46204     46205     46205     46207     46205     46206     46207     46208
     46207     46209     46207     46254     46254     46255     46254     46256
     46254     46257     46257     46258     46257     46259     46257     46260
     46260     46261     46260     46262     46260     46263     46263     46264
     46263     46265     46263     46266     46266     46267     46266     46268
     46266     46269     46269     46270     46269     46271     46269     46272
     46272     46273     46272     46274     46272     46275     46275     46276
     46275     46277     46275     46278     46278     46279     46278     46280
     46278     46281     46281     46282     46281     46283     46281     46284
     46284     46285     46284     46286     46284     46287     46287     46288
     46287     46289     46287     46290     46290     46291     46290     46292
     46290     46293     46293     46294     46293     46295     46293     46296
     46301     46300     46300     46297     46297     46298     46297     46299
     46297     46302     46305     46304     46304     46302     46302     46303
     46302     46306     46306     46307     46306     46308     46306     46313
     46313     46309     46309     46312     46309     46310     46309     46311
     46314     46315     46314     46316     46314     46317     46314     46312
     46317     46318     46317     46325     46317     46319     46325     46326
     46325     46327     46325     46328     46319     46320     46320     46322
     46320     46321     46322     46323     46322     46324     46322     46334
     46334     46335     46334     46336     46334     46337     46337     46338
     46337     46339     46337     46340     46340     46341     46340     46342
     46340     46343     46343     46344     46343     46345     46343     46346
     46346     46347     46346     46348     46346     46349     46349     46350
     46349     46351     46349     46352     46352     46353     46352     46354
     46354     46355     46354     46356     46356     46357     46356     46358
     46356     46359     46359     46360     46359     46361     46359     46362
     46362     46363     46362     46364     46362     46365     46365     46366
     46365     46367     46365     46368     46368     46369     46368     46370
     46368     46371     46371     46372     46371     46373     46371     46374
     46328     46329     46329     46331     46329     46330     46331     46332
     46331     46333     46331     46375     46375     46376     46375     46377
     46375     46378     46378     46379     46378     46380     46378     46381
     46381     46382     46381     46383     46381     46384     46384     46385
     46384     46386     46384     46387     46387     46388     46387     46389
     46387     46390     46390     46391     46390     46392     46390     46393
     46393     46394     46393     46395     46393     46396     46396     46397
     46396     46398     46396     46399     46399     46400     46399     46401
     46399     46402     46402     46403     46402     46404     46402     46405
     46405     46406     46405     46407     46405     46408     46408     46409
     46408     46410     46408     46411     46411     46412     46411     46413
     46411     46414     46414     46415     46414     46416     46414     46417
     46418     46419     46418     46420     46418     46421     46418     46422
     46422     46423     46422     46424     46422     46425     46425     46426
     46425     46427     46425     46432     46432     46428     46428     46431
     46428     46429     46428     46430     46433     46434     46433     46435
     46433     46436     46433     46431     46436     46437     46436     46444
     46436     46438     46444     46445     46444     46446     46444     46447
     46438     46439     46439     46441     46439     46440     46441     46442
     46441     46443     46441     46453     46453     46454     46453     46455
     46453     46456     46456     46457     46456     46458     46456     46459
     46459     46460     46459     46461     46459     46462     46462     46463
     46462     46464     46462     46465     46465     46466     46465     46467
     46465     46468     46468     46469     46468     46470     46468     46471
     46471     46472     46471     46476     46471     46473     46476     46477
     46476     46478     46476     46473     46478     46479     46478     46480
     46478     46481     46481     46482     46481     46483     46481     46484
     46484     46485     46484     46486     46484     46487     46487     46488
     46487     46489     46487     46490     46490     46491     46490     46492
     46490     46493     46493     46494     46493     46495     46493     46496
     46473     46474     46473     46475     46447     46448     46448     46450
     46448     46449     46450     46451     46450     46452     46450     46497
     46497     46498     46497     46499     46497     46500     46500     46501
     46500     46502     46500     46503     46503     46504     46503     46505
     46503     46506     46506     46507     46506     46508     46506     46509
     46509     46510     46509     46511     46509     46512     46512     46513
     46512     46514     46512     46515     46515     46516     46515     46517
     46515     46518     46518     46519     46518     46520     46518     46521
     46521     46522     46521     46523     46521     46524     46524     46525
     46524     46526     46524     46527     46527     46528     46527     46529
     46527     46530     46530     46531     46530     46532     46530     46533
     46533     46534     46533     46535     46533     46536     46536     46537
     46536     46538     46536     46539     46540     46541     46540     46542
     46540     46543     46540     46544     46544     46545     46544     46546
     46544     46547     46547     46548     46547     46549     46547     46554
     46554     46550     46550     46553     46550     46551     46550     46552
     46555     46556     46555     46557     46555     46558     46555     46553
     46558     46559     46558     46566     46558     46560     46566     46567
     46566     46568     46566     46569     46560     46561     46561     46563
     46561     46562     46563     46564     46563     46565     46563     46575
     46575     46576     46575     46577     46575     46578     46578     46579
     46578     46580     46578     46581     46581     46582     46581     46583
     46581     46584     46584     46585     46584     46586     46584     46587
     46587     46588     46587     46589     46587     46590     46590     46591
     46590     46592     46590     46593     46593     46594     46593     46598
     46593     46595     46598     46599     46598     46600     46598     46595
     46600     46601     46600     46602     46600     46603     46603     46604
     46603     46605     46603     46606     46606     46607     46606     46608
     46606     46609     46609     46610     46609     46611     46609     46612
     46612     46613     46612     46614     46612     46615     46615     46616
     46615     46617     46615     46618     46595     46596     46595     46597
     46569     46570     46570     46572     46570     46571     46572     46573
     46572     46574     46572     46619     46619     46620     46619     46621
     46619     46622     46622     46623     46622     46624     46622     46625
     46625     46626     46625     46627     46625     46628     46628     46629
     46628     46630     46628     46631     46631     46632     46631     46633
     46631     46634     46634     46635     46634     46636     46634     46637
     46637     46638     46637     46639     46637     46640     46640     46641
     46640     46642     46640     46643     46643     46644     46643     46645
     46643     46646     46646     46647     46646     46648     46646     46649
     46649     46650     46649     46651     46649     46652     46652     46653
     46652     46654     46652     46655     46655     46656     46655     46657
     46655     46658     46659     46660     46659     46661     46659     46662
     46659     46663     46663     46664     46663     46665     46663     46666
     46666     46667     46666     46668     46666     46673     46673     46669
     46669     46672     46669     46670     46669     46671     46674     46675
     46674     46676     46674     46677     46674     46672     46677     46678
     46677     46685     46677     46679     46685     46686     46685     46687
     46685     46688     46679     46680     46680     46682     46680     46681
     46682     46683     46682     46684     46682     46694     46694     46695
     46694     46696     46694     46697     46697     46698     46697     46699
     46697     46700     46700     46701     46700     46702     46700     46703
     46703     46704     46703     46705     46703     46706     46706     46707
     46706     46708     46706     46709     46709     46710     46709     46711
     46709     46712     46712     46713     46712     46714     46714     46715
     46714     46716     46716     46717     46716     46718     46716     46719
     46719     46720     46719     46721     46719     46722     46722     46723
     46722     46724     46722     46725     46725     46726     46725     46727
     46725     46728     46728     46729     46728     46730     46728     46731
     46731     46732     46731     46733     46731     46734     46688     46689
     46689     46691     46689     46690     46691     46692     46691     46693
     46691     46735     46735     46736     46735     46737     46735     46738
     46738     46739     46738     46740     46738     46741     46741     46742
     46741     46743     46741     46744     46744     46745     46744     46746
     46744     46747     46747     46748     46747     46749     46747     46750
     46750     46751     46750     46752     46750     46753     46753     46754
     46753     46755     46755     46756     46755     46757     46757     46758
     46757     46759     46757     46760     46760     46761     46760     46762
     46760     46763     46763     46764     46763     46765     46763     46766
     46766     46767     46766     46768     46766     46769     46769     46770
     46769     46771     46769     46772     46772     46773     46772     46774
     46772     46775     46775     46776     46775     46777     46775     46778
     46778     46779     46778     46780     46778     46781     46782     46783
     46782     46784     46782     46785     46782     46786     46786     46787
     46786     46788     46786     46789     46789     46790     46789     46791
     46789     46796     46796     46792     46792     46795     46792     46793
     46792     46794     46797     46798     46797     46799     46797     46800
     46797     46795     46800     46801     46800     46808     46800     46802
     46808     46809     46808     46810     46808     46811     46802     46803
     46803     46805     46803     46804     46805     46806     46805     46807
     46805     46817     46817     46818     46817     46819     46817     46820
     46820     46821     46820     46822     46820     46823     46823     46824
     46823     46825     46823     46826     46826     46827     46826     46828
     46826     46829     46829     46830     46829     46831     46829     46832
     46832     46833     46832     46834     46832     46835     46835     46836
     46835     46840     46835     46837     46840     46841     46840     46842
     46840     46837     46842     46843     46842     46844     46842     46845
     46845     46846     46845     46847     46845     46848     46848     46849
     46848     46850     46848     46851     46851     46852     46851     46853
     46851     46854     46854     46855     46854     46856     46854     46857
     46857     46858     46857     46859     46857     46860     46837     46838
     46837     46839     46811     46812     46812     46814     46812     46813
     46814     46815     46814     46816     46814     46861     46861     46862
     46861     46863     46861     46864     46864     46865     46864     46866
     46864     46867     46867     46868     46867     46869     46867     46870
     46870     46871     46870     46872     46870     46873     46873     46874
     46873     46875     46873     46876     46876     46877     46876     46878
     46876     46879     46879     46880     46879     46881     46879     46882
     46882     46883     46882     46884     46882     46885     46885     46886
     46885     46887     46885     46888     46888     46889     46888     46890
     46888     46891     46891     46892     46891     46893     46891     46894
     46894     46895     46894     46896     46894     46897     46897     46898
     46897     46899     46897     46900     46900     46901     46900     46902
     46900     46903     46904     46905     46904     46906     46904     46907
     46904     46908     46908     46909     46908     46910     46908     46911
     46911     46912     46911     46913     46911     46918     46918     46914
     46914     46917     46914     46915     46914     46916     46919     46920
     46919     46921     46919     46922     46919     46917     46922     46923
     46922     46930     46922     46924     46930     46931     46930     46932
     46930     46933     46924     46925     46925     46927     46925     46926
     46927     46928     46927     46929     46927     46939     46939     46940
     46939     46941     46939     46942     46942     46943     46942     46944
     46942     46945     46945     46946     46945     46947     46945     46948
     46948     46949     46948     46950     46948     46951     46951     46952
     46951     46953     46951     46954     46954     46955     46954     46956
     46954     46957     46957     46958     46957     46962     46957     46959
     46962     46963     46962     46964     46962     46959     46964     46965
     46964     46966     46964     46967     46967     46968     46967     46969
     46967     46970     46970     46971     46970     46972     46970     46973
     46973     46974     46973     46975     46973     46976     46976     46977
     46976     46978     46976     46979     46979     46980     46979     46981
     46979     46982     46959     46960     46959     46961     46933     46934
     46934     46936     46934     46935     46936     46937     46936     46938
     46936     46983     46983     46984     46983     46985     46983     46986
     46986     46987     46986     46988     46986     46989     46989     46990
     46989     46991     46989     46992     46992     46993     46992     46994
     46992     46995     46995     46996     46995     46997     46995     46998
     46998     46999     46998     47000     46998     47001     47001     47002
     47001     47003     47001     47004     47004     47005     47004     47006
     47004     47007     47007     47008     47007     47009     47007     47010
     47010     47011     47010     47012     47010     47013     47013     47014
     47013     47015     47013     47016     47016     47017     47016     47018
     47016     47019     47019     47020     47019     47021     47019     47022
     47022     47023     47022     47024     47022     47025     47026     47027
     47026     47028     47026     47029     47026     47030     47030     47031
     47030     47032     47030     47033     47033     47034     47033     47035
     47033     47040     47040     47036     47036     47039     47036     47037
     47036     47038     47041     47042     47041     47043     47041     47044
     47041     47039     47044     47045     47044     47052     47044     47046
     47052     47053     47052     47054     47052     47055     47046     47047
     47047     47049     47047     47048     47049     47050     47049     47051
     47049     47061     47061     47062     47061     47063     47061     47064
     47064     47065     47064     47066     47064     47067     47067     47068
     47067     47069     47067     47070     47070     47071     47070     47072
     47070     47073     47073     47074     47073     47075     47073     47076
     47076     47077     47076     47078     47076     47079     47079     47080
     47079     47084     47079     47081     47084     47085     47084     47086
     47084     47081     47086     47087     47086     47088     47086     47089
     47089     47090     47089     47091     47089     47092     47092     47093
     47092     47094     47092     47095     47095     47096     47095     47097
     47095     47098     47098     47099     47098     47100     47098     47101
     47101     47102     47101     47103     47101     47104     47081     47082
     47081     47083     47055     47056     47056     47058     47056     47057
     47058     47059     47058     47060     47058     47105     47105     47106
     47105     47107     47105     47108     47108     47109     47108     47110
     47108     47111     47111     47112     47111     47113     47111     47114
     47114     47115     47114     47116     47114     47117     47117     47118
     47117     47119     47117     47120     47120     47121     47120     47122
     47120     47123     47123     47124     47123     47125     47123     47126
     47126     47127     47126     47128     47126     47129     47129     47130
     47129     47131     47129     47132     47132     47133     47132     47134
     47132     47135     47135     47136     47135     47137     47135     47138
     47138     47139     47138     47140     47138     47141     47141     47142
     47141     47143     47141     47144     47144     47145     47144     47146
     47144     47147     47148     47149     47148     47150     47148     47151
     47148     47152     47152     47153     47152     47154     47152     47155
     47155     47156     47155     47157     47155     47162     47162     47158
     47158     47161     47158     47159     47158     47160     47163     47164
     47163     47165     47163     47166     47163     47161     47166     47167
     47166     47174     47166     47168     47174     47175     47174     47176
     47174     47177     47168     47169     47169     47171     47169     47170
     47171     47172     47171     47173     47171     47183     47183     47184
     47183     47185     47183     47186     47186     47187     47186     47188
     47186     47189     47189     47190     47189     47191     47189     47192
     47192     47193     47192     47194     47192     47195     47195     47196
     47195     47197     47195     47198     47198     47199     47198     47200
     47198     47201     47201     47202     47201     47203     47203     47204
     47203     47205     47205     47206     47205     47207     47205     47208
     47208     47209     47208     47210     47208     47211     47211     47212
     47211     47213     47211     47214     47214     47215     47214     47216
     47214     47217     47217     47218     47217     47219     47217     47220
     47220     47221     47220     47222     47220     47223     47223     47224
     47223     47225     47223     47226     47226     47227     47226     47228
     47226     47229     47177     47178     47178     47180     47178     47179
     47180     47181     47180     47182     47180     47230     47230     47231
     47230     47232     47230     47233     47233     47234     47233     47235
     47233     47236     47236     47237     47236     47238     47236     47239
     47239     47240     47239     47241     47239     47242     47242     47243
     47242     47244     47242     47245     47245     47246     47245     47247
     47245     47248     47248     47249     47248     47250     47248     47251
     47251     47252     47251     47253     47251     47254     47254     47255
     47254     47256     47254     47257     47257     47258     47257     47259
     47257     47260     47260     47261     47260     47262     47260     47263
     47263     47264     47263     47265     47263     47266     47266     47267
     47266     47268     47266     47269     47269     47270     47269     47271
     47269     47272     47273     47274     47273     47275     47273     47276
     47273     47277     47277     47278     47277     47279     47277     47280
     47280     47281     47280     47282     47280     47287     47287     47283
     47283     47286     47283     47284     47283     47285     47288     47289
     47288     47290     47288     47291     47288     47286     47291     47292
     47291     47299     47291     47293     47299     47300     47299     47301
     47299     47302     47293     47294     47294     47296     47294     47295
     47296     47297     47296     47298     47296     47308     47308     47309
     47308     47310     47308     47311     47311     47312     47311     47313
     47311     47314     47314     47315     47314     47316     47314     47317
     47317     47318     47317     47319     47317     47320     47320     47321
     47320     47322     47320     47323     47323     47324     47323     47325
     47323     47326     47326     47327     47326     47331     47326     47328
     47331     47332     47331     47333     47331     47328     47333     47334
     47333     47335     47333     47336     47336     47337     47336     47338
     47336     47339     47339     47340     47339     47341     47339     47342
     47342     47343     47342     47344     47342     47345     47345     47346
     47345     47347     47345     47348     47348     47349     47348     47350
     47348     47351     47328     47329     47328     47330     47302     47303
     47303     47305     47303     47304     47305     47306     47305     47307
     47305     47352     47352     47353     47352     47354     47352     47355
     47355     47356     47355     47357     47355     47358     47358     47359
     47358     47360     47358     47361     47361     47362     47361     47363
     47361     47364     47364     47365     47364     47366     47364     47367
     47367     47368     47367     47369     47367     47370     47370     47371
     47370     47372     47370     47373     47373     47374     47373     47375
     47373     47376     47376     47377     47376     47378     47376     47379
     47379     47380     47379     47381     47379     47382     47382     47383
     47382     47384     47382     47385     47385     47386     47385     47387
     47385     47388     47388     47389     47388     47390     47388     47391
     47391     47392     47391     47393     47391     47394     47410     47406
     47410     47411     47410     47412     47406     47408     47406     47407
     47408     47409     47406     47395     47395     47396     47395     47397
     47410     47416     47395     47401     47413     47416     47413     47417
     47413     47414     47413     47415     47398     47401     47398     47402
     47398     47399     47398     47400     47417     47418     47418     47419
     47418     47420     47418     47421     47421     47422     47421     47423
     47421     47429     47429     47430     47429     47431     47429     47432
     47402     47403     47403     47404     47403     47405     47403     47438
     47438     47439     47438     47440     47438     47446     47446     47447
     47446     47448     47446     47449     47423     47424     47432     47433
     47440     47441     47449     47450     47424     47425     47424     47426
     47426     47427     47426     47428     47426     47455     47455     47456
     47455     47457     47455     47458     47458     47459     47458     47460
     47458     47461     47461     47462     47461     47463     47461     47464
     47464     47465     47464     47466     47464     47467     47467     47468
     47467     47469     47467     47470     47470     47471     47470     47472
     47470     47473     47473     47474     47473     47475     47473     47476
     47476     47477     47476     47478     47476     47479     47479     47480
     47479     47481     47481     47482     47481     47483     47483     47484
     47483     47485     47483     47486     47486     47487     47486     47488
     47486     47489     47489     47490     47489     47491     47489     47492
     47492     47493     47492     47494     47492     47495     47495     47496
     47495     47497     47495     47498     47498     47499     47498     47500
     47498     47501     47433     47434     47433     47435     47435     47436
     47435     47437     47435     47502     47502     47503     47502     47504
     47502     47505     47505     47506     47505     47507     47505     47508
     47508     47509     47508     47510     47508     47511     47511     47512
     47511     47513     47511     47514     47514     47515     47514     47516
     47514     47517     47517     47518     47517     47519     47517     47520
     47520     47521     47520     47522     47520     47523     47523     47524
     47523     47525     47523     47526     47526     47527     47526     47528
     47526     47529     47529     47530     47529     47531     47529     47532
     47532     47533     47532     47534     47532     47535     47535     47536
     47535     47537     47535     47538     47538     47539     47538     47540
     47538     47541     47541     47542     47541     47543     47541     47544
     47441     47442     47441     47443     47443     47444     47443     47445
     47443     47545     47545     47546     47545     47547     47545     47548
     47548     47549     47548     47550     47548     47551     47551     47552
     47551     47553     47551     47554     47554     47555     47554     47556
     47554     47557     47557     47558     47557     47559     47557     47560
     47560     47561     47560     47562     47560     47563     47563     47564
     47563     47565     47563     47566     47566     47567     47566     47568
     47566     47569     47569     47570     47569     47571     47571     47572
     47571     47573     47573     47574     47573     47575     47573     47576
     47576     47577     47576     47578     47576     47579     47579     47580
     47579     47581     47579     47582     47582     47583     47582     47584
     47582     47585     47585     47586     47585     47587     47585     47588
     47588     47589     47588     47590     47588     47591     47450     47451
     47450     47452     47452     47453     47452     47454     47452     47592
     47592     47593     47592     47594     47592     47595     47595     47596
     47595     47597     47595     47598     47598     47599     47598     47600
     47598     47601     47601     47602     47601     47603     47601     47604
     47604     47605     47604     47606     47604     47607     47607     47608
     47607     47609     47607     47610     47610     47611     47610     47612
     47610     47613     47613     47614     47613     47615     47613     47616
     47616     47617     47616     47618     47616     47619     47619     47620
     47619     47621     47619     47622     47622     47623     47622     47624
     47622     47625     47625     47626     47625     47627     47625     47628
     47628     47629     47628     47630     47628     47631     47631     47632
     47631     47633     47631     47634     47635     47636     47635     47637
     47635     47638     47635     47639     47639     47640     47639     47641
     47639     47642     47642     47643     47642     47644     47642     47649
     47649     47645     47645     47648     47645     47646     47645     47647
     47650     47651     47650     47652     47650     47653     47650     47648
     47653     47654     47653     47661     47653     47655     47661     47662
     47661     47663     47661     47664     47655     47656     47656     47658
     47656     47657     47658     47659     47658     47660     47658     47670
     47670     47671     47670     47672     47670     47673     47673     47674
     47673     47675     47673     47676     47676     47677     47676     47678
     47676     47679     47679     47680     47679     47681     47679     47682
     47682     47683     47682     47684     47682     47685     47685     47686
     47685     47687     47685     47688     47688     47689     47688     47693
     47688     47690     47693     47694     47693     47695     47693     47690
     47695     47696     47695     47697     47695     47698     47698     47699
     47698     47700     47698     47701     47701     47702     47701     47703
     47701     47704     47704     47705     47704     47706     47704     47707
     47707     47708     47707     47709     47707     47710     47710     47711
     47710     47712     47710     47713     47690     47691     47690     47692
     47664     47665     47665     47667     47665     47666     47667     47668
     47667     47669     47667     47714     47714     47715     47714     47716
     47714     47717     47717     47718     47717     47719     47717     47720
     47720     47721     47720     47722     47720     47723     47723     47724
     47723     47725     47723     47726     47726     47727     47726     47728
     47726     47729     47729     47730     47729     47731     47729     47732
     47732     47733     47732     47734     47732     47735     47735     47736
     47735     47737     47735     47738     47738     47739     47738     47740
     47738     47741     47741     47742     47741     47743     47741     47744
     47744     47745     47744     47746     47744     47747     47747     47748
     47747     47749     47747     47750     47750     47751     47750     47752
     47750     47753     47753     47754     47753     47755     47753     47756
     47757     47758     47757     47759     47757     47760     47757     47761
     47761     47762     47761     47763     47761     47764     47764     47765
     47764     47766     47764     47771     47771     47767     47767     47770
     47767     47768     47767     47769     47772     47773     47772     47774
     47772     47775     47772     47770     47775     47776     47775     47783
     47775     47777     47783     47784     47783     47785     47783     47786
     47777     47778     47778     47780     47778     47779     47780     47781
     47780     47782     47780     47792     47792     47793     47792     47794
     47792     47795     47795     47796     47795     47797     47795     47798
     47798     47799     47798     47800     47798     47801     47801     47802
     47801     47803     47801     47804     47804     47805     47804     47806
     47804     47807     47807     47808     47807     47809     47807     47810
     47810     47811     47810     47815     47810     47812     47815     47816
     47815     47817     47815     47812     47817     47818     47817     47819
     47817     47820     47820     47821     47820     47822     47820     47823
     47823     47824     47823     47825     47823     47826     47826     47827
     47826     47828     47826     47829     47829     47830     47829     47831
     47829     47832     47832     47833     47832     47834     47832     47835
     47812     47813     47812     47814     47786     47787     47787     47789
     47787     47788     47789     47790     47789     47791     47789     47836
     47836     47837     47836     47838     47836     47839     47839     47840
     47839     47841     47839     47842     47842     47843     47842     47844
     47842     47845     47845     47846     47845     47847     47845     47848
     47848     47849     47848     47850     47848     47851     47851     47852
     47851     47853     47851     47854     47854     47855     47854     47856
     47854     47857     47857     47858     47857     47859     47857     47860
     47860     47861     47860     47862     47860     47863     47863     47864
     47863     47865     47863     47866     47866     47867     47866     47868
     47866     47869     47869     47870     47869     47871     47869     47872
     47872     47873     47872     47874     47872     47875     47875     47876
     47875     47877     47875     47878     47879     47880     47879     47881
     47879     47882     47879     47883     47883     47884     47883     47885
     47883     47886     47886     47887     47886     47888     47886     47893
     47893     47889     47889     47892     47889     47890     47889     47891
     47894     47895     47894     47896     47894     47897     47894     47892
     47897     47898     47897     47905     47897     47899     47905     47906
     47905     47907     47905     47908     47899     47900     47900     47902
     47900     47901     47902     47903     47902     47904     47902     47914
     47914     47915     47914     47916     47914     47917     47917     47918
     47917     47919     47917     47920     47920     47921     47920     47922
     47920     47923     47923     47924     47923     47925     47923     47926
     47926     47927     47926     47928     47926     47929     47929     47930
     47929     47931     47929     47932     47932     47933     47932     47937
     47932     47934     47937     47938     47937     47939     47937     47934
     47939     47940     47939     47941     47939     47942     47942     47943
     47942     47944     47942     47945     47945     47946     47945     47947
     47945     47948     47948     47949     47948     47950     47948     47951
     47951     47952     47951     47953     47951     47954     47954     47955
     47954     47956     47954     47957     47934     47935     47934     47936
     47908     47909     47909     47911     47909     47910     47911     47912
     47911     47913     47911     47958     47958     47959     47958     47960
     47958     47961     47961     47962     47961     47963     47961     47964
     47964     47965     47964     47966     47964     47967     47967     47968
     47967     47969     47967     47970     47970     47971     47970     47972
     47970     47973     47973     47974     47973     47975     47973     47976
     47976     47977     47976     47978     47976     47979     47979     47980
     47979     47981     47979     47982     47982     47983     47982     47984
     47982     47985     47985     47986     47985     47987     47985     47988
     47988     47989     47988     47990     47988     47991     47991     47992
     47991     47993     47991     47994     47994     47995     47994     47996
     47994     47997     47997     47998     47997     47999     47997     48000
     48001     48002     48001     48003     48001     48004     48001     48005
     48005     48006     48005     48007     48005     48008     48008     48009
     48008     48010     48008     48015     48015     48011     48011     48014
     48011     48012     48011     48013     48016     48017     48016     48018
     48016     48019     48016     48014     48019     48020     48019     48027
     48019     48021     48027     48028     48027     48029     48027     48030
     48021     48022     48022     48024     48022     48023     48024     48025
     48024     48026     48024     48036     48036     48037     48036     48038
     48036     48039     48039     48040     48039     48041     48039     48042
     48042     48043     48042     48044     48042     48045     48045     48046
     48045     48047     48045     48048     48048     48049     48048     48050
     48048     48051     48051     48052     48051     48053     48051     48054
     48054     48055     48054     48056     48056     48057     48056     48058
     48058     48059     48058     48060     48058     48061     48061     48062
     48061     48063     48061     48064     48064     48065     48064     48066
     48064     48067     48067     48068     48067     48069     48067     48070
     48070     48071     48070     48072     48070     48073     48073     48074
     48073     48075     48073     48076     48076     48077     48076     48078
     48076     48079     48079     48080     48079     48081     48079     48082
     48030     48031     48031     48033     48031     48032     48033     48034
     48033     48035     48033     48083     48083     48084     48083     48085
     48083     48086     48086     48087     48086     48088     48086     48089
     48089     48090     48089     48091     48089     48092     48092     48093
     48092     48094     48092     48095     48095     48096     48095     48097
     48095     48098     48098     48099     48098     48100     48098     48101
     48101     48102     48101     48103     48101     48104     48104     48105
     48104     48106     48104     48107     48107     48108     48107     48109
     48107     48110     48110     48111     48110     48112     48110     48113
     48113     48114     48113     48115     48113     48116     48116     48117
     48116     48118     48116     48119     48119     48120     48119     48121
     48119     48122     48122     48123     48122     48124     48122     48125
     48126     48127     48126     48128     48126     48129     48126     48130
     48130     48131     48130     48132     48130     48133     48133     48134
     48133     48135     48133     48140     48140     48136     48136     48139
     48136     48137     48136     48138     48141     48142     48141     48143
     48141     48144     48141     48139     48144     48145     48144     48152
     48144     48146     48152     48153     48152     48154     48152     48155
     48146     48147     48147     48149     48147     48148     48149     48150
     48149     48151     48149     48161     48161     48162     48161     48163
     48161     48164     48164     48165     48164     48166     48164     48167
     48167     48168     48167     48169     48167     48170     48170     48171
     48170     48172     48170     48173     48173     48174     48173     48175
     48173     48176     48176     48177     48176     48178     48176     48179
     48179     48180     48179     48184     48179     48181     48184     48185
     48184     48186     48184     48181     48186     48187     48186     48188
     48186     48189     48189     48190     48189     48191     48189     48192
     48192     48193     48192     48194     48192     48195     48195     48196
     48195     48197     48195     48198     48198     48199     48198     48200
     48198     48201     48201     48202     48201     48203     48201     48204
     48181     48182     48181     48183     48155     48156     48156     48158
     48156     48157     48158     48159     48158     48160     48158     48205
     48205     48206     48205     48207     48205     48208     48208     48209
     48208     48210     48208     48211     48211     48212     48211     48213
     48211     48214     48214     48215     48214     48216     48214     48217
     48217     48218     48217     48219     48217     48220     48220     48221
     48220     48222     48220     48223     48223     48224     48223     48225
     48223     48226     48226     48227     48226     48228     48226     48229
     48229     48230     48229     48231     48229     48232     48232     48233
     48232     48234     48232     48235     48235     48236     48235     48237
     48235     48238     48238     48239     48238     48240     48238     48241
     48241     48242     48241     48243     48241     48244     48249     48248
     48248     48245     48245     48246     48245     48247     48245     48250
     48253     48252     48252     48250     48250     48251     48250     48254
     48254     48255     48254     48256     48254     48261     48261     48257
     48257     48260     48257     48258     48257     48259     48262     48263
     48262     48264     48262     48265     48262     48260     48265     48266
     48265     48273     48265     48267     48273     48274     48273     48275
     48273     48276     48267     48268     48268     48270     48268     48269
     48270     48271     48270     48272     48270     48282     48282     48283
     48282     48284     48282     48285     48285     48286     48285     48287
     48285     48288     48288     48289     48288     48290     48288     48291
     48291     48292     48291     48293     48291     48294     48294     48295
     48294     48296     48294     48297     48297     48298     48297     48299
     48297     48300     48300     48301     48300     48305     48300     48302
     48305     48306     48305     48307     48305     48302     48307     48308
     48307     48309     48307     48310     48310     48311     48310     48312
     48310     48313     48313     48314     48313     48315     48313     48316
     48316     48317     48316     48318     48316     48319     48319     48320
     48319     48321     48319     48322     48322     48323     48322     48324
     48322     48325     48302     48303     48302     48304     48276     48277
     48277     48279     48277     48278     48279     48280     48279     48281
     48279     48326     48326     48327     48326     48328     48326     48329
     48329     48330     48329     48331     48329     48332     48332     48333
     48332     48334     48332     48335     48335     48336     48335     48337
     48335     48338     48338     48339     48338     48340     48338     48341
     48341     48342     48341     48343     48341     48344     48344     48345
     48344     48346     48344     48347     48347     48348     48347     48349
     48347     48350     48350     48351     48350     48352     48350     48353
     48353     48354     48353     48355     48353     48356     48356     48357
     48356     48358     48356     48359     48359     48360     48359     48361
     48359     48362     48362     48363     48362     48364     48362     48365
     48365     48366     48365     48367     48365     48368     48373     48372
     48372     48369     48369     48370     48369     48371     48369     48374
     48377     48376     48376     48374     48374     48375     48374     48378
     48378     48379     48378     48380     48378     48385     48385     48381
     48381     48384     48381     48382     48381     48383     48386     48387
     48386     48388     48386     48389     48386     48384     48389     48390
     48389     48397     48389     48391     48397     48398     48397     48399
     48397     48400     48391     48392     48392     48394     48392     48393
     48394     48395     48394     48396     48394     48406     48406     48407
     48406     48408     48406     48409     48409     48410     48409     48411
     48409     48412     48412     48413     48412     48414     48412     48415
     48415     48416     48415     48417     48415     48418     48418     48419
     48418     48420     48418     48421     48421     48422     48421     48423
     48421     48424     48424     48425     48424     48429     48424     48426
     48429     48430     48429     48431     48429     48426     48431     48432
     48431     48433     48431     48434     48434     48435     48434     48436
     48434     48437     48437     48438     48437     48439     48437     48440
     48440     48441     48440     48442     48440     48443     48443     48444
     48443     48445     48443     48446     48446     48447     48446     48448
     48446     48449     48426     48427     48426     48428     48400     48401
     48401     48403     48401     48402     48403     48404     48403     48405
     48403     48450     48450     48451     48450     48452     48450     48453
     48453     48454     48453     48455     48453     48456     48456     48457
     48456     48458     48456     48459     48459     48460     48459     48461
     48459     48462     48462     48463     48462     48464     48462     48465
     48465     48466     48465     48467     48465     48468     48468     48469
     48468     48470     48468     48471     48471     48472     48471     48473
     48471     48474     48474     48475     48474     48476     48474     48477
     48477     48478     48477     48479     48477     48480     48480     48481
     48480     48482     48480     48483     48483     48484     48483     48485
     48483     48486     48486     48487     48486     48488     48486     48489
     48489     48490     48489     48491     48489     48492     48497     48496
     48496     48493     48493     48494     48493     48495     48493     48498
     48501     48500     48500     48498     48498     48499     48498     48502
     48502     48503     48502     48504     48502     48509     48509     48505
     48505     48508     48505     48506     48505     48507     48510     48511
     48510     48512     48510     48513     48510     48508     48513     48514
     48513     48521     48513     48515     48521     48522     48521     48523
     48521     48524     48515     48516     48516     48518     48516     48517
     48518     48519     48518     48520     48518     48530     48530     48531
     48530     48532     48530     48533     48533     48534     48533     48535
     48533     48536     48536     48537     48536     48538     48536     48539
     48539     48540     48539     48541     48539     48542     48542     48543
     48542     48544     48542     48545     48545     48546     48545     48547
     48545     48548     48548     48549     48548     48553     48548     48550
     48553     48554     48553     48555     48553     48550     48555     48556
     48555     48557     48555     48558     48558     48559     48558     48560
     48558     48561     48561     48562     48561     48563     48561     48564
     48564     48565     48564     48566     48564     48567     48567     48568
     48567     48569     48567     48570     48570     48571     48570     48572
     48570     48573     48550     48551     48550     48552     48524     48525
     48525     48527     48525     48526     48527     48528     48527     48529
     48527     48574     48574     48575     48574     48576     48574     48577
     48577     48578     48577     48579     48577     48580     48580     48581
     48580     48582     48580     48583     48583     48584     48583     48585
     48583     48586     48586     48587     48586     48588     48586     48589
     48589     48590     48589     48591     48589     48592     48592     48593
     48592     48594     48592     48595     48595     48596     48595     48597
     48595     48598     48598     48599     48598     48600     48598     48601
     48601     48602     48601     48603     48601     48604     48604     48605
     48604     48606     48604     48607     48607     48608     48607     48609
     48607     48610     48610     48611     48610     48612     48610     48613
     48613     48614     48613     48615     48613     48616     48617     48618
     48617     48619     48617     48620     48617     48621     48621     48622
     48621     48623     48621     48624     48624     48625     48624     48626
     48624     48631     48631     48627     48627     48630     48627     48628
     48627     48629     48632     48633     48632     48634     48632     48635
     48632     48630     48635     48636     48635     48643     48635     48637
     48643     48644     48643     48645     48643     48646     48637     48638
     48638     48640     48638     48639     48640     48641     48640     48642
     48640     48652     48652     48653     48652     48654     48652     48655
     48655     48656     48655     48657     48655     48658     48658     48659
     48658     48660     48658     48661     48661     48662     48661     48663
     48661     48664     48664     48665     48664     48666     48664     48667
     48667     48668     48667     48669     48667     48670     48670     48671
     48670     48675     48670     48672     48675     48676     48675     48677
     48675     48672     48677     48678     48677     48679     48677     48680
     48680     48681     48680     48682     48680     48683     48683     48684
     48683     48685     48683     48686     48686     48687     48686     48688
     48686     48689     48689     48690     48689     48691     48689     48692
     48692     48693     48692     48694     48692     48695     48672     48673
     48672     48674     48646     48647     48647     48649     48647     48648
     48649     48650     48649     48651     48649     48696     48696     48697
     48696     48698     48696     48699     48699     48700     48699     48701
     48699     48702     48702     48703     48702     48704     48702     48705
     48705     48706     48705     48707     48705     48708     48708     48709
     48708     48710     48708     48711     48711     48712     48711     48713
     48711     48714     48714     48715     48714     48716     48714     48717
     48717     48718     48717     48719     48717     48720     48720     48721
     48720     48722     48720     48723     48723     48724     48723     48725
     48723     48726     48726     48727     48726     48728     48726     48729
     48729     48730     48729     48731     48729     48732     48732     48733
     48732     48734     48732     48735     48735     48736     48735     48737
     48735     48738     48739     48740     48739     48741     48739     48742
     48739     48743     48743     48744     48743     48745     48743     48746
     48746     48747     48746     48748     48746     48753     48753     48749
     48749     48752     48749     48750     48749     48751     48754     48755
     48754     48756     48754     48757     48754     48752     48757     48758
     48757     48765     48757     48759     48765     48766     48765     48767
     48765     48768     48759     48760     48760     48762     48760     48761
     48762     48763     48762     48764     48762     48774     48774     48775
     48774     48776     48774     48777     48777     48778     48777     48779
     48777     48780     48780     48781     48780     48782     48780     48783
     48783     48784     48783     48785     48783     48786     48786     48787
     48786     48788     48786     48789     48789     48790     48789     48791
     48789     48792     48792     48793     48792     48797     48792     48794
     48797     48798     48797     48799     48797     48794     48799     48800
     48799     48801     48799     48802     48802     48803     48802     48804
     48802     48805     48805     48806     48805     48807     48805     48808
     48808     48809     48808     48810     48808     48811     48811     48812
     48811     48813     48811     48814     48814     48815     48814     48816
     48814     48817     48794     48795     48794     48796     48768     48769
     48769     48771     48769     48770     48771     48772     48771     48773
     48771     48818     48818     48819     48818     48820     48818     48821
     48821     48822     48821     48823     48821     48824     48824     48825
     48824     48826     48824     48827     48827     48828     48827     48829
     48827     48830     48830     48831     48830     48832     48830     48833
     48833     48834     48833     48835     48833     48836     48836     48837
     48836     48838     48836     48839     48839     48840     48839     48841
     48839     48842     48842     48843     48842     48844     48842     48845
     48845     48846     48845     48847     48845     48848     48848     48849
     48848     48850     48848     48851     48851     48852     48851     48853
     48851     48854     48854     48855     48854     48856     48854     48857
     48857     48858     48857     48859     48857     48860     48861     48862
     48861     48863     48861     48864     48861     48865     48865     48866
     48865     48867     48865     48868     48868     48869     48868     48870
     48868     48875     48875     48871     48871     48874     48871     48872
     48871     48873     48876     48877     48876     48878     48876     48879
     48876     48874     48879     48880     48879     48887     48879     48881
     48887     48888     48887     48889     48887     48890     48881     48882
     48882     48884     48882     48883     48884     48885     48884     48886
     48884     48896     48896     48897     48896     48898     48896     48899
     48899     48900     48899     48901     48899     48902     48902     48903
     48902     48904     48902     48905     48905     48906     48905     48907
     48905     48908     48908     48909     48908     48910     48908     48911
     48911     48912     48911     48913     48911     48914     48914     48915
     48914     48919     48914     48916     48919     48920     48919     48921
     48919     48916     48921     48922     48921     48923     48921     48924
     48924     48925     48924     48926     48924     48927     48927     48928
     48927     48929     48927     48930     48930     48931     48930     48932
     48930     48933     48933     48934     48933     48935     48933     48936
     48936     48937     48936     48938     48936     48939     48916     48917
     48916     48918     48890     48891     48891     48893     48891     48892
     48893     48894     48893     48895     48893     48940     48940     48941
     48940     48942     48940     48943     48943     48944     48943     48945
     48943     48946     48946     48947     48946     48948     48946     48949
     48949     48950     48949     48951     48949     48952     48952     48953
     48952     48954     48952     48955     48955     48956     48955     48957
     48955     48958     48958     48959     48958     48960     48958     48961
     48961     48962     48961     48963     48961     48964     48964     48965
     48964     48966     48964     48967     48967     48968     48967     48969
     48967     48970     48970     48971     48970     48972     48970     48973
     48973     48974     48973     48975     48973     48976     48976     48977
     48976     48978     48976     48979     48980     48981     48980     48982
     48980     48983     48980     48984     48984     48985     48984     48986
     48984     48987     48987     48988     48987     48989     48987     48994
     48994     48990     48990     48993     48990     48991     48990     48992
     48995     48996     48995     48997     48995     48998     48995     48993
     48998     48999     48998     49006     48998     49000     49006     49007
     49006     49008     49006     49009     49000     49001     49001     49003
     49001     49002     49003     49004     49003     49005     49003     49015
     49015     49016     49015     49017     49015     49018     49018     49019
     49018     49020     49018     49021     49021     49022     49021     49023
     49021     49024     49024     49025     49024     49026     49024     49027
     49027     49028     49027     49029     49027     49030     49030     49031
     49030     49032     49030     49033     49033     49034     49033     49038
     49033     49035     49038     49039     49038     49040     49038     49035
     49040     49041     49040     49042     49040     49043     49043     49044
     49043     49045     49043     49046     49046     49047     49046     49048
     49046     49049     49049     49050     49049     49051     49049     49052
     49052     49053     49052     49054     49052     49055     49055     49056
     49055     49057     49055     49058     49035     49036     49035     49037
     49009     49010     49010     49012     49010     49011     49012     49013
     49012     49014     49012     49059     49059     49060     49059     49061
     49059     49062     49062     49063     49062     49064     49062     49065
     49065     49066     49065     49067     49065     49068     49068     49069
     49068     49070     49068     49071     49071     49072     49071     49073
     49071     49074     49074     49075     49074     49076     49074     49077
     49077     49078     49077     49079     49077     49080     49080     49081
     49080     49082     49080     49083     49083     49084     49083     49085
     49083     49086     49086     49087     49086     49088     49086     49089
     49089     49090     49089     49091     49089     49092     49092     49093
     49092     49094     49092     49095     49095     49096     49095     49097
     49095     49098     49098     49099     49098     49100     49098     49101
     49102     49103     49102     49104     49102     49105     49102     49106
     49106     49107     49106     49108     49106     49109     49109     49110
     49109     49111     49109     49116     49116     49112     49112     49115
     49112     49113     49112     49114     49117     49118     49117     49119
     49117     49120     49117     49115     49120     49121     49120     49128
     49120     49122     49128     49129     49128     49130     49128     49131
     49122     49123     49123     49125     49123     49124     49125     49126
     49125     49127     49125     49137     49137     49138     49137     49139
     49137     49140     49140     49141     49140     49142     49140     49143
     49143     49144     49143     49145     49143     49146     49146     49147
     49146     49148     49146     49149     49149     49150     49149     49151
     49149     49152     49152     49153     49152     49154     49152     49155
     49155     49156     49155     49160     49155     49157     49160     49161
     49160     49162     49160     49157     49162     49163     49162     49164
     49162     49165     49165     49166     49165     49167     49165     49168
     49168     49169     49168     49170     49168     49171     49171     49172
     49171     49173     49171     49174     49174     49175     49174     49176
     49174     49177     49177     49178     49177     49179     49177     49180
     49157     49158     49157     49159     49131     49132     49132     49134
     49132     49133     49134     49135     49134     49136     49134     49181
     49181     49182     49181     49183     49181     49184     49184     49185
     49184     49186     49184     49187     49187     49188     49187     49189
     49187     49190     49190     49191     49190     49192     49190     49193
     49193     49194     49193     49195     49193     49196     49196     49197
     49196     49198     49196     49199     49199     49200     49199     49201
     49199     49202     49202     49203     49202     49204     49202     49205
     49205     49206     49205     49207     49205     49208     49208     49209
     49208     49210     49208     49211     49211     49212     49211     49213
     49211     49214     49214     49215     49214     49216     49214     49217
     49217     49218     49217     49219     49217     49220     49221     49222
     49221     49223     49221     49224     49221     49225     49225     49226
     49225     49227     49225     49228     49228     49229     49228     49230
     49228     49235     49235     49231     49231     49234     49231     49232
     49231     49233     49236     49237     49236     49238     49236     49239
     49236     49234     49239     49240     49239     49247     49239     49241
     49247     49248     49247     49249     49247     49250     49241     49242
     49242     49244     49242     49243     49244     49245     49244     49246
     49244     49256     49256     49257     49256     49258     49256     49259
     49259     49260     49259     49261     49259     49262     49262     49263
     49262     49264     49262     49265     49265     49266     49265     49267
     49265     49268     49268     49269     49268     49270     49268     49271
     49271     49272     49271     49273     49271     49274     49274     49275
     49274     49279     49274     49276     49279     49280     49279     49281
     49279     49276     49281     49282     49281     49283     49281     49284
     49284     49285     49284     49286     49284     49287     49287     49288
     49287     49289     49287     49290     49290     49291     49290     49292
     49290     49293     49293     49294     49293     49295     49293     49296
     49296     49297     49296     49298     49296     49299     49276     49277
     49276     49278     49250     49251     49251     49253     49251     49252
     49253     49254     49253     49255     49253     49300     49300     49301
     49300     49302     49300     49303     49303     49304     49303     49305
     49303     49306     49306     49307     49306     49308     49306     49309
     49309     49310     49309     49311     49309     49312     49312     49313
     49312     49314     49312     49315     49315     49316     49315     49317
     49315     49318     49318     49319     49318     49320     49318     49321
     49321     49322     49321     49323     49321     49324     49324     49325
     49324     49326     49324     49327     49327     49328     49327     49329
     49327     49330     49330     49331     49330     49332     49330     49333
     49333     49334     49333     49335     49333     49336     49336     49337
     49336     49338     49336     49339     49340     49341     49340     49342
     49340     49343     49340     49344     49344     49345     49344     49346
     49344     49347     49347     49348     49347     49349     49347     49354
     49354     49350     49350     49353     49350     49351     49350     49352
     49355     49356     49355     49357     49355     49358     49355     49353
     49358     49359     49358     49366     49358     49360     49366     49367
     49366     49368     49366     49369     49360     49361     49361     49363
     49361     49362     49363     49364     49363     49365     49363     49375
     49375     49376     49375     49377     49375     49378     49378     49379
     49378     49380     49378     49381     49381     49382     49381     49383
     49381     49384     49384     49385     49384     49386     49384     49387
     49387     49388     49387     49389     49387     49390     49390     49391
     49390     49392     49390     49393     49393     49394     49393     49398
     49393     49395     49398     49399     49398     49400     49398     49395
     49400     49401     49400     49402     49400     49403     49403     49404
     49403     49405     49403     49406     49406     49407     49406     49408
     49406     49409     49409     49410     49409     49411     49409     49412
     49412     49413     49412     49414     49412     49415     49415     49416
     49415     49417     49415     49418     49395     49396     49395     49397
     49369     49370     49370     49372     49370     49371     49372     49373
     49372     49374     49372     49419     49419     49420     49419     49421
     49419     49422     49422     49423     49422     49424     49422     49425
     49425     49426     49425     49427     49425     49428     49428     49429
     49428     49430     49428     49431     49431     49432     49431     49433
     49431     49434     49434     49435     49434     49436     49434     49437
     49437     49438     49437     49439     49437     49440     49440     49441
     49440     49442     49440     49443     49443     49444     49443     49445
     49443     49446     49446     49447     49446     49448     49446     49449
     49449     49450     49449     49451     49449     49452     49452     49453
     49452     49454     49452     49455     49455     49456     49455     49457
     49455     49458     49458     49459     49458     49460     49458     49461
     49462     49463     49462     49464     49462     49465     49462     49466
     49466     49467     49466     49468     49466     49469     49469     49470
     49469     49471     49469     49476     49476     49472     49472     49475
     49472     49473     49472     49474     49477     49478     49477     49479
     49477     49480     49477     49475     49480     49481     49480     49488
     49480     49482     49488     49489     49488     49490     49488     49491
     49482     49483     49483     49485     49483     49484     49485     49486
     49485     49487     49485     49497     49497     49498     49497     49499
     49497     49500     49500     49501     49500     49502     49500     49503
     49503     49504     49503     49505     49503     49506     49506     49507
     49506     49508     49506     49509     49509     49510     49509     49511
     49509     49512     49512     49513     49512     49514     49512     49515
     49515     49516     49515     49517     49517     49518     49517     49519
     49519     49520     49519     49521     49519     49522     49522     49523
     49522     49524     49522     49525     49525     49526     49525     49527
     49525     49528     49528     49529     49528     49530     49528     49531
     49531     49532     49531     49533     49531     49534     49534     49535
     49534     49536     49534     49537     49537     49538     49537     49539
     49537     49540     49540     49541     49540     49542     49540     49543
     49491     49492     49492     49494     49492     49493     49494     49495
     49494     49496     49494     49544     49544     49545     49544     49546
     49544     49547     49547     49548     49547     49549     49547     49550
     49550     49551     49550     49552     49550     49553     49553     49554
     49553     49555     49553     49556     49556     49557     49556     49558
     49556     49559     49559     49560     49559     49561     49559     49562
     49562     49563     49562     49564     49562     49565     49565     49566
     49565     49567     49565     49568     49568     49569     49568     49570
     49568     49571     49571     49572     49571     49573     49571     49574
     49574     49575     49574     49576     49574     49577     49577     49578
     49577     49579     49577     49580     49580     49581     49580     49582
     49580     49583     49583     49584     49583     49585     49583     49586
     49587     49588     49587     49589     49587     49590     49587     49591
     49591     49592     49591     49593     49591     49594     49594     49595
     49594     49596     49594     49601     49601     49597     49597     49600
     49597     49598     49597     49599     49602     49603     49602     49604
     49602     49605     49602     49600     49605     49606     49605     49613
     49605     49607     49613     49614     49613     49615     49613     49616
     49607     49608     49608     49610     49608     49609     49610     49611
     49610     49612     49610     49622     49622     49623     49622     49624
     49622     49625     49625     49626     49625     49627     49625     49628
     49628     49629     49628     49630     49628     49631     49631     49632
     49631     49633     49631     49634     49634     49635     49634     49636
     49634     49637     49637     49638     49637     49639     49637     49640
     49640     49641     49640     49642     49642     49643     49642     49644
     49644     49645     49644     49646     49644     49647     49647     49648
     49647     49649     49647     49650     49650     49651     49650     49652
     49650     49653     49653     49654     49653     49655     49653     49656
     49656     49657     49656     49658     49656     49659     49659     49660
     49659     49661     49659     49662     49662     49663     49662     49664
     49662     49665     49665     49666     49665     49667     49665     49668
     49616     49617     49617     49619     49617     49618     49619     49620
     49619     49621     49619     49669     49669     49670     49669     49671
     49669     49672     49672     49673     49672     49674     49672     49675
     49675     49676     49675     49677     49675     49678     49678     49679
     49678     49680     49678     49681     49681     49682     49681     49683
     49681     49684     49684     49685     49684     49686     49684     49687
     49687     49688     49687     49689     49687     49690     49690     49691
     49690     49692     49690     49693     49693     49694     49693     49695
     49693     49696     49696     49697     49696     49698     49696     49699
     49699     49700     49699     49701     49699     49702     49702     49703
     49702     49704     49702     49705     49705     49706     49705     49707
     49705     49708     49708     49709     49708     49710     49708     49711
     49716     49715     49715     49712     49712     49713     49712     49714
     49712     49717     49720     49719     49719     49717     49717     49718
     49717     49721     49721     49722     49721     49723     49721     49728
     49728     49724     49724     49727     49724     49725     49724     49726
     49729     49730     49729     49731     49729     49732     49729     49727
     49732     49733     49732     49740     49732     49734     49740     49741
     49740     49742     49740     49743     49734     49735     49735     49737
     49735     49736     49737     49738     49737     49739     49737     49749
     49749     49750     49749     49751     49749     49752     49752     49753
     49752     49754     49752     49755     49755     49756     49755     49757
     49755     49758     49758     49759     49758     49760     49758     49761
     49761     49762     49761     49763     49761     49764     49764     49765
     49764     49766     49764     49767     49767     49768     49767     49769
     49769     49770     49769     49771     49771     49772     49771     49773
     49771     49774     49774     49775     49774     49776     49774     49777
     49777     49778     49777     49779     49777     49780     49780     49781
     49780     49782     49780     49783     49783     49784     49783     49785
     49783     49786     49786     49787     49786     49788     49786     49789
     49743     49744     49744     49746     49744     49745     49746     49747
     49746     49748     49746     49790     49790     49791     49790     49792
     49790     49793     49793     49794     49793     49795     49793     49796
     49796     49797     49796     49798     49796     49799     49799     49800
     49799     49801     49799     49802     49802     49803     49802     49804
     49802     49805     49805     49806     49805     49807     49805     49808
     49808     49809     49808     49810     49808     49811     49811     49812
     49811     49813     49811     49814     49814     49815     49814     49816
     49814     49817     49817     49818     49817     49819     49817     49820
     49820     49821     49820     49822     49820     49823     49823     49824
     49823     49825     49823     49826     49826     49827     49826     49828
     49826     49829     49829     49830     49829     49831     49829     49832

     96208 !NTHETA: angles
         1         5         6         1         5         7         1         5         8
         2         1         3         2         1         4         2         1         5
         3         1         4         3         1         5         4         1         5
         5         8         9         5         8        10         5         8        15
         6         5         7         6         5         8         7         5         8
         8        15        11         9         8        10         9         8        15
        10         8        15        11        14        16        12        11        13
        12        11        14        12        11        15        13        11        14
        13        11        15        14        11        15        14        16        17
        14        16        18        14        16        19        16        19        20
        16        19        21        16        19        27        17        16        18
        17        16        19        18        16        19        19        21        22
        19        27        28        19        27        29        19        27        30
        20        19        21        20        19        27        21        19        27
        21        22        23        21        22        24        22        24        25
        22        24        26        22        24        36        23        22        24
        24        36        37        24        36        38        24        36        39
        25        24        26        25        24        36        26        24        36
        27        30        31        28        27        29        28        27        30
        29        27        30        30        31        32        30        31        33
        31        33        34        31        33        35        31        33        83
        32        31        33        33        83        84        33        83        85
        33        83        86        34        33        35        34        33        83
        35        33        83        36        39        40        36        39        41
        36        39        42        37        36        38        37        36        39
        38        36        39        39        42        43        39        42        44
        39        42        45        40        39        41        40        39        42
        41        39        42        42        45        46        42        45        47
        42        45        48        43        42        44        43        42        45
        44        42        45        45        48        49        45        48        50
        45        48        51        46        45        47        46        45        48
        47        45        48        48        51        52        48        51        53
        48        51        54        49        48        50        49        48        51
        50        48        51        51        54        55        51        54        56
        52        51        53        52        51        54        53        51        54
        54        56        57        54        56        58        55        54        56
        56        58        59        56        58        60        56        58        61
        57        56        58        58        61        62        58        61        63
        58        61        64        59        58        60        59        58        61
        60        58        61        61        64        65        61        64        66
        61        64        67        62        61        63        62        61        64
        63        61        64        64        67        68        64        67        69
        64        67        70        65        64        66        65        64        67
        66        64        67        67        70        71        67        70        72
        67        70        73        68        67        69        68        67        70
        69        67        70        70        73        74        70        73        75
        70        73        76        71        70        72        71        70        73
        72        70        73        73        76        77        73        76        78
        73        76        79        74        73        75        74        73        76
        75        73        76        76        79        80        76        79        81
        76        79        82        77        76        78        77        76        79
        78        76        79        80        79        81        80        79        82
        81        79        82        83        86        87        83        86        88
        83        86        89        84        83        85        84        83        86
        85        83        86        86        89        90        86        89        91
        86        89        92        87        86        88        87        86        89
        88        86        89        89        92        93        89        92        94
        89        92        95        90        89        91        90        89        92
        91        89        92        92        95        96        92        95        97
        92        95        98        93        92        94        93        92        95
        94        92        95        95        98        99        95        98       100
        95        98       101        96        95        97        96        95        98
        97        95        98        98       101       102        98       101       103
        98       101       104        99        98       100        99        98       101
       100        98       101       101       104       105       101       104       106
       101       104       107       102       101       103       102       101       104
       103       101       104       104       107       108       104       107       109
       104       107       110       105       104       106       105       104       107
       106       104       107       107       110       111       107       110       112
       107       110       113       108       107       109       108       107       110
       109       107       110       110       113       114       110       113       115
       110       113       116       111       110       112       111       110       113
       112       110       113       113       116       117       113       116       118
       113       116       119       114       113       115       114       113       116
       115       113       116       116       119       120       116       119       121
       116       119       122       117       116       118       117       116       119
       118       116       119       119       122       123       119       122       124
       119       122       125       120       119       121       120       119       122
       121       119       122       123       122       124       123       122       125
       124       122       125       126       130       131       126       130       132
       126       130       133       127       126       128       127       126       129
       127       126       130       128       126       129       128       126       130
       129       126       130       130       133       134       130       133       135
       130       133       140       131       130       132       131       130       133
       132       130       133       133       140       136       134       133       135
       134       133       140       135       133       140       136       139       141
       137       136       138       137       136       139       137       136       140
       138       136       139       138       136       140       139       136       140
       139       141       142       139       141       143       139       141       144
       141       144       145       141       144       146       141       144       152
       142       141       143       142       141       144       143       141       144
       144       146       147       144       152       153       144       152       154
       144       152       155       145       144       146       145       144       152
       146       144       152       146       147       148       146       147       149
       147       149       150       147       149       151       147       149       161
       148       147       149       149       161       162       149       161       163
       149       161       164       150       149       151       150       149       161
       151       149       161       152       155       156       153       152       154
       153       152       155       154       152       155       155       156       157
       155       156       158       156       158       159       156       158       160
       156       158       205       157       156       158       158       205       206
       158       205       207       158       205       208       159       158       160
       159       158       205       160       158       205       161       164       165
       161       164       166       161       164       167       162       161       163
       162       161       164       163       161       164       164       167       168
       164       167       169       164       167       170       165       164       166
       165       164       167       166       164       167       167       170       171
       167       170       172       167       170       173       168       167       169
       168       167       170       169       167       170       170       173       174
       170       173       175       170       173       176       171       170       172
       171       170       173       172       170       173       173       176       177
       173       176       178       173       176       179       174       173       175
       174       173       176       175       173       176       176       179       180
       176       179       181       176       179       184       177       176       178
       177       176       179       178       176       179       179       181       182
       179       181       183       179       181       184       179       184       181
       179       184       185       179       184       186       180       179       181
       180       179       184       181       179       184       181       184       185
       181       184       186       182       181       183       182       181       184
       183       181       184       184       186       187       184       186       188
       184       186       189       185       184       186       186       189       190
       186       189       191       186       189       192       187       186       188
       187       186       189       188       186       189       189       192       193
       189       192       194       189       192       195       190       189       191
       190       189       192       191       189       192       192       195       196
       192       195       197       192       195       198       193       192       194
       193       192       195       194       192       195       195       198       199
       195       198       200       195       198       201       196       195       197
       196       195       198       197       195       198       198       201       202
       198       201       203       198       201       204       199       198       200
       199       198       201       200       198       201       202       201       203
       202       201       204       203       201       204       205       208       209
       205       208       210       205       208       211       206       205       207
       206       205       208       207       205       208       208       211       212
       208       211       213       208       211       214       209       208       210
       209       208       211       210       208       211       211       214       215
       211       214       216       211       214       217       212       211       213
       212       211       214       213       211       214       214       217       218
       214       217       219       214       217       220       215       214       216
       215       214       217       216       214       217       217       220       221
       217       220       222       217       220       223       218       217       219
       218       217       220       219       217       220       220       223       224
       220       223       225       220       223       226       221       220       222
       221       220       223       222       220       223       223       226       227
       223       226       228       223       226       229       224       223       225
       224       223       226       225       223       226       226       229       230
       226       229       231       226       229       232       227       226       228
       227       226       229       228       226       229       229       232       233
       229       232       234       229       232       235       230       229       231
       230       229       232       231       229       232       232       235       236
       232       235       237       232       235       238       233       232       234
       233       232       235       234       232       235       235       238       239
       235       238       240       235       238       241       236       235       237
       236       235       238       237       235       238       238       241       242
       238       241       243       238       241       244       239       238       240
       239       238       241       240       238       241       241       244       245
       241       244       246       241       244       247       242       241       243
       242       241       244       243       241       244       245       244       246
       245       244       247       246       244       247       248       252       253
       248       252       254       248       252       255       249       248       250
       249       248       251       249       248       252       250       248       251
       250       248       252       251       248       252       252       255       256
       252       255       257       252       255       262       253       252       254
       253       252       255       254       252       255       255       262       258
       256       255       257       256       255       262       257       255       262
       258       261       263       259       258       260       259       258       261
       259       258       262       260       258       261       260       258       262
       261       258       262       261       263       264       261       263       265
       261       263       266       263       266       267       263       266       268
       263       266       274       264       263       265       264       263       266
       265       263       266       266       268       269       266       274       275
       266       274       276       266       274       277       267       266       268
       267       266       274       268       266       274       268       269       270
       268       269       271       269       271       272       269       271       273
       269       271       283       270       269       271       271       283       284
       271       283       285       271       283       286       272       271       273
       272       271       283       273       271       283       274       277       278
       275       274       276       275       274       277       276       274       277
       277       278       279       277       278       280       278       280       281
       278       280       282       278       280       327       279       278       280
       280       327       328       280       327       329       280       327       330
       281       280       282       281       280       327       282       280       327
       283       286       287       283       286       288       283       286       289
       284       283       285       284       283       286       285       283       286
       286       289       290       286       289       291       286       289       292
       287       286       288       287       286       289       288       286       289
       289       292       293       289       292       294       289       292       295
       290       289       291       290       289       292       291       289       292
       292       295       296       292       295       297       292       295       298
       293       292       294       293       292       295       294       292       295
       295       298       299       295       298       300       295       298       301
       296       295       297       296       295       298       297       295       298
       298       301       302       298       301       303       298       301       306
       299       298       300       299       298       301       300       298       301
       301       303       304       301       303       305       301       303       306
       301       306       303       301       306       307       301       306       308
       302       301       303       302       301       306       303       301       306
       303       306       307       303       306       308       304       303       305
       304       303       306       305       303       306       306       308       309
       306       308       310       306       308       311       307       306       308
       308       311       312       308       311       313       308       311       314
       309       308       310       309       308       311       310       308       311
       311       314       315       311       314       316       311       314       317
       312       311       313       312       311       314       313       311       314
       314       317       318       314       317       319       314       317       320
       315       314       316       315       314       317       316       314       317
       317       320       321       317       320       322       317       320       323
       318       317       319       318       317       320       319       317       320
       320       323       324       320       323       325       320       323       326
       321       320       322       321       320       323       322       320       323
       324       323       325       324       323       326       325       323       326
       327       330       331       327       330       332       327       330       333
       328       327       329       328       327       330       329       327       330
       330       333       334       330       333       335       330       333       336
       331       330       332       331       330       333       332       330       333
       333       336       337       333       336       338       333       336       339
       334       333       335       334       333       336       335       333       336
       336       339       340       336       339       341       336       339       342
       337       336       338       337       336       339       338       336       339
       339       342       343       339       342       344       339       342       345
       340       339       341       340       339       342       341       339       342
       342       345       346       342       345       347       342       345       348
       343       342       344       343       342       345       344       342       345
       345       348       349       345       348       350       345       348       351
       346       345       347       346       345       348       347       345       348
       348       351       352       348       351       353       348       351       354
       349       348       350       349       348       351       350       348       351
       351       354       355       351       354       356       351       354       357
       352       351       353       352       351       354       353       351       354
       354       357       358       354       357       359       354       357       360
       355       354       356       355       354       357       356       354       357
       357       360       361       357       360       362       357       360       363
       358       357       359       358       357       360       359       357       360
       360       363       364       360       363       365       360       363       366
       361       360       362       361       360       363       362       360       363
       363       366       367       363       366       368       363       366       369
       364       363       365       364       363       366       365       363       366
       367       366       368       367       366       369       368       366       369
       370       374       375       370       374       376       370       374       377
       371       370       372       371       370       373       371       370       374
       372       370       373       372       370       374       373       370       374
       374       377       378       374       377       379       374       377       384
       375       374       376       375       374       377       376       374       377
       377       384       380       378       377       379       378       377       384
       379       377       384       380       383       385       381       380       382
       381       380       383       381       380       384       382       380       383
       382       380       384       383       380       384       383       385       386
       383       385       387       383       385       388       385       388       389
       385       388       390       385       388       396       386       385       387
       386       385       388       387       385       388       388       390       391
       388       396       397       388       396       398       388       396       399
       389       388       390       389       388       396       390       388       396
       390       391       392       390       391       393       391       393       394
       391       393       395       391       393       405       392       391       393
       393       405       406       393       405       407       393       405       408
       394       393       395       394       393       405       395       393       405
       396       399       400       397       396       398       397       396       399
       398       396       399       399       400       401       399       400       402
       400       402       403       400       402       404       400       402       452
       401       400       402       402       452       453       402       452       454
       402       452       455       403       402       404       403       402       452
       404       402       452       405       408       409       405       408       410
       405       408       411       406       405       407       406       405       408
       407       405       408       408       411       412       408       411       413
       408       411       414       409       408       410       409       408       411
       410       408       411       411       414       415       411       414       416
       411       414       417       412       411       413       412       411       414
       413       411       414       414       417       418       414       417       419
       414       417       420       415       414       416       415       414       417
       416       414       417       417       420       421       417       420       422
       417       420       423       418       417       419       418       417       420
       419       417       420       420       423       424       420       423       425
       421       420       422       421       420       423       422       420       423
       423       425       426       423       425       427       424       423       425
       425       427       428       425       427       429       425       427       430
       426       425       427       427       430       431       427       430       432
       427       430       433       428       427       429       428       427       430
       429       427       430       430       433       434       430       433       435
       430       433       436       431       430       432       431       430       433
       432       430       433       433       436       437       433       436       438
       433       436       439       434       433       435       434       433       436
       435       433       436       436       439       440       436       439       441
       436       439       442       437       436       438       437       436       439
       438       436       439       439       442       443       439       442       444
       439       442       445       440       439       441       440       439       442
       441       439       442       442       445       446       442       445       447
       442       445       448       443       442       444       443       442       445
       444       442       445       445       448       449       445       448       450
       445       448       451       446       445       447       446       445       448
       447       445       448       449       448       450       449       448       451
       450       448       451       452       455       456       452       455       457
       452       455       458       453       452       454       453       452       455
       454       452       455       455       458       459       455       458       460
       455       458       461       456       455       457       456       455       458
       457       455       458       458       461       462       458       461       463
       458       461       464       459       458       460       459       458       461
       460       458       461       461       464       465       461       464       466
       461       464       467       462       461       463       462       461       464
       463       461       464       464       467       468       464       467       469
       464       467       470       465       464       466       465       464       467
       466       464       467       467       470       471       467       470       472
       467       470       473       468       467       469       468       467       470
       469       467       470       470       473       474       470       473       475
       470       473       476       471       470       472       471       470       473
       472       470       473       473       476       477       473       476       478
       473       476       479       474       473       475       474       473       476
       475       473       476       476       479       480       476       479       481
       476       479       482       477       476       478       477       476       479
       478       476       479       479       482       483       479       482       484
       479       482       485       480       479       481       480       479       482
       481       479       482       482       485       486       482       485       487
       482       485       488       483       482       484       483       482       485
       484       482       485       485       488       489       485       488       490
       485       488       491       486       485       487       486       485       488
       487       485       488       488       491       492       488       491       493
       488       491       494       489       488       490       489       488       491
       490       488       491       492       491       493       492       491       494
       493       491       494       495       499       500       495       499       501
       495       499       502       496       495       497       496       495       498
       496       495       499       497       495       498       497       495       499
       498       495       499       499       502       503       499       502       504
       499       502       509       500       499       501       500       499       502
       501       499       502       502       509       505       503       502       504
       503       502       509       504       502       509       505       508       510
       506       505       507       506       505       508       506       505       509
       507       505       508       507       505       509       508       505       509
       508       510       511       508       510       512       508       510       513
       510       513       514       510       513       515       510       513       521
       511       510       512       511       510       513       512       510       513
       513       515       516       513       521       522       513       521       523
       513       521       524       514       513       515       514       513       521
       515       513       521       515       516       517       515       516       518
       516       518       519       516       518       520       516       518       530
       517       516       518       518       530       531       518       530       532
       518       530       533       519       518       520       519       518       530
       520       518       530       521       524       525       522       521       523
       522       521       524       523       521       524       524       525       526
       524       525       527       525       527       528       525       527       529
       525       527       574       526       525       527       527       574       575
       527       574       576       527       574       577       528       527       529
       528       527       574       529       527       574       530       533       534
       530       533       535       530       533       536       531       530       532
       531       530       533       532       530       533       533       536       537
       533       536       538       533       536       539       534       533       535
       534       533       536       535       533       536       536       539       540
       536       539       541       536       539       542       537       536       538
       537       536       539       538       536       539       539       542       543
       539       542       544       539       542       545       540       539       541
       540       539       542       541       539       542       542       545       546
       542       545       547       542       545       548       543       542       544
       543       542       545       544       542       545       545       548       549
       545       548       550       545       548       553       546       545       547
       546       545       548       547       545       548       548       550       551
       548       550       552       548       550       553       548       553       550
       548       553       554       548       553       555       549       548       550
       549       548       553       550       548       553       550       553       554
       550       553       555       551       550       552       551       550       553
       552       550       553       553       555       556       553       555       557
       553       555       558       554       553       555       555       558       559
       555       558       560       555       558       561       556       555       557
       556       555       558       557       555       558       558       561       562
       558       561       563       558       561       564       559       558       560
       559       558       561       560       558       561       561       564       565
       561       564       566       561       564       567       562       561       563
       562       561       564       563       561       564       564       567       568
       564       567       569       564       567       570       565       564       566
       565       564       567       566       564       567       567       570       571
       567       570       572       567       570       573       568       567       569
       568       567       570       569       567       570       571       570       572
       571       570       573       572       570       573       574       577       578
       574       577       579       574       577       580       575       574       576
       575       574       577       576       574       577       577       580       581
       577       580       582       577       580       583       578       577       579
       578       577       580       579       577       580       580       583       584
       580       583       585       580       583       586       581       580       582
       581       580       583       582       580       583       583       586       587
       583       586       588       583       586       589       584       583       585
       584       583       586       585       583       586       586       589       590
       586       589       591       586       589       592       587       586       588
       587       586       589       588       586       589       589       592       593
       589       592       594       589       592       595       590       589       591
       590       589       592       591       589       592       592       595       596
       592       595       597       592       595       598       593       592       594
       593       592       595       594       592       595       595       598       599
       595       598       600       595       598       601       596       595       597
       596       595       598       597       595       598       598       601       602
       598       601       603       598       601       604       599       598       600
       599       598       601       600       598       601       601       604       605
       601       604       606       601       604       607       602       601       603
       602       601       604       603       601       604       604       607       608
       604       607       609       604       607       610       605       604       606
       605       604       607       606       604       607       607       610       611
       607       610       612       607       610       613       608       607       609
       608       607       610       609       607       610       610       613       614
       610       613       615       610       613       616       611       610       612
       611       610       613       612       610       613       614       613       615
       614       613       616       615       613       616       617       621       622
       617       621       623       617       621       624       618       617       619
       618       617       620       618       617       621       619       617       620
       619       617       621       620       617       621       621       624       625
       621       624       626       621       624       631       622       621       623
       622       621       624       623       621       624       624       631       627
       625       624       626       625       624       631       626       624       631
       627       630       632       628       627       629       628       627       630
       628       627       631       629       627       630       629       627       631
       630       627       631       630       632       633       630       632       634
       630       632       635       632       635       636       632       635       637
       632       635       643       633       632       634       633       632       635
       634       632       635       635       637       638       635       643       644
       635       643       645       635       643       646       636       635       637
       636       635       643       637       635       643       637       638       639
       637       638       640       638       640       641       638       640       642
       638       640       652       639       638       640       640       652       653
       640       652       654       640       652       655       641       640       642
       641       640       652       642       640       652       643       646       647
       644       643       645       644       643       646       645       643       646
       646       647       648       646       647       649       647       649       650
       647       649       651       647       649       699       648       647       649
       649       699       700       649       699       701       649       699       702
       650       649       651       650       649       699       651       649       699
       652       655       656       652       655       657       652       655       658
       653       652       654       653       652       655       654       652       655
       655       658       659       655       658       660       655       658       661
       656       655       657       656       655       658       657       655       658
       658       661       662       658       661       663       658       661       664
       659       658       660       659       658       661       660       658       661
       661       664       665       661       664       666       661       664       667
       662       661       663       662       661       664       663       661       664
       664       667       668       664       667       669       664       667       670
       665       664       666       665       664       667       666       664       667
       667       670       671       667       670       672       668       667       669
       668       667       670       669       667       670       670       672       673
       670       672       674       671       670       672       672       674       675
       672       674       676       672       674       677       673       672       674
       674       677       678       674       677       679       674       677       680
       675       674       676       675       674       677       676       674       677
       677       680       681       677       680       682       677       680       683
       678       677       679       678       677       680       679       677       680
       680       683       684       680       683       685       680       683       686
       681       680       682       681       680       683       682       680       683
       683       686       687       683       686       688       683       686       689
       684       683       685       684       683       686       685       683       686
       686       689       690       686       689       691       686       689       692
       687       686       688       687       686       689       688       686       689
       689       692       693       689       692       694       689       692       695
       690       689       691       690       689       692       691       689       692
       692       695       696       692       695       697       692       695       698
       693       692       694       693       692       695       694       692       695
       696       695       697       696       695       698       697       695       698
       699       702       703       699       702       704       699       702       705
       700       699       701       700       699       702       701       699       702
       702       705       706       702       705       707       702       705       708
       703       702       704       703       702       705       704       702       705
       705       708       709       705       708       710       705       708       711
       706       705       707       706       705       708       707       705       708
       708       711       712       708       711       713       708       711       714
       709       708       710       709       708       711       710       708       711
       711       714       715       711       714       716       711       714       717
       712       711       713       712       711       714       713       711       714
       714       717       718       714       717       719       714       717       720
       715       714       716       715       714       717       716       714       717
       717       720       721       717       720       722       717       720       723
       718       717       719       718       717       720       719       717       720
       720       723       724       720       723       725       720       723       726
       721       720       722       721       720       723       722       720       723
       723       726       727       723       726       728       723       726       729
       724       723       725       724       723       726       725       723       726
       726       729       730       726       729       731       726       729       732
       727       726       728       727       726       729       728       726       729
       729       732       733       729       732       734       729       732       735
       730       729       731       730       729       732       731       729       732
       732       735       736       732       735       737       732       735       738
       733       732       734       733       732       735       734       732       735
       735       738       739       735       738       740       735       738       741
       736       735       737       736       735       738       737       735       738
       739       738       740       739       738       741       740       738       741
       742       746       747       742       746       748       742       746       749
       743       742       744       743       742       745       743       742       746
       744       742       745       744       742       746       745       742       746
       746       749       750       746       749       751       746       749       756
       747       746       748       747       746       749       748       746       749
       749       756       752       750       749       751       750       749       756
       751       749       756       752       755       757       753       752       754
       753       752       755       753       752       756       754       752       755
       754       752       756       755       752       756       755       757       758
       755       757       759       755       757       760       757       760       761
       757       760       762       757       760       768       758       757       759
       758       757       760       759       757       760       760       762       763
       760       768       769       760       768       770       760       768       771
       761       760       762       761       760       768       762       760       768
       762       763       764       762       763       765       763       765       766
       763       765       767       763       765       777       764       763       765
       765       777       778       765       777       779       765       777       780
       766       765       767       766       765       777       767       765       777
       768       771       772       769       768       770       769       768       771
       770       768       771       771       772       773       771       772       774
       772       774       775       772       774       776       772       774       821
       773       772       774       774       821       822       774       821       823
       774       821       824       775       774       776       775       774       821
       776       774       821       777       780       781       777       780       782
       777       780       783       778       777       779       778       777       780
       779       777       780       780       783       784       780       783       785
       780       783       786       781       780       782       781       780       783
       782       780       783       783       786       787       783       786       788
       783       786       789       784       783       785       784       783       786
       785       783       786       786       789       790       786       789       791
       786       789       792       787       786       788       787       786       789
       788       786       789       789       792       793       789       792       794
       789       792       795       790       789       791       790       789       792
       791       789       792       792       795       796       792       795       797
       792       795       800       793       792       794       793       792       795
       794       792       795       795       797       798       795       797       799
       795       797       800       795       800       797       795       800       801
       795       800       802       796       795       797       796       795       800
       797       795       800       797       800       801       797       800       802
       798       797       799       798       797       800       799       797       800
       800       802       803       800       802       804       800       802       805
       801       800       802       802       805       806       802       805       807
       802       805       808       803       802       804       803       802       805
       804       802       805       805       808       809       805       808       810
       805       808       811       806       805       807       806       805       808
       807       805       808       808       811       812       808       811       813
       808       811       814       809       808       810       809       808       811
       810       808       811       811       814       815       811       814       816
       811       814       817       812       811       813       812       811       814
       813       811       814       814       817       818       814       817       819
       814       817       820       815       814       816       815       814       817
       816       814       817       818       817       819       818       817       820
       819       817       820       821       824       825       821       824       826
       821       824       827       822       821       823       822       821       824
       823       821       824       824       827       828       824       827       829
       824       827       830       825       824       826       825       824       827
       826       824       827       827       830       831       827       830       832
       827       830       833       828       827       829       828       827       830
       829       827       830       830       833       834       830       833       835
       830       833       836       831       830       832       831       830       833
       832       830       833       833       836       837       833       836       838
       833       836       839       834       833       835       834       833       836
       835       833       836       836       839       840       836       839       841
       836       839       842       837       836       838       837       836       839
       838       836       839       839       842       843       839       842       844
       839       842       845       840       839       841       840       839       842
       841       839       842       842       845       846       842       845       847
       842       845       848       843       842       844       843       842       845
       844       842       845       845       848       849       845       848       850
       845       848       851       846       845       847       846       845       848
       847       845       848       848       851       852       848       851       853
       848       851       854       849       848       850       849       848       851
       850       848       851       851       854       855       851       854       856
       851       854       857       852       851       853       852       851       854
       853       851       854       854       857       858       854       857       859
       854       857       860       855       854       856       855       854       857
       856       854       857       857       860       861       857       860       862
       857       860       863       858       857       859       858       857       860
       859       857       860       861       860       862       861       860       863
       862       860       863       864       868       869       864       868       870
       864       868       871       865       864       866       865       864       867
       865       864       868       866       864       867       866       864       868
       867       864       868       868       871       872       868       871       873
       868       871       878       869       868       870       869       868       871
       870       868       871       871       878       874       872       871       873
       872       871       878       873       871       878       874       877       879
       875       874       876       875       874       877       875       874       878
       876       874       877       876       874       878       877       874       878
       877       879       880       877       879       881       877       879       882
       879       882       883       879       882       884       879       882       890
       880       879       881       880       879       882       881       879       882
       882       884       885       882       890       891       882       890       892
       882       890       893       883       882       884       883       882       890
       884       882       890       884       885       886       884       885       887
       885       887       888       885       887       889       885       887       899
       886       885       887       887       899       900       887       899       901
       887       899       902       888       887       889       888       887       899
       889       887       899       890       893       894       891       890       892
       891       890       893       892       890       893       893       894       895
       893       894       896       894       896       897       894       896       898
       894       896       943       895       894       896       896       943       944
       896       943       945       896       943       946       897       896       898
       897       896       943       898       896       943       899       902       903
       899       902       904       899       902       905       900       899       901
       900       899       902       901       899       902       902       905       906
       902       905       907       902       905       908       903       902       904
       903       902       905       904       902       905       905       908       909
       905       908       910       905       908       911       906       905       907
       906       905       908       907       905       908       908       911       912
       908       911       913       908       911       914       909       908       910
       909       908       911       910       908       911       911       914       915
       911       914       916       911       914       917       912       911       913
       912       911       914       913       911       914       914       917       918
       914       917       919       914       917       922       915       914       916
       915       914       917       916       914       917       917       919       920
       917       919       921       917       919       922       917       922       919
       917       922       923       917       922       924       918       917       919
       918       917       922       919       917       922       919       922       923
       919       922       924       920       919       921       920       919       922
       921       919       922       922       924       925       922       924       926
       922       924       927       923       922       924       924       927       928
       924       927       929       924       927       930       925       924       926
       925       924       927       926       924       927       927       930       931
       927       930       932       927       930       933       928       927       929
       928       927       930       929       927       930       930       933       934
       930       933       935       930       933       936       931       930       932
       931       930       933       932       930       933       933       936       937
       933       936       938       933       936       939       934       933       935
       934       933       936       935       933       936       936       939       940
       936       939       941       936       939       942       937       936       938
       937       936       939       938       936       939       940       939       941
       940       939       942       941       939       942       943       946       947
       943       946       948       943       946       949       944       943       945
       944       943       946       945       943       946       946       949       950
       946       949       951       946       949       952       947       946       948
       947       946       949       948       946       949       949       952       953
       949       952       954       949       952       955       950       949       951
       950       949       952       951       949       952       952       955       956
       952       955       957       952       955       958       953       952       954
       953       952       955       954       952       955       955       958       959
       955       958       960       955       958       961       956       955       957
       956       955       958       957       955       958       958       961       962
       958       961       963       958       961       964       959       958       960
       959       958       961       960       958       961       961       964       965
       961       964       966       961       964       967       962       961       963
       962       961       964       963       961       964       964       967       968
       964       967       969       964       967       970       965       964       966
       965       964       967       966       964       967       967       970       971
       967       970       972       967       970       973       968       967       969
       968       967       970       969       967       970       970       973       974
       970       973       975       970       973       976       971       970       972
       971       970       973       972       970       973       973       976       977
       973       976       978       973       976       979       974       973       975
       974       973       976       975       973       976       976       979       980
       976       979       981       976       979       982       977       976       978
       977       976       979       978       976       979       979       982       983
       979       982       984       979       982       985       980       979       981
       980       979       982       981       979       982       983       982       984
       983       982       985       984       982       985       986       990       991
       986       990       992       986       990       993       987       986       988
       987       986       989       987       986       990       988       986       989
       988       986       990       989       986       990       990       993       994
       990       993       995       990       993      1000       991       990       992
       991       990       993       992       990       993       993      1000       996
       994       993       995       994       993      1000       995       993      1000
       996       999      1001       997       996       998       997       996       999
       997       996      1000       998       996       999       998       996      1000
       999       996      1000       999      1001      1002       999      1001      1003
       999      1001      1004      1001      1004      1005      1001      1004      1006
      1001      1004      1012      1002      1001      1003      1002      1001      1004
      1003      1001      1004      1004      1006      1007      1004      1012      1013
      1004      1012      1014      1004      1012      1015      1005      1004      1006
      1005      1004      1012      1006      1004      1012      1006      1007      1008
      1006      1007      1009      1007      1009      1010      1007      1009      1011
      1007      1009      1021      1008      1007      1009      1009      1021      1022
      1009      1021      1023      1009      1021      1024      1010      1009      1011
      1010      1009      1021      1011      1009      1021      1012      1015      1016
      1013      1012      1014      1013      1012      1015      1014      1012      1015
      1015      1016      1017      1015      1016      1018      1016      1018      1019
      1016      1018      1020      1016      1018      1065      1017      1016      1018
      1018      1065      1066      1018      1065      1067      1018      1065      1068
      1019      1018      1020      1019      1018      1065      1020      1018      1065
      1021      1024      1025      1021      1024      1026      1021      1024      1027
      1022      1021      1023      1022      1021      1024      1023      1021      1024
      1024      1027      1028      1024      1027      1029      1024      1027      1030
      1025      1024      1026      1025      1024      1027      1026      1024      1027
      1027      1030      1031      1027      1030      1032      1027      1030      1033
      1028      1027      1029      1028      1027      1030      1029      1027      1030
      1030      1033      1034      1030      1033      1035      1030      1033      1036
      1031      1030      1032      1031      1030      1033      1032      1030      1033
      1033      1036      1037      1033      1036      1038      1033      1036      1039
      1034      1033      1035      1034      1033      1036      1035      1033      1036
      1036      1039      1040      1036      1039      1041      1036      1039      1044
      1037      1036      1038      1037      1036      1039      1038      1036      1039
      1039      1041      1042      1039      1041      1043      1039      1041      1044
      1039      1044      1041      1039      1044      1045      1039      1044      1046
      1040      1039      1041      1040      1039      1044      1041      1039      1044
      1041      1044      1045      1041      1044      1046      1042      1041      1043
      1042      1041      1044      1043      1041      1044      1044      1046      1047
      1044      1046      1048      1044      1046      1049      1045      1044      1046
      1046      1049      1050      1046      1049      1051      1046      1049      1052
      1047      1046      1048      1047      1046      1049      1048      1046      1049
      1049      1052      1053      1049      1052      1054      1049      1052      1055
      1050      1049      1051      1050      1049      1052      1051      1049      1052
      1052      1055      1056      1052      1055      1057      1052      1055      1058
      1053      1052      1054      1053      1052      1055      1054      1052      1055
      1055      1058      1059      1055      1058      1060      1055      1058      1061
      1056      1055      1057      1056      1055      1058      1057      1055      1058
      1058      1061      1062      1058      1061      1063      1058      1061      1064
      1059      1058      1060      1059      1058      1061      1060      1058      1061
      1062      1061      1063      1062      1061      1064      1063      1061      1064
      1065      1068      1069      1065      1068      1070      1065      1068      1071
      1066      1065      1067      1066      1065      1068      1067      1065      1068
      1068      1071      1072      1068      1071      1073      1068      1071      1074
      1069      1068      1070      1069      1068      1071      1070      1068      1071
      1071      1074      1075      1071      1074      1076      1071      1074      1077
      1072      1071      1073      1072      1071      1074      1073      1071      1074
      1074      1077      1078      1074      1077      1079      1074      1077      1080
      1075      1074      1076      1075      1074      1077      1076      1074      1077
      1077      1080      1081      1077      1080      1082      1077      1080      1083
      1078      1077      1079      1078      1077      1080      1079      1077      1080
      1080      1083      1084      1080      1083      1085      1080      1083      1086
      1081      1080      1082      1081      1080      1083      1082      1080      1083
      1083      1086      1087      1083      1086      1088      1083      1086      1089
      1084      1083      1085      1084      1083      1086      1085      1083      1086
      1086      1089      1090      1086      1089      1091      1086      1089      1092
      1087      1086      1088      1087      1086      1089      1088      1086      1089
      1089      1092      1093      1089      1092      1094      1089      1092      1095
      1090      1089      1091      1090      1089      1092      1091      1089      1092
      1092      1095      1096      1092      1095      1097      1092      1095      1098
      1093      1092      1094      1093      1092      1095      1094      1092      1095
      1095      1098      1099      1095      1098      1100      1095      1098      1101
      1096      1095      1097      1096      1095      1098      1097      1095      1098
      1098      1101      1102      1098      1101      1103      1098      1101      1104
      1099      1098      1100      1099      1098      1101      1100      1098      1101
      1101      1104      1105      1101      1104      1106      1101      1104      1107
      1102      1101      1103      1102      1101      1104      1103      1101      1104
      1105      1104      1106      1105      1104      1107      1106      1104      1107
      1108      1111      1112      1108      1113      1114      1108      1113      1115
      1108      1113      1117      1109      1108      1110      1109      1108      1111
      1109      1108      1113      1110      1108      1111      1110      1108      1113
      1111      1108      1113      1113      1115      1116      1113      1117      1118
      1113      1117      1119      1113      1117      1124      1114      1113      1115
      1114      1113      1117      1115      1113      1117      1117      1124      1120
      1118      1117      1119      1118      1117      1124      1119      1117      1124
      1120      1123      1125      1121      1120      1122      1121      1120      1123
      1121      1120      1124      1122      1120      1123      1122      1120      1124
      1123      1120      1124      1123      1125      1126      1123      1125      1127
      1123      1125      1128      1125      1128      1129      1125      1128      1130
      1125      1128      1136      1126      1125      1127      1126      1125      1128
      1127      1125      1128      1128      1130      1131      1128      1136      1137
      1128      1136      1138      1128      1136      1139      1129      1128      1130
      1129      1128      1136      1130      1128      1136      1130      1131      1132
      1130      1131      1133      1131      1133      1134      1131      1133      1135
      1131      1133      1145      1132      1131      1133      1133      1145      1146
      1133      1145      1147      1133      1145      1148      1134      1133      1135
      1134      1133      1145      1135      1133      1145      1136      1139      1140
      1137      1136      1138      1137      1136      1139      1138      1136      1139
      1139      1140      1141      1139      1140      1142      1140      1142      1143
      1140      1142      1144      1140      1142      1189      1141      1140      1142
      1142      1189      1190      1142      1189      1191      1142      1189      1192
      1143      1142      1144      1143      1142      1189      1144      1142      1189
      1145      1148      1149      1145      1148      1150      1145      1148      1151
      1146      1145      1147      1146      1145      1148      1147      1145      1148
      1148      1151      1152      1148      1151      1153      1148      1151      1154
      1149      1148      1150      1149      1148      1151      1150      1148      1151
      1151      1154      1155      1151      1154      1156      1151      1154      1157
      1152      1151      1153      1152      1151      1154      1153      1151      1154
      1154      1157      1158      1154      1157      1159      1154      1157      1160
      1155      1154      1156      1155      1154      1157      1156      1154      1157
      1157      1160      1161      1157      1160      1162      1157      1160      1163
      1158      1157      1159      1158      1157      1160      1159      1157      1160
      1160      1163      1164      1160      1163      1165      1160      1163      1168
      1161      1160      1162      1161      1160      1163      1162      1160      1163
      1163      1165      1166      1163      1165      1167      1163      1165      1168
      1163      1168      1165      1163      1168      1169      1163      1168      1170
      1164      1163      1165      1164      1163      1168      1165      1163      1168
      1165      1168      1169      1165      1168      1170      1166      1165      1167
      1166      1165      1168      1167      1165      1168      1168      1170      1171
      1168      1170      1172      1168      1170      1173      1169      1168      1170
      1170      1173      1174      1170      1173      1175      1170      1173      1176
      1171      1170      1172      1171      1170      1173      1172      1170      1173
      1173      1176      1177      1173      1176      1178      1173      1176      1179
      1174      1173      1175      1174      1173      1176      1175      1173      1176
      1176      1179      1180      1176      1179      1181      1176      1179      1182
      1177      1176      1178      1177      1176      1179      1178      1176      1179
      1179      1182      1183      1179      1182      1184      1179      1182      1185
      1180      1179      1181      1180      1179      1182      1181      1179      1182
      1182      1185      1186      1182      1185      1187      1182      1185      1188
      1183      1182      1184      1183      1182      1185      1184      1182      1185
      1186      1185      1187      1186      1185      1188      1187      1185      1188
      1189      1192      1193      1189      1192      1194      1189      1192      1195
      1190      1189      1191      1190      1189      1192      1191      1189      1192
      1192      1195      1196      1192      1195      1197      1192      1195      1198
      1193      1192      1194      1193      1192      1195      1194      1192      1195
      1195      1198      1199      1195      1198      1200      1195      1198      1201
      1196      1195      1197      1196      1195      1198      1197      1195      1198
      1198      1201      1202      1198      1201      1203      1198      1201      1204
      1199      1198      1200      1199      1198      1201      1200      1198      1201
      1201      1204      1205      1201      1204      1206      1201      1204      1207
      1202      1201      1203      1202      1201      1204      1203      1201      1204
      1204      1207      1208      1204      1207      1209      1204      1207      1210
      1205      1204      1206      1205      1204      1207      1206      1204      1207
      1207      1210      1211      1207      1210      1212      1207      1210      1213
      1208      1207      1209      1208      1207      1210      1209      1207      1210
      1210      1213      1214      1210      1213      1215      1210      1213      1216
      1211      1210      1212      1211      1210      1213      1212      1210      1213
      1213      1216      1217      1213      1216      1218      1213      1216      1219
      1214      1213      1215      1214      1213      1216      1215      1213      1216
      1216      1219      1220      1216      1219      1221      1216      1219      1222
      1217      1216      1218      1217      1216      1219      1218      1216      1219
      1219      1222      1223      1219      1222      1224      1219      1222      1225
      1220      1219      1221      1220      1219      1222      1221      1219      1222
      1222      1225      1226      1222      1225      1227      1222      1225      1228
      1223      1222      1224      1223      1222      1225      1224      1222      1225
      1225      1228      1229      1225      1228      1230      1225      1228      1231
      1226      1225      1227      1226      1225      1228      1227      1225      1228
      1229      1228      1230      1229      1228      1231      1230      1228      1231
      1232      1236      1237      1232      1236      1238      1232      1236      1239
      1233      1232      1234      1233      1232      1235      1233      1232      1236
      1234      1232      1235      1234      1232      1236      1235      1232      1236
      1236      1239      1240      1236      1239      1241      1236      1239      1246
      1237      1236      1238      1237      1236      1239      1238      1236      1239
      1239      1246      1242      1240      1239      1241      1240      1239      1246
      1241      1239      1246      1242      1245      1247      1243      1242      1244
      1243      1242      1245      1243      1242      1246      1244      1242      1245
      1244      1242      1246      1245      1242      1246      1245      1247      1248
      1245      1247      1249      1245      1247      1250      1247      1250      1251
      1247      1250      1252      1247      1250      1258      1248      1247      1249
      1248      1247      1250      1249      1247      1250      1250      1252      1253
      1250      1258      1259      1250      1258      1260      1250      1258      1261
      1251      1250      1252      1251      1250      1258      1252      1250      1258
      1252      1253      1254      1252      1253      1255      1253      1255      1256
      1253      1255      1257      1253      1255      1267      1254      1253      1255
      1255      1267      1268      1255      1267      1269      1255      1267      1270
      1256      1255      1257      1256      1255      1267      1257      1255      1267
      1258      1261      1262      1259      1258      1260      1259      1258      1261
      1260      1258      1261      1261      1262      1263      1261      1262      1264
      1262      1264      1265      1262      1264      1266      1262      1264      1314
      1263      1262      1264      1264      1314      1315      1264      1314      1316
      1264      1314      1317      1265      1264      1266      1265      1264      1314
      1266      1264      1314      1267      1270      1271      1267      1270      1272
      1267      1270      1273      1268      1267      1269      1268      1267      1270
      1269      1267      1270      1270      1273      1274      1270      1273      1275
      1270      1273      1276      1271      1270      1272      1271      1270      1273
      1272      1270      1273      1273      1276      1277      1273      1276      1278
      1273      1276      1279      1274      1273      1275      1274      1273      1276
      1275      1273      1276      1276      1279      1280      1276      1279      1281
      1276      1279      1282      1277      1276      1278      1277      1276      1279
      1278      1276      1279      1279      1282      1283      1279      1282      1284
      1279      1282      1285      1280      1279      1281      1280      1279      1282
      1281      1279      1282      1282      1285      1286      1282      1285      1287
      1283      1282      1284      1283      1282      1285      1284      1282      1285
      1285      1287      1288      1285      1287      1289      1286      1285      1287
      1287      1289      1290      1287      1289      1291      1287      1289      1292
      1288      1287      1289      1289      1292      1293      1289      1292      1294
      1289      1292      1295      1290      1289      1291      1290      1289      1292
      1291      1289      1292      1292      1295      1296      1292      1295      1297
      1292      1295      1298      1293      1292      1294      1293      1292      1295
      1294      1292      1295      1295      1298      1299      1295      1298      1300
      1295      1298      1301      1296      1295      1297      1296      1295      1298
      1297      1295      1298      1298      1301      1302      1298      1301      1303
      1298      1301      1304      1299      1298      1300      1299      1298      1301
      1300      1298      1301      1301      1304      1305      1301      1304      1306
      1301      1304      1307      1302      1301      1303      1302      1301      1304
      1303      1301      1304      1304      1307      1308      1304      1307      1309
      1304      1307      1310      1305      1304      1306      1305      1304      1307
      1306      1304      1307      1307      1310      1311      1307      1310      1312
      1307      1310      1313      1308      1307      1309      1308      1307      1310
      1309      1307      1310      1311      1310      1312      1311      1310      1313
      1312      1310      1313      1314      1317      1318      1314      1317      1319
      1314      1317      1320      1315      1314      1316      1315      1314      1317
      1316      1314      1317      1317      1320      1321      1317      1320      1322
      1317      1320      1323      1318      1317      1319      1318      1317      1320
      1319      1317      1320      1320      1323      1324      1320      1323      1325
      1320      1323      1326      1321      1320      1322      1321      1320      1323
      1322      1320      1323      1323      1326      1327      1323      1326      1328
      1323      1326      1329      1324      1323      1325      1324      1323      1326
      1325      1323      1326      1326      1329      1330      1326      1329      1331
      1326      1329      1332      1327      1326      1328      1327      1326      1329
      1328      1326      1329      1329      1332      1333      1329      1332      1334
      1329      1332      1335      1330      1329      1331      1330      1329      1332
      1331      1329      1332      1332      1335      1336      1332      1335      1337
      1332      1335      1338      1333      1332      1334      1333      1332      1335
      1334      1332      1335      1335      1338      1339      1335      1338      1340
      1335      1338      1341      1336      1335      1337      1336      1335      1338
      1337      1335      1338      1338      1341      1342      1338      1341      1343
      1338      1341      1344      1339      1338      1340      1339      1338      1341
      1340      1338      1341      1341      1344      1345      1341      1344      1346
      1341      1344      1347      1342      1341      1343      1342      1341      1344
      1343      1341      1344      1344      1347      1348      1344      1347      1349
      1344      1347      1350      1345      1344      1346      1345      1344      1347
      1346      1344      1347      1347      1350      1351      1347      1350      1352
      1347      1350      1353      1348      1347      1349      1348      1347      1350
      1349      1347      1350      1350      1353      1354      1350      1353      1355
      1350      1353      1356      1351      1350      1352      1351      1350      1353
      1352      1350      1353      1354      1353      1355      1354      1353      1356
      1355      1353      1356      1357      1360      1361      1357      1362      1363
      1357      1362      1364      1357      1362      1366      1358      1357      1359
      1358      1357      1360      1358      1357      1362      1359      1357      1360
      1359      1357      1362      1360      1357      1362      1362      1364      1365
      1362      1366      1367      1362      1366      1368      1362      1366      1373
      1363      1362      1364      1363      1362      1366      1364      1362      1366
      1366      1373      1369      1367      1366      1368      1367      1366      1373
      1368      1366      1373      1369      1372      1374      1370      1369      1371
      1370      1369      1372      1370      1369      1373      1371      1369      1372
      1371      1369      1373      1372      1369      1373      1372      1374      1375
      1372      1374      1376      1372      1374      1377      1374      1377      1378
      1374      1377      1379      1374      1377      1385      1375      1374      1376
      1375      1374      1377      1376      1374      1377      1377      1379      1380
      1377      1385      1386      1377      1385      1387      1377      1385      1388
      1378      1377      1379      1378      1377      1385      1379      1377      1385
      1379      1380      1381      1379      1380      1382      1380      1382      1383
      1380      1382      1384      1380      1382      1394      1381      1380      1382
      1382      1394      1395      1382      1394      1396      1382      1394      1397
      1383      1382      1384      1383      1382      1394      1384      1382      1394
      1385      1388      1389      1386      1385      1387      1386      1385      1388
      1387      1385      1388      1388      1389      1390      1388      1389      1391
      1389      1391      1392      1389      1391      1393      1389      1391      1435
      1390      1389      1391      1391      1435      1436      1391      1435      1437
      1391      1435      1438      1392      1391      1393      1392      1391      1435
      1393      1391      1435      1394      1397      1398      1394      1397      1399
      1394      1397      1400      1395      1394      1396      1395      1394      1397
      1396      1394      1397      1397      1400      1401      1397      1400      1402
      1397      1400      1403      1398      1397      1399      1398      1397      1400
      1399      1397      1400      1400      1403      1404      1400      1403      1405
      1400      1403      1406      1401      1400      1402      1401      1400      1403
      1402      1400      1403      1403      1406      1407      1403      1406      1408
      1403      1406      1409      1404      1403      1405      1404      1403      1406
      1405      1403      1406      1406      1409      1410      1406      1409      1411
      1406      1409      1412      1407      1406      1408      1407      1406      1409
      1408      1406      1409      1409      1412      1413      1409      1412      1414
      1410      1409      1411      1410      1409      1412      1411      1409      1412
      1412      1414      1415      1412      1414      1416      1413      1412      1414
      1414      1416      1417      1414      1416      1418      1414      1416      1419
      1415      1414      1416      1416      1419      1420      1416      1419      1421
      1416      1419      1422      1417      1416      1418      1417      1416      1419
      1418      1416      1419      1419      1422      1423      1419      1422      1424
      1419      1422      1425      1420      1419      1421      1420      1419      1422
      1421      1419      1422      1422      1425      1426      1422      1425      1427
      1422      1425      1428      1423      1422      1424      1423      1422      1425
      1424      1422      1425      1425      1428      1429      1425      1428      1430
      1425      1428      1431      1426      1425      1427      1426      1425      1428
      1427      1425      1428      1428      1431      1432      1428      1431      1433
      1428      1431      1434      1429      1428      1430      1429      1428      1431
      1430      1428      1431      1432      1431      1433      1432      1431      1434
      1433      1431      1434      1435      1438      1439      1435      1438      1440
      1435      1438      1441      1436      1435      1437      1436      1435      1438
      1437      1435      1438      1438      1441      1442      1438      1441      1443
      1438      1441      1444      1439      1438      1440      1439      1438      1441
      1440      1438      1441      1441      1444      1445      1441      1444      1446
      1441      1444      1447      1442      1441      1443      1442      1441      1444
      1443      1441      1444      1444      1447      1448      1444      1447      1449
      1444      1447      1450      1445      1444      1446      1445      1444      1447
      1446      1444      1447      1447      1450      1451      1447      1450      1452
      1447      1450      1453      1448      1447      1449      1448      1447      1450
      1449      1447      1450      1450      1453      1454      1450      1453      1455
      1450      1453      1456      1451      1450      1452      1451      1450      1453
      1452      1450      1453      1453      1456      1457      1453      1456      1458
      1453      1456      1459      1454      1453      1455      1454      1453      1456
      1455      1453      1456      1456      1459      1460      1456      1459      1461
      1456      1459      1462      1457      1456      1458      1457      1456      1459
      1458      1456      1459      1459      1462      1463      1459      1462      1464
      1459      1462      1465      1460      1459      1461      1460      1459      1462
      1461      1459      1462      1462      1465      1466      1462      1465      1467
      1462      1465      1468      1463      1462      1464      1463      1462      1465
      1464      1462      1465      1465      1468      1469      1465      1468      1470
      1465      1468      1471      1466      1465      1467      1466      1465      1468
      1467      1465      1468      1468      1471      1472      1468      1471      1473
      1468      1471      1474      1469      1468      1470      1469      1468      1471
      1470      1468      1471      1471      1474      1475      1471      1474      1476
      1471      1474      1477      1472      1471      1473      1472      1471      1474
      1473      1471      1474      1475      1474      1476      1475      1474      1477
      1476      1474      1477      1478      1481      1482      1478      1483      1484
      1478      1483      1485      1478      1483      1487      1479      1478      1480
      1479      1478      1481      1479      1478      1483      1480      1478      1481
      1480      1478      1483      1481      1478      1483      1483      1485      1486
      1483      1487      1488      1483      1487      1489      1483      1487      1494
      1484      1483      1485      1484      1483      1487      1485      1483      1487
      1487      1494      1490      1488      1487      1489      1488      1487      1494
      1489      1487      1494      1490      1493      1495      1491      1490      1492
      1491      1490      1493      1491      1490      1494      1492      1490      1493
      1492      1490      1494      1493      1490      1494      1493      1495      1496
      1493      1495      1497      1493      1495      1498      1495      1498      1499
      1495      1498      1500      1495      1498      1506      1496      1495      1497
      1496      1495      1498      1497      1495      1498      1498      1500      1501
      1498      1506      1507      1498      1506      1508      1498      1506      1509
      1499      1498      1500      1499      1498      1506      1500      1498      1506
      1500      1501      1502      1500      1501      1503      1501      1503      1504
      1501      1503      1505      1501      1503      1515      1502      1501      1503
      1503      1515      1516      1503      1515      1517      1503      1515      1518
      1504      1503      1505      1504      1503      1515      1505      1503      1515
      1506      1509      1510      1507      1506      1508      1507      1506      1509
      1508      1506      1509      1509      1510      1511      1509      1510      1512
      1510      1512      1513      1510      1512      1514      1510      1512      1559
      1511      1510      1512      1512      1559      1560      1512      1559      1561
      1512      1559      1562      1513      1512      1514      1513      1512      1559
      1514      1512      1559      1515      1518      1519      1515      1518      1520
      1515      1518      1521      1516      1515      1517      1516      1515      1518
      1517      1515      1518      1518      1521      1522      1518      1521      1523
      1518      1521      1524      1519      1518      1520      1519      1518      1521
      1520      1518      1521      1521      1524      1525      1521      1524      1526
      1521      1524      1527      1522      1521      1523      1522      1521      1524
      1523      1521      1524      1524      1527      1528      1524      1527      1529
      1524      1527      1530      1525      1524      1526      1525      1524      1527
      1526      1524      1527      1527      1530      1531      1527      1530      1532
      1527      1530      1533      1528      1527      1529      1528      1527      1530
      1529      1527      1530      1530      1533      1534      1530      1533      1535
      1530      1533      1538      1531      1530      1532      1531      1530      1533
      1532      1530      1533      1533      1535      1536      1533      1535      1537
      1533      1535      1538      1533      1538      1535      1533      1538      1539
      1533      1538      1540      1534      1533      1535      1534      1533      1538
      1535      1533      1538      1535      1538      1539      1535      1538      1540
      1536      1535      1537      1536      1535      1538      1537      1535      1538
      1538      1540      1541      1538      1540      1542      1538      1540      1543
      1539      1538      1540      1540      1543      1544      1540      1543      1545
      1540      1543      1546      1541      1540      1542      1541      1540      1543
      1542      1540      1543      1543      1546      1547      1543      1546      1548
      1543      1546      1549      1544      1543      1545      1544      1543      1546
      1545      1543      1546      1546      1549      1550      1546      1549      1551
      1546      1549      1552      1547      1546      1548      1547      1546      1549
      1548      1546      1549      1549      1552      1553      1549      1552      1554
      1549      1552      1555      1550      1549      1551      1550      1549      1552
      1551      1549      1552      1552      1555      1556      1552      1555      1557
      1552      1555      1558      1553      1552      1554      1553      1552      1555
      1554      1552      1555      1556      1555      1557      1556      1555      1558
      1557      1555      1558      1559      1562      1563      1559      1562      1564
      1559      1562      1565      1560      1559      1561      1560      1559      1562
      1561      1559      1562      1562      1565      1566      1562      1565      1567
      1562      1565      1568      1563      1562      1564      1563      1562      1565
      1564      1562      1565      1565      1568      1569      1565      1568      1570
      1565      1568      1571      1566      1565      1567      1566      1565      1568
      1567      1565      1568      1568      1571      1572      1568      1571      1573
      1568      1571      1574      1569      1568      1570      1569      1568      1571
      1570      1568      1571      1571      1574      1575      1571      1574      1576
      1571      1574      1577      1572      1571      1573      1572      1571      1574
      1573      1571      1574      1574      1577      1578      1574      1577      1579
      1574      1577      1580      1575      1574      1576      1575      1574      1577
      1576      1574      1577      1577      1580      1581      1577      1580      1582
      1577      1580      1583      1578      1577      1579      1578      1577      1580
      1579      1577      1580      1580      1583      1584      1580      1583      1585
      1580      1583      1586      1581      1580      1582      1581      1580      1583
      1582      1580      1583      1583      1586      1587      1583      1586      1588
      1583      1586      1589      1584      1583      1585      1584      1583      1586
      1585      1583      1586      1586      1589      1590      1586      1589      1591
      1586      1589      1592      1587      1586      1588      1587      1586      1589
      1588      1586      1589      1589      1592      1593      1589      1592      1594
      1589      1592      1595      1590      1589      1591      1590      1589      1592
      1591      1589      1592      1592      1595      1596      1592      1595      1597
      1592      1595      1598      1593      1592      1594      1593      1592      1595
      1594      1592      1595      1595      1598      1599      1595      1598      1600
      1595      1598      1601      1596      1595      1597      1596      1595      1598
      1597      1595      1598      1599      1598      1600      1599      1598      1601
      1600      1598      1601      1602      1606      1607      1602      1606      1608
      1602      1606      1609      1603      1602      1604      1603      1602      1605
      1603      1602      1606      1604      1602      1605      1604      1602      1606
      1605      1602      1606      1606      1609      1610      1606      1609      1611
      1606      1609      1616      1607      1606      1608      1607      1606      1609
      1608      1606      1609      1609      1616      1612      1610      1609      1611
      1610      1609      1616      1611      1609      1616      1612      1615      1617
      1613      1612      1614      1613      1612      1615      1613      1612      1616
      1614      1612      1615      1614      1612      1616      1615      1612      1616
      1615      1617      1618      1615      1617      1619      1615      1617      1620
      1617      1620      1621      1617      1620      1622      1617      1620      1628
      1618      1617      1619      1618      1617      1620      1619      1617      1620
      1620      1622      1623      1620      1628      1629      1620      1628      1630
      1620      1628      1631      1621      1620      1622      1621      1620      1628
      1622      1620      1628      1622      1623      1624      1622      1623      1625
      1623      1625      1626      1623      1625      1627      1623      1625      1637
      1624      1623      1625      1625      1637      1638      1625      1637      1639
      1625      1637      1640      1626      1625      1627      1626      1625      1637
      1627      1625      1637      1628      1631      1632      1629      1628      1630
      1629      1628      1631      1630      1628      1631      1631      1632      1633
      1631      1632      1634      1632      1634      1635      1632      1634      1636
      1632      1634      1681      1633      1632      1634      1634      1681      1682
      1634      1681      1683      1634      1681      1684      1635      1634      1636
      1635      1634      1681      1636      1634      1681      1637      1640      1641
      1637      1640      1642      1637      1640      1643      1638      1637      1639
      1638      1637      1640      1639      1637      1640      1640      1643      1644
      1640      1643      1645      1640      1643      1646      1641      1640      1642
      1641      1640      1643      1642      1640      1643      1643      1646      1647
      1643      1646      1648      1643      1646      1649      1644      1643      1645
      1644      1643      1646      1645      1643      1646      1646      1649      1650
      1646      1649      1651      1646      1649      1652      1647      1646      1648
      1647      1646      1649      1648      1646      1649      1649      1652      1653
      1649      1652      1654      1649      1652      1655      1650      1649      1651
      1650      1649      1652      1651      1649      1652      1652      1655      1656
      1652      1655      1657      1652      1655      1660      1653      1652      1654
      1653      1652      1655      1654      1652      1655      1655      1657      1658
      1655      1657      1659      1655      1657      1660      1655      1660      1657
      1655      1660      1661      1655      1660      1662      1656      1655      1657
      1656      1655      1660      1657      1655      1660      1657      1660      1661
      1657      1660      1662      1658      1657      1659      1658      1657      1660
      1659      1657      1660      1660      1662      1663      1660      1662      1664
      1660      1662      1665      1661      1660      1662      1662      1665      1666
      1662      1665      1667      1662      1665      1668      1663      1662      1664
      1663      1662      1665      1664      1662      1665      1665      1668      1669
      1665      1668      1670      1665      1668      1671      1666      1665      1667
      1666      1665      1668      1667      1665      1668      1668      1671      1672
      1668      1671      1673      1668      1671      1674      1669      1668      1670
      1669      1668      1671      1670      1668      1671      1671      1674      1675
      1671      1674      1676      1671      1674      1677      1672      1671      1673
      1672      1671      1674      1673      1671      1674      1674      1677      1678
      1674      1677      1679      1674      1677      1680      1675      1674      1676
      1675      1674      1677      1676      1674      1677      1678      1677      1679
      1678      1677      1680      1679      1677      1680      1681      1684      1685
      1681      1684      1686      1681      1684      1687      1682      1681      1683
      1682      1681      1684      1683      1681      1684      1684      1687      1688
      1684      1687      1689      1684      1687      1690      1685      1684      1686
      1685      1684      1687      1686      1684      1687      1687      1690      1691
      1687      1690      1692      1687      1690      1693      1688      1687      1689
      1688      1687      1690      1689      1687      1690      1690      1693      1694
      1690      1693      1695      1690      1693      1696      1691      1690      1692
      1691      1690      1693      1692      1690      1693      1693      1696      1697
      1693      1696      1698      1693      1696      1699      1694      1693      1695
      1694      1693      1696      1695      1693      1696      1696      1699      1700
      1696      1699      1701      1696      1699      1702      1697      1696      1698
      1697      1696      1699      1698      1696      1699      1699      1702      1703
      1699      1702      1704      1699      1702      1705      1700      1699      1701
      1700      1699      1702      1701      1699      1702      1702      1705      1706
      1702      1705      1707      1702      1705      1708      1703      1702      1704
      1703      1702      1705      1704      1702      1705      1705      1708      1709
      1705      1708      1710      1705      1708      1711      1706      1705      1707
      1706      1705      1708      1707      1705      1708      1708      1711      1712
      1708      1711      1713      1708      1711      1714      1709      1708      1710
      1709      1708      1711      1710      1708      1711      1711      1714      1715
      1711      1714      1716      1711      1714      1717      1712      1711      1713
      1712      1711      1714      1713      1711      1714      1714      1717      1718
      1714      1717      1719      1714      1717      1720      1715      1714      1716
      1715      1714      1717      1716      1714      1717      1717      1720      1721
      1717      1720      1722      1717      1720      1723      1718      1717      1719
      1718      1717      1720      1719      1717      1720      1721      1720      1722
      1721      1720      1723      1722      1720      1723      1724      1728      1729
      1724      1728      1730      1724      1728      1731      1725      1724      1726
      1725      1724      1727      1725      1724      1728      1726      1724      1727
      1726      1724      1728      1727      1724      1728      1728      1731      1732
      1728      1731      1733      1728      1731      1738      1729      1728      1730
      1729      1728      1731      1730      1728      1731      1731      1738      1734
      1732      1731      1733      1732      1731      1738      1733      1731      1738
      1734      1737      1739      1735      1734      1736      1735      1734      1737
      1735      1734      1738      1736      1734      1737      1736      1734      1738
      1737      1734      1738      1737      1739      1740      1737      1739      1741
      1737      1739      1742      1739      1742      1743      1739      1742      1744
      1739      1742      1750      1740      1739      1741      1740      1739      1742
      1741      1739      1742      1742      1744      1745      1742      1750      1751
      1742      1750      1752      1742      1750      1753      1743      1742      1744
      1743      1742      1750      1744      1742      1750      1744      1745      1746
      1744      1745      1747      1745      1747      1748      1745      1747      1749
      1745      1747      1759      1746      1745      1747      1747      1759      1760
      1747      1759      1761      1747      1759      1762      1748      1747      1749
      1748      1747      1759      1749      1747      1759      1750      1753      1754
      1751      1750      1752      1751      1750      1753      1752      1750      1753
      1753      1754      1755      1753      1754      1756      1754      1756      1757
      1754      1756      1758      1754      1756      1806      1755      1754      1756
      1756      1806      1807      1756      1806      1808      1756      1806      1809
      1757      1756      1758      1757      1756      1806      1758      1756      1806
      1759      1762      1763      1759      1762      1764      1759      1762      1765
      1760      1759      1761      1760      1759      1762      1761      1759      1762
      1762      1765      1766      1762      1765      1767      1762      1765      1768
      1763      1762      1764      1763      1762      1765      1764      1762      1765
      1765      1768      1769      1765      1768      1770      1765      1768      1771
      1766      1765      1767      1766      1765      1768      1767      1765      1768
      1768      1771      1772      1768      1771      1773      1768      1771      1774
      1769      1768      1770      1769      1768      1771      1770      1768      1771
      1771      1774      1775      1771      1774      1776      1771      1774      1777
      1772      1771      1773      1772      1771      1774      1773      1771      1774
      1774      1777      1778      1774      1777      1779      1775      1774      1776
      1775      1774      1777      1776      1774      1777      1777      1779      1780
      1777      1779      1781      1778      1777      1779      1779      1781      1782
      1779      1781      1783      1779      1781      1784      1780      1779      1781
      1781      1784      1785      1781      1784      1786      1781      1784      1787
      1782      1781      1783      1782      1781      1784      1783      1781      1784
      1784      1787      1788      1784      1787      1789      1784      1787      1790
      1785      1784      1786      1785      1784      1787      1786      1784      1787
      1787      1790      1791      1787      1790      1792      1787      1790      1793
      1788      1787      1789      1788      1787      1790      1789      1787      1790
      1790      1793      1794      1790      1793      1795      1790      1793      1796
      1791      1790      1792      1791      1790      1793      1792      1790      1793
      1793      1796      1797      1793      1796      1798      1793      1796      1799
      1794      1793      1795      1794      1793      1796      1795      1793      1796
      1796      1799      1800      1796      1799      1801      1796      1799      1802
      1797      1796      1798      1797      1796      1799      1798      1796      1799
      1799      1802      1803      1799      1802      1804      1799      1802      1805
      1800      1799      1801      1800      1799      1802      1801      1799      1802
      1803      1802      1804      1803      1802      1805      1804      1802      1805
      1806      1809      1810      1806      1809      1811      1806      1809      1812
      1807      1806      1808      1807      1806      1809      1808      1806      1809
      1809      1812      1813      1809      1812      1814      1809      1812      1815
      1810      1809      1811      1810      1809      1812      1811      1809      1812
      1812      1815      1816      1812      1815      1817      1812      1815      1818
      1813      1812      1814      1813      1812      1815      1814      1812      1815
      1815      1818      1819      1815      1818      1820      1815      1818      1821
      1816      1815      1817      1816      1815      1818      1817      1815      1818
      1818      1821      1822      1818      1821      1823      1818      1821      1824
      1819      1818      1820      1819      1818      1821      1820      1818      1821
      1821      1824      1825      1821      1824      1826      1821      1824      1827
      1822      1821      1823      1822      1821      1824      1823      1821      1824
      1824      1827      1828      1824      1827      1829      1824      1827      1830
      1825      1824      1826      1825      1824      1827      1826      1824      1827
      1827      1830      1831      1827      1830      1832      1827      1830      1833
      1828      1827      1829      1828      1827      1830      1829      1827      1830
      1830      1833      1834      1830      1833      1835      1830      1833      1836
      1831      1830      1832      1831      1830      1833      1832      1830      1833
      1833      1836      1837      1833      1836      1838      1833      1836      1839
      1834      1833      1835      1834      1833      1836      1835      1833      1836
      1836      1839      1840      1836      1839      1841      1836      1839      1842
      1837      1836      1838      1837      1836      1839      1838      1836      1839
      1839      1842      1843      1839      1842      1844      1839      1842      1845
      1840      1839      1841      1840      1839      1842      1841      1839      1842
      1842      1845      1846      1842      1845      1847      1842      1845      1848
      1843      1842      1844      1843      1842      1845      1844      1842      1845
      1846      1845      1847      1846      1845      1848      1847      1845      1848
      1849      1853      1854      1849      1853      1855      1849      1853      1856
      1850      1849      1851      1850      1849      1852      1850      1849      1853
      1851      1849      1852      1851      1849      1853      1852      1849      1853
      1853      1856      1857      1853      1856      1858      1853      1856      1863
      1854      1853      1855      1854      1853      1856      1855      1853      1856
      1856      1863      1859      1857      1856      1858      1857      1856      1863
      1858      1856      1863      1859      1862      1864      1860      1859      1861
      1860      1859      1862      1860      1859      1863      1861      1859      1862
      1861      1859      1863      1862      1859      1863      1862      1864      1865
      1862      1864      1866      1862      1864      1867      1864      1867      1868
      1864      1867      1869      1864      1867      1875      1865      1864      1866
      1865      1864      1867      1866      1864      1867      1867      1869      1870
      1867      1875      1876      1867      1875      1877      1867      1875      1878
      1868      1867      1869      1868      1867      1875      1869      1867      1875
      1869      1870      1871      1869      1870      1872      1870      1872      1873
      1870      1872      1874      1870      1872      1884      1871      1870      1872
      1872      1884      1885      1872      1884      1886      1872      1884      1887
      1873      1872      1874      1873      1872      1884      1874      1872      1884
      1875      1878      1879      1876      1875      1877      1876      1875      1878
      1877      1875      1878      1878      1879      1880      1878      1879      1881
      1879      1881      1882      1879      1881      1883      1879      1881      1928
      1880      1879      1881      1881      1928      1929      1881      1928      1930
      1881      1928      1931      1882      1881      1883      1882      1881      1928
      1883      1881      1928      1884      1887      1888      1884      1887      1889
      1884      1887      1890      1885      1884      1886      1885      1884      1887
      1886      1884      1887      1887      1890      1891      1887      1890      1892
      1887      1890      1893      1888      1887      1889      1888      1887      1890
      1889      1887      1890      1890      1893      1894      1890      1893      1895
      1890      1893      1896      1891      1890      1892      1891      1890      1893
      1892      1890      1893      1893      1896      1897      1893      1896      1898
      1893      1896      1899      1894      1893      1895      1894      1893      1896
      1895      1893      1896      1896      1899      1900      1896      1899      1901
      1896      1899      1902      1897      1896      1898      1897      1896      1899
      1898      1896      1899      1899      1902      1903      1899      1902      1904
      1899      1902      1907      1900      1899      1901      1900      1899      1902
      1901      1899      1902      1902      1904      1905      1902      1904      1906
      1902      1904      1907      1902      1907      1904      1902      1907      1908
      1902      1907      1909      1903      1902      1904      1903      1902      1907
      1904      1902      1907      1904      1907      1908      1904      1907      1909
      1905      1904      1906      1905      1904      1907      1906      1904      1907
      1907      1909      1910      1907      1909      1911      1907      1909      1912
      1908      1907      1909      1909      1912      1913      1909      1912      1914
      1909      1912      1915      1910      1909      1911      1910      1909      1912
      1911      1909      1912      1912      1915      1916      1912      1915      1917
      1912      1915      1918      1913      1912      1914      1913      1912      1915
      1914      1912      1915      1915      1918      1919      1915      1918      1920
      1915      1918      1921      1916      1915      1917      1916      1915      1918
      1917      1915      1918      1918      1921      1922      1918      1921      1923
      1918      1921      1924      1919      1918      1920      1919      1918      1921
      1920      1918      1921      1921      1924      1925      1921      1924      1926
      1921      1924      1927      1922      1921      1923      1922      1921      1924
      1923      1921      1924      1925      1924      1926      1925      1924      1927
      1926      1924      1927      1928      1931      1932      1928      1931      1933
      1928      1931      1934      1929      1928      1930      1929      1928      1931
      1930      1928      1931      1931      1934      1935      1931      1934      1936
      1931      1934      1937      1932      1931      1933      1932      1931      1934
      1933      1931      1934      1934      1937      1938      1934      1937      1939
      1934      1937      1940      1935      1934      1936      1935      1934      1937
      1936      1934      1937      1937      1940      1941      1937      1940      1942
      1937      1940      1943      1938      1937      1939      1938      1937      1940
      1939      1937      1940      1940      1943      1944      1940      1943      1945
      1940      1943      1946      1941      1940      1942      1941      1940      1943
      1942      1940      1943      1943      1946      1947      1943      1946      1948
      1943      1946      1949      1944      1943      1945      1944      1943      1946
      1945      1943      1946      1946      1949      1950      1946      1949      1951
      1946      1949      1952      1947      1946      1948      1947      1946      1949
      1948      1946      1949      1949      1952      1953      1949      1952      1954
      1949      1952      1955      1950      1949      1951      1950      1949      1952
      1951      1949      1952      1952      1955      1956      1952      1955      1957
      1952      1955      1958      1953      1952      1954      1953      1952      1955
      1954      1952      1955      1955      1958      1959      1955      1958      1960
      1955      1958      1961      1956      1955      1957      1956      1955      1958
      1957      1955      1958      1958      1961      1962      1958      1961      1963
      1958      1961      1964      1959      1958      1960      1959      1958      1961
      1960      1958      1961      1961      1964      1965      1961      1964      1966
      1961      1964      1967      1962      1961      1963      1962      1961      1964
      1963      1961      1964      1964      1967      1968      1964      1967      1969
      1964      1967      1970      1965      1964      1966      1965      1964      1967
      1966      1964      1967      1968      1967      1969      1968      1967      1970
      1969      1967      1970      1971      1975      1976      1971      1975      1977
      1971      1975      1978      1972      1971      1973      1972      1971      1974
      1972      1971      1975      1973      1971      1974      1973      1971      1975
      1974      1971      1975      1975      1978      1979      1975      1978      1980
      1975      1978      1985      1976      1975      1977      1976      1975      1978
      1977      1975      1978      1978      1985      1981      1979      1978      1980
      1979      1978      1985      1980      1978      1985      1981      1984      1986
      1982      1981      1983      1982      1981      1984      1982      1981      1985
      1983      1981      1984      1983      1981      1985      1984      1981      1985
      1984      1986      1987      1984      1986      1988      1984      1986      1989
      1986      1989      1990      1986      1989      1991      1986      1989      1997
      1987      1986      1988      1987      1986      1989      1988      1986      1989
      1989      1991      1992      1989      1997      1998      1989      1997      1999
      1989      1997      2000      1990      1989      1991      1990      1989      1997
      1991      1989      1997      1991      1992      1993      1991      1992      1994
      1992      1994      1995      1992      1994      1996      1992      1994      2006
      1993      1992      1994      1994      2006      2007      1994      2006      2008
      1994      2006      2009      1995      1994      1996      1995      1994      2006
      1996      1994      2006      1997      2000      2001      1998      1997      1999
      1998      1997      2000      1999      1997      2000      2000      2001      2002
      2000      2001      2003      2001      2003      2004      2001      2003      2005
      2001      2003      2050      2002      2001      2003      2003      2050      2051
      2003      2050      2052      2003      2050      2053      2004      2003      2005
      2004      2003      2050      2005      2003      2050      2006      2009      2010
      2006      2009      2011      2006      2009      2012      2007      2006      2008
      2007      2006      2009      2008      2006      2009      2009      2012      2013
      2009      2012      2014      2009      2012      2015      2010      2009      2011
      2010      2009      2012      2011      2009      2012      2012      2015      2016
      2012      2015      2017      2012      2015      2018      2013      2012      2014
      2013      2012      2015      2014      2012      2015      2015      2018      2019
      2015      2018      2020      2015      2018      2021      2016      2015      2017
      2016      2015      2018      2017      2015      2018      2018      2021      2022
      2018      2021      2023      2018      2021      2024      2019      2018      2020
      2019      2018      2021      2020      2018      2021      2021      2024      2025
      2021      2024      2026      2021      2024      2029      2022      2021      2023
      2022      2021      2024      2023      2021      2024      2024      2026      2027
      2024      2026      2028      2024      2026      2029      2024      2029      2026
      2024      2029      2030      2024      2029      2031      2025      2024      2026
      2025      2024      2029      2026      2024      2029      2026      2029      2030
      2026      2029      2031      2027      2026      2028      2027      2026      2029
      2028      2026      2029      2029      2031      2032      2029      2031      2033
      2029      2031      2034      2030      2029      2031      2031      2034      2035
      2031      2034      2036      2031      2034      2037      2032      2031      2033
      2032      2031      2034      2033      2031      2034      2034      2037      2038
      2034      2037      2039      2034      2037      2040      2035      2034      2036
      2035      2034      2037      2036      2034      2037      2037      2040      2041
      2037      2040      2042      2037      2040      2043      2038      2037      2039
      2038      2037      2040      2039      2037      2040      2040      2043      2044
      2040      2043      2045      2040      2043      2046      2041      2040      2042
      2041      2040      2043      2042      2040      2043      2043      2046      2047
      2043      2046      2048      2043      2046      2049      2044      2043      2045
      2044      2043      2046      2045      2043      2046      2047      2046      2048
      2047      2046      2049      2048      2046      2049      2050      2053      2054
      2050      2053      2055      2050      2053      2056      2051      2050      2052
      2051      2050      2053      2052      2050      2053      2053      2056      2057
      2053      2056      2058      2053      2056      2059      2054      2053      2055
      2054      2053      2056      2055      2053      2056      2056      2059      2060
      2056      2059      2061      2056      2059      2062      2057      2056      2058
      2057      2056      2059      2058      2056      2059      2059      2062      2063
      2059      2062      2064      2059      2062      2065      2060      2059      2061
      2060      2059      2062      2061      2059      2062      2062      2065      2066
      2062      2065      2067      2062      2065      2068      2063      2062      2064
      2063      2062      2065      2064      2062      2065      2065      2068      2069
      2065      2068      2070      2065      2068      2071      2066      2065      2067
      2066      2065      2068      2067      2065      2068      2068      2071      2072
      2068      2071      2073      2068      2071      2074      2069      2068      2070
      2069      2068      2071      2070      2068      2071      2071      2074      2075
      2071      2074      2076      2071      2074      2077      2072      2071      2073
      2072      2071      2074      2073      2071      2074      2074      2077      2078
      2074      2077      2079      2074      2077      2080      2075      2074      2076
      2075      2074      2077      2076      2074      2077      2077      2080      2081
      2077      2080      2082      2077      2080      2083      2078      2077      2079
      2078      2077      2080      2079      2077      2080      2080      2083      2084
      2080      2083      2085      2080      2083      2086      2081      2080      2082
      2081      2080      2083      2082      2080      2083      2083      2086      2087
      2083      2086      2088      2083      2086      2089      2084      2083      2085
      2084      2083      2086      2085      2083      2086      2086      2089      2090
      2086      2089      2091      2086      2089      2092      2087      2086      2088
      2087      2086      2089      2088      2086      2089      2090      2089      2091
      2090      2089      2092      2091      2089      2092      2093      2097      2098
      2093      2097      2099      2093      2097      2100      2094      2093      2095
      2094      2093      2096      2094      2093      2097      2095      2093      2096
      2095      2093      2097      2096      2093      2097      2097      2100      2101
      2097      2100      2102      2097      2100      2107      2098      2097      2099
      2098      2097      2100      2099      2097      2100      2100      2107      2103
      2101      2100      2102      2101      2100      2107      2102      2100      2107
      2103      2106      2108      2104      2103      2105      2104      2103      2106
      2104      2103      2107      2105      2103      2106      2105      2103      2107
      2106      2103      2107      2106      2108      2109      2106      2108      2110
      2106      2108      2111      2108      2111      2112      2108      2111      2113
      2108      2111      2119      2109      2108      2110      2109      2108      2111
      2110      2108      2111      2111      2113      2114      2111      2119      2120
      2111      2119      2121      2111      2119      2122      2112      2111      2113
      2112      2111      2119      2113      2111      2119      2113      2114      2115
      2113      2114      2116      2114      2116      2117      2114      2116      2118
      2114      2116      2128      2115      2114      2116      2116      2128      2129
      2116      2128      2130      2116      2128      2131      2117      2116      2118
      2117      2116      2128      2118      2116      2128      2119      2122      2123
      2120      2119      2121      2120      2119      2122      2121      2119      2122
      2122      2123      2124      2122      2123      2125      2123      2125      2126
      2123      2125      2127      2123      2125      2172      2124      2123      2125
      2125      2172      2173      2125      2172      2174      2125      2172      2175
      2126      2125      2127      2126      2125      2172      2127      2125      2172
      2128      2131      2132      2128      2131      2133      2128      2131      2134
      2129      2128      2130      2129      2128      2131      2130      2128      2131
      2131      2134      2135      2131      2134      2136      2131      2134      2137
      2132      2131      2133      2132      2131      2134      2133      2131      2134
      2134      2137      2138      2134      2137      2139      2134      2137      2140
      2135      2134      2136      2135      2134      2137      2136      2134      2137
      2137      2140      2141      2137      2140      2142      2137      2140      2143
      2138      2137      2139      2138      2137      2140      2139      2137      2140
      2140      2143      2144      2140      2143      2145      2140      2143      2146
      2141      2140      2142      2141      2140      2143      2142      2140      2143
      2143      2146      2147      2143      2146      2148      2143      2146      2151
      2144      2143      2145      2144      2143      2146      2145      2143      2146
      2146      2148      2149      2146      2148      2150      2146      2148      2151
      2146      2151      2148      2146      2151      2152      2146      2151      2153
      2147      2146      2148      2147      2146      2151      2148      2146      2151
      2148      2151      2152      2148      2151      2153      2149      2148      2150
      2149      2148      2151      2150      2148      2151      2151      2153      2154
      2151      2153      2155      2151      2153      2156      2152      2151      2153
      2153      2156      2157      2153      2156      2158      2153      2156      2159
      2154      2153      2155      2154      2153      2156      2155      2153      2156
      2156      2159      2160      2156      2159      2161      2156      2159      2162
      2157      2156      2158      2157      2156      2159      2158      2156      2159
      2159      2162      2163      2159      2162      2164      2159      2162      2165
      2160      2159      2161      2160      2159      2162      2161      2159      2162
      2162      2165      2166      2162      2165      2167      2162      2165      2168
      2163      2162      2164      2163      2162      2165      2164      2162      2165
      2165      2168      2169      2165      2168      2170      2165      2168      2171
      2166      2165      2167      2166      2165      2168      2167      2165      2168
      2169      2168      2170      2169      2168      2171      2170      2168      2171
      2172      2175      2176      2172      2175      2177      2172      2175      2178
      2173      2172      2174      2173      2172      2175      2174      2172      2175
      2175      2178      2179      2175      2178      2180      2175      2178      2181
      2176      2175      2177      2176      2175      2178      2177      2175      2178
      2178      2181      2182      2178      2181      2183      2178      2181      2184
      2179      2178      2180      2179      2178      2181      2180      2178      2181
      2181      2184      2185      2181      2184      2186      2181      2184      2187
      2182      2181      2183      2182      2181      2184      2183      2181      2184
      2184      2187      2188      2184      2187      2189      2184      2187      2190
      2185      2184      2186      2185      2184      2187      2186      2184      2187
      2187      2190      2191      2187      2190      2192      2187      2190      2193
      2188      2187      2189      2188      2187      2190      2189      2187      2190
      2190      2193      2194      2190      2193      2195      2190      2193      2196
      2191      2190      2192      2191      2190      2193      2192      2190      2193
      2193      2196      2197      2193      2196      2198      2193      2196      2199
      2194      2193      2195      2194      2193      2196      2195      2193      2196
      2196      2199      2200      2196      2199      2201      2196      2199      2202
      2197      2196      2198      2197      2196      2199      2198      2196      2199
      2199      2202      2203      2199      2202      2204      2199      2202      2205
      2200      2199      2201      2200      2199      2202      2201      2199      2202
      2202      2205      2206      2202      2205      2207      2202      2205      2208
      2203      2202      2204      2203      2202      2205      2204      2202      2205
      2205      2208      2209      2205      2208      2210      2205      2208      2211
      2206      2205      2207      2206      2205      2208      2207      2205      2208
      2208      2211      2212      2208      2211      2213      2208      2211      2214
      2209      2208      2210      2209      2208      2211      2210      2208      2211
      2212      2211      2213      2212      2211      2214      2213      2211      2214
      2215      2218      2219      2215      2220      2221      2215      2220      2222
      2215      2220      2224      2216      2215      2217      2216      2215      2218
      2216      2215      2220      2217      2215      2218      2217      2215      2220
      2218      2215      2220      2220      2222      2223      2220      2224      2225
      2220      2224      2226      2220      2224      2231      2221      2220      2222
      2221      2220      2224      2222      2220      2224      2224      2231      2227
      2225      2224      2226      2225      2224      2231      2226      2224      2231
      2227      2230      2232      2228      2227      2229      2228      2227      2230
      2228      2227      2231      2229      2227      2230      2229      2227      2231
      2230      2227      2231      2230      2232      2233      2230      2232      2234
      2230      2232      2235      2232      2235      2236      2232      2235      2237
      2232      2235      2243      2233      2232      2234      2233      2232      2235
      2234      2232      2235      2235      2237      2238      2235      2243      2244
      2235      2243      2245      2235      2243      2246      2236      2235      2237
      2236      2235      2243      2237      2235      2243      2237      2238      2239
      2237      2238      2240      2238      2240      2241      2238      2240      2242
      2238      2240      2252      2239      2238      2240      2240      2252      2253
      2240      2252      2254      2240      2252      2255      2241      2240      2242
      2241      2240      2252      2242      2240      2252      2243      2246      2247
      2244      2243      2245      2244      2243      2246      2245      2243      2246
      2246      2247      2248      2246      2247      2249      2247      2249      2250
      2247      2249      2251      2247      2249      2293      2248      2247      2249
      2249      2293      2294      2249      2293      2295      2249      2293      2296
      2250      2249      2251      2250      2249      2293      2251      2249      2293
      2252      2255      2256      2252      2255      2257      2252      2255      2258
      2253      2252      2254      2253      2252      2255      2254      2252      2255
      2255      2258      2259      2255      2258      2260      2255      2258      2261
      2256      2255      2257      2256      2255      2258      2257      2255      2258
      2258      2261      2262      2258      2261      2263      2258      2261      2264
      2259      2258      2260      2259      2258      2261      2260      2258      2261
      2261      2264      2265      2261      2264      2266      2261      2264      2267
      2262      2261      2263      2262      2261      2264      2263      2261      2264
      2264      2267      2268      2264      2267      2269      2264      2267      2270
      2265      2264      2266      2265      2264      2267      2266      2264      2267
      2267      2270      2271      2267      2270      2272      2268      2267      2269
      2268      2267      2270      2269      2267      2270      2270      2272      2273
      2270      2272      2274      2271      2270      2272      2272      2274      2275
      2272      2274      2276      2272      2274      2277      2273      2272      2274
      2274      2277      2278      2274      2277      2279      2274      2277      2280
      2275      2274      2276      2275      2274      2277      2276      2274      2277
      2277      2280      2281      2277      2280      2282      2277      2280      2283
      2278      2277      2279      2278      2277      2280      2279      2277      2280
      2280      2283      2284      2280      2283      2285      2280      2283      2286
      2281      2280      2282      2281      2280      2283      2282      2280      2283
      2283      2286      2287      2283      2286      2288      2283      2286      2289
      2284      2283      2285      2284      2283      2286      2285      2283      2286
      2286      2289      2290      2286      2289      2291      2286      2289      2292
      2287      2286      2288      2287      2286      2289      2288      2286      2289
      2290      2289      2291      2290      2289      2292      2291      2289      2292
      2293      2296      2297      2293      2296      2298      2293      2296      2299
      2294      2293      2295      2294      2293      2296      2295      2293      2296
      2296      2299      2300      2296      2299      2301      2296      2299      2302
      2297      2296      2298      2297      2296      2299      2298      2296      2299
      2299      2302      2303      2299      2302      2304      2299      2302      2305
      2300      2299      2301      2300      2299      2302      2301      2299      2302
      2302      2305      2306      2302      2305      2307      2302      2305      2308
      2303      2302      2304      2303      2302      2305      2304      2302      2305
      2305      2308      2309      2305      2308      2310      2305      2308      2311
      2306      2305      2307      2306      2305      2308      2307      2305      2308
      2308      2311      2312      2308      2311      2313      2308      2311      2314
      2309      2308      2310      2309      2308      2311      2310      2308      2311
      2311      2314      2315      2311      2314      2316      2311      2314      2317
      2312      2311      2313      2312      2311      2314      2313      2311      2314
      2314      2317      2318      2314      2317      2319      2314      2317      2320
      2315      2314      2316      2315      2314      2317      2316      2314      2317
      2317      2320      2321      2317      2320      2322      2317      2320      2323
      2318      2317      2319      2318      2317      2320      2319      2317      2320
      2320      2323      2324      2320      2323      2325      2320      2323      2326
      2321      2320      2322      2321      2320      2323      2322      2320      2323
      2323      2326      2327      2323      2326      2328      2323      2326      2329
      2324      2323      2325      2324      2323      2326      2325      2323      2326
      2326      2329      2330      2326      2329      2331      2326      2329      2332
      2327      2326      2328      2327      2326      2329      2328      2326      2329
      2329      2332      2333      2329      2332      2334      2329      2332      2335
      2330      2329      2331      2330      2329      2332      2331      2329      2332
      2333      2332      2334      2333      2332      2335      2334      2332      2335
      2336      2340      2341      2336      2340      2342      2336      2340      2343
      2337      2336      2338      2337      2336      2339      2337      2336      2340
      2338      2336      2339      2338      2336      2340      2339      2336      2340
      2340      2343      2344      2340      2343      2345      2340      2343      2350
      2341      2340      2342      2341      2340      2343      2342      2340      2343
      2343      2350      2346      2344      2343      2345      2344      2343      2350
      2345      2343      2350      2346      2349      2351      2347      2346      2348
      2347      2346      2349      2347      2346      2350      2348      2346      2349
      2348      2346      2350      2349      2346      2350      2349      2351      2352
      2349      2351      2353      2349      2351      2354      2351      2354      2355
      2351      2354      2356      2351      2354      2362      2352      2351      2353
      2352      2351      2354      2353      2351      2354      2354      2356      2357
      2354      2362      2363      2354      2362      2364      2354      2362      2365
      2355      2354      2356      2355      2354      2362      2356      2354      2362
      2356      2357      2358      2356      2357      2359      2357      2359      2360
      2357      2359      2361      2357      2359      2371      2358      2357      2359
      2359      2371      2372      2359      2371      2373      2359      2371      2374
      2360      2359      2361      2360      2359      2371      2361      2359      2371
      2362      2365      2366      2363      2362      2364      2363      2362      2365
      2364      2362      2365      2365      2366      2367      2365      2366      2368
      2366      2368      2369      2366      2368      2370      2366      2368      2415
      2367      2366      2368      2368      2415      2416      2368      2415      2417
      2368      2415      2418      2369      2368      2370      2369      2368      2415
      2370      2368      2415      2371      2374      2375      2371      2374      2376
      2371      2374      2377      2372      2371      2373      2372      2371      2374
      2373      2371      2374      2374      2377      2378      2374      2377      2379
      2374      2377      2380      2375      2374      2376      2375      2374      2377
      2376      2374      2377      2377      2380      2381      2377      2380      2382
      2377      2380      2383      2378      2377      2379      2378      2377      2380
      2379      2377      2380      2380      2383      2384      2380      2383      2385
      2380      2383      2386      2381      2380      2382      2381      2380      2383
      2382      2380      2383      2383      2386      2387      2383      2386      2388
      2383      2386      2389      2384      2383      2385      2384      2383      2386
      2385      2383      2386      2386      2389      2390      2386      2389      2391
      2386      2389      2394      2387      2386      2388      2387      2386      2389
      2388      2386      2389      2389      2391      2392      2389      2391      2393
      2389      2391      2394      2389      2394      2391      2389      2394      2395
      2389      2394      2396      2390      2389      2391      2390      2389      2394
      2391      2389      2394      2391      2394      2395      2391      2394      2396
      2392      2391      2393      2392      2391      2394      2393      2391      2394
      2394      2396      2397      2394      2396      2398      2394      2396      2399
      2395      2394      2396      2396      2399      2400      2396      2399      2401
      2396      2399      2402      2397      2396      2398      2397      2396      2399
      2398      2396      2399      2399      2402      2403      2399      2402      2404
      2399      2402      2405      2400      2399      2401      2400      2399      2402
      2401      2399      2402      2402      2405      2406      2402      2405      2407
      2402      2405      2408      2403      2402      2404      2403      2402      2405
      2404      2402      2405      2405      2408      2409      2405      2408      2410
      2405      2408      2411      2406      2405      2407      2406      2405      2408
      2407      2405      2408      2408      2411      2412      2408      2411      2413
      2408      2411      2414      2409      2408      2410      2409      2408      2411
      2410      2408      2411      2412      2411      2413      2412      2411      2414
      2413      2411      2414      2415      2418      2419      2415      2418      2420
      2415      2418      2421      2416      2415      2417      2416      2415      2418
      2417      2415      2418      2418      2421      2422      2418      2421      2423
      2418      2421      2424      2419      2418      2420      2419      2418      2421
      2420      2418      2421      2421      2424      2425      2421      2424      2426
      2421      2424      2427      2422      2421      2423      2422      2421      2424
      2423      2421      2424      2424      2427      2428      2424      2427      2429
      2424      2427      2430      2425      2424      2426      2425      2424      2427
      2426      2424      2427      2427      2430      2431      2427      2430      2432
      2427      2430      2433      2428      2427      2429      2428      2427      2430
      2429      2427      2430      2430      2433      2434      2430      2433      2435
      2430      2433      2436      2431      2430      2432      2431      2430      2433
      2432      2430      2433      2433      2436      2437      2433      2436      2438
      2433      2436      2439      2434      2433      2435      2434      2433      2436
      2435      2433      2436      2436      2439      2440      2436      2439      2441
      2436      2439      2442      2437      2436      2438      2437      2436      2439
      2438      2436      2439      2439      2442      2443      2439      2442      2444
      2439      2442      2445      2440      2439      2441      2440      2439      2442
      2441      2439      2442      2442      2445      2446      2442      2445      2447
      2442      2445      2448      2443      2442      2444      2443      2442      2445
      2444      2442      2445      2445      2448      2449      2445      2448      2450
      2445      2448      2451      2446      2445      2447      2446      2445      2448
      2447      2445      2448      2448      2451      2452      2448      2451      2453
      2448      2451      2454      2449      2448      2450      2449      2448      2451
      2450      2448      2451      2452      2451      2453      2452      2451      2454
      2453      2451      2454      2455      2459      2460      2455      2459      2461
      2455      2459      2462      2456      2455      2457      2456      2455      2458
      2456      2455      2459      2457      2455      2458      2457      2455      2459
      2458      2455      2459      2459      2462      2463      2459      2462      2464
      2459      2462      2469      2460      2459      2461      2460      2459      2462
      2461      2459      2462      2462      2469      2465      2463      2462      2464
      2463      2462      2469      2464      2462      2469      2465      2468      2470
      2466      2465      2467      2466      2465      2468      2466      2465      2469
      2467      2465      2468      2467      2465      2469      2468      2465      2469
      2468      2470      2471      2468      2470      2472      2468      2470      2473
      2470      2473      2474      2470      2473      2475      2470      2473      2481
      2471      2470      2472      2471      2470      2473      2472      2470      2473
      2473      2475      2476      2473      2481      2482      2473      2481      2483
      2473      2481      2484      2474      2473      2475      2474      2473      2481
      2475      2473      2481      2475      2476      2477      2475      2476      2478
      2476      2478      2479      2476      2478      2480      2476      2478      2490
      2477      2476      2478      2478      2490      2491      2478      2490      2492
      2478      2490      2493      2479      2478      2480      2479      2478      2490
      2480      2478      2490      2481      2484      2485      2482      2481      2483
      2482      2481      2484      2483      2481      2484      2484      2485      2486
      2484      2485      2487      2485      2487      2488      2485      2487      2489
      2485      2487      2534      2486      2485      2487      2487      2534      2535
      2487      2534      2536      2487      2534      2537      2488      2487      2489
      2488      2487      2534      2489      2487      2534      2490      2493      2494
      2490      2493      2495      2490      2493      2496      2491      2490      2492
      2491      2490      2493      2492      2490      2493      2493      2496      2497
      2493      2496      2498      2493      2496      2499      2494      2493      2495
      2494      2493      2496      2495      2493      2496      2496      2499      2500
      2496      2499      2501      2496      2499      2502      2497      2496      2498
      2497      2496      2499      2498      2496      2499      2499      2502      2503
      2499      2502      2504      2499      2502      2505      2500      2499      2501
      2500      2499      2502      2501      2499      2502      2502      2505      2506
      2502      2505      2507      2502      2505      2508      2503      2502      2504
      2503      2502      2505      2504      2502      2505      2505      2508      2509
      2505      2508      2510      2505      2508      2513      2506      2505      2507
      2506      2505      2508      2507      2505      2508      2508      2510      2511
      2508      2510      2512      2508      2510      2513      2508      2513      2510
      2508      2513      2514      2508      2513      2515      2509      2508      2510
      2509      2508      2513      2510      2508      2513      2510      2513      2514
      2510      2513      2515      2511      2510      2512      2511      2510      2513
      2512      2510      2513      2513      2515      2516      2513      2515      2517
      2513      2515      2518      2514      2513      2515      2515      2518      2519
      2515      2518      2520      2515      2518      2521      2516      2515      2517
      2516      2515      2518      2517      2515      2518      2518      2521      2522
      2518      2521      2523      2518      2521      2524      2519      2518      2520
      2519      2518      2521      2520      2518      2521      2521      2524      2525
      2521      2524      2526      2521      2524      2527      2522      2521      2523
      2522      2521      2524      2523      2521      2524      2524      2527      2528
      2524      2527      2529      2524      2527      2530      2525      2524      2526
      2525      2524      2527      2526      2524      2527      2527      2530      2531
      2527      2530      2532      2527      2530      2533      2528      2527      2529
      2528      2527      2530      2529      2527      2530      2531      2530      2532
      2531      2530      2533      2532      2530      2533      2534      2537      2538
      2534      2537      2539      2534      2537      2540      2535      2534      2536
      2535      2534      2537      2536      2534      2537      2537      2540      2541
      2537      2540      2542      2537      2540      2543      2538      2537      2539
      2538      2537      2540      2539      2537      2540      2540      2543      2544
      2540      2543      2545      2540      2543      2546      2541      2540      2542
      2541      2540      2543      2542      2540      2543      2543      2546      2547
      2543      2546      2548      2543      2546      2549      2544      2543      2545
      2544      2543      2546      2545      2543      2546      2546      2549      2550
      2546      2549      2551      2546      2549      2552      2547      2546      2548
      2547      2546      2549      2548      2546      2549      2549      2552      2553
      2549      2552      2554      2549      2552      2555      2550      2549      2551
      2550      2549      2552      2551      2549      2552      2552      2555      2556
      2552      2555      2557      2552      2555      2558      2553      2552      2554
      2553      2552      2555      2554      2552      2555      2555      2558      2559
      2555      2558      2560      2555      2558      2561      2556      2555      2557
      2556      2555      2558      2557      2555      2558      2558      2561      2562
      2558      2561      2563      2558      2561      2564      2559      2558      2560
      2559      2558      2561      2560      2558      2561      2561      2564      2565
      2561      2564      2566      2561      2564      2567      2562      2561      2563
      2562      2561      2564      2563      2561      2564      2564      2567      2568
      2564      2567      2569      2564      2567      2570      2565      2564      2566
      2565      2564      2567      2566      2564      2567      2567      2570      2571
      2567      2570      2572      2567      2570      2573      2568      2567      2569
      2568      2567      2570      2569      2567      2570      2570      2573      2574
      2570      2573      2575      2570      2573      2576      2571      2570      2572
      2571      2570      2573      2572      2570      2573      2574      2573      2575
      2574      2573      2576      2575      2573      2576      2577      2581      2582
      2577      2581      2583      2577      2581      2584      2578      2577      2579
      2578      2577      2580      2578      2577      2581      2579      2577      2580
      2579      2577      2581      2580      2577      2581      2581      2584      2585
      2581      2584      2586      2581      2584      2591      2582      2581      2583
      2582      2581      2584      2583      2581      2584      2584      2591      2587
      2585      2584      2586      2585      2584      2591      2586      2584      2591
      2587      2590      2592      2588      2587      2589      2588      2587      2590
      2588      2587      2591      2589      2587      2590      2589      2587      2591
      2590      2587      2591      2590      2592      2593      2590      2592      2594
      2590      2592      2595      2592      2595      2596      2592      2595      2597
      2592      2595      2603      2593      2592      2594      2593      2592      2595
      2594      2592      2595      2595      2597      2598      2595      2603      2604
      2595      2603      2605      2595      2603      2606      2596      2595      2597
      2596      2595      2603      2597      2595      2603      2597      2598      2599
      2597      2598      2600      2598      2600      2601      2598      2600      2602
      2598      2600      2612      2599      2598      2600      2600      2612      2613
      2600      2612      2614      2600      2612      2615      2601      2600      2602
      2601      2600      2612      2602      2600      2612      2603      2606      2607
      2604      2603      2605      2604      2603      2606      2605      2603      2606
      2606      2607      2608      2606      2607      2609      2607      2609      2610
      2607      2609      2611      2607      2609      2656      2608      2607      2609
      2609      2656      2657      2609      2656      2658      2609      2656      2659
      2610      2609      2611      2610      2609      2656      2611      2609      2656
      2612      2615      2616      2612      2615      2617      2612      2615      2618
      2613      2612      2614      2613      2612      2615      2614      2612      2615
      2615      2618      2619      2615      2618      2620      2615      2618      2621
      2616      2615      2617      2616      2615      2618      2617      2615      2618
      2618      2621      2622      2618      2621      2623      2618      2621      2624
      2619      2618      2620      2619      2618      2621      2620      2618      2621
      2621      2624      2625      2621      2624      2626      2621      2624      2627
      2622      2621      2623      2622      2621      2624      2623      2621      2624
      2624      2627      2628      2624      2627      2629      2624      2627      2630
      2625      2624      2626      2625      2624      2627      2626      2624      2627
      2627      2630      2631      2627      2630      2632      2627      2630      2635
      2628      2627      2629      2628      2627      2630      2629      2627      2630
      2630      2632      2633      2630      2632      2634      2630      2632      2635
      2630      2635      2632      2630      2635      2636      2630      2635      2637
      2631      2630      2632      2631      2630      2635      2632      2630      2635
      2632      2635      2636      2632      2635      2637      2633      2632      2634
      2633      2632      2635      2634      2632      2635      2635      2637      2638
      2635      2637      2639      2635      2637      2640      2636      2635      2637
      2637      2640      2641      2637      2640      2642      2637      2640      2643
      2638      2637      2639      2638      2637      2640      2639      2637      2640
      2640      2643      2644      2640      2643      2645      2640      2643      2646
      2641      2640      2642      2641      2640      2643      2642      2640      2643
      2643      2646      2647      2643      2646      2648      2643      2646      2649
      2644      2643      2645      2644      2643      2646      2645      2643      2646
      2646      2649      2650      2646      2649      2651      2646      2649      2652
      2647      2646      2648      2647      2646      2649      2648      2646      2649
      2649      2652      2653      2649      2652      2654      2649      2652      2655
      2650      2649      2651      2650      2649      2652      2651      2649      2652
      2653      2652      2654      2653      2652      2655      2654      2652      2655
      2656      2659      2660      2656      2659      2661      2656      2659      2662
      2657      2656      2658      2657      2656      2659      2658      2656      2659
      2659      2662      2663      2659      2662      2664      2659      2662      2665
      2660      2659      2661      2660      2659      2662      2661      2659      2662
      2662      2665      2666      2662      2665      2667      2662      2665      2668
      2663      2662      2664      2663      2662      2665      2664      2662      2665
      2665      2668      2669      2665      2668      2670      2665      2668      2671
      2666      2665      2667      2666      2665      2668      2667      2665      2668
      2668      2671      2672      2668      2671      2673      2668      2671      2674
      2669      2668      2670      2669      2668      2671      2670      2668      2671
      2671      2674      2675      2671      2674      2676      2671      2674      2677
      2672      2671      2673      2672      2671      2674      2673      2671      2674
      2674      2677      2678      2674      2677      2679      2674      2677      2680
      2675      2674      2676      2675      2674      2677      2676      2674      2677
      2677      2680      2681      2677      2680      2682      2677      2680      2683
      2678      2677      2679      2678      2677      2680      2679      2677      2680
      2680      2683      2684      2680      2683      2685      2680      2683      2686
      2681      2680      2682      2681      2680      2683      2682      2680      2683
      2683      2686      2687      2683      2686      2688      2683      2686      2689
      2684      2683      2685      2684      2683      2686      2685      2683      2686
      2686      2689      2690      2686      2689      2691      2686      2689      2692
      2687      2686      2688      2687      2686      2689      2688      2686      2689
      2689      2692      2693      2689      2692      2694      2689      2692      2695
      2690      2689      2691      2690      2689      2692      2691      2689      2692
      2692      2695      2696      2692      2695      2697      2692      2695      2698
      2693      2692      2694      2693      2692      2695      2694      2692      2695
      2696      2695      2697      2696      2695      2698      2697      2695      2698
      2699      2702      2703      2699      2704      2705      2699      2704      2706
      2699      2704      2708      2700      2699      2701      2700      2699      2702
      2700      2699      2704      2701      2699      2702      2701      2699      2704
      2702      2699      2704      2704      2706      2707      2704      2708      2709
      2704      2708      2710      2704      2708      2715      2705      2704      2706
      2705      2704      2708      2706      2704      2708      2708      2715      2711
      2709      2708      2710      2709      2708      2715      2710      2708      2715
      2711      2714      2716      2712      2711      2713      2712      2711      2714
      2712      2711      2715      2713      2711      2714      2713      2711      2715
      2714      2711      2715      2714      2716      2717      2714      2716      2718
      2714      2716      2719      2716      2719      2720      2716      2719      2721
      2716      2719      2727      2717      2716      2718      2717      2716      2719
      2718      2716      2719      2719      2721      2722      2719      2727      2728
      2719      2727      2729      2719      2727      2730      2720      2719      2721
      2720      2719      2727      2721      2719      2727      2721      2722      2723
      2721      2722      2724      2722      2724      2725      2722      2724      2726
      2722      2724      2736      2723      2722      2724      2724      2736      2737
      2724      2736      2738      2724      2736      2739      2725      2724      2726
      2725      2724      2736      2726      2724      2736      2727      2730      2731
      2728      2727      2729      2728      2727      2730      2729      2727      2730
      2730      2731      2732      2730      2731      2733      2731      2733      2734
      2731      2733      2735      2731      2733      2777      2732      2731      2733
      2733      2777      2778      2733      2777      2779      2733      2777      2780
      2734      2733      2735      2734      2733      2777      2735      2733      2777
      2736      2739      2740      2736      2739      2741      2736      2739      2742
      2737      2736      2738      2737      2736      2739      2738      2736      2739
      2739      2742      2743      2739      2742      2744      2739      2742      2745
      2740      2739      2741      2740      2739      2742      2741      2739      2742
      2742      2745      2746      2742      2745      2747      2742      2745      2748
      2743      2742      2744      2743      2742      2745      2744      2742      2745
      2745      2748      2749      2745      2748      2750      2745      2748      2751
      2746      2745      2747      2746      2745      2748      2747      2745      2748
      2748      2751      2752      2748      2751      2753      2748      2751      2754
      2749      2748      2750      2749      2748      2751      2750      2748      2751
      2751      2754      2755      2751      2754      2756      2752      2751      2753
      2752      2751      2754      2753      2751      2754      2754      2756      2757
      2754      2756      2758      2755      2754      2756      2756      2758      2759
      2756      2758      2760      2756      2758      2761      2757      2756      2758
      2758      2761      2762      2758      2761      2763      2758      2761      2764
      2759      2758      2760      2759      2758      2761      2760      2758      2761
      2761      2764      2765      2761      2764      2766      2761      2764      2767
      2762      2761      2763      2762      2761      2764      2763      2761      2764
      2764      2767      2768      2764      2767      2769      2764      2767      2770
      2765      2764      2766      2765      2764      2767      2766      2764      2767
      2767      2770      2771      2767      2770      2772      2767      2770      2773
      2768      2767      2769      2768      2767      2770      2769      2767      2770
      2770      2773      2774      2770      2773      2775      2770      2773      2776
      2771      2770      2772      2771      2770      2773      2772      2770      2773
      2774      2773      2775      2774      2773      2776      2775      2773      2776
      2777      2780      2781      2777      2780      2782      2777      2780      2783
      2778      2777      2779      2778      2777      2780      2779      2777      2780
      2780      2783      2784      2780      2783      2785      2780      2783      2786
      2781      2780      2782      2781      2780      2783      2782      2780      2783
      2783      2786      2787      2783      2786      2788      2783      2786      2789
      2784      2783      2785      2784      2783      2786      2785      2783      2786
      2786      2789      2790      2786      2789      2791      2786      2789      2792
      2787      2786      2788      2787      2786      2789      2788      2786      2789
      2789      2792      2793      2789      2792      2794      2789      2792      2795
      2790      2789      2791      2790      2789      2792      2791      2789      2792
      2792      2795      2796      2792      2795      2797      2792      2795      2798
      2793      2792      2794      2793      2792      2795      2794      2792      2795
      2795      2798      2799      2795      2798      2800      2795      2798      2801
      2796      2795      2797      2796      2795      2798      2797      2795      2798
      2798      2801      2802      2798      2801      2803      2798      2801      2804
      2799      2798      2800      2799      2798      2801      2800      2798      2801
      2801      2804      2805      2801      2804      2806      2801      2804      2807
      2802      2801      2803      2802      2801      2804      2803      2801      2804
      2804      2807      2808      2804      2807      2809      2804      2807      2810
      2805      2804      2806      2805      2804      2807      2806      2804      2807
      2807      2810      2811      2807      2810      2812      2807      2810      2813
      2808      2807      2809      2808      2807      2810      2809      2807      2810
      2810      2813      2814      2810      2813      2815      2810      2813      2816
      2811      2810      2812      2811      2810      2813      2812      2810      2813
      2813      2816      2817      2813      2816      2818      2813      2816      2819
      2814      2813      2815      2814      2813      2816      2815      2813      2816
      2817      2816      2818      2817      2816      2819      2818      2816      2819
      2820      2826      2823      2820      2831      2832      2820      2831      2833
      2820      2831      2835      2821      2820      2822      2821      2820      2826
      2821      2820      2831      2822      2820      2826      2822      2820      2831
      2823      2827      2828      2824      2823      2825      2824      2823      2826
      2824      2823      2827      2825      2823      2826      2825      2823      2827
      2826      2820      2831      2826      2823      2827      2827      2828      2829
      2827      2828      2830      2827      2828      2863      2828      2863      2864
      2828      2863      2865      2828      2863      2871      2829      2828      2830
      2829      2828      2863      2830      2828      2863      2831      2833      2834
      2831      2835      2836      2831      2835      2837      2831      2835      2841
      2832      2831      2833      2832      2831      2835      2833      2831      2835
      2835      2841      2838      2836      2835      2837      2836      2835      2841
      2837      2835      2841      2838      2842      2843      2839      2838      2840
      2839      2838      2841      2839      2838      2842      2840      2838      2841
      2840      2838      2842      2841      2838      2842      2842      2843      2844
      2842      2843      2845      2842      2843      2846      2843      2846      2847
      2843      2846      2848      2843      2846      2854      2844      2843      2845
      2844      2843      2846      2845      2843      2846      2846      2848      2849
      2846      2854      2855      2846      2854      2856      2846      2854      2857
      2847      2846      2848      2847      2846      2854      2848      2846      2854
      2848      2849      2850      2848      2849      2851      2849      2851      2852
      2849      2851      2853      2849      2851      2880      2850      2849      2851
      2851      2880      2881      2851      2880      2882      2851      2880      2883
      2852      2851      2853      2852      2851      2880      2853      2851      2880
      2854      2857      2858      2855      2854      2856      2855      2854      2857
      2856      2854      2857      2857      2858      2859      2857      2858      2860
      2858      2860      2861      2858      2860      2862      2858      2860      2927
      2859      2858      2860      2860      2927      2928      2860      2927      2929
      2860      2927      2930      2861      2860      2862      2861      2860      2927
      2862      2860      2927      2863      2865      2866      2863      2871      2872
      2863      2871      2873      2863      2871      2874      2864      2863      2865
      2864      2863      2871      2865      2863      2871      2865      2866      2867
      2865      2866      2868      2866      2868      2869      2866      2868      2870
      2866      2868      2970      2867      2866      2868      2868      2970      2971
      2868      2970      2972      2868      2970      2973      2869      2868      2870
      2869      2868      2970      2870      2868      2970      2871      2874      2875
      2872      2871      2873      2872      2871      2874      2873      2871      2874
      2874      2875      2876      2874      2875      2877      2875      2877      2878
      2875      2877      2879      2875      2877      3017      2876      2875      2877
      2877      3017      3018      2877      3017      3019      2877      3017      3020
      2878      2877      2879      2878      2877      3017      2879      2877      3017
      2880      2883      2884      2880      2883      2885      2880      2883      2886
      2881      2880      2882      2881      2880      2883      2882      2880      2883
      2883      2886      2887      2883      2886      2888      2883      2886      2889
      2884      2883      2885      2884      2883      2886      2885      2883      2886
      2886      2889      2890      2886      2889      2891      2886      2889      2892
      2887      2886      2888      2887      2886      2889      2888      2886      2889
      2889      2892      2893      2889      2892      2894      2889      2892      2895
      2890      2889      2891      2890      2889      2892      2891      2889      2892
      2892      2895      2896      2892      2895      2897      2892      2895      2898
      2893      2892      2894      2893      2892      2895      2894      2892      2895
      2895      2898      2899      2895      2898      2900      2895      2898      2901
      2896      2895      2897      2896      2895      2898      2897      2895      2898
      2898      2901      2902      2898      2901      2903      2898      2901      2904
      2899      2898      2900      2899      2898      2901      2900      2898      2901
      2901      2904      2905      2901      2904      2906      2902      2901      2903
      2902      2901      2904      2903      2901      2904      2904      2906      2907
      2904      2906      2908      2905      2904      2906      2906      2908      2909
      2906      2908      2910      2906      2908      2911      2907      2906      2908
      2908      2911      2912      2908      2911      2913      2908      2911      2914
      2909      2908      2910      2909      2908      2911      2910      2908      2911
      2911      2914      2915      2911      2914      2916      2911      2914      2917
      2912      2911      2913      2912      2911      2914      2913      2911      2914
      2914      2917      2918      2914      2917      2919      2914      2917      2920
      2915      2914      2916      2915      2914      2917      2916      2914      2917
      2917      2920      2921      2917      2920      2922      2917      2920      2923
      2918      2917      2919      2918      2917      2920      2919      2917      2920
      2920      2923      2924      2920      2923      2925      2920      2923      2926
      2921      2920      2922      2921      2920      2923      2922      2920      2923
      2924      2923      2925      2924      2923      2926      2925      2923      2926
      2927      2930      2931      2927      2930      2932      2927      2930      2933
      2928      2927      2929      2928      2927      2930      2929      2927      2930
      2930      2933      2934      2930      2933      2935      2930      2933      2936
      2931      2930      2932      2931      2930      2933      2932      2930      2933
      2933      2936      2937      2933      2936      2938      2933      2936      2939
      2934      2933      2935      2934      2933      2936      2935      2933      2936
      2936      2939      2940      2936      2939      2941      2936      2939      2942
      2937      2936      2938      2937      2936      2939      2938      2936      2939
      2939      2942      2943      2939      2942      2944      2939      2942      2945
      2940      2939      2941      2940      2939      2942      2941      2939      2942
      2942      2945      2946      2942      2945      2947      2942      2945      2948
      2943      2942      2944      2943      2942      2945      2944      2942      2945
      2945      2948      2949      2945      2948      2950      2945      2948      2951
      2946      2945      2947      2946      2945      2948      2947      2945      2948
      2948      2951      2952      2948      2951      2953      2948      2951      2954
      2949      2948      2950      2949      2948      2951      2950      2948      2951
      2951      2954      2955      2951      2954      2956      2951      2954      2957
      2952      2951      2953      2952      2951      2954      2953      2951      2954
      2954      2957      2958      2954      2957      2959      2954      2957      2960
      2955      2954      2956      2955      2954      2957      2956      2954      2957
      2957      2960      2961      2957      2960      2962      2957      2960      2963
      2958      2957      2959      2958      2957      2960      2959      2957      2960
      2960      2963      2964      2960      2963      2965      2960      2963      2966
      2961      2960      2962      2961      2960      2963      2962      2960      2963
      2963      2966      2967      2963      2966      2968      2963      2966      2969
      2964      2963      2965      2964      2963      2966      2965      2963      2966
      2967      2966      2968      2967      2966      2969      2968      2966      2969
      2970      2973      2974      2970      2973      2975      2970      2973      2976
      2971      2970      2972      2971      2970      2973      2972      2970      2973
      2973      2976      2977      2973      2976      2978      2973      2976      2979
      2974      2973      2975      2974      2973      2976      2975      2973      2976
      2976      2979      2980      2976      2979      2981      2976      2979      2982
      2977      2976      2978      2977      2976      2979      2978      2976      2979
      2979      2982      2983      2979      2982      2984      2979      2982      2985
      2980      2979      2981      2980      2979      2982      2981      2979      2982
      2982      2985      2986      2982      2985      2987      2982      2985      2988
      2983      2982      2984      2983      2982      2985      2984      2982      2985
      2985      2988      2989      2985      2988      2990      2985      2988      2991
      2986      2985      2987      2986      2985      2988      2987      2985      2988
      2988      2991      2992      2988      2991      2993      2988      2991      2994
      2989      2988      2990      2989      2988      2991      2990      2988      2991
      2991      2994      2995      2991      2994      2996      2992      2991      2993
      2992      2991      2994      2993      2991      2994      2994      2996      2997
      2994      2996      2998      2995      2994      2996      2996      2998      2999
      2996      2998      3000      2996      2998      3001      2997      2996      2998
      2998      3001      3002      2998      3001      3003      2998      3001      3004
      2999      2998      3000      2999      2998      3001      3000      2998      3001
      3001      3004      3005      3001      3004      3006      3001      3004      3007
      3002      3001      3003      3002      3001      3004      3003      3001      3004
      3004      3007      3008      3004      3007      3009      3004      3007      3010
      3005      3004      3006      3005      3004      3007      3006      3004      3007
      3007      3010      3011      3007      3010      3012      3007      3010      3013
      3008      3007      3009      3008      3007      3010      3009      3007      3010
      3010      3013      3014      3010      3013      3015      3010      3013      3016
      3011      3010      3012      3011      3010      3013      3012      3010      3013
      3014      3013      3015      3014      3013      3016      3015      3013      3016
      3017      3020      3021      3017      3020      3022      3017      3020      3023
      3018      3017      3019      3018      3017      3020      3019      3017      3020
      3020      3023      3024      3020      3023      3025      3020      3023      3026
      3021      3020      3022      3021      3020      3023      3022      3020      3023
      3023      3026      3027      3023      3026      3028      3023      3026      3029
      3024      3023      3025      3024      3023      3026      3025      3023      3026
      3026      3029      3030      3026      3029      3031      3026      3029      3032
      3027      3026      3028      3027      3026      3029      3028      3026      3029
      3029      3032      3033      3029      3032      3034      3029      3032      3035
      3030      3029      3031      3030      3029      3032      3031      3029      3032
      3032      3035      3036      3032      3035      3037      3032      3035      3038
      3033      3032      3034      3033      3032      3035      3034      3032      3035
      3035      3038      3039      3035      3038      3040      3035      3038      3041
      3036      3035      3037      3036      3035      3038      3037      3035      3038
      3038      3041      3042      3038      3041      3043      3038      3041      3044
      3039      3038      3040      3039      3038      3041      3040      3038      3041
      3041      3044      3045      3041      3044      3046      3041      3044      3047
      3042      3041      3043      3042      3041      3044      3043      3041      3044
      3044      3047      3048      3044      3047      3049      3044      3047      3050
      3045      3044      3046      3045      3044      3047      3046      3044      3047
      3047      3050      3051      3047      3050      3052      3047      3050      3053
      3048      3047      3049      3048      3047      3050      3049      3047      3050
      3050      3053      3054      3050      3053      3055      3050      3053      3056
      3051      3050      3052      3051      3050      3053      3052      3050      3053
      3053      3056      3057      3053      3056      3058      3053      3056      3059
      3054      3053      3055      3054      3053      3056      3055      3053      3056
      3057      3056      3058      3057      3056      3059      3058      3056      3059
      3060      3064      3065      3060      3064      3066      3060      3064      3067
      3061      3060      3062      3061      3060      3063      3061      3060      3064
      3062      3060      3063      3062      3060      3064      3063      3060      3064
      3064      3067      3068      3064      3067      3069      3064      3067      3074
      3065      3064      3066      3065      3064      3067      3066      3064      3067
      3067      3074      3070      3068      3067      3069      3068      3067      3074
      3069      3067      3074      3070      3073      3075      3071      3070      3072
      3071      3070      3073      3071      3070      3074      3072      3070      3073
      3072      3070      3074      3073      3070      3074      3073      3075      3076
      3073      3075      3077      3073      3075      3078      3075      3078      3079
      3075      3078      3080      3075      3078      3086      3076      3075      3077
      3076      3075      3078      3077      3075      3078      3078      3080      3081
      3078      3086      3087      3078      3086      3088      3078      3086      3089
      3079      3078      3080      3079      3078      3086      3080      3078      3086
      3080      3081      3082      3080      3081      3083      3081      3083      3084
      3081      3083      3085      3081      3083      3095      3082      3081      3083
      3083      3095      3096      3083      3095      3097      3083      3095      3098
      3084      3083      3085      3084      3083      3095      3085      3083      3095
      3086      3089      3090      3087      3086      3088      3087      3086      3089
      3088      3086      3089      3089      3090      3091      3089      3090      3092
      3090      3092      3093      3090      3092      3094      3090      3092      3142
      3091      3090      3092      3092      3142      3143      3092      3142      3144
      3092      3142      3145      3093      3092      3094      3093      3092      3142
      3094      3092      3142      3095      3098      3099      3095      3098      3100
      3095      3098      3101      3096      3095      3097      3096      3095      3098
      3097      3095      3098      3098      3101      3102      3098      3101      3103
      3098      3101      3104      3099      3098      3100      3099      3098      3101
      3100      3098      3101      3101      3104      3105      3101      3104      3106
      3101      3104      3107      3102      3101      3103      3102      3101      3104
      3103      3101      3104      3104      3107      3108      3104      3107      3109
      3104      3107      3110      3105      3104      3106      3105      3104      3107
      3106      3104      3107      3107      3110      3111      3107      3110      3112
      3107      3110      3113      3108      3107      3109      3108      3107      3110
      3109      3107      3110      3110      3113      3114      3110      3113      3115
      3111      3110      3112      3111      3110      3113      3112      3110      3113
      3113      3115      3116      3113      3115      3117      3114      3113      3115
      3115      3117      3118      3115      3117      3119      3115      3117      3120
      3116      3115      3117      3117      3120      3121      3117      3120      3122
      3117      3120      3123      3118      3117      3119      3118      3117      3120
      3119      3117      3120      3120      3123      3124      3120      3123      3125
      3120      3123      3126      3121      3120      3122      3121      3120      3123
      3122      3120      3123      3123      3126      3127      3123      3126      3128
      3123      3126      3129      3124      3123      3125      3124      3123      3126
      3125      3123      3126      3126      3129      3130      3126      3129      3131
      3126      3129      3132      3127      3126      3128      3127      3126      3129
      3128      3126      3129      3129      3132      3133      3129      3132      3134
      3129      3132      3135      3130      3129      3131      3130      3129      3132
      3131      3129      3132      3132      3135      3136      3132      3135      3137
      3132      3135      3138      3133      3132      3134      3133      3132      3135
      3134      3132      3135      3135      3138      3139      3135      3138      3140
      3135      3138      3141      3136      3135      3137      3136      3135      3138
      3137      3135      3138      3139      3138      3140      3139      3138      3141
      3140      3138      3141      3142      3145      3146      3142      3145      3147
      3142      3145      3148      3143      3142      3144      3143      3142      3145
      3144      3142      3145      3145      3148      3149      3145      3148      3150
      3145      3148      3151      3146      3145      3147      3146      3145      3148
      3147      3145      3148      3148      3151      3152      3148      3151      3153
      3148      3151      3154      3149      3148      3150      3149      3148      3151
      3150      3148      3151      3151      3154      3155      3151      3154      3156
      3151      3154      3157      3152      3151      3153      3152      3151      3154
      3153      3151      3154      3154      3157      3158      3154      3157      3159
      3154      3157      3160      3155      3154      3156      3155      3154      3157
      3156      3154      3157      3157      3160      3161      3157      3160      3162
      3157      3160      3163      3158      3157      3159      3158      3157      3160
      3159      3157      3160      3160      3163      3164      3160      3163      3165
      3160      3163      3166      3161      3160      3162      3161      3160      3163
      3162      3160      3163      3163      3166      3167      3163      3166      3168
      3163      3166      3169      3164      3163      3165      3164      3163      3166
      3165      3163      3166      3166      3169      3170      3166      3169      3171
      3166      3169      3172      3167      3166      3168      3167      3166      3169
      3168      3166      3169      3169      3172      3173      3169      3172      3174
      3169      3172      3175      3170      3169      3171      3170      3169      3172
      3171      3169      3172      3172      3175      3176      3172      3175      3177
      3172      3175      3178      3173      3172      3174      3173      3172      3175
      3174      3172      3175      3175      3178      3179      3175      3178      3180
      3175      3178      3181      3176      3175      3177      3176      3175      3178
      3177      3175      3178      3178      3181      3182      3178      3181      3183
      3178      3181      3184      3179      3178      3180      3179      3178      3181
      3180      3178      3181      3182      3181      3183      3182      3181      3184
      3183      3181      3184      3185      3189      3190      3185      3189      3191
      3185      3189      3192      3186      3185      3187      3186      3185      3188
      3186      3185      3189      3187      3185      3188      3187      3185      3189
      3188      3185      3189      3189      3192      3193      3189      3192      3194
      3189      3192      3199      3190      3189      3191      3190      3189      3192
      3191      3189      3192      3192      3199      3195      3193      3192      3194
      3193      3192      3199      3194      3192      3199      3195      3198      3200
      3196      3195      3197      3196      3195      3198      3196      3195      3199
      3197      3195      3198      3197      3195      3199      3198      3195      3199
      3198      3200      3201      3198      3200      3202      3198      3200      3203
      3200      3203      3204      3200      3203      3205      3200      3203      3211
      3201      3200      3202      3201      3200      3203      3202      3200      3203
      3203      3205      3206      3203      3211      3212      3203      3211      3213
      3203      3211      3214      3204      3203      3205      3204      3203      3211
      3205      3203      3211      3205      3206      3207      3205      3206      3208
      3206      3208      3209      3206      3208      3210      3206      3208      3220
      3207      3206      3208      3208      3220      3221      3208      3220      3222
      3208      3220      3223      3209      3208      3210      3209      3208      3220
      3210      3208      3220      3211      3214      3215      3212      3211      3213
      3212      3211      3214      3213      3211      3214      3214      3215      3216
      3214      3215      3217      3215      3217      3218      3215      3217      3219
      3215      3217      3261      3216      3215      3217      3217      3261      3262
      3217      3261      3263      3217      3261      3264      3218      3217      3219
      3218      3217      3261      3219      3217      3261      3220      3223      3224
      3220      3223      3225      3220      3223      3226      3221      3220      3222
      3221      3220      3223      3222      3220      3223      3223      3226      3227
      3223      3226      3228      3223      3226      3229      3224      3223      3225
      3224      3223      3226      3225      3223      3226      3226      3229      3230
      3226      3229      3231      3226      3229      3232      3227      3226      3228
      3227      3226      3229      3228      3226      3229      3229      3232      3233
      3229      3232      3234      3229      3232      3235      3230      3229      3231
      3230      3229      3232      3231      3229      3232      3232      3235      3236
      3232      3235      3237      3232      3235      3238      3233      3232      3234
      3233      3232      3235      3234      3232      3235      3235      3238      3239
      3235      3238      3240      3236      3235      3237      3236      3235      3238
      3237      3235      3238      3238      3240      3241      3238      3240      3242
      3239      3238      3240      3240      3242      3243      3240      3242      3244
      3240      3242      3245      3241      3240      3242      3242      3245      3246
      3242      3245      3247      3242      3245      3248      3243      3242      3244
      3243      3242      3245      3244      3242      3245      3245      3248      3249
      3245      3248      3250      3245      3248      3251      3246      3245      3247
      3246      3245      3248      3247      3245      3248      3248      3251      3252
      3248      3251      3253      3248      3251      3254      3249      3248      3250
      3249      3248      3251      3250      3248      3251      3251      3254      3255
      3251      3254      3256      3251      3254      3257      3252      3251      3253
      3252      3251      3254      3253      3251      3254      3254      3257      3258
      3254      3257      3259      3254      3257      3260      3255      3254      3256
      3255      3254      3257      3256      3254      3257      3258      3257      3259
      3258      3257      3260      3259      3257      3260      3261      3264      3265
      3261      3264      3266      3261      3264      3267      3262      3261      3263
      3262      3261      3264      3263      3261      3264      3264      3267      3268
      3264      3267      3269      3264      3267      3270      3265      3264      3266
      3265      3264      3267      3266      3264      3267      3267      3270      3271
      3267      3270      3272      3267      3270      3273      3268      3267      3269
      3268      3267      3270      3269      3267      3270      3270      3273      3274
      3270      3273      3275      3270      3273      3276      3271      3270      3272
      3271      3270      3273      3272      3270      3273      3273      3276      3277
      3273      3276      3278      3273      3276      3279      3274      3273      3275
      3274      3273      3276      3275      3273      3276      3276      3279      3280
      3276      3279      3281      3277      3276      3278      3277      3276      3279
      3278      3276      3279      3279      3281      3282      3279      3281      3283
      3280      3279      3281      3281      3283      3284      3281      3283      3285
      3281      3283      3286      3282      3281      3283      3283      3286      3287
      3283      3286      3288      3283      3286      3289      3284      3283      3285
      3284      3283      3286      3285      3283      3286      3286      3289      3290
      3286      3289      3291      3286      3289      3292      3287      3286      3288
      3287      3286      3289      3288      3286      3289      3289      3292      3293
      3289      3292      3294      3289      3292      3295      3290      3289      3291
      3290      3289      3292      3291      3289      3292      3292      3295      3296
      3292      3295      3297      3292      3295      3298      3293      3292      3294
      3293      3292      3295      3294      3292      3295      3295      3298      3299
      3295      3298      3300      3295      3298      3301      3296      3295      3297
      3296      3295      3298      3297      3295      3298      3298      3301      3302
      3298      3301      3303      3298      3301      3304      3299      3298      3300
      3299      3298      3301      3300      3298      3301      3301      3304      3305
      3301      3304      3306      3301      3304      3307      3302      3301      3303
      3302      3301      3304      3303      3301      3304      3305      3304      3306
      3305      3304      3307      3306      3304      3307      3308      3312      3313
      3308      3312      3314      3308      3312      3315      3309      3308      3310
      3309      3308      3311      3309      3308      3312      3310      3308      3311
      3310      3308      3312      3311      3308      3312      3312      3315      3316
      3312      3315      3317      3312      3315      3322      3313      3312      3314
      3313      3312      3315      3314      3312      3315      3315      3322      3318
      3316      3315      3317      3316      3315      3322      3317      3315      3322
      3318      3321      3323      3319      3318      3320      3319      3318      3321
      3319      3318      3322      3320      3318      3321      3320      3318      3322
      3321      3318      3322      3321      3323      3324      3321      3323      3325
      3321      3323      3326      3323      3326      3327      3323      3326      3328
      3323      3326      3334      3324      3323      3325      3324      3323      3326
      3325      3323      3326      3326      3328      3329      3326      3334      3335
      3326      3334      3336      3326      3334      3337      3327      3326      3328
      3327      3326      3334      3328      3326      3334      3328      3329      3330
      3328      3329      3331      3329      3331      3332      3329      3331      3333
      3329      3331      3343      3330      3329      3331      3331      3343      3344
      3331      3343      3345      3331      3343      3346      3332      3331      3333
      3332      3331      3343      3333      3331      3343      3334      3337      3338
      3335      3334      3336      3335      3334      3337      3336      3334      3337
      3337      3338      3339      3337      3338      3340      3338      3340      3341
      3338      3340      3342      3338      3340      3387      3339      3338      3340
      3340      3387      3388      3340      3387      3389      3340      3387      3390
      3341      3340      3342      3341      3340      3387      3342      3340      3387
      3343      3346      3347      3343      3346      3348      3343      3346      3349
      3344      3343      3345      3344      3343      3346      3345      3343      3346
      3346      3349      3350      3346      3349      3351      3346      3349      3352
      3347      3346      3348      3347      3346      3349      3348      3346      3349
      3349      3352      3353      3349      3352      3354      3349      3352      3355
      3350      3349      3351      3350      3349      3352      3351      3349      3352
      3352      3355      3356      3352      3355      3357      3352      3355      3358
      3353      3352      3354      3353      3352      3355      3354      3352      3355
      3355      3358      3359      3355      3358      3360      3355      3358      3361
      3356      3355      3357      3356      3355      3358      3357      3355      3358
      3358      3361      3362      3358      3361      3363      3358      3361      3366
      3359      3358      3360      3359      3358      3361      3360      3358      3361
      3361      3363      3364      3361      3363      3365      3361      3363      3366
      3361      3366      3363      3361      3366      3367      3361      3366      3368
      3362      3361      3363      3362      3361      3366      3363      3361      3366
      3363      3366      3367      3363      3366      3368      3364      3363      3365
      3364      3363      3366      3365      3363      3366      3366      3368      3369
      3366      3368      3370      3366      3368      3371      3367      3366      3368
      3368      3371      3372      3368      3371      3373      3368      3371      3374
      3369      3368      3370      3369      3368      3371      3370      3368      3371
      3371      3374      3375      3371      3374      3376      3371      3374      3377
      3372      3371      3373      3372      3371      3374      3373      3371      3374
      3374      3377      3378      3374      3377      3379      3374      3377      3380
      3375      3374      3376      3375      3374      3377      3376      3374      3377
      3377      3380      3381      3377      3380      3382      3377      3380      3383
      3378      3377      3379      3378      3377      3380      3379      3377      3380
      3380      3383      3384      3380      3383      3385      3380      3383      3386
      3381      3380      3382      3381      3380      3383      3382      3380      3383
      3384      3383      3385      3384      3383      3386      3385      3383      3386
      3387      3390      3391      3387      3390      3392      3387      3390      3393
      3388      3387      3389      3388      3387      3390      3389      3387      3390
      3390      3393      3394      3390      3393      3395      3390      3393      3396
      3391      3390      3392      3391      3390      3393      3392      3390      3393
      3393      3396      3397      3393      3396      3398      3393      3396      3399
      3394      3393      3395      3394      3393      3396      3395      3393      3396
      3396      3399      3400      3396      3399      3401      3396      3399      3402
      3397      3396      3398      3397      3396      3399      3398      3396      3399
      3399      3402      3403      3399      3402      3404      3399      3402      3405
      3400      3399      3401      3400      3399      3402      3401      3399      3402
      3402      3405      3406      3402      3405      3407      3402      3405      3408
      3403      3402      3404      3403      3402      3405      3404      3402      3405
      3405      3408      3409      3405      3408      3410      3405      3408      3411
      3406      3405      3407      3406      3405      3408      3407      3405      3408
      3408      3411      3412      3408      3411      3413      3408      3411      3414
      3409      3408      3410      3409      3408      3411      3410      3408      3411
      3411      3414      3415      3411      3414      3416      3411      3414      3417
      3412      3411      3413      3412      3411      3414      3413      3411      3414
      3414      3417      3418      3414      3417      3419      3414      3417      3420
      3415      3414      3416      3415      3414      3417      3416      3414      3417
      3417      3420      3421      3417      3420      3422      3417      3420      3423
      3418      3417      3419      3418      3417      3420      3419      3417      3420
      3420      3423      3424      3420      3423      3425      3420      3423      3426
      3421      3420      3422      3421      3420      3423      3422      3420      3423
      3423      3426      3427      3423      3426      3428      3423      3426      3429
      3424      3423      3425      3424      3423      3426      3425      3423      3426
      3427      3426      3428      3427      3426      3429      3428      3426      3429
      3430      3434      3435      3430      3434      3436      3430      3434      3437
      3431      3430      3432      3431      3430      3433      3431      3430      3434
      3432      3430      3433      3432      3430      3434      3433      3430      3434
      3434      3437      3438      3434      3437      3439      3434      3437      3444
      3435      3434      3436      3435      3434      3437      3436      3434      3437
      3437      3444      3440      3438      3437      3439      3438      3437      3444
      3439      3437      3444      3440      3443      3445      3441      3440      3442
      3441      3440      3443      3441      3440      3444      3442      3440      3443
      3442      3440      3444      3443      3440      3444      3443      3445      3446
      3443      3445      3447      3443      3445      3448      3445      3448      3449
      3445      3448      3450      3445      3448      3456      3446      3445      3447
      3446      3445      3448      3447      3445      3448      3448      3450      3451
      3448      3456      3457      3448      3456      3458      3448      3456      3459
      3449      3448      3450      3449      3448      3456      3450      3448      3456
      3450      3451      3452      3450      3451      3453      3451      3453      3454
      3451      3453      3455      3451      3453      3465      3452      3451      3453
      3453      3465      3466      3453      3465      3467      3453      3465      3468
      3454      3453      3455      3454      3453      3465      3455      3453      3465
      3456      3459      3460      3457      3456      3458      3457      3456      3459
      3458      3456      3459      3459      3460      3461      3459      3460      3462
      3460      3462      3463      3460      3462      3464      3460      3462      3509
      3461      3460      3462      3462      3509      3510      3462      3509      3511
      3462      3509      3512      3463      3462      3464      3463      3462      3509
      3464      3462      3509      3465      3468      3469      3465      3468      3470
      3465      3468      3471      3466      3465      3467      3466      3465      3468
      3467      3465      3468      3468      3471      3472      3468      3471      3473
      3468      3471      3474      3469      3468      3470      3469      3468      3471
      3470      3468      3471      3471      3474      3475      3471      3474      3476
      3471      3474      3477      3472      3471      3473      3472      3471      3474
      3473      3471      3474      3474      3477      3478      3474      3477      3479
      3474      3477      3480      3475      3474      3476      3475      3474      3477
      3476      3474      3477      3477      3480      3481      3477      3480      3482
      3477      3480      3483      3478      3477      3479      3478      3477      3480
      3479      3477      3480      3480      3483      3484      3480      3483      3485
      3480      3483      3488      3481      3480      3482      3481      3480      3483
      3482      3480      3483      3483      3485      3486      3483      3485      3487
      3483      3485      3488      3483      3488      3485      3483      3488      3489
      3483      3488      3490      3484      3483      3485      3484      3483      3488
      3485      3483      3488      3485      3488      3489      3485      3488      3490
      3486      3485      3487      3486      3485      3488      3487      3485      3488
      3488      3490      3491      3488      3490      3492      3488      3490      3493
      3489      3488      3490      3490      3493      3494      3490      3493      3495
      3490      3493      3496      3491      3490      3492      3491      3490      3493
      3492      3490      3493      3493      3496      3497      3493      3496      3498
      3493      3496      3499      3494      3493      3495      3494      3493      3496
      3495      3493      3496      3496      3499      3500      3496      3499      3501
      3496      3499      3502      3497      3496      3498      3497      3496      3499
      3498      3496      3499      3499      3502      3503      3499      3502      3504
      3499      3502      3505      3500      3499      3501      3500      3499      3502
      3501      3499      3502      3502      3505      3506      3502      3505      3507
      3502      3505      3508      3503      3502      3504      3503      3502      3505
      3504      3502      3505      3506      3505      3507      3506      3505      3508
      3507      3505      3508      3509      3512      3513      3509      3512      3514
      3509      3512      3515      3510      3509      3511      3510      3509      3512
      3511      3509      3512      3512      3515      3516      3512      3515      3517
      3512      3515      3518      3513      3512      3514      3513      3512      3515
      3514      3512      3515      3515      3518      3519      3515      3518      3520
      3515      3518      3521      3516      3515      3517      3516      3515      3518
      3517      3515      3518      3518      3521      3522      3518      3521      3523
      3518      3521      3524      3519      3518      3520      3519      3518      3521
      3520      3518      3521      3521      3524      3525      3521      3524      3526
      3521      3524      3527      3522      3521      3523      3522      3521      3524
      3523      3521      3524      3524      3527      3528      3524      3527      3529
      3524      3527      3530      3525      3524      3526      3525      3524      3527
      3526      3524      3527      3527      3530      3531      3527      3530      3532
      3527      3530      3533      3528      3527      3529      3528      3527      3530
      3529      3527      3530      3530      3533      3534      3530      3533      3535
      3530      3533      3536      3531      3530      3532      3531      3530      3533
      3532      3530      3533      3533      3536      3537      3533      3536      3538
      3533      3536      3539      3534      3533      3535      3534      3533      3536
      3535      3533      3536      3536      3539      3540      3536      3539      3541
      3536      3539      3542      3537      3536      3538      3537      3536      3539
      3538      3536      3539      3539      3542      3543      3539      3542      3544
      3539      3542      3545      3540      3539      3541      3540      3539      3542
      3541      3539      3542      3542      3545      3546      3542      3545      3547
      3542      3545      3548      3543      3542      3544      3543      3542      3545
      3544      3542      3545      3545      3548      3549      3545      3548      3550
      3545      3548      3551      3546      3545      3547      3546      3545      3548
      3547      3545      3548      3549      3548      3550      3549      3548      3551
      3550      3548      3551      3552      3556      3557      3552      3556      3558
      3552      3556      3559      3553      3552      3554      3553      3552      3555
      3553      3552      3556      3554      3552      3555      3554      3552      3556
      3555      3552      3556      3556      3559      3560      3556      3559      3561
      3556      3559      3566      3557      3556      3558      3557      3556      3559
      3558      3556      3559      3559      3566      3562      3560      3559      3561
      3560      3559      3566      3561      3559      3566      3562      3565      3567
      3563      3562      3564      3563      3562      3565      3563      3562      3566
      3564      3562      3565      3564      3562      3566      3565      3562      3566
      3565      3567      3568      3565      3567      3569      3565      3567      3570
      3567      3570      3571      3567      3570      3572      3567      3570      3578
      3568      3567      3569      3568      3567      3570      3569      3567      3570
      3570      3572      3573      3570      3578      3579      3570      3578      3580
      3570      3578      3581      3571      3570      3572      3571      3570      3578
      3572      3570      3578      3572      3573      3574      3572      3573      3575
      3573      3575      3576      3573      3575      3577      3573      3575      3587
      3574      3573      3575      3575      3587      3588      3575      3587      3589
      3575      3587      3590      3576      3575      3577      3576      3575      3587
      3577      3575      3587      3578      3581      3582      3579      3578      3580
      3579      3578      3581      3580      3578      3581      3581      3582      3583
      3581      3582      3584      3582      3584      3585      3582      3584      3586
      3582      3584      3631      3583      3582      3584      3584      3631      3632
      3584      3631      3633      3584      3631      3634      3585      3584      3586
      3585      3584      3631      3586      3584      3631      3587      3590      3591
      3587      3590      3592      3587      3590      3593      3588      3587      3589
      3588      3587      3590      3589      3587      3590      3590      3593      3594
      3590      3593      3595      3590      3593      3596      3591      3590      3592
      3591      3590      3593      3592      3590      3593      3593      3596      3597
      3593      3596      3598      3593      3596      3599      3594      3593      3595
      3594      3593      3596      3595      3593      3596      3596      3599      3600
      3596      3599      3601      3596      3599      3602      3597      3596      3598
      3597      3596      3599      3598      3596      3599      3599      3602      3603
      3599      3602      3604      3599      3602      3605      3600      3599      3601
      3600      3599      3602      3601      3599      3602      3602      3605      3606
      3602      3605      3607      3602      3605      3610      3603      3602      3604
      3603      3602      3605      3604      3602      3605      3605      3607      3608
      3605      3607      3609      3605      3607      3610      3605      3610      3607
      3605      3610      3611      3605      3610      3612      3606      3605      3607
      3606      3605      3610      3607      3605      3610      3607      3610      3611
      3607      3610      3612      3608      3607      3609      3608      3607      3610
      3609      3607      3610      3610      3612      3613      3610      3612      3614
      3610      3612      3615      3611      3610      3612      3612      3615      3616
      3612      3615      3617      3612      3615      3618      3613      3612      3614
      3613      3612      3615      3614      3612      3615      3615      3618      3619
      3615      3618      3620      3615      3618      3621      3616      3615      3617
      3616      3615      3618      3617      3615      3618      3618      3621      3622
      3618      3621      3623      3618      3621      3624      3619      3618      3620
      3619      3618      3621      3620      3618      3621      3621      3624      3625
      3621      3624      3626      3621      3624      3627      3622      3621      3623
      3622      3621      3624      3623      3621      3624      3624      3627      3628
      3624      3627      3629      3624      3627      3630      3625      3624      3626
      3625      3624      3627      3626      3624      3627      3628      3627      3629
      3628      3627      3630      3629      3627      3630      3631      3634      3635
      3631      3634      3636      3631      3634      3637      3632      3631      3633
      3632      3631      3634      3633      3631      3634      3634      3637      3638
      3634      3637      3639      3634      3637      3640      3635      3634      3636
      3635      3634      3637      3636      3634      3637      3637      3640      3641
      3637      3640      3642      3637      3640      3643      3638      3637      3639
      3638      3637      3640      3639      3637      3640      3640      3643      3644
      3640      3643      3645      3640      3643      3646      3641      3640      3642
      3641      3640      3643      3642      3640      3643      3643      3646      3647
      3643      3646      3648      3643      3646      3649      3644      3643      3645
      3644      3643      3646      3645      3643      3646      3646      3649      3650
      3646      3649      3651      3646      3649      3652      3647      3646      3648
      3647      3646      3649      3648      3646      3649      3649      3652      3653
      3649      3652      3654      3649      3652      3655      3650      3649      3651
      3650      3649      3652      3651      3649      3652      3652      3655      3656
      3652      3655      3657      3652      3655      3658      3653      3652      3654
      3653      3652      3655      3654      3652      3655      3655      3658      3659
      3655      3658      3660      3655      3658      3661      3656      3655      3657
      3656      3655      3658      3657      3655      3658      3658      3661      3662
      3658      3661      3663      3658      3661      3664      3659      3658      3660
      3659      3658      3661      3660      3658      3661      3661      3664      3665
      3661      3664      3666      3661      3664      3667      3662      3661      3663
      3662      3661      3664      3663      3661      3664      3664      3667      3668
      3664      3667      3669      3664      3667      3670      3665      3664      3666
      3665      3664      3667      3666      3664      3667      3667      3670      3671
      3667      3670      3672      3667      3670      3673      3668      3667      3669
      3668      3667      3670      3669      3667      3670      3671      3670      3672
      3671      3670      3673      3672      3670      3673      3674      3678      3679
      3674      3678      3680      3674      3678      3681      3675      3674      3676
      3675      3674      3677      3675      3674      3678      3676      3674      3677
      3676      3674      3678      3677      3674      3678      3678      3681      3682
      3678      3681      3683      3678      3681      3688      3679      3678      3680
      3679      3678      3681      3680      3678      3681      3681      3688      3684
      3682      3681      3683      3682      3681      3688      3683      3681      3688
      3684      3687      3689      3685      3684      3686      3685      3684      3687
      3685      3684      3688      3686      3684      3687      3686      3684      3688
      3687      3684      3688      3687      3689      3690      3687      3689      3691
      3687      3689      3692      3689      3692      3693      3689      3692      3694
      3689      3692      3700      3690      3689      3691      3690      3689      3692
      3691      3689      3692      3692      3694      3695      3692      3700      3701
      3692      3700      3702      3692      3700      3703      3693      3692      3694
      3693      3692      3700      3694      3692      3700      3694      3695      3696
      3694      3695      3697      3695      3697      3698      3695      3697      3699
      3695      3697      3709      3696      3695      3697      3697      3709      3710
      3697      3709      3711      3697      3709      3712      3698      3697      3699
      3698      3697      3709      3699      3697      3709      3700      3703      3704
      3701      3700      3702      3701      3700      3703      3702      3700      3703
      3703      3704      3705      3703      3704      3706      3704      3706      3707
      3704      3706      3708      3704      3706      3756      3705      3704      3706
      3706      3756      3757      3706      3756      3758      3706      3756      3759
      3707      3706      3708      3707      3706      3756      3708      3706      3756
      3709      3712      3713      3709      3712      3714      3709      3712      3715
      3710      3709      3711      3710      3709      3712      3711      3709      3712
      3712      3715      3716      3712      3715      3717      3712      3715      3718
      3713      3712      3714      3713      3712      3715      3714      3712      3715
      3715      3718      3719      3715      3718      3720      3715      3718      3721
      3716      3715      3717      3716      3715      3718      3717      3715      3718
      3718      3721      3722      3718      3721      3723      3718      3721      3724
      3719      3718      3720      3719      3718      3721      3720      3718      3721
      3721      3724      3725      3721      3724      3726      3721      3724      3727
      3722      3721      3723      3722      3721      3724      3723      3721      3724
      3724      3727      3728      3724      3727      3729      3725      3724      3726
      3725      3724      3727      3726      3724      3727      3727      3729      3730
      3727      3729      3731      3728      3727      3729      3729      3731      3732
      3729      3731      3733      3729      3731      3734      3730      3729      3731
      3731      3734      3735      3731      3734      3736      3731      3734      3737
      3732      3731      3733      3732      3731      3734      3733      3731      3734
      3734      3737      3738      3734      3737      3739      3734      3737      3740
      3735      3734      3736      3735      3734      3737      3736      3734      3737
      3737      3740      3741      3737      3740      3742      3737      3740      3743
      3738      3737      3739      3738      3737      3740      3739      3737      3740
      3740      3743      3744      3740      3743      3745      3740      3743      3746
      3741      3740      3742      3741      3740      3743      3742      3740      3743
      3743      3746      3747      3743      3746      3748      3743      3746      3749
      3744      3743      3745      3744      3743      3746      3745      3743      3746
      3746      3749      3750      3746      3749      3751      3746      3749      3752
      3747      3746      3748      3747      3746      3749      3748      3746      3749
      3749      3752      3753      3749      3752      3754      3749      3752      3755
      3750      3749      3751      3750      3749      3752      3751      3749      3752
      3753      3752      3754      3753      3752      3755      3754      3752      3755
      3756      3759      3760      3756      3759      3761      3756      3759      3762
      3757      3756      3758      3757      3756      3759      3758      3756      3759
      3759      3762      3763      3759      3762      3764      3759      3762      3765
      3760      3759      3761      3760      3759      3762      3761      3759      3762
      3762      3765      3766      3762      3765      3767      3762      3765      3768
      3763      3762      3764      3763      3762      3765      3764      3762      3765
      3765      3768      3769      3765      3768      3770      3765      3768      3771
      3766      3765      3767      3766      3765      3768      3767      3765      3768
      3768      3771      3772      3768      3771      3773      3768      3771      3774
      3769      3768      3770      3769      3768      3771      3770      3768      3771
      3771      3774      3775      3771      3774      3776      3771      3774      3777
      3772      3771      3773      3772      3771      3774      3773      3771      3774
      3774      3777      3778      3774      3777      3779      3774      3777      3780
      3775      3774      3776      3775      3774      3777      3776      3774      3777
      3777      3780      3781      3777      3780      3782      3777      3780      3783
      3778      3777      3779      3778      3777      3780      3779      3777      3780
      3780      3783      3784      3780      3783      3785      3780      3783      3786
      3781      3780      3782      3781      3780      3783      3782      3780      3783
      3783      3786      3787      3783      3786      3788      3783      3786      3789
      3784      3783      3785      3784      3783      3786      3785      3783      3786
      3786      3789      3790      3786      3789      3791      3786      3789      3792
      3787      3786      3788      3787      3786      3789      3788      3786      3789
      3789      3792      3793      3789      3792      3794      3789      3792      3795
      3790      3789      3791      3790      3789      3792      3791      3789      3792
      3792      3795      3796      3792      3795      3797      3792      3795      3798
      3793      3792      3794      3793      3792      3795      3794      3792      3795
      3796      3795      3797      3796      3795      3798      3797      3795      3798
      3799      3803      3804      3799      3803      3805      3799      3803      3806
      3800      3799      3801      3800      3799      3802      3800      3799      3803
      3801      3799      3802      3801      3799      3803      3802      3799      3803
      3803      3806      3807      3803      3806      3808      3803      3806      3813
      3804      3803      3805      3804      3803      3806      3805      3803      3806
      3806      3813      3809      3807      3806      3808      3807      3806      3813
      3808      3806      3813      3809      3812      3814      3810      3809      3811
      3810      3809      3812      3810      3809      3813      3811      3809      3812
      3811      3809      3813      3812      3809      3813      3812      3814      3815
      3812      3814      3816      3812      3814      3817      3814      3817      3818
      3814      3817      3819      3814      3817      3825      3815      3814      3816
      3815      3814      3817      3816      3814      3817      3817      3819      3820
      3817      3825      3826      3817      3825      3827      3817      3825      3828
      3818      3817      3819      3818      3817      3825      3819      3817      3825
      3819      3820      3821      3819      3820      3822      3820      3822      3823
      3820      3822      3824      3820      3822      3834      3821      3820      3822
      3822      3834      3835      3822      3834      3836      3822      3834      3837
      3823      3822      3824      3823      3822      3834      3824      3822      3834
      3825      3828      3829      3826      3825      3827      3826      3825      3828
      3827      3825      3828      3828      3829      3830      3828      3829      3831
      3829      3831      3832      3829      3831      3833      3829      3831      3881
      3830      3829      3831      3831      3881      3882      3831      3881      3883
      3831      3881      3884      3832      3831      3833      3832      3831      3881
      3833      3831      3881      3834      3837      3838      3834      3837      3839
      3834      3837      3840      3835      3834      3836      3835      3834      3837
      3836      3834      3837      3837      3840      3841      3837      3840      3842
      3837      3840      3843      3838      3837      3839      3838      3837      3840
      3839      3837      3840      3840      3843      3844      3840      3843      3845
      3840      3843      3846      3841      3840      3842      3841      3840      3843
      3842      3840      3843      3843      3846      3847      3843      3846      3848
      3843      3846      3849      3844      3843      3845      3844      3843      3846
      3845      3843      3846      3846      3849      3850      3846      3849      3851
      3846      3849      3852      3847      3846      3848      3847      3846      3849
      3848      3846      3849      3849      3852      3853      3849      3852      3854
      3850      3849      3851      3850      3849      3852      3851      3849      3852
      3852      3854      3855      3852      3854      3856      3853      3852      3854
      3854      3856      3857      3854      3856      3858      3854      3856      3859
      3855      3854      3856      3856      3859      3860      3856      3859      3861
      3856      3859      3862      3857      3856      3858      3857      3856      3859
      3858      3856      3859      3859      3862      3863      3859      3862      3864
      3859      3862      3865      3860      3859      3861      3860      3859      3862
      3861      3859      3862      3862      3865      3866      3862      3865      3867
      3862      3865      3868      3863      3862      3864      3863      3862      3865
      3864      3862      3865      3865      3868      3869      3865      3868      3870
      3865      3868      3871      3866      3865      3867      3866      3865      3868
      3867      3865      3868      3868      3871      3872      3868      3871      3873
      3868      3871      3874      3869      3868      3870      3869      3868      3871
      3870      3868      3871      3871      3874      3875      3871      3874      3876
      3871      3874      3877      3872      3871      3873      3872      3871      3874
      3873      3871      3874      3874      3877      3878      3874      3877      3879
      3874      3877      3880      3875      3874      3876      3875      3874      3877
      3876      3874      3877      3878      3877      3879      3878      3877      3880
      3879      3877      3880      3881      3884      3885      3881      3884      3886
      3881      3884      3887      3882      3881      3883      3882      3881      3884
      3883      3881      3884      3884      3887      3888      3884      3887      3889
      3884      3887      3890      3885      3884      3886      3885      3884      3887
      3886      3884      3887      3887      3890      3891      3887      3890      3892
      3887      3890      3893      3888      3887      3889      3888      3887      3890
      3889      3887      3890      3890      3893      3894      3890      3893      3895
      3890      3893      3896      3891      3890      3892      3891      3890      3893
      3892      3890      3893      3893      3896      3897      3893      3896      3898
      3893      3896      3899      3894      3893      3895      3894      3893      3896
      3895      3893      3896      3896      3899      3900      3896      3899      3901
      3896      3899      3902      3897      3896      3898      3897      3896      3899
      3898      3896      3899      3899      3902      3903      3899      3902      3904
      3899      3902      3905      3900      3899      3901      3900      3899      3902
      3901      3899      3902      3902      3905      3906      3902      3905      3907
      3902      3905      3908      3903      3902      3904      3903      3902      3905
      3904      3902      3905      3905      3908      3909      3905      3908      3910
      3905      3908      3911      3906      3905      3907      3906      3905      3908
      3907      3905      3908      3908      3911      3912      3908      3911      3913
      3908      3911      3914      3909      3908      3910      3909      3908      3911
      3910      3908      3911      3911      3914      3915      3911      3914      3916
      3911      3914      3917      3912      3911      3913      3912      3911      3914
      3913      3911      3914      3914      3917      3918      3914      3917      3919
      3914      3917      3920      3915      3914      3916      3915      3914      3917
      3916      3914      3917      3917      3920      3921      3917      3920      3922
      3917      3920      3923      3918      3917      3919      3918      3917      3920
      3919      3917      3920      3921      3920      3922      3921      3920      3923
      3922      3920      3923      3924      3928      3929      3924      3928      3930
      3924      3928      3931      3925      3924      3926      3925      3924      3927
      3925      3924      3928      3926      3924      3927      3926      3924      3928
      3927      3924      3928      3928      3931      3932      3928      3931      3933
      3928      3931      3938      3929      3928      3930      3929      3928      3931
      3930      3928      3931      3931      3938      3934      3932      3931      3933
      3932      3931      3938      3933      3931      3938      3934      3937      3939
      3935      3934      3936      3935      3934      3937      3935      3934      3938
      3936      3934      3937      3936      3934      3938      3937      3934      3938
      3937      3939      3940      3937      3939      3941      3937      3939      3942
      3939      3942      3943      3939      3942      3944      3939      3942      3950
      3940      3939      3941      3940      3939      3942      3941      3939      3942
      3942      3944      3945      3942      3950      3951      3942      3950      3952
      3942      3950      3953      3943      3942      3944      3943      3942      3950
      3944      3942      3950      3944      3945      3946      3944      3945      3947
      3945      3947      3948      3945      3947      3949      3945      3947      3959
      3946      3945      3947      3947      3959      3960      3947      3959      3961
      3947      3959      3962      3948      3947      3949      3948      3947      3959
      3949      3947      3959      3950      3953      3954      3951      3950      3952
      3951      3950      3953      3952      3950      3953      3953      3954      3955
      3953      3954      3956      3954      3956      3957      3954      3956      3958
      3954      3956      4003      3955      3954      3956      3956      4003      4004
      3956      4003      4005      3956      4003      4006      3957      3956      3958
      3957      3956      4003      3958      3956      4003      3959      3962      3963
      3959      3962      3964      3959      3962      3965      3960      3959      3961
      3960      3959      3962      3961      3959      3962      3962      3965      3966
      3962      3965      3967      3962      3965      3968      3963      3962      3964
      3963      3962      3965      3964      3962      3965      3965      3968      3969
      3965      3968      3970      3965      3968      3971      3966      3965      3967
      3966      3965      3968      3967      3965      3968      3968      3971      3972
      3968      3971      3973      3968      3971      3974      3969      3968      3970
      3969      3968      3971      3970      3968      3971      3971      3974      3975
      3971      3974      3976      3971      3974      3977      3972      3971      3973
      3972      3971      3974      3973      3971      3974      3974      3977      3978
      3974      3977      3979      3974      3977      3982      3975      3974      3976
      3975      3974      3977      3976      3974      3977      3977      3979      3980
      3977      3979      3981      3977      3979      3982      3977      3982      3979
      3977      3982      3983      3977      3982      3984      3978      3977      3979
      3978      3977      3982      3979      3977      3982      3979      3982      3983
      3979      3982      3984      3980      3979      3981      3980      3979      3982
      3981      3979      3982      3982      3984      3985      3982      3984      3986
      3982      3984      3987      3983      3982      3984      3984      3987      3988
      3984      3987      3989      3984      3987      3990      3985      3984      3986
      3985      3984      3987      3986      3984      3987      3987      3990      3991
      3987      3990      3992      3987      3990      3993      3988      3987      3989
      3988      3987      3990      3989      3987      3990      3990      3993      3994
      3990      3993      3995      3990      3993      3996      3991      3990      3992
      3991      3990      3993      3992      3990      3993      3993      3996      3997
      3993      3996      3998      3993      3996      3999      3994      3993      3995
      3994      3993      3996      3995      3993      3996      3996      3999      4000
      3996      3999      4001      3996      3999      4002      3997      3996      3998
      3997      3996      3999      3998      3996      3999      4000      3999      4001
      4000      3999      4002      4001      3999      4002      4003      4006      4007
      4003      4006      4008      4003      4006      4009      4004      4003      4005
      4004      4003      4006      4005      4003      4006      4006      4009      4010
      4006      4009      4011      4006      4009      4012      4007      4006      4008
      4007      4006      4009      4008      4006      4009      4009      4012      4013
      4009      4012      4014      4009      4012      4015      4010      4009      4011
      4010      4009      4012      4011      4009      4012      4012      4015      4016
      4012      4015      4017      4012      4015      4018      4013      4012      4014
      4013      4012      4015      4014      4012      4015      4015      4018      4019
      4015      4018      4020      4015      4018      4021      4016      4015      4017
      4016      4015      4018      4017      4015      4018      4018      4021      4022
      4018      4021      4023      4018      4021      4024      4019      4018      4020
      4019      4018      4021      4020      4018      4021      4021      4024      4025
      4021      4024      4026      4021      4024      4027      4022      4021      4023
      4022      4021      4024      4023      4021      4024      4024      4027      4028
      4024      4027      4029      4024      4027      4030      4025      4024      4026
      4025      4024      4027      4026      4024      4027      4027      4030      4031
      4027      4030      4032      4027      4030      4033      4028      4027      4029
      4028      4027      4030      4029      4027      4030      4030      4033      4034
      4030      4033      4035      4030      4033      4036      4031      4030      4032
      4031      4030      4033      4032      4030      4033      4033      4036      4037
      4033      4036      4038      4033      4036      4039      4034      4033      4035
      4034      4033      4036      4035      4033      4036      4036      4039      4040
      4036      4039      4041      4036      4039      4042      4037      4036      4038
      4037      4036      4039      4038      4036      4039      4039      4042      4043
      4039      4042      4044      4039      4042      4045      4040      4039      4041
      4040      4039      4042      4041      4039      4042      4043      4042      4044
      4043      4042      4045      4044      4042      4045      4046      4049      4050
      4046      4051      4052      4046      4051      4053      4046      4051      4055
      4047      4046      4048      4047      4046      4049      4047      4046      4051
      4048      4046      4049      4048      4046      4051      4049      4046      4051
      4051      4053      4054      4051      4055      4056      4051      4055      4057
      4051      4055      4062      4052      4051      4053      4052      4051      4055
      4053      4051      4055      4055      4062      4058      4056      4055      4057
      4056      4055      4062      4057      4055      4062      4058      4061      4063
      4059      4058      4060      4059      4058      4061      4059      4058      4062
      4060      4058      4061      4060      4058      4062      4061      4058      4062
      4061      4063      4064      4061      4063      4065      4061      4063      4066
      4063      4066      4067      4063      4066      4068      4063      4066      4074
      4064      4063      4065      4064      4063      4066      4065      4063      4066
      4066      4068      4069      4066      4074      4075      4066      4074      4076
      4066      4074      4077      4067      4066      4068      4067      4066      4074
      4068      4066      4074      4068      4069      4070      4068      4069      4071
      4069      4071      4072      4069      4071      4073      4069      4071      4083
      4070      4069      4071      4071      4083      4084      4071      4083      4085
      4071      4083      4086      4072      4071      4073      4072      4071      4083
      4073      4071      4083      4074      4077      4078      4075      4074      4076
      4075      4074      4077      4076      4074      4077      4077      4078      4079
      4077      4078      4080      4078      4080      4081      4078      4080      4082
      4078      4080      4127      4079      4078      4080      4080      4127      4128
      4080      4127      4129      4080      4127      4130      4081      4080      4082
      4081      4080      4127      4082      4080      4127      4083      4086      4087
      4083      4086      4088      4083      4086      4089      4084      4083      4085
      4084      4083      4086      4085      4083      4086      4086      4089      4090
      4086      4089      4091      4086      4089      4092      4087      4086      4088
      4087      4086      4089      4088      4086      4089      4089      4092      4093
      4089      4092      4094      4089      4092      4095      4090      4089      4091
      4090      4089      4092      4091      4089      4092      4092      4095      4096
      4092      4095      4097      4092      4095      4098      4093      4092      4094
      4093      4092      4095      4094      4092      4095      4095      4098      4099
      4095      4098      4100      4095      4098      4101      4096      4095      4097
      4096      4095      4098      4097      4095      4098      4098      4101      4102
      4098      4101      4103      4098      4101      4106      4099      4098      4100
      4099      4098      4101      4100      4098      4101      4101      4103      4104
      4101      4103      4105      4101      4103      4106      4101      4106      4103
      4101      4106      4107      4101      4106      4108      4102      4101      4103
      4102      4101      4106      4103      4101      4106      4103      4106      4107
      4103      4106      4108      4104      4103      4105      4104      4103      4106
      4105      4103      4106      4106      4108      4109      4106      4108      4110
      4106      4108      4111      4107      4106      4108      4108      4111      4112
      4108      4111      4113      4108      4111      4114      4109      4108      4110
      4109      4108      4111      4110      4108      4111      4111      4114      4115
      4111      4114      4116      4111      4114      4117      4112      4111      4113
      4112      4111      4114      4113      4111      4114      4114      4117      4118
      4114      4117      4119      4114      4117      4120      4115      4114      4116
      4115      4114      4117      4116      4114      4117      4117      4120      4121
      4117      4120      4122      4117      4120      4123      4118      4117      4119
      4118      4117      4120      4119      4117      4120      4120      4123      4124
      4120      4123      4125      4120      4123      4126      4121      4120      4122
      4121      4120      4123      4122      4120      4123      4124      4123      4125
      4124      4123      4126      4125      4123      4126      4127      4130      4131
      4127      4130      4132      4127      4130      4133      4128      4127      4129
      4128      4127      4130      4129      4127      4130      4130      4133      4134
      4130      4133      4135      4130      4133      4136      4131      4130      4132
      4131      4130      4133      4132      4130      4133      4133      4136      4137
      4133      4136      4138      4133      4136      4139      4134      4133      4135
      4134      4133      4136      4135      4133      4136      4136      4139      4140
      4136      4139      4141      4136      4139      4142      4137      4136      4138
      4137      4136      4139      4138      4136      4139      4139      4142      4143
      4139      4142      4144      4139      4142      4145      4140      4139      4141
      4140      4139      4142      4141      4139      4142      4142      4145      4146
      4142      4145      4147      4142      4145      4148      4143      4142      4144
      4143      4142      4145      4144      4142      4145      4145      4148      4149
      4145      4148      4150      4145      4148      4151      4146      4145      4147
      4146      4145      4148      4147      4145      4148      4148      4151      4152
      4148      4151      4153      4148      4151      4154      4149      4148      4150
      4149      4148      4151      4150      4148      4151      4151      4154      4155
      4151      4154      4156      4151      4154      4157      4152      4151      4153
      4152      4151      4154      4153      4151      4154      4154      4157      4158
      4154      4157      4159      4154      4157      4160      4155      4154      4156
      4155      4154      4157      4156      4154      4157      4157      4160      4161
      4157      4160      4162      4157      4160      4163      4158      4157      4159
      4158      4157      4160      4159      4157      4160      4160      4163      4164
      4160      4163      4165      4160      4163      4166      4161      4160      4162
      4161      4160      4163      4162      4160      4163      4163      4166      4167
      4163      4166      4168      4163      4166      4169      4164      4163      4165
      4164      4163      4166      4165      4163      4166      4167      4166      4168
      4167      4166      4169      4168      4166      4169      4170      4174      4175
      4170      4174      4176      4170      4174      4177      4171      4170      4172
      4171      4170      4173      4171      4170      4174      4172      4170      4173
      4172      4170      4174      4173      4170      4174      4174      4177      4178
      4174      4177      4179      4174      4177      4184      4175      4174      4176
      4175      4174      4177      4176      4174      4177      4177      4184      4180
      4178      4177      4179      4178      4177      4184      4179      4177      4184
      4180      4183      4185      4181      4180      4182      4181      4180      4183
      4181      4180      4184      4182      4180      4183      4182      4180      4184
      4183      4180      4184      4183      4185      4186      4183      4185      4187
      4183      4185      4188      4185      4188      4189      4185      4188      4190
      4185      4188      4196      4186      4185      4187      4186      4185      4188
      4187      4185      4188      4188      4190      4191      4188      4196      4197
      4188      4196      4198      4188      4196      4199      4189      4188      4190
      4189      4188      4196      4190      4188      4196      4190      4191      4192
      4190      4191      4193      4191      4193      4194      4191      4193      4195
      4191      4193      4205      4192      4191      4193      4193      4205      4206
      4193      4205      4207      4193      4205      4208      4194      4193      4195
      4194      4193      4205      4195      4193      4205      4196      4199      4200
      4197      4196      4198      4197      4196      4199      4198      4196      4199
      4199      4200      4201      4199      4200      4202      4200      4202      4203
      4200      4202      4204      4200      4202      4249      4201      4200      4202
      4202      4249      4250      4202      4249      4251      4202      4249      4252
      4203      4202      4204      4203      4202      4249      4204      4202      4249
      4205      4208      4209      4205      4208      4210      4205      4208      4211
      4206      4205      4207      4206      4205      4208      4207      4205      4208
      4208      4211      4212      4208      4211      4213      4208      4211      4214
      4209      4208      4210      4209      4208      4211      4210      4208      4211
      4211      4214      4215      4211      4214      4216      4211      4214      4217
      4212      4211      4213      4212      4211      4214      4213      4211      4214
      4214      4217      4218      4214      4217      4219      4214      4217      4220
      4215      4214      4216      4215      4214      4217      4216      4214      4217
      4217      4220      4221      4217      4220      4222      4217      4220      4223
      4218      4217      4219      4218      4217      4220      4219      4217      4220
      4220      4223      4224      4220      4223      4225      4220      4223      4228
      4221      4220      4222      4221      4220      4223      4222      4220      4223
      4223      4225      4226      4223      4225      4227      4223      4225      4228
      4223      4228      4225      4223      4228      4229      4223      4228      4230
      4224      4223      4225      4224      4223      4228      4225      4223      4228
      4225      4228      4229      4225      4228      4230      4226      4225      4227
      4226      4225      4228      4227      4225      4228      4228      4230      4231
      4228      4230      4232      4228      4230      4233      4229      4228      4230
      4230      4233      4234      4230      4233      4235      4230      4233      4236
      4231      4230      4232      4231      4230      4233      4232      4230      4233
      4233      4236      4237      4233      4236      4238      4233      4236      4239
      4234      4233      4235      4234      4233      4236      4235      4233      4236
      4236      4239      4240      4236      4239      4241      4236      4239      4242
      4237      4236      4238      4237      4236      4239      4238      4236      4239
      4239      4242      4243      4239      4242      4244      4239      4242      4245
      4240      4239      4241      4240      4239      4242      4241      4239      4242
      4242      4245      4246      4242      4245      4247      4242      4245      4248
      4243      4242      4244      4243      4242      4245      4244      4242      4245
      4246      4245      4247      4246      4245      4248      4247      4245      4248
      4249      4252      4253      4249      4252      4254      4249      4252      4255
      4250      4249      4251      4250      4249      4252      4251      4249      4252
      4252      4255      4256      4252      4255      4257      4252      4255      4258
      4253      4252      4254      4253      4252      4255      4254      4252      4255
      4255      4258      4259      4255      4258      4260      4255      4258      4261
      4256      4255      4257      4256      4255      4258      4257      4255      4258
      4258      4261      4262      4258      4261      4263      4258      4261      4264
      4259      4258      4260      4259      4258      4261      4260      4258      4261
      4261      4264      4265      4261      4264      4266      4261      4264      4267
      4262      4261      4263      4262      4261      4264      4263      4261      4264
      4264      4267      4268      4264      4267      4269      4264      4267      4270
      4265      4264      4266      4265      4264      4267      4266      4264      4267
      4267      4270      4271      4267      4270      4272      4267      4270      4273
      4268      4267      4269      4268      4267      4270      4269      4267      4270
      4270      4273      4274      4270      4273      4275      4270      4273      4276
      4271      4270      4272      4271      4270      4273      4272      4270      4273
      4273      4276      4277      4273      4276      4278      4273      4276      4279
      4274      4273      4275      4274      4273      4276      4275      4273      4276
      4276      4279      4280      4276      4279      4281      4276      4279      4282
      4277      4276      4278      4277      4276      4279      4278      4276      4279
      4279      4282      4283      4279      4282      4284      4279      4282      4285
      4280      4279      4281      4280      4279      4282      4281      4279      4282
      4282      4285      4286      4282      4285      4287      4282      4285      4288
      4283      4282      4284      4283      4282      4285      4284      4282      4285
      4286      4285      4287      4286      4285      4288      4287      4285      4288
      4289      4292      4293      4289      4294      4295      4289      4294      4296
      4289      4294      4298      4290      4289      4291      4290      4289      4292
      4290      4289      4294      4291      4289      4292      4291      4289      4294
      4292      4289      4294      4294      4296      4297      4294      4298      4299
      4294      4298      4300      4294      4298      4305      4295      4294      4296
      4295      4294      4298      4296      4294      4298      4298      4305      4301
      4299      4298      4300      4299      4298      4305      4300      4298      4305
      4301      4304      4306      4302      4301      4303      4302      4301      4304
      4302      4301      4305      4303      4301      4304      4303      4301      4305
      4304      4301      4305      4304      4306      4307      4304      4306      4308
      4304      4306      4309      4306      4309      4310      4306      4309      4311
      4306      4309      4317      4307      4306      4308      4307      4306      4309
      4308      4306      4309      4309      4311      4312      4309      4317      4318
      4309      4317      4319      4309      4317      4320      4310      4309      4311
      4310      4309      4317      4311      4309      4317      4311      4312      4313
      4311      4312      4314      4312      4314      4315      4312      4314      4316
      4312      4314      4326      4313      4312      4314      4314      4326      4327
      4314      4326      4328      4314      4326      4329      4315      4314      4316
      4315      4314      4326      4316      4314      4326      4317      4320      4321
      4318      4317      4319      4318      4317      4320      4319      4317      4320
      4320      4321      4322      4320      4321      4323      4321      4323      4324
      4321      4323      4325      4321      4323      4367      4322      4321      4323
      4323      4367      4368      4323      4367      4369      4323      4367      4370
      4324      4323      4325      4324      4323      4367      4325      4323      4367
      4326      4329      4330      4326      4329      4331      4326      4329      4332
      4327      4326      4328      4327      4326      4329      4328      4326      4329
      4329      4332      4333      4329      4332      4334      4329      4332      4335
      4330      4329      4331      4330      4329      4332      4331      4329      4332
      4332      4335      4336      4332      4335      4337      4332      4335      4338
      4333      4332      4334      4333      4332      4335      4334      4332      4335
      4335      4338      4339      4335      4338      4340      4335      4338      4341
      4336      4335      4337      4336      4335      4338      4337      4335      4338
      4338      4341      4342      4338      4341      4343      4338      4341      4344
      4339      4338      4340      4339      4338      4341      4340      4338      4341
      4341      4344      4345      4341      4344      4346      4342      4341      4343
      4342      4341      4344      4343      4341      4344      4344      4346      4347
      4344      4346      4348      4345      4344      4346      4346      4348      4349
      4346      4348      4350      4346      4348      4351      4347      4346      4348
      4348      4351      4352      4348      4351      4353      4348      4351      4354
      4349      4348      4350      4349      4348      4351      4350      4348      4351
      4351      4354      4355      4351      4354      4356      4351      4354      4357
      4352      4351      4353      4352      4351      4354      4353      4351      4354
      4354      4357      4358      4354      4357      4359      4354      4357      4360
      4355      4354      4356      4355      4354      4357      4356      4354      4357
      4357      4360      4361      4357      4360      4362      4357      4360      4363
      4358      4357      4359      4358      4357      4360      4359      4357      4360
      4360      4363      4364      4360      4363      4365      4360      4363      4366
      4361      4360      4362      4361      4360      4363      4362      4360      4363
      4364      4363      4365      4364      4363      4366      4365      4363      4366
      4367      4370      4371      4367      4370      4372      4367      4370      4373
      4368      4367      4369      4368      4367      4370      4369      4367      4370
      4370      4373      4374      4370      4373      4375      4370      4373      4376
      4371      4370      4372      4371      4370      4373      4372      4370      4373
      4373      4376      4377      4373      4376      4378      4373      4376      4379
      4374      4373      4375      4374      4373      4376      4375      4373      4376
      4376      4379      4380      4376      4379      4381      4376      4379      4382
      4377      4376      4378      4377      4376      4379      4378      4376      4379
      4379      4382      4383      4379      4382      4384      4379      4382      4385
      4380      4379      4381      4380      4379      4382      4381      4379      4382
      4382      4385      4386      4382      4385      4387      4382      4385      4388
      4383      4382      4384      4383      4382      4385      4384      4382      4385
      4385      4388      4389      4385      4388      4390      4385      4388      4391
      4386      4385      4387      4386      4385      4388      4387      4385      4388
      4388      4391      4392      4388      4391      4393      4388      4391      4394
      4389      4388      4390      4389      4388      4391      4390      4388      4391
      4391      4394      4395      4391      4394      4396      4391      4394      4397
      4392      4391      4393      4392      4391      4394      4393      4391      4394
      4394      4397      4398      4394      4397      4399      4394      4397      4400
      4395      4394      4396      4395      4394      4397      4396      4394      4397
      4397      4400      4401      4397      4400      4402      4397      4400      4403
      4398      4397      4399      4398      4397      4400      4399      4397      4400
      4400      4403      4404      4400      4403      4405      4400      4403      4406
      4401      4400      4402      4401      4400      4403      4402      4400      4403
      4403      4406      4407      4403      4406      4408      4403      4406      4409
      4404      4403      4405      4404      4403      4406      4405      4403      4406
      4407      4406      4408      4407      4406      4409      4408      4406      4409
      4410      4414      4415      4410      4414      4416      4410      4414      4417
      4411      4410      4412      4411      4410      4413      4411      4410      4414
      4412      4410      4413      4412      4410      4414      4413      4410      4414
      4414      4417      4418      4414      4417      4419      4414      4417      4424
      4415      4414      4416      4415      4414      4417      4416      4414      4417
      4417      4424      4420      4418      4417      4419      4418      4417      4424
      4419      4417      4424      4420      4423      4425      4421      4420      4422
      4421      4420      4423      4421      4420      4424      4422      4420      4423
      4422      4420      4424      4423      4420      4424      4423      4425      4426
      4423      4425      4427      4423      4425      4428      4425      4428      4429
      4425      4428      4430      4425      4428      4436      4426      4425      4427
      4426      4425      4428      4427      4425      4428      4428      4430      4431
      4428      4436      4437      4428      4436      4438      4428      4436      4439
      4429      4428      4430      4429      4428      4436      4430      4428      4436
      4430      4431      4432      4430      4431      4433      4431      4433      4434
      4431      4433      4435      4431      4433      4445      4432      4431      4433
      4433      4445      4446      4433      4445      4447      4433      4445      4448
      4434      4433      4435      4434      4433      4445      4435      4433      4445
      4436      4439      4440      4437      4436      4438      4437      4436      4439
      4438      4436      4439      4439      4440      4441      4439      4440      4442
      4440      4442      4443      4440      4442      4444      4440      4442      4489
      4441      4440      4442      4442      4489      4490      4442      4489      4491
      4442      4489      4492      4443      4442      4444      4443      4442      4489
      4444      4442      4489      4445      4448      4449      4445      4448      4450
      4445      4448      4451      4446      4445      4447      4446      4445      4448
      4447      4445      4448      4448      4451      4452      4448      4451      4453
      4448      4451      4454      4449      4448      4450      4449      4448      4451
      4450      4448      4451      4451      4454      4455      4451      4454      4456
      4451      4454      4457      4452      4451      4453      4452      4451      4454
      4453      4451      4454      4454      4457      4458      4454      4457      4459
      4454      4457      4460      4455      4454      4456      4455      4454      4457
      4456      4454      4457      4457      4460      4461      4457      4460      4462
      4457      4460      4463      4458      4457      4459      4458      4457      4460
      4459      4457      4460      4460      4463      4464      4460      4463      4465
      4460      4463      4468      4461      4460      4462      4461      4460      4463
      4462      4460      4463      4463      4465      4466      4463      4465      4467
      4463      4465      4468      4463      4468      4465      4463      4468      4469
      4463      4468      4470      4464      4463      4465      4464      4463      4468
      4465      4463      4468      4465      4468      4469      4465      4468      4470
      4466      4465      4467      4466      4465      4468      4467      4465      4468
      4468      4470      4471      4468      4470      4472      4468      4470      4473
      4469      4468      4470      4470      4473      4474      4470      4473      4475
      4470      4473      4476      4471      4470      4472      4471      4470      4473
      4472      4470      4473      4473      4476      4477      4473      4476      4478
      4473      4476      4479      4474      4473      4475      4474      4473      4476
      4475      4473      4476      4476      4479      4480      4476      4479      4481
      4476      4479      4482      4477      4476      4478      4477      4476      4479
      4478      4476      4479      4479      4482      4483      4479      4482      4484
      4479      4482      4485      4480      4479      4481      4480      4479      4482
      4481      4479      4482      4482      4485      4486      4482      4485      4487
      4482      4485      4488      4483      4482      4484      4483      4482      4485
      4484      4482      4485      4486      4485      4487      4486      4485      4488
      4487      4485      4488      4489      4492      4493      4489      4492      4494
      4489      4492      4495      4490      4489      4491      4490      4489      4492
      4491      4489      4492      4492      4495      4496      4492      4495      4497
      4492      4495      4498      4493      4492      4494      4493      4492      4495
      4494      4492      4495      4495      4498      4499      4495      4498      4500
      4495      4498      4501      4496      4495      4497      4496      4495      4498
      4497      4495      4498      4498      4501      4502      4498      4501      4503
      4498      4501      4504      4499      4498      4500      4499      4498      4501
      4500      4498      4501      4501      4504      4505      4501      4504      4506
      4501      4504      4507      4502      4501      4503      4502      4501      4504
      4503      4501      4504      4504      4507      4508      4504      4507      4509
      4504      4507      4510      4505      4504      4506      4505      4504      4507
      4506      4504      4507      4507      4510      4511      4507      4510      4512
      4507      4510      4513      4508      4507      4509      4508      4507      4510
      4509      4507      4510      4510      4513      4514      4510      4513      4515
      4510      4513      4516      4511      4510      4512      4511      4510      4513
      4512      4510      4513      4513      4516      4517      4513      4516      4518
      4513      4516      4519      4514      4513      4515      4514      4513      4516
      4515      4513      4516      4516      4519      4520      4516      4519      4521
      4516      4519      4522      4517      4516      4518      4517      4516      4519
      4518      4516      4519      4519      4522      4523      4519      4522      4524
      4519      4522      4525      4520      4519      4521      4520      4519      4522
      4521      4519      4522      4522      4525      4526      4522      4525      4527
      4522      4525      4528      4523      4522      4524      4523      4522      4525
      4524      4522      4525      4525      4528      4529      4525      4528      4530
      4525      4528      4531      4526      4525      4527      4526      4525      4528
      4527      4525      4528      4529      4528      4530      4529      4528      4531
      4530      4528      4531      4532      4536      4537      4532      4536      4538
      4532      4536      4539      4533      4532      4534      4533      4532      4535
      4533      4532      4536      4534      4532      4535      4534      4532      4536
      4535      4532      4536      4536      4539      4540      4536      4539      4541
      4536      4539      4546      4537      4536      4538      4537      4536      4539
      4538      4536      4539      4539      4546      4542      4540      4539      4541
      4540      4539      4546      4541      4539      4546      4542      4545      4547
      4543      4542      4544      4543      4542      4545      4543      4542      4546
      4544      4542      4545      4544      4542      4546      4545      4542      4546
      4545      4547      4548      4545      4547      4549      4545      4547      4550
      4547      4550      4551      4547      4550      4552      4547      4550      4558
      4548      4547      4549      4548      4547      4550      4549      4547      4550
      4550      4552      4553      4550      4558      4559      4550      4558      4560
      4550      4558      4561      4551      4550      4552      4551      4550      4558
      4552      4550      4558      4552      4553      4554      4552      4553      4555
      4553      4555      4556      4553      4555      4557      4553      4555      4567
      4554      4553      4555      4555      4567      4568      4555      4567      4569
      4555      4567      4570      4556      4555      4557      4556      4555      4567
      4557      4555      4567      4558      4561      4562      4559      4558      4560
      4559      4558      4561      4560      4558      4561      4561      4562      4563
      4561      4562      4564      4562      4564      4565      4562      4564      4566
      4562      4564      4614      4563      4562      4564      4564      4614      4615
      4564      4614      4616      4564      4614      4617      4565      4564      4566
      4565      4564      4614      4566      4564      4614      4567      4570      4571
      4567      4570      4572      4567      4570      4573      4568      4567      4569
      4568      4567      4570      4569      4567      4570      4570      4573      4574
      4570      4573      4575      4570      4573      4576      4571      4570      4572
      4571      4570      4573      4572      4570      4573      4573      4576      4577
      4573      4576      4578      4573      4576      4579      4574      4573      4575
      4574      4573      4576      4575      4573      4576      4576      4579      4580
      4576      4579      4581      4576      4579      4582      4577      4576      4578
      4577      4576      4579      4578      4576      4579      4579      4582      4583
      4579      4582      4584      4579      4582      4585      4580      4579      4581
      4580      4579      4582      4581      4579      4582      4582      4585      4586
      4582      4585      4587      4583      4582      4584      4583      4582      4585
      4584      4582      4585      4585      4587      4588      4585      4587      4589
      4586      4585      4587      4587      4589      4590      4587      4589      4591
      4587      4589      4592      4588      4587      4589      4589      4592      4593
      4589      4592      4594      4589      4592      4595      4590      4589      4591
      4590      4589      4592      4591      4589      4592      4592      4595      4596
      4592      4595      4597      4592      4595      4598      4593      4592      4594
      4593      4592      4595      4594      4592      4595      4595      4598      4599
      4595      4598      4600      4595      4598      4601      4596      4595      4597
      4596      4595      4598      4597      4595      4598      4598      4601      4602
      4598      4601      4603      4598      4601      4604      4599      4598      4600
      4599      4598      4601      4600      4598      4601      4601      4604      4605
      4601      4604      4606      4601      4604      4607      4602      4601      4603
      4602      4601      4604      4603      4601      4604      4604      4607      4608
      4604      4607      4609      4604      4607      4610      4605      4604      4606
      4605      4604      4607      4606      4604      4607      4607      4610      4611
      4607      4610      4612      4607      4610      4613      4608      4607      4609
      4608      4607      4610      4609      4607      4610      4611      4610      4612
      4611      4610      4613      4612      4610      4613      4614      4617      4618
      4614      4617      4619      4614      4617      4620      4615      4614      4616
      4615      4614      4617      4616      4614      4617      4617      4620      4621
      4617      4620      4622      4617      4620      4623      4618      4617      4619
      4618      4617      4620      4619      4617      4620      4620      4623      4624
      4620      4623      4625      4620      4623      4626      4621      4620      4622
      4621      4620      4623      4622      4620      4623      4623      4626      4627
      4623      4626      4628      4623      4626      4629      4624      4623      4625
      4624      4623      4626      4625      4623      4626      4626      4629      4630
      4626      4629      4631      4626      4629      4632      4627      4626      4628
      4627      4626      4629      4628      4626      4629      4629      4632      4633
      4629      4632      4634      4629      4632      4635      4630      4629      4631
      4630      4629      4632      4631      4629      4632      4632      4635      4636
      4632      4635      4637      4632      4635      4638      4633      4632      4634
      4633      4632      4635      4634      4632      4635      4635      4638      4639
      4635      4638      4640      4635      4638      4641      4636      4635      4637
      4636      4635      4638      4637      4635      4638      4638      4641      4642
      4638      4641      4643      4638      4641      4644      4639      4638      4640
      4639      4638      4641      4640      4638      4641      4641      4644      4645
      4641      4644      4646      4641      4644      4647      4642      4641      4643
      4642      4641      4644      4643      4641      4644      4644      4647      4648
      4644      4647      4649      4644      4647      4650      4645      4644      4646
      4645      4644      4647      4646      4644      4647      4647      4650      4651
      4647      4650      4652      4647      4650      4653      4648      4647      4649
      4648      4647      4650      4649      4647      4650      4650      4653      4654
      4650      4653      4655      4650      4653      4656      4651      4650      4652
      4651      4650      4653      4652      4650      4653      4654      4653      4655
      4654      4653      4656      4655      4653      4656      4657      4661      4662
      4657      4661      4663      4657      4661      4664      4658      4657      4659
      4658      4657      4660      4658      4657      4661      4659      4657      4660
      4659      4657      4661      4660      4657      4661      4661      4664      4665
      4661      4664      4666      4661      4664      4671      4662      4661      4663
      4662      4661      4664      4663      4661      4664      4664      4671      4667
      4665      4664      4666      4665      4664      4671      4666      4664      4671
      4667      4670      4672      4668      4667      4669      4668      4667      4670
      4668      4667      4671      4669      4667      4670      4669      4667      4671
      4670      4667      4671      4670      4672      4673      4670      4672      4674
      4670      4672      4675      4672      4675      4676      4672      4675      4677
      4672      4675      4683      4673      4672      4674      4673      4672      4675
      4674      4672      4675      4675      4677      4678      4675      4683      4684
      4675      4683      4685      4675      4683      4686      4676      4675      4677
      4676      4675      4683      4677      4675      4683      4677      4678      4679
      4677      4678      4680      4678      4680      4681      4678      4680      4682
      4678      4680      4692      4679      4678      4680      4680      4692      4693
      4680      4692      4694      4680      4692      4695      4681      4680      4682
      4681      4680      4692      4682      4680      4692      4683      4686      4687
      4684      4683      4685      4684      4683      4686      4685      4683      4686
      4686      4687      4688      4686      4687      4689      4687      4689      4690
      4687      4689      4691      4687      4689      4736      4688      4687      4689
      4689      4736      4737      4689      4736      4738      4689      4736      4739
      4690      4689      4691      4690      4689      4736      4691      4689      4736
      4692      4695      4696      4692      4695      4697      4692      4695      4698
      4693      4692      4694      4693      4692      4695      4694      4692      4695
      4695      4698      4699      4695      4698      4700      4695      4698      4701
      4696      4695      4697      4696      4695      4698      4697      4695      4698
      4698      4701      4702      4698      4701      4703      4698      4701      4704
      4699      4698      4700      4699      4698      4701      4700      4698      4701
      4701      4704      4705      4701      4704      4706      4701      4704      4707
      4702      4701      4703      4702      4701      4704      4703      4701      4704
      4704      4707      4708      4704      4707      4709      4704      4707      4710
      4705      4704      4706      4705      4704      4707      4706      4704      4707
      4707      4710      4711      4707      4710      4712      4707      4710      4715
      4708      4707      4709      4708      4707      4710      4709      4707      4710
      4710      4712      4713      4710      4712      4714      4710      4712      4715
      4710      4715      4712      4710      4715      4716      4710      4715      4717
      4711      4710      4712      4711      4710      4715      4712      4710      4715
      4712      4715      4716      4712      4715      4717      4713      4712      4714
      4713      4712      4715      4714      4712      4715      4715      4717      4718
      4715      4717      4719      4715      4717      4720      4716      4715      4717
      4717      4720      4721      4717      4720      4722      4717      4720      4723
      4718      4717      4719      4718      4717      4720      4719      4717      4720
      4720      4723      4724      4720      4723      4725      4720      4723      4726
      4721      4720      4722      4721      4720      4723      4722      4720      4723
      4723      4726      4727      4723      4726      4728      4723      4726      4729
      4724      4723      4725      4724      4723      4726      4725      4723      4726
      4726      4729      4730      4726      4729      4731      4726      4729      4732
      4727      4726      4728      4727      4726      4729      4728      4726      4729
      4729      4732      4733      4729      4732      4734      4729      4732      4735
      4730      4729      4731      4730      4729      4732      4731      4729      4732
      4733      4732      4734      4733      4732      4735      4734      4732      4735
      4736      4739      4740      4736      4739      4741      4736      4739      4742
      4737      4736      4738      4737      4736      4739      4738      4736      4739
      4739      4742      4743      4739      4742      4744      4739      4742      4745
      4740      4739      4741      4740      4739      4742      4741      4739      4742
      4742      4745      4746      4742      4745      4747      4742      4745      4748
      4743      4742      4744      4743      4742      4745      4744      4742      4745
      4745      4748      4749      4745      4748      4750      4745      4748      4751
      4746      4745      4747      4746      4745      4748      4747      4745      4748
      4748      4751      4752      4748      4751      4753      4748      4751      4754
      4749      4748      4750      4749      4748      4751      4750      4748      4751
      4751      4754      4755      4751      4754      4756      4751      4754      4757
      4752      4751      4753      4752      4751      4754      4753      4751      4754
      4754      4757      4758      4754      4757      4759      4754      4757      4760
      4755      4754      4756      4755      4754      4757      4756      4754      4757
      4757      4760      4761      4757      4760      4762      4757      4760      4763
      4758      4757      4759      4758      4757      4760      4759      4757      4760
      4760      4763      4764      4760      4763      4765      4760      4763      4766
      4761      4760      4762      4761      4760      4763      4762      4760      4763
      4763      4766      4767      4763      4766      4768      4763      4766      4769
      4764      4763      4765      4764      4763      4766      4765      4763      4766
      4766      4769      4770      4766      4769      4771      4766      4769      4772
      4767      4766      4768      4767      4766      4769      4768      4766      4769
      4769      4772      4773      4769      4772      4774      4769      4772      4775
      4770      4769      4771      4770      4769      4772      4771      4769      4772
      4773      4772      4774      4773      4772      4775      4774      4772      4775
      4776      4780      4781      4776      4780      4782      4776      4780      4783
      4777      4776      4778      4777      4776      4779      4777      4776      4780
      4778      4776      4779      4778      4776      4780      4779      4776      4780
      4780      4783      4784      4780      4783      4785      4780      4783      4790
      4781      4780      4782      4781      4780      4783      4782      4780      4783
      4783      4790      4786      4784      4783      4785      4784      4783      4790
      4785      4783      4790      4786      4789      4791      4787      4786      4788
      4787      4786      4789      4787      4786      4790      4788      4786      4789
      4788      4786      4790      4789      4786      4790      4789      4791      4792
      4789      4791      4793      4789      4791      4794      4791      4794      4795
      4791      4794      4796      4791      4794      4802      4792      4791      4793
      4792      4791      4794      4793      4791      4794      4794      4796      4797
      4794      4802      4803      4794      4802      4804      4794      4802      4805
      4795      4794      4796      4795      4794      4802      4796      4794      4802
      4796      4797      4798      4796      4797      4799      4797      4799      4800
      4797      4799      4801      4797      4799      4811      4798      4797      4799
      4799      4811      4812      4799      4811      4813      4799      4811      4814
      4800      4799      4801      4800      4799      4811      4801      4799      4811
      4802      4805      4806      4803      4802      4804      4803      4802      4805
      4804      4802      4805      4805      4806      4807      4805      4806      4808
      4806      4808      4809      4806      4808      4810      4806      4808      4855
      4807      4806      4808      4808      4855      4856      4808      4855      4857
      4808      4855      4858      4809      4808      4810      4809      4808      4855
      4810      4808      4855      4811      4814      4815      4811      4814      4816
      4811      4814      4817      4812      4811      4813      4812      4811      4814
      4813      4811      4814      4814      4817      4818      4814      4817      4819
      4814      4817      4820      4815      4814      4816      4815      4814      4817
      4816      4814      4817      4817      4820      4821      4817      4820      4822
      4817      4820      4823      4818      4817      4819      4818      4817      4820
      4819      4817      4820      4820      4823      4824      4820      4823      4825
      4820      4823      4826      4821      4820      4822      4821      4820      4823
      4822      4820      4823      4823      4826      4827      4823      4826      4828
      4823      4826      4829      4824      4823      4825      4824      4823      4826
      4825      4823      4826      4826      4829      4830      4826      4829      4831
      4826      4829      4834      4827      4826      4828      4827      4826      4829
      4828      4826      4829      4829      4831      4832      4829      4831      4833
      4829      4831      4834      4829      4834      4831      4829      4834      4835
      4829      4834      4836      4830      4829      4831      4830      4829      4834
      4831      4829      4834      4831      4834      4835      4831      4834      4836
      4832      4831      4833      4832      4831      4834      4833      4831      4834
      4834      4836      4837      4834      4836      4838      4834      4836      4839
      4835      4834      4836      4836      4839      4840      4836      4839      4841
      4836      4839      4842      4837      4836      4838      4837      4836      4839
      4838      4836      4839      4839      4842      4843      4839      4842      4844
      4839      4842      4845      4840      4839      4841      4840      4839      4842
      4841      4839      4842      4842      4845      4846      4842      4845      4847
      4842      4845      4848      4843      4842      4844      4843      4842      4845
      4844      4842      4845      4845      4848      4849      4845      4848      4850
      4845      4848      4851      4846      4845      4847      4846      4845      4848
      4847      4845      4848      4848      4851      4852      4848      4851      4853
      4848      4851      4854      4849      4848      4850      4849      4848      4851
      4850      4848      4851      4852      4851      4853      4852      4851      4854
      4853      4851      4854      4855      4858      4859      4855      4858      4860
      4855      4858      4861      4856      4855      4857      4856      4855      4858
      4857      4855      4858      4858      4861      4862      4858      4861      4863
      4858      4861      4864      4859      4858      4860      4859      4858      4861
      4860      4858      4861      4861      4864      4865      4861      4864      4866
      4861      4864      4867      4862      4861      4863      4862      4861      4864
      4863      4861      4864      4864      4867      4868      4864      4867      4869
      4864      4867      4870      4865      4864      4866      4865      4864      4867
      4866      4864      4867      4867      4870      4871      4867      4870      4872
      4867      4870      4873      4868      4867      4869      4868      4867      4870
      4869      4867      4870      4870      4873      4874      4870      4873      4875
      4870      4873      4876      4871      4870      4872      4871      4870      4873
      4872      4870      4873      4873      4876      4877      4873      4876      4878
      4873      4876      4879      4874      4873      4875      4874      4873      4876
      4875      4873      4876      4876      4879      4880      4876      4879      4881
      4876      4879      4882      4877      4876      4878      4877      4876      4879
      4878      4876      4879      4879      4882      4883      4879      4882      4884
      4879      4882      4885      4880      4879      4881      4880      4879      4882
      4881      4879      4882      4882      4885      4886      4882      4885      4887
      4882      4885      4888      4883      4882      4884      4883      4882      4885
      4884      4882      4885      4885      4888      4889      4885      4888      4890
      4885      4888      4891      4886      4885      4887      4886      4885      4888
      4887      4885      4888      4888      4891      4892      4888      4891      4893
      4888      4891      4894      4889      4888      4890      4889      4888      4891
      4890      4888      4891      4891      4894      4895      4891      4894      4896
      4891      4894      4897      4892      4891      4893      4892      4891      4894
      4893      4891      4894      4895      4894      4896      4895      4894      4897
      4896      4894      4897      4898      4902      4903      4898      4902      4904
      4898      4902      4905      4899      4898      4900      4899      4898      4901
      4899      4898      4902      4900      4898      4901      4900      4898      4902
      4901      4898      4902      4902      4905      4906      4902      4905      4907
      4902      4905      4912      4903      4902      4904      4903      4902      4905
      4904      4902      4905      4905      4912      4908      4906      4905      4907
      4906      4905      4912      4907      4905      4912      4908      4911      4913
      4909      4908      4910      4909      4908      4911      4909      4908      4912
      4910      4908      4911      4910      4908      4912      4911      4908      4912
      4911      4913      4914      4911      4913      4915      4911      4913      4916
      4913      4916      4917      4913      4916      4918      4913      4916      4924
      4914      4913      4915      4914      4913      4916      4915      4913      4916
      4916      4918      4919      4916      4924      4925      4916      4924      4926
      4916      4924      4927      4917      4916      4918      4917      4916      4924
      4918      4916      4924      4918      4919      4920      4918      4919      4921
      4919      4921      4922      4919      4921      4923      4919      4921      4933
      4920      4919      4921      4921      4933      4934      4921      4933      4935
      4921      4933      4936      4922      4921      4923      4922      4921      4933
      4923      4921      4933      4924      4927      4928      4925      4924      4926
      4925      4924      4927      4926      4924      4927      4927      4928      4929
      4927      4928      4930      4928      4930      4931      4928      4930      4932
      4928      4930      4977      4929      4928      4930      4930      4977      4978
      4930      4977      4979      4930      4977      4980      4931      4930      4932
      4931      4930      4977      4932      4930      4977      4933      4936      4937
      4933      4936      4938      4933      4936      4939      4934      4933      4935
      4934      4933      4936      4935      4933      4936      4936      4939      4940
      4936      4939      4941      4936      4939      4942      4937      4936      4938
      4937      4936      4939      4938      4936      4939      4939      4942      4943
      4939      4942      4944      4939      4942      4945      4940      4939      4941
      4940      4939      4942      4941      4939      4942      4942      4945      4946
      4942      4945      4947      4942      4945      4948      4943      4942      4944
      4943      4942      4945      4944      4942      4945      4945      4948      4949
      4945      4948      4950      4945      4948      4951      4946      4945      4947
      4946      4945      4948      4947      4945      4948      4948      4951      4952
      4948      4951      4953      4948      4951      4956      4949      4948      4950
      4949      4948      4951      4950      4948      4951      4951      4953      4954
      4951      4953      4955      4951      4953      4956      4951      4956      4953
      4951      4956      4957      4951      4956      4958      4952      4951      4953
      4952      4951      4956      4953      4951      4956      4953      4956      4957
      4953      4956      4958      4954      4953      4955      4954      4953      4956
      4955      4953      4956      4956      4958      4959      4956      4958      4960
      4956      4958      4961      4957      4956      4958      4958      4961      4962
      4958      4961      4963      4958      4961      4964      4959      4958      4960
      4959      4958      4961      4960      4958      4961      4961      4964      4965
      4961      4964      4966      4961      4964      4967      4962      4961      4963
      4962      4961      4964      4963      4961      4964      4964      4967      4968
      4964      4967      4969      4964      4967      4970      4965      4964      4966
      4965      4964      4967      4966      4964      4967      4967      4970      4971
      4967      4970      4972      4967      4970      4973      4968      4967      4969
      4968      4967      4970      4969      4967      4970      4970      4973      4974
      4970      4973      4975      4970      4973      4976      4971      4970      4972
      4971      4970      4973      4972      4970      4973      4974      4973      4975
      4974      4973      4976      4975      4973      4976      4977      4980      4981
      4977      4980      4982      4977      4980      4983      4978      4977      4979
      4978      4977      4980      4979      4977      4980      4980      4983      4984
      4980      4983      4985      4980      4983      4986      4981      4980      4982
      4981      4980      4983      4982      4980      4983      4983      4986      4987
      4983      4986      4988      4983      4986      4989      4984      4983      4985
      4984      4983      4986      4985      4983      4986      4986      4989      4990
      4986      4989      4991      4986      4989      4992      4987      4986      4988
      4987      4986      4989      4988      4986      4989      4989      4992      4993
      4989      4992      4994      4989      4992      4995      4990      4989      4991
      4990      4989      4992      4991      4989      4992      4992      4995      4996
      4992      4995      4997      4992      4995      4998      4993      4992      4994
      4993      4992      4995      4994      4992      4995      4995      4998      4999
      4995      4998      5000      4995      4998      5001      4996      4995      4997
      4996      4995      4998      4997      4995      4998      4998      5001      5002
      4998      5001      5003      4998      5001      5004      4999      4998      5000
      4999      4998      5001      5000      4998      5001      5001      5004      5005
      5001      5004      5006      5001      5004      5007      5002      5001      5003
      5002      5001      5004      5003      5001      5004      5004      5007      5008
      5004      5007      5009      5004      5007      5010      5005      5004      5006
      5005      5004      5007      5006      5004      5007      5007      5010      5011
      5007      5010      5012      5007      5010      5013      5008      5007      5009
      5008      5007      5010      5009      5007      5010      5010      5013      5014
      5010      5013      5015      5010      5013      5016      5011      5010      5012
      5011      5010      5013      5012      5010      5013      5013      5016      5017
      5013      5016      5018      5013      5016      5019      5014      5013      5015
      5014      5013      5016      5015      5013      5016      5017      5016      5018
      5017      5016      5019      5018      5016      5019      5020      5023      5024
      5020      5025      5026      5020      5025      5027      5020      5025      5029
      5021      5020      5022      5021      5020      5023      5021      5020      5025
      5022      5020      5023      5022      5020      5025      5023      5020      5025
      5025      5027      5028      5025      5029      5030      5025      5029      5031
      5025      5029      5036      5026      5025      5027      5026      5025      5029
      5027      5025      5029      5029      5036      5032      5030      5029      5031
      5030      5029      5036      5031      5029      5036      5032      5035      5037
      5033      5032      5034      5033      5032      5035      5033      5032      5036
      5034      5032      5035      5034      5032      5036      5035      5032      5036
      5035      5037      5038      5035      5037      5039      5035      5037      5040
      5037      5040      5041      5037      5040      5042      5037      5040      5048
      5038      5037      5039      5038      5037      5040      5039      5037      5040
      5040      5042      5043      5040      5048      5049      5040      5048      5050
      5040      5048      5051      5041      5040      5042      5041      5040      5048
      5042      5040      5048      5042      5043      5044      5042      5043      5045
      5043      5045      5046      5043      5045      5047      5043      5045      5057
      5044      5043      5045      5045      5057      5058      5045      5057      5059
      5045      5057      5060      5046      5045      5047      5046      5045      5057
      5047      5045      5057      5048      5051      5052      5049      5048      5050
      5049      5048      5051      5050      5048      5051      5051      5052      5053
      5051      5052      5054      5052      5054      5055      5052      5054      5056
      5052      5054      5098      5053      5052      5054      5054      5098      5099
      5054      5098      5100      5054      5098      5101      5055      5054      5056
      5055      5054      5098      5056      5054      5098      5057      5060      5061
      5057      5060      5062      5057      5060      5063      5058      5057      5059
      5058      5057      5060      5059      5057      5060      5060      5063      5064
      5060      5063      5065      5060      5063      5066      5061      5060      5062
      5061      5060      5063      5062      5060      5063      5063      5066      5067
      5063      5066      5068      5063      5066      5069      5064      5063      5065
      5064      5063      5066      5065      5063      5066      5066      5069      5070
      5066      5069      5071      5066      5069      5072      5067      5066      5068
      5067      5066      5069      5068      5066      5069      5069      5072      5073
      5069      5072      5074      5069      5072      5075      5070      5069      5071
      5070      5069      5072      5071      5069      5072      5072      5075      5076
      5072      5075      5077      5073      5072      5074      5073      5072      5075
      5074      5072      5075      5075      5077      5078      5075      5077      5079
      5076      5075      5077      5077      5079      5080      5077      5079      5081
      5077      5079      5082      5078      5077      5079      5079      5082      5083
      5079      5082      5084      5079      5082      5085      5080      5079      5081
      5080      5079      5082      5081      5079      5082      5082      5085      5086
      5082      5085      5087      5082      5085      5088      5083      5082      5084
      5083      5082      5085      5084      5082      5085      5085      5088      5089
      5085      5088      5090      5085      5088      5091      5086      5085      5087
      5086      5085      5088      5087      5085      5088      5088      5091      5092
      5088      5091      5093      5088      5091      5094      5089      5088      5090
      5089      5088      5091      5090      5088      5091      5091      5094      5095
      5091      5094      5096      5091      5094      5097      5092      5091      5093
      5092      5091      5094      5093      5091      5094      5095      5094      5096
      5095      5094      5097      5096      5094      5097      5098      5101      5102
      5098      5101      5103      5098      5101      5104      5099      5098      5100
      5099      5098      5101      5100      5098      5101      5101      5104      5105
      5101      5104      5106      5101      5104      5107      5102      5101      5103
      5102      5101      5104      5103      5101      5104      5104      5107      5108
      5104      5107      5109      5104      5107      5110      5105      5104      5106
      5105      5104      5107      5106      5104      5107      5107      5110      5111
      5107      5110      5112      5107      5110      5113      5108      5107      5109
      5108      5107      5110      5109      5107      5110      5110      5113      5114
      5110      5113      5115      5110      5113      5116      5111      5110      5112
      5111      5110      5113      5112      5110      5113      5113      5116      5117
      5113      5116      5118      5113      5116      5119      5114      5113      5115
      5114      5113      5116      5115      5113      5116      5116      5119      5120
      5116      5119      5121      5116      5119      5122      5117      5116      5118
      5117      5116      5119      5118      5116      5119      5119      5122      5123
      5119      5122      5124      5119      5122      5125      5120      5119      5121
      5120      5119      5122      5121      5119      5122      5122      5125      5126
      5122      5125      5127      5122      5125      5128      5123      5122      5124
      5123      5122      5125      5124      5122      5125      5125      5128      5129
      5125      5128      5130      5125      5128      5131      5126      5125      5127
      5126      5125      5128      5127      5125      5128      5128      5131      5132
      5128      5131      5133      5128      5131      5134      5129      5128      5130
      5129      5128      5131      5130      5128      5131      5131      5134      5135
      5131      5134      5136      5131      5134      5137      5132      5131      5133
      5132      5131      5134      5133      5131      5134      5134      5137      5138
      5134      5137      5139      5134      5137      5140      5135      5134      5136
      5135      5134      5137      5136      5134      5137      5138      5137      5139
      5138      5137      5140      5139      5137      5140      5141      5144      5145
      5141      5146      5147      5141      5146      5148      5141      5146      5150
      5142      5141      5143      5142      5141      5144      5142      5141      5146
      5143      5141      5144      5143      5141      5146      5144      5141      5146
      5146      5148      5149      5146      5150      5151      5146      5150      5152
      5146      5150      5157      5147      5146      5148      5147      5146      5150
      5148      5146      5150      5150      5157      5153      5151      5150      5152
      5151      5150      5157      5152      5150      5157      5153      5156      5158
      5154      5153      5155      5154      5153      5156      5154      5153      5157
      5155      5153      5156      5155      5153      5157      5156      5153      5157
      5156      5158      5159      5156      5158      5160      5156      5158      5161
      5158      5161      5162      5158      5161      5163      5158      5161      5169
      5159      5158      5160      5159      5158      5161      5160      5158      5161
      5161      5163      5164      5161      5169      5170      5161      5169      5171
      5161      5169      5172      5162      5161      5163      5162      5161      5169
      5163      5161      5169      5163      5164      5165      5163      5164      5166
      5164      5166      5167      5164      5166      5168      5164      5166      5178
      5165      5164      5166      5166      5178      5179      5166      5178      5180
      5166      5178      5181      5167      5166      5168      5167      5166      5178
      5168      5166      5178      5169      5172      5173      5170      5169      5171
      5170      5169      5172      5171      5169      5172      5172      5173      5174
      5172      5173      5175      5173      5175      5176      5173      5175      5177
      5173      5175      5222      5174      5173      5175      5175      5222      5223
      5175      5222      5224      5175      5222      5225      5176      5175      5177
      5176      5175      5222      5177      5175      5222      5178      5181      5182
      5178      5181      5183      5178      5181      5184      5179      5178      5180
      5179      5178      5181      5180      5178      5181      5181      5184      5185
      5181      5184      5186      5181      5184      5187      5182      5181      5183
      5182      5181      5184      5183      5181      5184      5184      5187      5188
      5184      5187      5189      5184      5187      5190      5185      5184      5186
      5185      5184      5187      5186      5184      5187      5187      5190      5191
      5187      5190      5192      5187      5190      5193      5188      5187      5189
      5188      5187      5190      5189      5187      5190      5190      5193      5194
      5190      5193      5195      5190      5193      5196      5191      5190      5192
      5191      5190      5193      5192      5190      5193      5193      5196      5197
      5193      5196      5198      5193      5196      5201      5194      5193      5195
      5194      5193      5196      5195      5193      5196      5196      5198      5199
      5196      5198      5200      5196      5198      5201      5196      5201      5198
      5196      5201      5202      5196      5201      5203      5197      5196      5198
      5197      5196      5201      5198      5196      5201      5198      5201      5202
      5198      5201      5203      5199      5198      5200      5199      5198      5201
      5200      5198      5201      5201      5203      5204      5201      5203      5205
      5201      5203      5206      5202      5201      5203      5203      5206      5207
      5203      5206      5208      5203      5206      5209      5204      5203      5205
      5204      5203      5206      5205      5203      5206      5206      5209      5210
      5206      5209      5211      5206      5209      5212      5207      5206      5208
      5207      5206      5209      5208      5206      5209      5209      5212      5213
      5209      5212      5214      5209      5212      5215      5210      5209      5211
      5210      5209      5212      5211      5209      5212      5212      5215      5216
      5212      5215      5217      5212      5215      5218      5213      5212      5214
      5213      5212      5215      5214      5212      5215      5215      5218      5219
      5215      5218      5220      5215      5218      5221      5216      5215      5217
      5216      5215      5218      5217      5215      5218      5219      5218      5220
      5219      5218      5221      5220      5218      5221      5222      5225      5226
      5222      5225      5227      5222      5225      5228      5223      5222      5224
      5223      5222      5225      5224      5222      5225      5225      5228      5229
      5225      5228      5230      5225      5228      5231      5226      5225      5227
      5226      5225      5228      5227      5225      5228      5228      5231      5232
      5228      5231      5233      5228      5231      5234      5229      5228      5230
      5229      5228      5231      5230      5228      5231      5231      5234      5235
      5231      5234      5236      5231      5234      5237      5232      5231      5233
      5232      5231      5234      5233      5231      5234      5234      5237      5238
      5234      5237      5239      5234      5237      5240      5235      5234      5236
      5235      5234      5237      5236      5234      5237      5237      5240      5241
      5237      5240      5242      5237      5240      5243      5238      5237      5239
      5238      5237      5240      5239      5237      5240      5240      5243      5244
      5240      5243      5245      5240      5243      5246      5241      5240      5242
      5241      5240      5243      5242      5240      5243      5243      5246      5247
      5243      5246      5248      5243      5246      5249      5244      5243      5245
      5244      5243      5246      5245      5243      5246      5246      5249      5250
      5246      5249      5251      5246      5249      5252      5247      5246      5248
      5247      5246      5249      5248      5246      5249      5249      5252      5253
      5249      5252      5254      5249      5252      5255      5250      5249      5251
      5250      5249      5252      5251      5249      5252      5252      5255      5256
      5252      5255      5257      5252      5255      5258      5253      5252      5254
      5253      5252      5255      5254      5252      5255      5255      5258      5259
      5255      5258      5260      5255      5258      5261      5256      5255      5257
      5256      5255      5258      5257      5255      5258      5258      5261      5262
      5258      5261      5263      5258      5261      5264      5259      5258      5260
      5259      5258      5261      5260      5258      5261      5262      5261      5263
      5262      5261      5264      5263      5261      5264      5265      5269      5270
      5265      5269      5271      5265      5269      5272      5266      5265      5267
      5266      5265      5268      5266      5265      5269      5267      5265      5268
      5267      5265      5269      5268      5265      5269      5269      5272      5273
      5269      5272      5274      5269      5272      5279      5270      5269      5271
      5270      5269      5272      5271      5269      5272      5272      5279      5275
      5273      5272      5274      5273      5272      5279      5274      5272      5279
      5275      5278      5280      5276      5275      5277      5276      5275      5278
      5276      5275      5279      5277      5275      5278      5277      5275      5279
      5278      5275      5279      5278      5280      5281      5278      5280      5282
      5278      5280      5283      5280      5283      5284      5280      5283      5285
      5280      5283      5291      5281      5280      5282      5281      5280      5283
      5282      5280      5283      5283      5285      5286      5283      5291      5292
      5283      5291      5293      5283      5291      5294      5284      5283      5285
      5284      5283      5291      5285      5283      5291      5285      5286      5287
      5285      5286      5288      5286      5288      5289      5286      5288      5290
      5286      5288      5300      5287      5286      5288      5288      5300      5301
      5288      5300      5302      5288      5300      5303      5289      5288      5290
      5289      5288      5300      5290      5288      5300      5291      5294      5295
      5292      5291      5293      5292      5291      5294      5293      5291      5294
      5294      5295      5296      5294      5295      5297      5295      5297      5298
      5295      5297      5299      5295      5297      5344      5296      5295      5297
      5297      5344      5345      5297      5344      5346      5297      5344      5347
      5298      5297      5299      5298      5297      5344      5299      5297      5344
      5300      5303      5304      5300      5303      5305      5300      5303      5306
      5301      5300      5302      5301      5300      5303      5302      5300      5303
      5303      5306      5307      5303      5306      5308      5303      5306      5309
      5304      5303      5305      5304      5303      5306      5305      5303      5306
      5306      5309      5310      5306      5309      5311      5306      5309      5312
      5307      5306      5308      5307      5306      5309      5308      5306      5309
      5309      5312      5313      5309      5312      5314      5309      5312      5315
      5310      5309      5311      5310      5309      5312      5311      5309      5312
      5312      5315      5316      5312      5315      5317      5312      5315      5318
      5313      5312      5314      5313      5312      5315      5314      5312      5315
      5315      5318      5319      5315      5318      5320      5315      5318      5323
      5316      5315      5317      5316      5315      5318      5317      5315      5318
      5318      5320      5321      5318      5320      5322      5318      5320      5323
      5318      5323      5320      5318      5323      5324      5318      5323      5325
      5319      5318      5320      5319      5318      5323      5320      5318      5323
      5320      5323      5324      5320      5323      5325      5321      5320      5322
      5321      5320      5323      5322      5320      5323      5323      5325      5326
      5323      5325      5327      5323      5325      5328      5324      5323      5325
      5325      5328      5329      5325      5328      5330      5325      5328      5331
      5326      5325      5327      5326      5325      5328      5327      5325      5328
      5328      5331      5332      5328      5331      5333      5328      5331      5334
      5329      5328      5330      5329      5328      5331      5330      5328      5331
      5331      5334      5335      5331      5334      5336      5331      5334      5337
      5332      5331      5333      5332      5331      5334      5333      5331      5334
      5334      5337      5338      5334      5337      5339      5334      5337      5340
      5335      5334      5336      5335      5334      5337      5336      5334      5337
      5337      5340      5341      5337      5340      5342      5337      5340      5343
      5338      5337      5339      5338      5337      5340      5339      5337      5340
      5341      5340      5342      5341      5340      5343      5342      5340      5343
      5344      5347      5348      5344      5347      5349      5344      5347      5350
      5345      5344      5346      5345      5344      5347      5346      5344      5347
      5347      5350      5351      5347      5350      5352      5347      5350      5353
      5348      5347      5349      5348      5347      5350      5349      5347      5350
      5350      5353      5354      5350      5353      5355      5350      5353      5356
      5351      5350      5352      5351      5350      5353      5352      5350      5353
      5353      5356      5357      5353      5356      5358      5353      5356      5359
      5354      5353      5355      5354      5353      5356      5355      5353      5356
      5356      5359      5360      5356      5359      5361      5356      5359      5362
      5357      5356      5358      5357      5356      5359      5358      5356      5359
      5359      5362      5363      5359      5362      5364      5359      5362      5365
      5360      5359      5361      5360      5359      5362      5361      5359      5362
      5362      5365      5366      5362      5365      5367      5362      5365      5368
      5363      5362      5364      5363      5362      5365      5364      5362      5365
      5365      5368      5369      5365      5368      5370      5365      5368      5371
      5366      5365      5367      5366      5365      5368      5367      5365      5368
      5368      5371      5372      5368      5371      5373      5368      5371      5374
      5369      5368      5370      5369      5368      5371      5370      5368      5371
      5371      5374      5375      5371      5374      5376      5371      5374      5377
      5372      5371      5373      5372      5371      5374      5373      5371      5374
      5374      5377      5378      5374      5377      5379      5374      5377      5380
      5375      5374      5376      5375      5374      5377      5376      5374      5377
      5377      5380      5381      5377      5380      5382      5377      5380      5383
      5378      5377      5379      5378      5377      5380      5379      5377      5380
      5380      5383      5384      5380      5383      5385      5380      5383      5386
      5381      5380      5382      5381      5380      5383      5382      5380      5383
      5384      5383      5385      5384      5383      5386      5385      5383      5386
      5387      5391      5392      5387      5391      5393      5387      5391      5394
      5388      5387      5389      5388      5387      5390      5388      5387      5391
      5389      5387      5390      5389      5387      5391      5390      5387      5391
      5391      5394      5395      5391      5394      5396      5391      5394      5401
      5392      5391      5393      5392      5391      5394      5393      5391      5394
      5394      5401      5397      5395      5394      5396      5395      5394      5401
      5396      5394      5401      5397      5400      5402      5398      5397      5399
      5398      5397      5400      5398      5397      5401      5399      5397      5400
      5399      5397      5401      5400      5397      5401      5400      5402      5403
      5400      5402      5404      5400      5402      5405      5402      5405      5406
      5402      5405      5407      5402      5405      5413      5403      5402      5404
      5403      5402      5405      5404      5402      5405      5405      5407      5408
      5405      5413      5414      5405      5413      5415      5405      5413      5416
      5406      5405      5407      5406      5405      5413      5407      5405      5413
      5407      5408      5409      5407      5408      5410      5408      5410      5411
      5408      5410      5412      5408      5410      5422      5409      5408      5410
      5410      5422      5423      5410      5422      5424      5410      5422      5425
      5411      5410      5412      5411      5410      5422      5412      5410      5422
      5413      5416      5417      5414      5413      5415      5414      5413      5416
      5415      5413      5416      5416      5417      5418      5416      5417      5419
      5417      5419      5420      5417      5419      5421      5417      5419      5466
      5418      5417      5419      5419      5466      5467      5419      5466      5468
      5419      5466      5469      5420      5419      5421      5420      5419      5466
      5421      5419      5466      5422      5425      5426      5422      5425      5427
      5422      5425      5428      5423      5422      5424      5423      5422      5425
      5424      5422      5425      5425      5428      5429      5425      5428      5430
      5425      5428      5431      5426      5425      5427      5426      5425      5428
      5427      5425      5428      5428      5431      5432      5428      5431      5433
      5428      5431      5434      5429      5428      5430      5429      5428      5431
      5430      5428      5431      5431      5434      5435      5431      5434      5436
      5431      5434      5437      5432      5431      5433      5432      5431      5434
      5433      5431      5434      5434      5437      5438      5434      5437      5439
      5434      5437      5440      5435      5434      5436      5435      5434      5437
      5436      5434      5437      5437      5440      5441      5437      5440      5442
      5437      5440      5445      5438      5437      5439      5438      5437      5440
      5439      5437      5440      5440      5442      5443      5440      5442      5444
      5440      5442      5445      5440      5445      5442      5440      5445      5446
      5440      5445      5447      5441      5440      5442      5441      5440      5445
      5442      5440      5445      5442      5445      5446      5442      5445      5447
      5443      5442      5444      5443      5442      5445      5444      5442      5445
      5445      5447      5448      5445      5447      5449      5445      5447      5450
      5446      5445      5447      5447      5450      5451      5447      5450      5452
      5447      5450      5453      5448      5447      5449      5448      5447      5450
      5449      5447      5450      5450      5453      5454      5450      5453      5455
      5450      5453      5456      5451      5450      5452      5451      5450      5453
      5452      5450      5453      5453      5456      5457      5453      5456      5458
      5453      5456      5459      5454      5453      5455      5454      5453      5456
      5455      5453      5456      5456      5459      5460      5456      5459      5461
      5456      5459      5462      5457      5456      5458      5457      5456      5459
      5458      5456      5459      5459      5462      5463      5459      5462      5464
      5459      5462      5465      5460      5459      5461      5460      5459      5462
      5461      5459      5462      5463      5462      5464      5463      5462      5465
      5464      5462      5465      5466      5469      5470      5466      5469      5471
      5466      5469      5472      5467      5466      5468      5467      5466      5469
      5468      5466      5469      5469      5472      5473      5469      5472      5474
      5469      5472      5475      5470      5469      5471      5470      5469      5472
      5471      5469      5472      5472      5475      5476      5472      5475      5477
      5472      5475      5478      5473      5472      5474      5473      5472      5475
      5474      5472      5475      5475      5478      5479      5475      5478      5480
      5475      5478      5481      5476      5475      5477      5476      5475      5478
      5477      5475      5478      5478      5481      5482      5478      5481      5483
      5478      5481      5484      5479      5478      5480      5479      5478      5481
      5480      5478      5481      5481      5484      5485      5481      5484      5486
      5481      5484      5487      5482      5481      5483      5482      5481      5484
      5483      5481      5484      5484      5487      5488      5484      5487      5489
      5484      5487      5490      5485      5484      5486      5485      5484      5487
      5486      5484      5487      5487      5490      5491      5487      5490      5492
      5487      5490      5493      5488      5487      5489      5488      5487      5490
      5489      5487      5490      5490      5493      5494      5490      5493      5495
      5490      5493      5496      5491      5490      5492      5491      5490      5493
      5492      5490      5493      5493      5496      5497      5493      5496      5498
      5493      5496      5499      5494      5493      5495      5494      5493      5496
      5495      5493      5496      5496      5499      5500      5496      5499      5501
      5496      5499      5502      5497      5496      5498      5497      5496      5499
      5498      5496      5499      5499      5502      5503      5499      5502      5504
      5499      5502      5505      5500      5499      5501      5500      5499      5502
      5501      5499      5502      5503      5502      5504      5503      5502      5505
      5504      5502      5505      5506      5512      5509      5506      5517      5518
      5506      5517      5519      5506      5517      5521      5507      5506      5508
      5507      5506      5512      5507      5506      5517      5508      5506      5512
      5508      5506      5517      5509      5513      5514      5510      5509      5511
      5510      5509      5512      5510      5509      5513      5511      5509      5512
      5511      5509      5513      5512      5506      5517      5512      5509      5513
      5513      5514      5515      5513      5514      5516      5513      5514      5549
      5514      5549      5550      5514      5549      5551      5514      5549      5557
      5515      5514      5516      5515      5514      5549      5516      5514      5549
      5517      5519      5520      5517      5521      5522      5517      5521      5523
      5517      5521      5527      5518      5517      5519      5518      5517      5521
      5519      5517      5521      5521      5527      5524      5522      5521      5523
      5522      5521      5527      5523      5521      5527      5524      5528      5529
      5525      5524      5526      5525      5524      5527      5525      5524      5528
      5526      5524      5527      5526      5524      5528      5527      5524      5528
      5528      5529      5530      5528      5529      5531      5528      5529      5532
      5529      5532      5533      5529      5532      5534      5529      5532      5540
      5530      5529      5531      5530      5529      5532      5531      5529      5532
      5532      5534      5535      5532      5540      5541      5532      5540      5542
      5532      5540      5543      5533      5532      5534      5533      5532      5540
      5534      5532      5540      5534      5535      5536      5534      5535      5537
      5535      5537      5538      5535      5537      5539      5535      5537      5566
      5536      5535      5537      5537      5566      5567      5537      5566      5568
      5537      5566      5569      5538      5537      5539      5538      5537      5566
      5539      5537      5566      5540      5543      5544      5541      5540      5542
      5541      5540      5543      5542      5540      5543      5543      5544      5545
      5543      5544      5546      5544      5546      5547      5544      5546      5548
      5544      5546      5613      5545      5544      5546      5546      5613      5614
      5546      5613      5615      5546      5613      5616      5547      5546      5548
      5547      5546      5613      5548      5546      5613      5549      5551      5552
      5549      5557      5558      5549      5557      5559      5549      5557      5560
      5550      5549      5551      5550      5549      5557      5551      5549      5557
      5551      5552      5553      5551      5552      5554      5552      5554      5555
      5552      5554      5556      5552      5554      5656      5553      5552      5554
      5554      5656      5657      5554      5656      5658      5554      5656      5659
      5555      5554      5556      5555      5554      5656      5556      5554      5656
      5557      5560      5561      5558      5557      5559      5558      5557      5560
      5559      5557      5560      5560      5561      5562      5560      5561      5563
      5561      5563      5564      5561      5563      5565      5561      5563      5703
      5562      5561      5563      5563      5703      5704      5563      5703      5705
      5563      5703      5706      5564      5563      5565      5564      5563      5703
      5565      5563      5703      5566      5569      5570      5566      5569      5571
      5566      5569      5572      5567      5566      5568      5567      5566      5569
      5568      5566      5569      5569      5572      5573      5569      5572      5574
      5569      5572      5575      5570      5569      5571      5570      5569      5572
      5571      5569      5572      5572      5575      5576      5572      5575      5577
      5572      5575      5578      5573      5572      5574      5573      5572      5575
      5574      5572      5575      5575      5578      5579      5575      5578      5580
      5575      5578      5581      5576      5575      5577      5576      5575      5578
      5577      5575      5578      5578      5581      5582      5578      5581      5583
      5578      5581      5584      5579      5578      5580      5579      5578      5581
      5580      5578      5581      5581      5584      5585      5581      5584      5586
      5581      5584      5587      5582      5581      5583      5582      5581      5584
      5583      5581      5584      5584      5587      5588      5584      5587      5589
      5584      5587      5590      5585      5584      5586      5585      5584      5587
      5586      5584      5587      5587      5590      5591      5587      5590      5592
      5588      5587      5589      5588      5587      5590      5589      5587      5590
      5590      5592      5593      5590      5592      5594      5591      5590      5592
      5592      5594      5595      5592      5594      5596      5592      5594      5597
      5593      5592      5594      5594      5597      5598      5594      5597      5599
      5594      5597      5600      5595      5594      5596      5595      5594      5597
      5596      5594      5597      5597      5600      5601      5597      5600      5602
      5597      5600      5603      5598      5597      5599      5598      5597      5600
      5599      5597      5600      5600      5603      5604      5600      5603      5605
      5600      5603      5606      5601      5600      5602      5601      5600      5603
      5602      5600      5603      5603      5606      5607      5603      5606      5608
      5603      5606      5609      5604      5603      5605      5604      5603      5606
      5605      5603      5606      5606      5609      5610      5606      5609      5611
      5606      5609      5612      5607      5606      5608      5607      5606      5609
      5608      5606      5609      5610      5609      5611      5610      5609      5612
      5611      5609      5612      5613      5616      5617      5613      5616      5618
      5613      5616      5619      5614      5613      5615      5614      5613      5616
      5615      5613      5616      5616      5619      5620      5616      5619      5621
      5616      5619      5622      5617      5616      5618      5617      5616      5619
      5618      5616      5619      5619      5622      5623      5619      5622      5624
      5619      5622      5625      5620      5619      5621      5620      5619      5622
      5621      5619      5622      5622      5625      5626      5622      5625      5627
      5622      5625      5628      5623      5622      5624      5623      5622      5625
      5624      5622      5625      5625      5628      5629      5625      5628      5630
      5625      5628      5631      5626      5625      5627      5626      5625      5628
      5627      5625      5628      5628      5631      5632      5628      5631      5633
      5628      5631      5634      5629      5628      5630      5629      5628      5631
      5630      5628      5631      5631      5634      5635      5631      5634      5636
      5631      5634      5637      5632      5631      5633      5632      5631      5634
      5633      5631      5634      5634      5637      5638      5634      5637      5639
      5634      5637      5640      5635      5634      5636      5635      5634      5637
      5636      5634      5637      5637      5640      5641      5637      5640      5642
      5637      5640      5643      5638      5637      5639      5638      5637      5640
      5639      5637      5640      5640      5643      5644      5640      5643      5645
      5640      5643      5646      5641      5640      5642      5641      5640      5643
      5642      5640      5643      5643      5646      5647      5643      5646      5648
      5643      5646      5649      5644      5643      5645      5644      5643      5646
      5645      5643      5646      5646      5649      5650      5646      5649      5651
      5646      5649      5652      5647      5646      5648      5647      5646      5649
      5648      5646      5649      5649      5652      5653      5649      5652      5654
      5649      5652      5655      5650      5649      5651      5650      5649      5652
      5651      5649      5652      5653      5652      5654      5653      5652      5655
      5654      5652      5655      5656      5659      5660      5656      5659      5661
      5656      5659      5662      5657      5656      5658      5657      5656      5659
      5658      5656      5659      5659      5662      5663      5659      5662      5664
      5659      5662      5665      5660      5659      5661      5660      5659      5662
      5661      5659      5662      5662      5665      5666      5662      5665      5667
      5662      5665      5668      5663      5662      5664      5663      5662      5665
      5664      5662      5665      5665      5668      5669      5665      5668      5670
      5665      5668      5671      5666      5665      5667      5666      5665      5668
      5667      5665      5668      5668      5671      5672      5668      5671      5673
      5668      5671      5674      5669      5668      5670      5669      5668      5671
      5670      5668      5671      5671      5674      5675      5671      5674      5676
      5671      5674      5677      5672      5671      5673      5672      5671      5674
      5673      5671      5674      5674      5677      5678      5674      5677      5679
      5674      5677      5680      5675      5674      5676      5675      5674      5677
      5676      5674      5677      5677      5680      5681      5677      5680      5682
      5678      5677      5679      5678      5677      5680      5679      5677      5680
      5680      5682      5683      5680      5682      5684      5681      5680      5682
      5682      5684      5685      5682      5684      5686      5682      5684      5687
      5683      5682      5684      5684      5687      5688      5684      5687      5689
      5684      5687      5690      5685      5684      5686      5685      5684      5687
      5686      5684      5687      5687      5690      5691      5687      5690      5692
      5687      5690      5693      5688      5687      5689      5688      5687      5690
      5689      5687      5690      5690      5693      5694      5690      5693      5695
      5690      5693      5696      5691      5690      5692      5691      5690      5693
      5692      5690      5693      5693      5696      5697      5693      5696      5698
      5693      5696      5699      5694      5693      5695      5694      5693      5696
      5695      5693      5696      5696      5699      5700      5696      5699      5701
      5696      5699      5702      5697      5696      5698      5697      5696      5699
      5698      5696      5699      5700      5699      5701      5700      5699      5702
      5701      5699      5702      5703      5706      5707      5703      5706      5708
      5703      5706      5709      5704      5703      5705      5704      5703      5706
      5705      5703      5706      5706      5709      5710      5706      5709      5711
      5706      5709      5712      5707      5706      5708      5707      5706      5709
      5708      5706      5709      5709      5712      5713      5709      5712      5714
      5709      5712      5715      5710      5709      5711      5710      5709      5712
      5711      5709      5712      5712      5715      5716      5712      5715      5717
      5712      5715      5718      5713      5712      5714      5713      5712      5715
      5714      5712      5715      5715      5718      5719      5715      5718      5720
      5715      5718      5721      5716      5715      5717      5716      5715      5718
      5717      5715      5718      5718      5721      5722      5718      5721      5723
      5718      5721      5724      5719      5718      5720      5719      5718      5721
      5720      5718      5721      5721      5724      5725      5721      5724      5726
      5721      5724      5727      5722      5721      5723      5722      5721      5724
      5723      5721      5724      5724      5727      5728      5724      5727      5729
      5724      5727      5730      5725      5724      5726      5725      5724      5727
      5726      5724      5727      5727      5730      5731      5727      5730      5732
      5727      5730      5733      5728      5727      5729      5728      5727      5730
      5729      5727      5730      5730      5733      5734      5730      5733      5735
      5730      5733      5736      5731      5730      5732      5731      5730      5733
      5732      5730      5733      5733      5736      5737      5733      5736      5738
      5733      5736      5739      5734      5733      5735      5734      5733      5736
      5735      5733      5736      5736      5739      5740      5736      5739      5741
      5736      5739      5742      5737      5736      5738      5737      5736      5739
      5738      5736      5739      5739      5742      5743      5739      5742      5744
      5739      5742      5745      5740      5739      5741      5740      5739      5742
      5741      5739      5742      5743      5742      5744      5743      5742      5745
      5744      5742      5745      5746      5750      5751      5746      5750      5752
      5746      5750      5753      5747      5746      5748      5747      5746      5749
      5747      5746      5750      5748      5746      5749      5748      5746      5750
      5749      5746      5750      5750      5753      5754      5750      5753      5755
      5750      5753      5760      5751      5750      5752      5751      5750      5753
      5752      5750      5753      5753      5760      5756      5754      5753      5755
      5754      5753      5760      5755      5753      5760      5756      5759      5761
      5757      5756      5758      5757      5756      5759      5757      5756      5760
      5758      5756      5759      5758      5756      5760      5759      5756      5760
      5759      5761      5762      5759      5761      5763      5759      5761      5764
      5761      5764      5765      5761      5764      5766      5761      5764      5772
      5762      5761      5763      5762      5761      5764      5763      5761      5764
      5764      5766      5767      5764      5772      5773      5764      5772      5774
      5764      5772      5775      5765      5764      5766      5765      5764      5772
      5766      5764      5772      5766      5767      5768      5766      5767      5769
      5767      5769      5770      5767      5769      5771      5767      5769      5781
      5768      5767      5769      5769      5781      5782      5769      5781      5783
      5769      5781      5784      5770      5769      5771      5770      5769      5781
      5771      5769      5781      5772      5775      5776      5773      5772      5774
      5773      5772      5775      5774      5772      5775      5775      5776      5777
      5775      5776      5778      5776      5778      5779      5776      5778      5780
      5776      5778      5825      5777      5776      5778      5778      5825      5826
      5778      5825      5827      5778      5825      5828      5779      5778      5780
      5779      5778      5825      5780      5778      5825      5781      5784      5785
      5781      5784      5786      5781      5784      5787      5782      5781      5783
      5782      5781      5784      5783      5781      5784      5784      5787      5788
      5784      5787      5789      5784      5787      5790      5785      5784      5786
      5785      5784      5787      5786      5784      5787      5787      5790      5791
      5787      5790      5792      5787      5790      5793      5788      5787      5789
      5788      5787      5790      5789      5787      5790      5790      5793      5794
      5790      5793      5795      5790      5793      5796      5791      5790      5792
      5791      5790      5793      5792      5790      5793      5793      5796      5797
      5793      5796      5798      5793      5796      5799      5794      5793      5795
      5794      5793      5796      5795      5793      5796      5796      5799      5800
      5796      5799      5801      5796      5799      5804      5797      5796      5798
      5797      5796      5799      5798      5796      5799      5799      5801      5802
      5799      5801      5803      5799      5801      5804      5799      5804      5801
      5799      5804      5805      5799      5804      5806      5800      5799      5801
      5800      5799      5804      5801      5799      5804      5801      5804      5805
      5801      5804      5806      5802      5801      5803      5802      5801      5804
      5803      5801      5804      5804      5806      5807      5804      5806      5808
      5804      5806      5809      5805      5804      5806      5806      5809      5810
      5806      5809      5811      5806      5809      5812      5807      5806      5808
      5807      5806      5809      5808      5806      5809      5809      5812      5813
      5809      5812      5814      5809      5812      5815      5810      5809      5811
      5810      5809      5812      5811      5809      5812      5812      5815      5816
      5812      5815      5817      5812      5815      5818      5813      5812      5814
      5813      5812      5815      5814      5812      5815      5815      5818      5819
      5815      5818      5820      5815      5818      5821      5816      5815      5817
      5816      5815      5818      5817      5815      5818      5818      5821      5822
      5818      5821      5823      5818      5821      5824      5819      5818      5820
      5819      5818      5821      5820      5818      5821      5822      5821      5823
      5822      5821      5824      5823      5821      5824      5825      5828      5829
      5825      5828      5830      5825      5828      5831      5826      5825      5827
      5826      5825      5828      5827      5825      5828      5828      5831      5832
      5828      5831      5833      5828      5831      5834      5829      5828      5830
      5829      5828      5831      5830      5828      5831      5831      5834      5835
      5831      5834      5836      5831      5834      5837      5832      5831      5833
      5832      5831      5834      5833      5831      5834      5834      5837      5838
      5834      5837      5839      5834      5837      5840      5835      5834      5836
      5835      5834      5837      5836      5834      5837      5837      5840      5841
      5837      5840      5842      5837      5840      5843      5838      5837      5839
      5838      5837      5840      5839      5837      5840      5840      5843      5844
      5840      5843      5845      5840      5843      5846      5841      5840      5842
      5841      5840      5843      5842      5840      5843      5843      5846      5847
      5843      5846      5848      5843      5846      5849      5844      5843      5845
      5844      5843      5846      5845      5843      5846      5846      5849      5850
      5846      5849      5851      5846      5849      5852      5847      5846      5848
      5847      5846      5849      5848      5846      5849      5849      5852      5853
      5849      5852      5854      5849      5852      5855      5850      5849      5851
      5850      5849      5852      5851      5849      5852      5852      5855      5856
      5852      5855      5857      5852      5855      5858      5853      5852      5854
      5853      5852      5855      5854      5852      5855      5855      5858      5859
      5855      5858      5860      5855      5858      5861      5856      5855      5857
      5856      5855      5858      5857      5855      5858      5858      5861      5862
      5858      5861      5863      5858      5861      5864      5859      5858      5860
      5859      5858      5861      5860      5858      5861      5861      5864      5865
      5861      5864      5866      5861      5864      5867      5862      5861      5863
      5862      5861      5864      5863      5861      5864      5865      5864      5866
      5865      5864      5867      5866      5864      5867      5868      5872      5873
      5868      5872      5874      5868      5872      5875      5869      5868      5870
      5869      5868      5871      5869      5868      5872      5870      5868      5871
      5870      5868      5872      5871      5868      5872      5872      5875      5876
      5872      5875      5877      5872      5875      5882      5873      5872      5874
      5873      5872      5875      5874      5872      5875      5875      5882      5878
      5876      5875      5877      5876      5875      5882      5877      5875      5882
      5878      5881      5883      5879      5878      5880      5879      5878      5881
      5879      5878      5882      5880      5878      5881      5880      5878      5882
      5881      5878      5882      5881      5883      5884      5881      5883      5885
      5881      5883      5886      5883      5886      5887      5883      5886      5888
      5883      5886      5894      5884      5883      5885      5884      5883      5886
      5885      5883      5886      5886      5888      5889      5886      5894      5895
      5886      5894      5896      5886      5894      5897      5887      5886      5888
      5887      5886      5894      5888      5886      5894      5888      5889      5890
      5888      5889      5891      5889      5891      5892      5889      5891      5893
      5889      5891      5903      5890      5889      5891      5891      5903      5904
      5891      5903      5905      5891      5903      5906      5892      5891      5893
      5892      5891      5903      5893      5891      5903      5894      5897      5898
      5895      5894      5896      5895      5894      5897      5896      5894      5897
      5897      5898      5899      5897      5898      5900      5898      5900      5901
      5898      5900      5902      5898      5900      5947      5899      5898      5900
      5900      5947      5948      5900      5947      5949      5900      5947      5950
      5901      5900      5902      5901      5900      5947      5902      5900      5947
      5903      5906      5907      5903      5906      5908      5903      5906      5909
      5904      5903      5905      5904      5903      5906      5905      5903      5906
      5906      5909      5910      5906      5909      5911      5906      5909      5912
      5907      5906      5908      5907      5906      5909      5908      5906      5909
      5909      5912      5913      5909      5912      5914      5909      5912      5915
      5910      5909      5911      5910      5909      5912      5911      5909      5912
      5912      5915      5916      5912      5915      5917      5912      5915      5918
      5913      5912      5914      5913      5912      5915      5914      5912      5915
      5915      5918      5919      5915      5918      5920      5915      5918      5921
      5916      5915      5917      5916      5915      5918      5917      5915      5918
      5918      5921      5922      5918      5921      5923      5918      5921      5926
      5919      5918      5920      5919      5918      5921      5920      5918      5921
      5921      5923      5924      5921      5923      5925      5921      5923      5926
      5921      5926      5923      5921      5926      5927      5921      5926      5928
      5922      5921      5923      5922      5921      5926      5923      5921      5926
      5923      5926      5927      5923      5926      5928      5924      5923      5925
      5924      5923      5926      5925      5923      5926      5926      5928      5929
      5926      5928      5930      5926      5928      5931      5927      5926      5928
      5928      5931      5932      5928      5931      5933      5928      5931      5934
      5929      5928      5930      5929      5928      5931      5930      5928      5931
      5931      5934      5935      5931      5934      5936      5931      5934      5937
      5932      5931      5933      5932      5931      5934      5933      5931      5934
      5934      5937      5938      5934      5937      5939      5934      5937      5940
      5935      5934      5936      5935      5934      5937      5936      5934      5937
      5937      5940      5941      5937      5940      5942      5937      5940      5943
      5938      5937      5939      5938      5937      5940      5939      5937      5940
      5940      5943      5944      5940      5943      5945      5940      5943      5946
      5941      5940      5942      5941      5940      5943      5942      5940      5943
      5944      5943      5945      5944      5943      5946      5945      5943      5946
      5947      5950      5951      5947      5950      5952      5947      5950      5953
      5948      5947      5949      5948      5947      5950      5949      5947      5950
      5950      5953      5954      5950      5953      5955      5950      5953      5956
      5951      5950      5952      5951      5950      5953      5952      5950      5953
      5953      5956      5957      5953      5956      5958      5953      5956      5959
      5954      5953      5955      5954      5953      5956      5955      5953      5956
      5956      5959      5960      5956      5959      5961      5956      5959      5962
      5957      5956      5958      5957      5956      5959      5958      5956      5959
      5959      5962      5963      5959      5962      5964      5959      5962      5965
      5960      5959      5961      5960      5959      5962      5961      5959      5962
      5962      5965      5966      5962      5965      5967      5962      5965      5968
      5963      5962      5964      5963      5962      5965      5964      5962      5965
      5965      5968      5969      5965      5968      5970      5965      5968      5971
      5966      5965      5967      5966      5965      5968      5967      5965      5968
      5968      5971      5972      5968      5971      5973      5968      5971      5974
      5969      5968      5970      5969      5968      5971      5970      5968      5971
      5971      5974      5975      5971      5974      5976      5971      5974      5977
      5972      5971      5973      5972      5971      5974      5973      5971      5974
      5974      5977      5978      5974      5977      5979      5974      5977      5980
      5975      5974      5976      5975      5974      5977      5976      5974      5977
      5977      5980      5981      5977      5980      5982      5977      5980      5983
      5978      5977      5979      5978      5977      5980      5979      5977      5980
      5980      5983      5984      5980      5983      5985      5980      5983      5986
      5981      5980      5982      5981      5980      5983      5982      5980      5983
      5983      5986      5987      5983      5986      5988      5983      5986      5989
      5984      5983      5985      5984      5983      5986      5985      5983      5986
      5987      5986      5988      5987      5986      5989      5988      5986      5989
      5990      5994      5995      5990      5994      5996      5990      5994      5997
      5991      5990      5992      5991      5990      5993      5991      5990      5994
      5992      5990      5993      5992      5990      5994      5993      5990      5994
      5994      5997      5998      5994      5997      5999      5994      5997      6004
      5995      5994      5996      5995      5994      5997      5996      5994      5997
      5997      6004      6000      5998      5997      5999      5998      5997      6004
      5999      5997      6004      6000      6003      6005      6001      6000      6002
      6001      6000      6003      6001      6000      6004      6002      6000      6003
      6002      6000      6004      6003      6000      6004      6003      6005      6006
      6003      6005      6007      6003      6005      6008      6005      6008      6009
      6005      6008      6010      6005      6008      6016      6006      6005      6007
      6006      6005      6008      6007      6005      6008      6008      6010      6011
      6008      6016      6017      6008      6016      6018      6008      6016      6019
      6009      6008      6010      6009      6008      6016      6010      6008      6016
      6010      6011      6012      6010      6011      6013      6011      6013      6014
      6011      6013      6015      6011      6013      6025      6012      6011      6013
      6013      6025      6026      6013      6025      6027      6013      6025      6028
      6014      6013      6015      6014      6013      6025      6015      6013      6025
      6016      6019      6020      6017      6016      6018      6017      6016      6019
      6018      6016      6019      6019      6020      6021      6019      6020      6022
      6020      6022      6023      6020      6022      6024      6020      6022      6072
      6021      6020      6022      6022      6072      6073      6022      6072      6074
      6022      6072      6075      6023      6022      6024      6023      6022      6072
      6024      6022      6072      6025      6028      6029      6025      6028      6030
      6025      6028      6031      6026      6025      6027      6026      6025      6028
      6027      6025      6028      6028      6031      6032      6028      6031      6033
      6028      6031      6034      6029      6028      6030      6029      6028      6031
      6030      6028      6031      6031      6034      6035      6031      6034      6036
      6031      6034      6037      6032      6031      6033      6032      6031      6034
      6033      6031      6034      6034      6037      6038      6034      6037      6039
      6034      6037      6040      6035      6034      6036      6035      6034      6037
      6036      6034      6037      6037      6040      6041      6037      6040      6042
      6037      6040      6043      6038      6037      6039      6038      6037      6040
      6039      6037      6040      6040      6043      6044      6040      6043      6045
      6041      6040      6042      6041      6040      6043      6042      6040      6043
      6043      6045      6046      6043      6045      6047      6044      6043      6045
      6045      6047      6048      6045      6047      6049      6045      6047      6050
      6046      6045      6047      6047      6050      6051      6047      6050      6052
      6047      6050      6053      6048      6047      6049      6048      6047      6050
      6049      6047      6050      6050      6053      6054      6050      6053      6055
      6050      6053      6056      6051      6050      6052      6051      6050      6053
      6052      6050      6053      6053      6056      6057      6053      6056      6058
      6053      6056      6059      6054      6053      6055      6054      6053      6056
      6055      6053      6056      6056      6059      6060      6056      6059      6061
      6056      6059      6062      6057      6056      6058      6057      6056      6059
      6058      6056      6059      6059      6062      6063      6059      6062      6064
      6059      6062      6065      6060      6059      6061      6060      6059      6062
      6061      6059      6062      6062      6065      6066      6062      6065      6067
      6062      6065      6068      6063      6062      6064      6063      6062      6065
      6064      6062      6065      6065      6068      6069      6065      6068      6070
      6065      6068      6071      6066      6065      6067      6066      6065      6068
      6067      6065      6068      6069      6068      6070      6069      6068      6071
      6070      6068      6071      6072      6075      6076      6072      6075      6077
      6072      6075      6078      6073      6072      6074      6073      6072      6075
      6074      6072      6075      6075      6078      6079      6075      6078      6080
      6075      6078      6081      6076      6075      6077      6076      6075      6078
      6077      6075      6078      6078      6081      6082      6078      6081      6083
      6078      6081      6084      6079      6078      6080      6079      6078      6081
      6080      6078      6081      6081      6084      6085      6081      6084      6086
      6081      6084      6087      6082      6081      6083      6082      6081      6084
      6083      6081      6084      6084      6087      6088      6084      6087      6089
      6084      6087      6090      6085      6084      6086      6085      6084      6087
      6086      6084      6087      6087      6090      6091      6087      6090      6092
      6087      6090      6093      6088      6087      6089      6088      6087      6090
      6089      6087      6090      6090      6093      6094      6090      6093      6095
      6090      6093      6096      6091      6090      6092      6091      6090      6093
      6092      6090      6093      6093      6096      6097      6093      6096      6098
      6093      6096      6099      6094      6093      6095      6094      6093      6096
      6095      6093      6096      6096      6099      6100      6096      6099      6101
      6096      6099      6102      6097      6096      6098      6097      6096      6099
      6098      6096      6099      6099      6102      6103      6099      6102      6104
      6099      6102      6105      6100      6099      6101      6100      6099      6102
      6101      6099      6102      6102      6105      6106      6102      6105      6107
      6102      6105      6108      6103      6102      6104      6103      6102      6105
      6104      6102      6105      6105      6108      6109      6105      6108      6110
      6105      6108      6111      6106      6105      6107      6106      6105      6108
      6107      6105      6108      6108      6111      6112      6108      6111      6113
      6108      6111      6114      6109      6108      6110      6109      6108      6111
      6110      6108      6111      6112      6111      6113      6112      6111      6114
      6113      6111      6114      6115      6119      6120      6115      6119      6121
      6115      6119      6122      6116      6115      6117      6116      6115      6118
      6116      6115      6119      6117      6115      6118      6117      6115      6119
      6118      6115      6119      6119      6122      6123      6119      6122      6124
      6119      6122      6129      6120      6119      6121      6120      6119      6122
      6121      6119      6122      6122      6129      6125      6123      6122      6124
      6123      6122      6129      6124      6122      6129      6125      6128      6130
      6126      6125      6127      6126      6125      6128      6126      6125      6129
      6127      6125      6128      6127      6125      6129      6128      6125      6129
      6128      6130      6131      6128      6130      6132      6128      6130      6133
      6130      6133      6134      6130      6133      6135      6130      6133      6141
      6131      6130      6132      6131      6130      6133      6132      6130      6133
      6133      6135      6136      6133      6141      6142      6133      6141      6143
      6133      6141      6144      6134      6133      6135      6134      6133      6141
      6135      6133      6141      6135      6136      6137      6135      6136      6138
      6136      6138      6139      6136      6138      6140      6136      6138      6150
      6137      6136      6138      6138      6150      6151      6138      6150      6152
      6138      6150      6153      6139      6138      6140      6139      6138      6150
      6140      6138      6150      6141      6144      6145      6142      6141      6143
      6142      6141      6144      6143      6141      6144      6144      6145      6146
      6144      6145      6147      6145      6147      6148      6145      6147      6149
      6145      6147      6194      6146      6145      6147      6147      6194      6195
      6147      6194      6196      6147      6194      6197      6148      6147      6149
      6148      6147      6194      6149      6147      6194      6150      6153      6154
      6150      6153      6155      6150      6153      6156      6151      6150      6152
      6151      6150      6153      6152      6150      6153      6153      6156      6157
      6153      6156      6158      6153      6156      6159      6154      6153      6155
      6154      6153      6156      6155      6153      6156      6156      6159      6160
      6156      6159      6161      6156      6159      6162      6157      6156      6158
      6157      6156      6159      6158      6156      6159      6159      6162      6163
      6159      6162      6164      6159      6162      6165      6160      6159      6161
      6160      6159      6162      6161      6159      6162      6162      6165      6166
      6162      6165      6167      6162      6165      6168      6163      6162      6164
      6163      6162      6165      6164      6162      6165      6165      6168      6169
      6165      6168      6170      6165      6168      6173      6166      6165      6167
      6166      6165      6168      6167      6165      6168      6168      6170      6171
      6168      6170      6172      6168      6170      6173      6168      6173      6170
      6168      6173      6174      6168      6173      6175      6169      6168      6170
      6169      6168      6173      6170      6168      6173      6170      6173      6174
      6170      6173      6175      6171      6170      6172      6171      6170      6173
      6172      6170      6173      6173      6175      6176      6173      6175      6177
      6173      6175      6178      6174      6173      6175      6175      6178      6179
      6175      6178      6180      6175      6178      6181      6176      6175      6177
      6176      6175      6178      6177      6175      6178      6178      6181      6182
      6178      6181      6183      6178      6181      6184      6179      6178      6180
      6179      6178      6181      6180      6178      6181      6181      6184      6185
      6181      6184      6186      6181      6184      6187      6182      6181      6183
      6182      6181      6184      6183      6181      6184      6184      6187      6188
      6184      6187      6189      6184      6187      6190      6185      6184      6186
      6185      6184      6187      6186      6184      6187      6187      6190      6191
      6187      6190      6192      6187      6190      6193      6188      6187      6189
      6188      6187      6190      6189      6187      6190      6191      6190      6192
      6191      6190      6193      6192      6190      6193      6194      6197      6198
      6194      6197      6199      6194      6197      6200      6195      6194      6196
      6195      6194      6197      6196      6194      6197      6197      6200      6201
      6197      6200      6202      6197      6200      6203      6198      6197      6199
      6198      6197      6200      6199      6197      6200      6200      6203      6204
      6200      6203      6205      6200      6203      6206      6201      6200      6202
      6201      6200      6203      6202      6200      6203      6203      6206      6207
      6203      6206      6208      6203      6206      6209      6204      6203      6205
      6204      6203      6206      6205      6203      6206      6206      6209      6210
      6206      6209      6211      6206      6209      6212      6207      6206      6208
      6207      6206      6209      6208      6206      6209      6209      6212      6213
      6209      6212      6214      6209      6212      6215      6210      6209      6211
      6210      6209      6212      6211      6209      6212      6212      6215      6216
      6212      6215      6217      6212      6215      6218      6213      6212      6214
      6213      6212      6215      6214      6212      6215      6215      6218      6219
      6215      6218      6220      6215      6218      6221      6216      6215      6217
      6216      6215      6218      6217      6215      6218      6218      6221      6222
      6218      6221      6223      6218      6221      6224      6219      6218      6220
      6219      6218      6221      6220      6218      6221      6221      6224      6225
      6221      6224      6226      6221      6224      6227      6222      6221      6223
      6222      6221      6224      6223      6221      6224      6224      6227      6228
      6224      6227      6229      6224      6227      6230      6225      6224      6226
      6225      6224      6227      6226      6224      6227      6227      6230      6231
      6227      6230      6232      6227      6230      6233      6228      6227      6229
      6228      6227      6230      6229      6227      6230      6230      6233      6234
      6230      6233      6235      6230      6233      6236      6231      6230      6232
      6231      6230      6233      6232      6230      6233      6234      6233      6235
      6234      6233      6236      6235      6233      6236      6237      6241      6242
      6237      6241      6243      6237      6241      6244      6238      6237      6239
      6238      6237      6240      6238      6237      6241      6239      6237      6240
      6239      6237      6241      6240      6237      6241      6241      6244      6245
      6241      6244      6246      6241      6244      6251      6242      6241      6243
      6242      6241      6244      6243      6241      6244      6244      6251      6247
      6245      6244      6246      6245      6244      6251      6246      6244      6251
      6247      6250      6252      6248      6247      6249      6248      6247      6250
      6248      6247      6251      6249      6247      6250      6249      6247      6251
      6250      6247      6251      6250      6252      6253      6250      6252      6254
      6250      6252      6255      6252      6255      6256      6252      6255      6257
      6252      6255      6263      6253      6252      6254      6253      6252      6255
      6254      6252      6255      6255      6257      6258      6255      6263      6264
      6255      6263      6265      6255      6263      6266      6256      6255      6257
      6256      6255      6263      6257      6255      6263      6257      6258      6259
      6257      6258      6260      6258      6260      6261      6258      6260      6262
      6258      6260      6272      6259      6258      6260      6260      6272      6273
      6260      6272      6274      6260      6272      6275      6261      6260      6262
      6261      6260      6272      6262      6260      6272      6263      6266      6267
      6264      6263      6265      6264      6263      6266      6265      6263      6266
      6266      6267      6268      6266      6267      6269      6267      6269      6270
      6267      6269      6271      6267      6269      6319      6268      6267      6269
      6269      6319      6320      6269      6319      6321      6269      6319      6322
      6270      6269      6271      6270      6269      6319      6271      6269      6319
      6272      6275      6276      6272      6275      6277      6272      6275      6278
      6273      6272      6274      6273      6272      6275      6274      6272      6275
      6275      6278      6279      6275      6278      6280      6275      6278      6281
      6276      6275      6277      6276      6275      6278      6277      6275      6278
      6278      6281      6282      6278      6281      6283      6278      6281      6284
      6279      6278      6280      6279      6278      6281      6280      6278      6281
      6281      6284      6285      6281      6284      6286      6281      6284      6287
      6282      6281      6283      6282      6281      6284      6283      6281      6284
      6284      6287      6288      6284      6287      6289      6284      6287      6290
      6285      6284      6286      6285      6284      6287      6286      6284      6287
      6287      6290      6291      6287      6290      6292      6288      6287      6289
      6288      6287      6290      6289      6287      6290      6290      6292      6293
      6290      6292      6294      6291      6290      6292      6292      6294      6295
      6292      6294      6296      6292      6294      6297      6293      6292      6294
      6294      6297      6298      6294      6297      6299      6294      6297      6300
      6295      6294      6296      6295      6294      6297      6296      6294      6297
      6297      6300      6301      6297      6300      6302      6297      6300      6303
      6298      6297      6299      6298      6297      6300      6299      6297      6300
      6300      6303      6304      6300      6303      6305      6300      6303      6306
      6301      6300      6302      6301      6300      6303      6302      6300      6303
      6303      6306      6307      6303      6306      6308      6303      6306      6309
      6304      6303      6305      6304      6303      6306      6305      6303      6306
      6306      6309      6310      6306      6309      6311      6306      6309      6312
      6307      6306      6308      6307      6306      6309      6308      6306      6309
      6309      6312      6313      6309      6312      6314      6309      6312      6315
      6310      6309      6311      6310      6309      6312      6311      6309      6312
      6312      6315      6316      6312      6315      6317      6312      6315      6318
      6313      6312      6314      6313      6312      6315      6314      6312      6315
      6316      6315      6317      6316      6315      6318      6317      6315      6318
      6319      6322      6323      6319      6322      6324      6319      6322      6325
      6320      6319      6321      6320      6319      6322      6321      6319      6322
      6322      6325      6326      6322      6325      6327      6322      6325      6328
      6323      6322      6324      6323      6322      6325      6324      6322      6325
      6325      6328      6329      6325      6328      6330      6325      6328      6331
      6326      6325      6327      6326      6325      6328      6327      6325      6328
      6328      6331      6332      6328      6331      6333      6328      6331      6334
      6329      6328      6330      6329      6328      6331      6330      6328      6331
      6331      6334      6335      6331      6334      6336      6331      6334      6337
      6332      6331      6333      6332      6331      6334      6333      6331      6334
      6334      6337      6338      6334      6337      6339      6334      6337      6340
      6335      6334      6336      6335      6334      6337      6336      6334      6337
      6337      6340      6341      6337      6340      6342      6337      6340      6343
      6338      6337      6339      6338      6337      6340      6339      6337      6340
      6340      6343      6344      6340      6343      6345      6340      6343      6346
      6341      6340      6342      6341      6340      6343      6342      6340      6343
      6343      6346      6347      6343      6346      6348      6343      6346      6349
      6344      6343      6345      6344      6343      6346      6345      6343      6346
      6346      6349      6350      6346      6349      6351      6346      6349      6352
      6347      6346      6348      6347      6346      6349      6348      6346      6349
      6349      6352      6353      6349      6352      6354      6349      6352      6355
      6350      6349      6351      6350      6349      6352      6351      6349      6352
      6352      6355      6356      6352      6355      6357      6352      6355      6358
      6353      6352      6354      6353      6352      6355      6354      6352      6355
      6355      6358      6359      6355      6358      6360      6355      6358      6361
      6356      6355      6357      6356      6355      6358      6357      6355      6358
      6359      6358      6360      6359      6358      6361      6360      6358      6361
      6362      6366      6367      6362      6366      6368      6362      6366      6369
      6363      6362      6364      6363      6362      6365      6363      6362      6366
      6364      6362      6365      6364      6362      6366      6365      6362      6366
      6366      6369      6370      6366      6369      6371      6366      6369      6376
      6367      6366      6368      6367      6366      6369      6368      6366      6369
      6369      6376      6372      6370      6369      6371      6370      6369      6376
      6371      6369      6376      6372      6375      6377      6373      6372      6374
      6373      6372      6375      6373      6372      6376      6374      6372      6375
      6374      6372      6376      6375      6372      6376      6375      6377      6378
      6375      6377      6379      6375      6377      6380      6377      6380      6381
      6377      6380      6382      6377      6380      6388      6378      6377      6379
      6378      6377      6380      6379      6377      6380      6380      6382      6383
      6380      6388      6389      6380      6388      6390      6380      6388      6391
      6381      6380      6382      6381      6380      6388      6382      6380      6388
      6382      6383      6384      6382      6383      6385      6383      6385      6386
      6383      6385      6387      6383      6385      6397      6384      6383      6385
      6385      6397      6398      6385      6397      6399      6385      6397      6400
      6386      6385      6387      6386      6385      6397      6387      6385      6397
      6388      6391      6392      6389      6388      6390      6389      6388      6391
      6390      6388      6391      6391      6392      6393      6391      6392      6394
      6392      6394      6395      6392      6394      6396      6392      6394      6441
      6393      6392      6394      6394      6441      6442      6394      6441      6443
      6394      6441      6444      6395      6394      6396      6395      6394      6441
      6396      6394      6441      6397      6400      6401      6397      6400      6402
      6397      6400      6403      6398      6397      6399      6398      6397      6400
      6399      6397      6400      6400      6403      6404      6400      6403      6405
      6400      6403      6406      6401      6400      6402      6401      6400      6403
      6402      6400      6403      6403      6406      6407      6403      6406      6408
      6403      6406      6409      6404      6403      6405      6404      6403      6406
      6405      6403      6406      6406      6409      6410      6406      6409      6411
      6406      6409      6412      6407      6406      6408      6407      6406      6409
      6408      6406      6409      6409      6412      6413      6409      6412      6414
      6409      6412      6415      6410      6409      6411      6410      6409      6412
      6411      6409      6412      6412      6415      6416      6412      6415      6417
      6412      6415      6420      6413      6412      6414      6413      6412      6415
      6414      6412      6415      6415      6417      6418      6415      6417      6419
      6415      6417      6420      6415      6420      6417      6415      6420      6421
      6415      6420      6422      6416      6415      6417      6416      6415      6420
      6417      6415      6420      6417      6420      6421      6417      6420      6422
      6418      6417      6419      6418      6417      6420      6419      6417      6420
      6420      6422      6423      6420      6422      6424      6420      6422      6425
      6421      6420      6422      6422      6425      6426      6422      6425      6427
      6422      6425      6428      6423      6422      6424      6423      6422      6425
      6424      6422      6425      6425      6428      6429      6425      6428      6430
      6425      6428      6431      6426      6425      6427      6426      6425      6428
      6427      6425      6428      6428      6431      6432      6428      6431      6433
      6428      6431      6434      6429      6428      6430      6429      6428      6431
      6430      6428      6431      6431      6434      6435      6431      6434      6436
      6431      6434      6437      6432      6431      6433      6432      6431      6434
      6433      6431      6434      6434      6437      6438      6434      6437      6439
      6434      6437      6440      6435      6434      6436      6435      6434      6437
      6436      6434      6437      6438      6437      6439      6438      6437      6440
      6439      6437      6440      6441      6444      6445      6441      6444      6446
      6441      6444      6447      6442      6441      6443      6442      6441      6444
      6443      6441      6444      6444      6447      6448      6444      6447      6449
      6444      6447      6450      6445      6444      6446      6445      6444      6447
      6446      6444      6447      6447      6450      6451      6447      6450      6452
      6447      6450      6453      6448      6447      6449      6448      6447      6450
      6449      6447      6450      6450      6453      6454      6450      6453      6455
      6450      6453      6456      6451      6450      6452      6451      6450      6453
      6452      6450      6453      6453      6456      6457      6453      6456      6458
      6453      6456      6459      6454      6453      6455      6454      6453      6456
      6455      6453      6456      6456      6459      6460      6456      6459      6461
      6456      6459      6462      6457      6456      6458      6457      6456      6459
      6458      6456      6459      6459      6462      6463      6459      6462      6464
      6459      6462      6465      6460      6459      6461      6460      6459      6462
      6461      6459      6462      6462      6465      6466      6462      6465      6467
      6462      6465      6468      6463      6462      6464      6463      6462      6465
      6464      6462      6465      6465      6468      6469      6465      6468      6470
      6465      6468      6471      6466      6465      6467      6466      6465      6468
      6467      6465      6468      6468      6471      6472      6468      6471      6473
      6468      6471      6474      6469      6468      6470      6469      6468      6471
      6470      6468      6471      6471      6474      6475      6471      6474      6476
      6471      6474      6477      6472      6471      6473      6472      6471      6474
      6473      6471      6474      6474      6477      6478      6474      6477      6479
      6474      6477      6480      6475      6474      6476      6475      6474      6477
      6476      6474      6477      6477      6480      6481      6477      6480      6482
      6477      6480      6483      6478      6477      6479      6478      6477      6480
      6479      6477      6480      6481      6480      6482      6481      6480      6483
      6482      6480      6483      6484      6488      6489      6484      6488      6490
      6484      6488      6491      6485      6484      6486      6485      6484      6487
      6485      6484      6488      6486      6484      6487      6486      6484      6488
      6487      6484      6488      6488      6491      6492      6488      6491      6493
      6488      6491      6498      6489      6488      6490      6489      6488      6491
      6490      6488      6491      6491      6498      6494      6492      6491      6493
      6492      6491      6498      6493      6491      6498      6494      6497      6499
      6495      6494      6496      6495      6494      6497      6495      6494      6498
      6496      6494      6497      6496      6494      6498      6497      6494      6498
      6497      6499      6500      6497      6499      6501      6497      6499      6502
      6499      6502      6503      6499      6502      6504      6499      6502      6510
      6500      6499      6501      6500      6499      6502      6501      6499      6502
      6502      6504      6505      6502      6510      6511      6502      6510      6512
      6502      6510      6513      6503      6502      6504      6503      6502      6510
      6504      6502      6510      6504      6505      6506      6504      6505      6507
      6505      6507      6508      6505      6507      6509      6505      6507      6519
      6506      6505      6507      6507      6519      6520      6507      6519      6521
      6507      6519      6522      6508      6507      6509      6508      6507      6519
      6509      6507      6519      6510      6513      6514      6511      6510      6512
      6511      6510      6513      6512      6510      6513      6513      6514      6515
      6513      6514      6516      6514      6516      6517      6514      6516      6518
      6514      6516      6563      6515      6514      6516      6516      6563      6564
      6516      6563      6565      6516      6563      6566      6517      6516      6518
      6517      6516      6563      6518      6516      6563      6519      6522      6523
      6519      6522      6524      6519      6522      6525      6520      6519      6521
      6520      6519      6522      6521      6519      6522      6522      6525      6526
      6522      6525      6527      6522      6525      6528      6523      6522      6524
      6523      6522      6525      6524      6522      6525      6525      6528      6529
      6525      6528      6530      6525      6528      6531      6526      6525      6527
      6526      6525      6528      6527      6525      6528      6528      6531      6532
      6528      6531      6533      6528      6531      6534      6529      6528      6530
      6529      6528      6531      6530      6528      6531      6531      6534      6535
      6531      6534      6536      6531      6534      6537      6532      6531      6533
      6532      6531      6534      6533      6531      6534      6534      6537      6538
      6534      6537      6539      6534      6537      6542      6535      6534      6536
      6535      6534      6537      6536      6534      6537      6537      6539      6540
      6537      6539      6541      6537      6539      6542      6537      6542      6539
      6537      6542      6543      6537      6542      6544      6538      6537      6539
      6538      6537      6542      6539      6537      6542      6539      6542      6543
      6539      6542      6544      6540      6539      6541      6540      6539      6542
      6541      6539      6542      6542      6544      6545      6542      6544      6546
      6542      6544      6547      6543      6542      6544      6544      6547      6548
      6544      6547      6549      6544      6547      6550      6545      6544      6546
      6545      6544      6547      6546      6544      6547      6547      6550      6551
      6547      6550      6552      6547      6550      6553      6548      6547      6549
      6548      6547      6550      6549      6547      6550      6550      6553      6554
      6550      6553      6555      6550      6553      6556      6551      6550      6552
      6551      6550      6553      6552      6550      6553      6553      6556      6557
      6553      6556      6558      6553      6556      6559      6554      6553      6555
      6554      6553      6556      6555      6553      6556      6556      6559      6560
      6556      6559      6561      6556      6559      6562      6557      6556      6558
      6557      6556      6559      6558      6556      6559      6560      6559      6561
      6560      6559      6562      6561      6559      6562      6563      6566      6567
      6563      6566      6568      6563      6566      6569      6564      6563      6565
      6564      6563      6566      6565      6563      6566      6566      6569      6570
      6566      6569      6571      6566      6569      6572      6567      6566      6568
      6567      6566      6569      6568      6566      6569      6569      6572      6573
      6569      6572      6574      6569      6572      6575      6570      6569      6571
      6570      6569      6572      6571      6569      6572      6572      6575      6576
      6572      6575      6577      6572      6575      6578      6573      6572      6574
      6573      6572      6575      6574      6572      6575      6575      6578      6579
      6575      6578      6580      6575      6578      6581      6576      6575      6577
      6576      6575      6578      6577      6575      6578      6578      6581      6582
      6578      6581      6583      6578      6581      6584      6579      6578      6580
      6579      6578      6581      6580      6578      6581      6581      6584      6585
      6581      6584      6586      6581      6584      6587      6582      6581      6583
      6582      6581      6584      6583      6581      6584      6584      6587      6588
      6584      6587      6589      6584      6587      6590      6585      6584      6586
      6585      6584      6587      6586      6584      6587      6587      6590      6591
      6587      6590      6592      6587      6590      6593      6588      6587      6589
      6588      6587      6590      6589      6587      6590      6590      6593      6594
      6590      6593      6595      6590      6593      6596      6591      6590      6592
      6591      6590      6593      6592      6590      6593      6593      6596      6597
      6593      6596      6598      6593      6596      6599      6594      6593      6595
      6594      6593      6596      6595      6593      6596      6596      6599      6600
      6596      6599      6601      6596      6599      6602      6597      6596      6598
      6597      6596      6599      6598      6596      6599      6600      6599      6601
      6600      6599      6602      6601      6599      6602      6603      6607      6608
      6603      6607      6609      6603      6607      6610      6604      6603      6605
      6604      6603      6606      6604      6603      6607      6605      6603      6606
      6605      6603      6607      6606      6603      6607      6607      6610      6611
      6607      6610      6612      6607      6610      6617      6608      6607      6609
      6608      6607      6610      6609      6607      6610      6610      6617      6613
      6611      6610      6612      6611      6610      6617      6612      6610      6617
      6613      6616      6618      6614      6613      6615      6614      6613      6616
      6614      6613      6617      6615      6613      6616      6615      6613      6617
      6616      6613      6617      6616      6618      6619      6616      6618      6620
      6616      6618      6621      6618      6621      6622      6618      6621      6623
      6618      6621      6629      6619      6618      6620      6619      6618      6621
      6620      6618      6621      6621      6623      6624      6621      6629      6630
      6621      6629      6631      6621      6629      6632      6622      6621      6623
      6622      6621      6629      6623      6621      6629      6623      6624      6625
      6623      6624      6626      6624      6626      6627      6624      6626      6628
      6624      6626      6638      6625      6624      6626      6626      6638      6639
      6626      6638      6640      6626      6638      6641      6627      6626      6628
      6627      6626      6638      6628      6626      6638      6629      6632      6633
      6630      6629      6631      6630      6629      6632      6631      6629      6632
      6632      6633      6634      6632      6633      6635      6633      6635      6636
      6633      6635      6637      6633      6635      6685      6634      6633      6635
      6635      6685      6686      6635      6685      6687      6635      6685      6688
      6636      6635      6637      6636      6635      6685      6637      6635      6685
      6638      6641      6642      6638      6641      6643      6638      6641      6644
      6639      6638      6640      6639      6638      6641      6640      6638      6641
      6641      6644      6645      6641      6644      6646      6641      6644      6647
      6642      6641      6643      6642      6641      6644      6643      6641      6644
      6644      6647      6648      6644      6647      6649      6644      6647      6650
      6645      6644      6646      6645      6644      6647      6646      6644      6647
      6647      6650      6651      6647      6650      6652      6647      6650      6653
      6648      6647      6649      6648      6647      6650      6649      6647      6650
      6650      6653      6654      6650      6653      6655      6650      6653      6656
      6651      6650      6652      6651      6650      6653      6652      6650      6653
      6653      6656      6657      6653      6656      6658      6654      6653      6655
      6654      6653      6656      6655      6653      6656      6656      6658      6659
      6656      6658      6660      6657      6656      6658      6658      6660      6661
      6658      6660      6662      6658      6660      6663      6659      6658      6660
      6660      6663      6664      6660      6663      6665      6660      6663      6666
      6661      6660      6662      6661      6660      6663      6662      6660      6663
      6663      6666      6667      6663      6666      6668      6663      6666      6669
      6664      6663      6665      6664      6663      6666      6665      6663      6666
      6666      6669      6670      6666      6669      6671      6666      6669      6672
      6667      6666      6668      6667      6666      6669      6668      6666      6669
      6669      6672      6673      6669      6672      6674      6669      6672      6675
      6670      6669      6671      6670      6669      6672      6671      6669      6672
      6672      6675      6676      6672      6675      6677      6672      6675      6678
      6673      6672      6674      6673      6672      6675      6674      6672      6675
      6675      6678      6679      6675      6678      6680      6675      6678      6681
      6676      6675      6677      6676      6675      6678      6677      6675      6678
      6678      6681      6682      6678      6681      6683      6678      6681      6684
      6679      6678      6680      6679      6678      6681      6680      6678      6681
      6682      6681      6683      6682      6681      6684      6683      6681      6684
      6685      6688      6689      6685      6688      6690      6685      6688      6691
      6686      6685      6687      6686      6685      6688      6687      6685      6688
      6688      6691      6692      6688      6691      6693      6688      6691      6694
      6689      6688      6690      6689      6688      6691      6690      6688      6691
      6691      6694      6695      6691      6694      6696      6691      6694      6697
      6692      6691      6693      6692      6691      6694      6693      6691      6694
      6694      6697      6698      6694      6697      6699      6694      6697      6700
      6695      6694      6696      6695      6694      6697      6696      6694      6697
      6697      6700      6701      6697      6700      6702      6697      6700      6703
      6698      6697      6699      6698      6697      6700      6699      6697      6700
      6700      6703      6704      6700      6703      6705      6700      6703      6706
      6701      6700      6702      6701      6700      6703      6702      6700      6703
      6703      6706      6707      6703      6706      6708      6703      6706      6709
      6704      6703      6705      6704      6703      6706      6705      6703      6706
      6706      6709      6710      6706      6709      6711      6706      6709      6712
      6707      6706      6708      6707      6706      6709      6708      6706      6709
      6709      6712      6713      6709      6712      6714      6709      6712      6715
      6710      6709      6711      6710      6709      6712      6711      6709      6712
      6712      6715      6716      6712      6715      6717      6712      6715      6718
      6713      6712      6714      6713      6712      6715      6714      6712      6715
      6715      6718      6719      6715      6718      6720      6715      6718      6721
      6716      6715      6717      6716      6715      6718      6717      6715      6718
      6718      6721      6722      6718      6721      6723      6718      6721      6724
      6719      6718      6720      6719      6718      6721      6720      6718      6721
      6721      6724      6725      6721      6724      6726      6721      6724      6727
      6722      6721      6723      6722      6721      6724      6723      6721      6724
      6725      6724      6726      6725      6724      6727      6726      6724      6727
      6728      6732      6733      6728      6732      6734      6728      6732      6735
      6729      6728      6730      6729      6728      6731      6729      6728      6732
      6730      6728      6731      6730      6728      6732      6731      6728      6732
      6732      6735      6736      6732      6735      6737      6732      6735      6742
      6733      6732      6734      6733      6732      6735      6734      6732      6735
      6735      6742      6738      6736      6735      6737      6736      6735      6742
      6737      6735      6742      6738      6741      6743      6739      6738      6740
      6739      6738      6741      6739      6738      6742      6740      6738      6741
      6740      6738      6742      6741      6738      6742      6741      6743      6744
      6741      6743      6745      6741      6743      6746      6743      6746      6747
      6743      6746      6748      6743      6746      6754      6744      6743      6745
      6744      6743      6746      6745      6743      6746      6746      6748      6749
      6746      6754      6755      6746      6754      6756      6746      6754      6757
      6747      6746      6748      6747      6746      6754      6748      6746      6754
      6748      6749      6750      6748      6749      6751      6749      6751      6752
      6749      6751      6753      6749      6751      6763      6750      6749      6751
      6751      6763      6764      6751      6763      6765      6751      6763      6766
      6752      6751      6753      6752      6751      6763      6753      6751      6763
      6754      6757      6758      6755      6754      6756      6755      6754      6757
      6756      6754      6757      6757      6758      6759      6757      6758      6760
      6758      6760      6761      6758      6760      6762      6758      6760      6807
      6759      6758      6760      6760      6807      6808      6760      6807      6809
      6760      6807      6810      6761      6760      6762      6761      6760      6807
      6762      6760      6807      6763      6766      6767      6763      6766      6768
      6763      6766      6769      6764      6763      6765      6764      6763      6766
      6765      6763      6766      6766      6769      6770      6766      6769      6771
      6766      6769      6772      6767      6766      6768      6767      6766      6769
      6768      6766      6769      6769      6772      6773      6769      6772      6774
      6769      6772      6775      6770      6769      6771      6770      6769      6772
      6771      6769      6772      6772      6775      6776      6772      6775      6777
      6772      6775      6778      6773      6772      6774      6773      6772      6775
      6774      6772      6775      6775      6778      6779      6775      6778      6780
      6775      6778      6781      6776      6775      6777      6776      6775      6778
      6777      6775      6778      6778      6781      6782      6778      6781      6783
      6778      6781      6786      6779      6778      6780      6779      6778      6781
      6780      6778      6781      6781      6783      6784      6781      6783      6785
      6781      6783      6786      6781      6786      6783      6781      6786      6787
      6781      6786      6788      6782      6781      6783      6782      6781      6786
      6783      6781      6786      6783      6786      6787      6783      6786      6788
      6784      6783      6785      6784      6783      6786      6785      6783      6786
      6786      6788      6789      6786      6788      6790      6786      6788      6791
      6787      6786      6788      6788      6791      6792      6788      6791      6793
      6788      6791      6794      6789      6788      6790      6789      6788      6791
      6790      6788      6791      6791      6794      6795      6791      6794      6796
      6791      6794      6797      6792      6791      6793      6792      6791      6794
      6793      6791      6794      6794      6797      6798      6794      6797      6799
      6794      6797      6800      6795      6794      6796      6795      6794      6797
      6796      6794      6797      6797      6800      6801      6797      6800      6802
      6797      6800      6803      6798      6797      6799      6798      6797      6800
      6799      6797      6800      6800      6803      6804      6800      6803      6805
      6800      6803      6806      6801      6800      6802      6801      6800      6803
      6802      6800      6803      6804      6803      6805      6804      6803      6806
      6805      6803      6806      6807      6810      6811      6807      6810      6812
      6807      6810      6813      6808      6807      6809      6808      6807      6810
      6809      6807      6810      6810      6813      6814      6810      6813      6815
      6810      6813      6816      6811      6810      6812      6811      6810      6813
      6812      6810      6813      6813      6816      6817      6813      6816      6818
      6813      6816      6819      6814      6813      6815      6814      6813      6816
      6815      6813      6816      6816      6819      6820      6816      6819      6821
      6816      6819      6822      6817      6816      6818      6817      6816      6819
      6818      6816      6819      6819      6822      6823      6819      6822      6824
      6819      6822      6825      6820      6819      6821      6820      6819      6822
      6821      6819      6822      6822      6825      6826      6822      6825      6827
      6822      6825      6828      6823      6822      6824      6823      6822      6825
      6824      6822      6825      6825      6828      6829      6825      6828      6830
      6825      6828      6831      6826      6825      6827      6826      6825      6828
      6827      6825      6828      6828      6831      6832      6828      6831      6833
      6828      6831      6834      6829      6828      6830      6829      6828      6831
      6830      6828      6831      6831      6834      6835      6831      6834      6836
      6831      6834      6837      6832      6831      6833      6832      6831      6834
      6833      6831      6834      6834      6837      6838      6834      6837      6839
      6834      6837      6840      6835      6834      6836      6835      6834      6837
      6836      6834      6837      6837      6840      6841      6837      6840      6842
      6837      6840      6843      6838      6837      6839      6838      6837      6840
      6839      6837      6840      6840      6843      6844      6840      6843      6845
      6840      6843      6846      6841      6840      6842      6841      6840      6843
      6842      6840      6843      6844      6843      6845      6844      6843      6846
      6845      6843      6846      6847      6851      6852      6847      6851      6853
      6847      6851      6854      6848      6847      6849      6848      6847      6850
      6848      6847      6851      6849      6847      6850      6849      6847      6851
      6850      6847      6851      6851      6854      6855      6851      6854      6856
      6851      6854      6861      6852      6851      6853      6852      6851      6854
      6853      6851      6854      6854      6861      6857      6855      6854      6856
      6855      6854      6861      6856      6854      6861      6857      6860      6862
      6858      6857      6859      6858      6857      6860      6858      6857      6861
      6859      6857      6860      6859      6857      6861      6860      6857      6861
      6860      6862      6863      6860      6862      6864      6860      6862      6865
      6862      6865      6866      6862      6865      6867      6862      6865      6873
      6863      6862      6864      6863      6862      6865      6864      6862      6865
      6865      6867      6868      6865      6873      6874      6865      6873      6875
      6865      6873      6876      6866      6865      6867      6866      6865      6873
      6867      6865      6873      6867      6868      6869      6867      6868      6870
      6868      6870      6871      6868      6870      6872      6868      6870      6882
      6869      6868      6870      6870      6882      6883      6870      6882      6884
      6870      6882      6885      6871      6870      6872      6871      6870      6882
      6872      6870      6882      6873      6876      6877      6874      6873      6875
      6874      6873      6876      6875      6873      6876      6876      6877      6878
      6876      6877      6879      6877      6879      6880      6877      6879      6881
      6877      6879      6929      6878      6877      6879      6879      6929      6930
      6879      6929      6931      6879      6929      6932      6880      6879      6881
      6880      6879      6929      6881      6879      6929      6882      6885      6886
      6882      6885      6887      6882      6885      6888      6883      6882      6884
      6883      6882      6885      6884      6882      6885      6885      6888      6889
      6885      6888      6890      6885      6888      6891      6886      6885      6887
      6886      6885      6888      6887      6885      6888      6888      6891      6892
      6888      6891      6893      6888      6891      6894      6889      6888      6890
      6889      6888      6891      6890      6888      6891      6891      6894      6895
      6891      6894      6896      6891      6894      6897      6892      6891      6893
      6892      6891      6894      6893      6891      6894      6894      6897      6898
      6894      6897      6899      6894      6897      6900      6895      6894      6896
      6895      6894      6897      6896      6894      6897      6897      6900      6901
      6897      6900      6902      6898      6897      6899      6898      6897      6900
      6899      6897      6900      6900      6902      6903      6900      6902      6904
      6901      6900      6902      6902      6904      6905      6902      6904      6906
      6902      6904      6907      6903      6902      6904      6904      6907      6908
      6904      6907      6909      6904      6907      6910      6905      6904      6906
      6905      6904      6907      6906      6904      6907      6907      6910      6911
      6907      6910      6912      6907      6910      6913      6908      6907      6909
      6908      6907      6910      6909      6907      6910      6910      6913      6914
      6910      6913      6915      6910      6913      6916      6911      6910      6912
      6911      6910      6913      6912      6910      6913      6913      6916      6917
      6913      6916      6918      6913      6916      6919      6914      6913      6915
      6914      6913      6916      6915      6913      6916      6916      6919      6920
      6916      6919      6921      6916      6919      6922      6917      6916      6918
      6917      6916      6919      6918      6916      6919      6919      6922      6923
      6919      6922      6924      6919      6922      6925      6920      6919      6921
      6920      6919      6922      6921      6919      6922      6922      6925      6926
      6922      6925      6927      6922      6925      6928      6923      6922      6924
      6923      6922      6925      6924      6922      6925      6926      6925      6927
      6926      6925      6928      6927      6925      6928      6929      6932      6933
      6929      6932      6934      6929      6932      6935      6930      6929      6931
      6930      6929      6932      6931      6929      6932      6932      6935      6936
      6932      6935      6937      6932      6935      6938      6933      6932      6934
      6933      6932      6935      6934      6932      6935      6935      6938      6939
      6935      6938      6940      6935      6938      6941      6936      6935      6937
      6936      6935      6938      6937      6935      6938      6938      6941      6942
      6938      6941      6943      6938      6941      6944      6939      6938      6940
      6939      6938      6941      6940      6938      6941      6941      6944      6945
      6941      6944      6946      6941      6944      6947      6942      6941      6943
      6942      6941      6944      6943      6941      6944      6944      6947      6948
      6944      6947      6949      6944      6947      6950      6945      6944      6946
      6945      6944      6947      6946      6944      6947      6947      6950      6951
      6947      6950      6952      6947      6950      6953      6948      6947      6949
      6948      6947      6950      6949      6947      6950      6950      6953      6954
      6950      6953      6955      6950      6953      6956      6951      6950      6952
      6951      6950      6953      6952      6950      6953      6953      6956      6957
      6953      6956      6958      6953      6956      6959      6954      6953      6955
      6954      6953      6956      6955      6953      6956      6956      6959      6960
      6956      6959      6961      6956      6959      6962      6957      6956      6958
      6957      6956      6959      6958      6956      6959      6959      6962      6963
      6959      6962      6964      6959      6962      6965      6960      6959      6961
      6960      6959      6962      6961      6959      6962      6962      6965      6966
      6962      6965      6967      6962      6965      6968      6963      6962      6964
      6963      6962      6965      6964      6962      6965      6965      6968      6969
      6965      6968      6970      6965      6968      6971      6966      6965      6967
      6966      6965      6968      6967      6965      6968      6969      6968      6970
      6969      6968      6971      6970      6968      6971      6972      6976      6977
      6972      6976      6978      6972      6976      6979      6973      6972      6974
      6973      6972      6975      6973      6972      6976      6974      6972      6975
      6974      6972      6976      6975      6972      6976      6976      6979      6980
      6976      6979      6981      6976      6979      6986      6977      6976      6978
      6977      6976      6979      6978      6976      6979      6979      6986      6982
      6980      6979      6981      6980      6979      6986      6981      6979      6986
      6982      6985      6987      6983      6982      6984      6983      6982      6985
      6983      6982      6986      6984      6982      6985      6984      6982      6986
      6985      6982      6986      6985      6987      6988      6985      6987      6989
      6985      6987      6990      6987      6990      6991      6987      6990      6992
      6987      6990      6998      6988      6987      6989      6988      6987      6990
      6989      6987      6990      6990      6992      6993      6990      6998      6999
      6990      6998      7000      6990      6998      7001      6991      6990      6992
      6991      6990      6998      6992      6990      6998      6992      6993      6994
      6992      6993      6995      6993      6995      6996      6993      6995      6997
      6993      6995      7007      6994      6993      6995      6995      7007      7008
      6995      7007      7009      6995      7007      7010      6996      6995      6997
      6996      6995      7007      6997      6995      7007      6998      7001      7002
      6999      6998      7000      6999      6998      7001      7000      6998      7001
      7001      7002      7003      7001      7002      7004      7002      7004      7005
      7002      7004      7006      7002      7004      7051      7003      7002      7004
      7004      7051      7052      7004      7051      7053      7004      7051      7054
      7005      7004      7006      7005      7004      7051      7006      7004      7051
      7007      7010      7011      7007      7010      7012      7007      7010      7013
      7008      7007      7009      7008      7007      7010      7009      7007      7010
      7010      7013      7014      7010      7013      7015      7010      7013      7016
      7011      7010      7012      7011      7010      7013      7012      7010      7013
      7013      7016      7017      7013      7016      7018      7013      7016      7019
      7014      7013      7015      7014      7013      7016      7015      7013      7016
      7016      7019      7020      7016      7019      7021      7016      7019      7022
      7017      7016      7018      7017      7016      7019      7018      7016      7019
      7019      7022      7023      7019      7022      7024      7019      7022      7025
      7020      7019      7021      7020      7019      7022      7021      7019      7022
      7022      7025      7026      7022      7025      7027      7022      7025      7030
      7023      7022      7024      7023      7022      7025      7024      7022      7025
      7025      7027      7028      7025      7027      7029      7025      7027      7030
      7025      7030      7027      7025      7030      7031      7025      7030      7032
      7026      7025      7027      7026      7025      7030      7027      7025      7030
      7027      7030      7031      7027      7030      7032      7028      7027      7029
      7028      7027      7030      7029      7027      7030      7030      7032      7033
      7030      7032      7034      7030      7032      7035      7031      7030      7032
      7032      7035      7036      7032      7035      7037      7032      7035      7038
      7033      7032      7034      7033      7032      7035      7034      7032      7035
      7035      7038      7039      7035      7038      7040      7035      7038      7041
      7036      7035      7037      7036      7035      7038      7037      7035      7038
      7038      7041      7042      7038      7041      7043      7038      7041      7044
      7039      7038      7040      7039      7038      7041      7040      7038      7041
      7041      7044      7045      7041      7044      7046      7041      7044      7047
      7042      7041      7043      7042      7041      7044      7043      7041      7044
      7044      7047      7048      7044      7047      7049      7044      7047      7050
      7045      7044      7046      7045      7044      7047      7046      7044      7047
      7048      7047      7049      7048      7047      7050      7049      7047      7050
      7051      7054      7055      7051      7054      7056      7051      7054      7057
      7052      7051      7053      7052      7051      7054      7053      7051      7054
      7054      7057      7058      7054      7057      7059      7054      7057      7060
      7055      7054      7056      7055      7054      7057      7056      7054      7057
      7057      7060      7061      7057      7060      7062      7057      7060      7063
      7058      7057      7059      7058      7057      7060      7059      7057      7060
      7060      7063      7064      7060      7063      7065      7060      7063      7066
      7061      7060      7062      7061      7060      7063      7062      7060      7063
      7063      7066      7067      7063      7066      7068      7063      7066      7069
      7064      7063      7065      7064      7063      7066      7065      7063      7066
      7066      7069      7070      7066      7069      7071      7066      7069      7072
      7067      7066      7068      7067      7066      7069      7068      7066      7069
      7069      7072      7073      7069      7072      7074      7069      7072      7075
      7070      7069      7071      7070      7069      7072      7071      7069      7072
      7072      7075      7076      7072      7075      7077      7072      7075      7078
      7073      7072      7074      7073      7072      7075      7074      7072      7075
      7075      7078      7079      7075      7078      7080      7075      7078      7081
      7076      7075      7077      7076      7075      7078      7077      7075      7078
      7078      7081      7082      7078      7081      7083      7078      7081      7084
      7079      7078      7080      7079      7078      7081      7080      7078      7081
      7081      7084      7085      7081      7084      7086      7081      7084      7087
      7082      7081      7083      7082      7081      7084      7083      7081      7084
      7084      7087      7088      7084      7087      7089      7084      7087      7090
      7085      7084      7086      7085      7084      7087      7086      7084      7087
      7087      7090      7091      7087      7090      7092      7087      7090      7093
      7088      7087      7089      7088      7087      7090      7089      7087      7090
      7091      7090      7092      7091      7090      7093      7092      7090      7093
      7094      7098      7099      7094      7098      7100      7094      7098      7101
      7095      7094      7096      7095      7094      7097      7095      7094      7098
      7096      7094      7097      7096      7094      7098      7097      7094      7098
      7098      7101      7102      7098      7101      7103      7098      7101      7108
      7099      7098      7100      7099      7098      7101      7100      7098      7101
      7101      7108      7104      7102      7101      7103      7102      7101      7108
      7103      7101      7108      7104      7107      7109      7105      7104      7106
      7105      7104      7107      7105      7104      7108      7106      7104      7107
      7106      7104      7108      7107      7104      7108      7107      7109      7110
      7107      7109      7111      7107      7109      7112      7109      7112      7113
      7109      7112      7114      7109      7112      7120      7110      7109      7111
      7110      7109      7112      7111      7109      7112      7112      7114      7115
      7112      7120      7121      7112      7120      7122      7112      7120      7123
      7113      7112      7114      7113      7112      7120      7114      7112      7120
      7114      7115      7116      7114      7115      7117      7115      7117      7118
      7115      7117      7119      7115      7117      7129      7116      7115      7117
      7117      7129      7130      7117      7129      7131      7117      7129      7132
      7118      7117      7119      7118      7117      7129      7119      7117      7129
      7120      7123      7124      7121      7120      7122      7121      7120      7123
      7122      7120      7123      7123      7124      7125      7123      7124      7126
      7124      7126      7127      7124      7126      7128      7124      7126      7173
      7125      7124      7126      7126      7173      7174      7126      7173      7175
      7126      7173      7176      7127      7126      7128      7127      7126      7173
      7128      7126      7173      7129      7132      7133      7129      7132      7134
      7129      7132      7135      7130      7129      7131      7130      7129      7132
      7131      7129      7132      7132      7135      7136      7132      7135      7137
      7132      7135      7138      7133      7132      7134      7133      7132      7135
      7134      7132      7135      7135      7138      7139      7135      7138      7140
      7135      7138      7141      7136      7135      7137      7136      7135      7138
      7137      7135      7138      7138      7141      7142      7138      7141      7143
      7138      7141      7144      7139      7138      7140      7139      7138      7141
      7140      7138      7141      7141      7144      7145      7141      7144      7146
      7141      7144      7147      7142      7141      7143      7142      7141      7144
      7143      7141      7144      7144      7147      7148      7144      7147      7149
      7144      7147      7152      7145      7144      7146      7145      7144      7147
      7146      7144      7147      7147      7149      7150      7147      7149      7151
      7147      7149      7152      7147      7152      7149      7147      7152      7153
      7147      7152      7154      7148      7147      7149      7148      7147      7152
      7149      7147      7152      7149      7152      7153      7149      7152      7154
      7150      7149      7151      7150      7149      7152      7151      7149      7152
      7152      7154      7155      7152      7154      7156      7152      7154      7157
      7153      7152      7154      7154      7157      7158      7154      7157      7159
      7154      7157      7160      7155      7154      7156      7155      7154      7157
      7156      7154      7157      7157      7160      7161      7157      7160      7162
      7157      7160      7163      7158      7157      7159      7158      7157      7160
      7159      7157      7160      7160      7163      7164      7160      7163      7165
      7160      7163      7166      7161      7160      7162      7161      7160      7163
      7162      7160      7163      7163      7166      7167      7163      7166      7168
      7163      7166      7169      7164      7163      7165      7164      7163      7166
      7165      7163      7166      7166      7169      7170      7166      7169      7171
      7166      7169      7172      7167      7166      7168      7167      7166      7169
      7168      7166      7169      7170      7169      7171      7170      7169      7172
      7171      7169      7172      7173      7176      7177      7173      7176      7178
      7173      7176      7179      7174      7173      7175      7174      7173      7176
      7175      7173      7176      7176      7179      7180      7176      7179      7181
      7176      7179      7182      7177      7176      7178      7177      7176      7179
      7178      7176      7179      7179      7182      7183      7179      7182      7184
      7179      7182      7185      7180      7179      7181      7180      7179      7182
      7181      7179      7182      7182      7185      7186      7182      7185      7187
      7182      7185      7188      7183      7182      7184      7183      7182      7185
      7184      7182      7185      7185      7188      7189      7185      7188      7190
      7185      7188      7191      7186      7185      7187      7186      7185      7188
      7187      7185      7188      7188      7191      7192      7188      7191      7193
      7188      7191      7194      7189      7188      7190      7189      7188      7191
      7190      7188      7191      7191      7194      7195      7191      7194      7196
      7191      7194      7197      7192      7191      7193      7192      7191      7194
      7193      7191      7194      7194      7197      7198      7194      7197      7199
      7194      7197      7200      7195      7194      7196      7195      7194      7197
      7196      7194      7197      7197      7200      7201      7197      7200      7202
      7197      7200      7203      7198      7197      7199      7198      7197      7200
      7199      7197      7200      7200      7203      7204      7200      7203      7205
      7200      7203      7206      7201      7200      7202      7201      7200      7203
      7202      7200      7203      7203      7206      7207      7203      7206      7208
      7203      7206      7209      7204      7203      7205      7204      7203      7206
      7205      7203      7206      7206      7209      7210      7206      7209      7211
      7206      7209      7212      7207      7206      7208      7207      7206      7209
      7208      7206      7209      7209      7212      7213      7209      7212      7214
      7209      7212      7215      7210      7209      7211      7210      7209      7212
      7211      7209      7212      7213      7212      7214      7213      7212      7215
      7214      7212      7215      7216      7220      7221      7216      7220      7222
      7216      7220      7223      7217      7216      7218      7217      7216      7219
      7217      7216      7220      7218      7216      7219      7218      7216      7220
      7219      7216      7220      7220      7223      7224      7220      7223      7225
      7220      7223      7230      7221      7220      7222      7221      7220      7223
      7222      7220      7223      7223      7230      7226      7224      7223      7225
      7224      7223      7230      7225      7223      7230      7226      7229      7231
      7227      7226      7228      7227      7226      7229      7227      7226      7230
      7228      7226      7229      7228      7226      7230      7229      7226      7230
      7229      7231      7232      7229      7231      7233      7229      7231      7234
      7231      7234      7235      7231      7234      7236      7231      7234      7242
      7232      7231      7233      7232      7231      7234      7233      7231      7234
      7234      7236      7237      7234      7242      7243      7234      7242      7244
      7234      7242      7245      7235      7234      7236      7235      7234      7242
      7236      7234      7242      7236      7237      7238      7236      7237      7239
      7237      7239      7240      7237      7239      7241      7237      7239      7251
      7238      7237      7239      7239      7251      7252      7239      7251      7253
      7239      7251      7254      7240      7239      7241      7240      7239      7251
      7241      7239      7251      7242      7245      7246      7243      7242      7244
      7243      7242      7245      7244      7242      7245      7245      7246      7247
      7245      7246      7248      7246      7248      7249      7246      7248      7250
      7246      7248      7298      7247      7246      7248      7248      7298      7299
      7248      7298      7300      7248      7298      7301      7249      7248      7250
      7249      7248      7298      7250      7248      7298      7251      7254      7255
      7251      7254      7256      7251      7254      7257      7252      7251      7253
      7252      7251      7254      7253      7251      7254      7254      7257      7258
      7254      7257      7259      7254      7257      7260      7255      7254      7256
      7255      7254      7257      7256      7254      7257      7257      7260      7261
      7257      7260      7262      7257      7260      7263      7258      7257      7259
      7258      7257      7260      7259      7257      7260      7260      7263      7264
      7260      7263      7265      7260      7263      7266      7261      7260      7262
      7261      7260      7263      7262      7260      7263      7263      7266      7267
      7263      7266      7268      7263      7266      7269      7264      7263      7265
      7264      7263      7266      7265      7263      7266      7266      7269      7270
      7266      7269      7271      7267      7266      7268      7267      7266      7269
      7268      7266      7269      7269      7271      7272      7269      7271      7273
      7270      7269      7271      7271      7273      7274      7271      7273      7275
      7271      7273      7276      7272      7271      7273      7273      7276      7277
      7273      7276      7278      7273      7276      7279      7274      7273      7275
      7274      7273      7276      7275      7273      7276      7276      7279      7280
      7276      7279      7281      7276      7279      7282      7277      7276      7278
      7277      7276      7279      7278      7276      7279      7279      7282      7283
      7279      7282      7284      7279      7282      7285      7280      7279      7281
      7280      7279      7282      7281      7279      7282      7282      7285      7286
      7282      7285      7287      7282      7285      7288      7283      7282      7284
      7283      7282      7285      7284      7282      7285      7285      7288      7289
      7285      7288      7290      7285      7288      7291      7286      7285      7287
      7286      7285      7288      7287      7285      7288      7288      7291      7292
      7288      7291      7293      7288      7291      7294      7289      7288      7290
      7289      7288      7291      7290      7288      7291      7291      7294      7295
      7291      7294      7296      7291      7294      7297      7292      7291      7293
      7292      7291      7294      7293      7291      7294      7295      7294      7296
      7295      7294      7297      7296      7294      7297      7298      7301      7302
      7298      7301      7303      7298      7301      7304      7299      7298      7300
      7299      7298      7301      7300      7298      7301      7301      7304      7305
      7301      7304      7306      7301      7304      7307      7302      7301      7303
      7302      7301      7304      7303      7301      7304      7304      7307      7308
      7304      7307      7309      7304      7307      7310      7305      7304      7306
      7305      7304      7307      7306      7304      7307      7307      7310      7311
      7307      7310      7312      7307      7310      7313      7308      7307      7309
      7308      7307      7310      7309      7307      7310      7310      7313      7314
      7310      7313      7315      7310      7313      7316      7311      7310      7312
      7311      7310      7313      7312      7310      7313      7313      7316      7317
      7313      7316      7318      7313      7316      7319      7314      7313      7315
      7314      7313      7316      7315      7313      7316      7316      7319      7320
      7316      7319      7321      7316      7319      7322      7317      7316      7318
      7317      7316      7319      7318      7316      7319      7319      7322      7323
      7319      7322      7324      7319      7322      7325      7320      7319      7321
      7320      7319      7322      7321      7319      7322      7322      7325      7326
      7322      7325      7327      7322      7325      7328      7323      7322      7324
      7323      7322      7325      7324      7322      7325      7325      7328      7329
      7325      7328      7330      7325      7328      7331      7326      7325      7327
      7326      7325      7328      7327      7325      7328      7328      7331      7332
      7328      7331      7333      7328      7331      7334      7329      7328      7330
      7329      7328      7331      7330      7328      7331      7331      7334      7335
      7331      7334      7336      7331      7334      7337      7332      7331      7333
      7332      7331      7334      7333      7331      7334      7334      7337      7338
      7334      7337      7339      7334      7337      7340      7335      7334      7336
      7335      7334      7337      7336      7334      7337      7338      7337      7339
      7338      7337      7340      7339      7337      7340      7341      7345      7346
      7341      7345      7347      7341      7345      7348      7342      7341      7343
      7342      7341      7344      7342      7341      7345      7343      7341      7344
      7343      7341      7345      7344      7341      7345      7345      7348      7349
      7345      7348      7350      7345      7348      7355      7346      7345      7347
      7346      7345      7348      7347      7345      7348      7348      7355      7351
      7349      7348      7350      7349      7348      7355      7350      7348      7355
      7351      7354      7356      7352      7351      7353      7352      7351      7354
      7352      7351      7355      7353      7351      7354      7353      7351      7355
      7354      7351      7355      7354      7356      7357      7354      7356      7358
      7354      7356      7359      7356      7359      7360      7356      7359      7361
      7356      7359      7367      7357      7356      7358      7357      7356      7359
      7358      7356      7359      7359      7361      7362      7359      7367      7368
      7359      7367      7369      7359      7367      7370      7360      7359      7361
      7360      7359      7367      7361      7359      7367      7361      7362      7363
      7361      7362      7364      7362      7364      7365      7362      7364      7366
      7362      7364      7376      7363      7362      7364      7364      7376      7377
      7364      7376      7378      7364      7376      7379      7365      7364      7366
      7365      7364      7376      7366      7364      7376      7367      7370      7371
      7368      7367      7369      7368      7367      7370      7369      7367      7370
      7370      7371      7372      7370      7371      7373      7371      7373      7374
      7371      7373      7375      7371      7373      7420      7372      7371      7373
      7373      7420      7421      7373      7420      7422      7373      7420      7423
      7374      7373      7375      7374      7373      7420      7375      7373      7420
      7376      7379      7380      7376      7379      7381      7376      7379      7382
      7377      7376      7378      7377      7376      7379      7378      7376      7379
      7379      7382      7383      7379      7382      7384      7379      7382      7385
      7380      7379      7381      7380      7379      7382      7381      7379      7382
      7382      7385      7386      7382      7385      7387      7382      7385      7388
      7383      7382      7384      7383      7382      7385      7384      7382      7385
      7385      7388      7389      7385      7388      7390      7385      7388      7391
      7386      7385      7387      7386      7385      7388      7387      7385      7388
      7388      7391      7392      7388      7391      7393      7388      7391      7394
      7389      7388      7390      7389      7388      7391      7390      7388      7391
      7391      7394      7395      7391      7394      7396      7391      7394      7399
      7392      7391      7393      7392      7391      7394      7393      7391      7394
      7394      7396      7397      7394      7396      7398      7394      7396      7399
      7394      7399      7396      7394      7399      7400      7394      7399      7401
      7395      7394      7396      7395      7394      7399      7396      7394      7399
      7396      7399      7400      7396      7399      7401      7397      7396      7398
      7397      7396      7399      7398      7396      7399      7399      7401      7402
      7399      7401      7403      7399      7401      7404      7400      7399      7401
      7401      7404      7405      7401      7404      7406      7401      7404      7407
      7402      7401      7403      7402      7401      7404      7403      7401      7404
      7404      7407      7408      7404      7407      7409      7404      7407      7410
      7405      7404      7406      7405      7404      7407      7406      7404      7407
      7407      7410      7411      7407      7410      7412      7407      7410      7413
      7408      7407      7409      7408      7407      7410      7409      7407      7410
      7410      7413      7414      7410      7413      7415      7410      7413      7416
      7411      7410      7412      7411      7410      7413      7412      7410      7413
      7413      7416      7417      7413      7416      7418      7413      7416      7419
      7414      7413      7415      7414      7413      7416      7415      7413      7416
      7417      7416      7418      7417      7416      7419      7418      7416      7419
      7420      7423      7424      7420      7423      7425      7420      7423      7426
      7421      7420      7422      7421      7420      7423      7422      7420      7423
      7423      7426      7427      7423      7426      7428      7423      7426      7429
      7424      7423      7425      7424      7423      7426      7425      7423      7426
      7426      7429      7430      7426      7429      7431      7426      7429      7432
      7427      7426      7428      7427      7426      7429      7428      7426      7429
      7429      7432      7433      7429      7432      7434      7429      7432      7435
      7430      7429      7431      7430      7429      7432      7431      7429      7432
      7432      7435      7436      7432      7435      7437      7432      7435      7438
      7433      7432      7434      7433      7432      7435      7434      7432      7435
      7435      7438      7439      7435      7438      7440      7435      7438      7441
      7436      7435      7437      7436      7435      7438      7437      7435      7438
      7438      7441      7442      7438      7441      7443      7438      7441      7444
      7439      7438      7440      7439      7438      7441      7440      7438      7441
      7441      7444      7445      7441      7444      7446      7441      7444      7447
      7442      7441      7443      7442      7441      7444      7443      7441      7444
      7444      7447      7448      7444      7447      7449      7444      7447      7450
      7445      7444      7446      7445      7444      7447      7446      7444      7447
      7447      7450      7451      7447      7450      7452      7447      7450      7453
      7448      7447      7449      7448      7447      7450      7449      7447      7450
      7450      7453      7454      7450      7453      7455      7450      7453      7456
      7451      7450      7452      7451      7450      7453      7452      7450      7453
      7453      7456      7457      7453      7456      7458      7453      7456      7459
      7454      7453      7455      7454      7453      7456      7455      7453      7456
      7456      7459      7460      7456      7459      7461      7456      7459      7462
      7457      7456      7458      7457      7456      7459      7458      7456      7459
      7460      7459      7461      7460      7459      7462      7461      7459      7462
      7463      7467      7468      7463      7467      7469      7463      7467      7470
      7464      7463      7465      7464      7463      7466      7464      7463      7467
      7465      7463      7466      7465      7463      7467      7466      7463      7467
      7467      7470      7471      7467      7470      7472      7467      7470      7477
      7468      7467      7469      7468      7467      7470      7469      7467      7470
      7470      7477      7473      7471      7470      7472      7471      7470      7477
      7472      7470      7477      7473      7476      7478      7474      7473      7475
      7474      7473      7476      7474      7473      7477      7475      7473      7476
      7475      7473      7477      7476      7473      7477      7476      7478      7479
      7476      7478      7480      7476      7478      7481      7478      7481      7482
      7478      7481      7483      7478      7481      7489      7479      7478      7480
      7479      7478      7481      7480      7478      7481      7481      7483      7484
      7481      7489      7490      7481      7489      7491      7481      7489      7492
      7482      7481      7483      7482      7481      7489      7483      7481      7489
      7483      7484      7485      7483      7484      7486      7484      7486      7487
      7484      7486      7488      7484      7486      7498      7485      7484      7486
      7486      7498      7499      7486      7498      7500      7486      7498      7501
      7487      7486      7488      7487      7486      7498      7488      7486      7498
      7489      7492      7493      7490      7489      7491      7490      7489      7492
      7491      7489      7492      7492      7493      7494      7492      7493      7495
      7493      7495      7496      7493      7495      7497      7493      7495      7542
      7494      7493      7495      7495      7542      7543      7495      7542      7544
      7495      7542      7545      7496      7495      7497      7496      7495      7542
      7497      7495      7542      7498      7501      7502      7498      7501      7503
      7498      7501      7504      7499      7498      7500      7499      7498      7501
      7500      7498      7501      7501      7504      7505      7501      7504      7506
      7501      7504      7507      7502      7501      7503      7502      7501      7504
      7503      7501      7504      7504      7507      7508      7504      7507      7509
      7504      7507      7510      7505      7504      7506      7505      7504      7507
      7506      7504      7507      7507      7510      7511      7507      7510      7512
      7507      7510      7513      7508      7507      7509      7508      7507      7510
      7509      7507      7510      7510      7513      7514      7510      7513      7515
      7510      7513      7516      7511      7510      7512      7511      7510      7513
      7512      7510      7513      7513      7516      7517      7513      7516      7518
      7513      7516      7521      7514      7513      7515      7514      7513      7516
      7515      7513      7516      7516      7518      7519      7516      7518      7520
      7516      7518      7521      7516      7521      7518      7516      7521      7522
      7516      7521      7523      7517      7516      7518      7517      7516      7521
      7518      7516      7521      7518      7521      7522      7518      7521      7523
      7519      7518      7520      7519      7518      7521      7520      7518      7521
      7521      7523      7524      7521      7523      7525      7521      7523      7526
      7522      7521      7523      7523      7526      7527      7523      7526      7528
      7523      7526      7529      7524      7523      7525      7524      7523      7526
      7525      7523      7526      7526      7529      7530      7526      7529      7531
      7526      7529      7532      7527      7526      7528      7527      7526      7529
      7528      7526      7529      7529      7532      7533      7529      7532      7534
      7529      7532      7535      7530      7529      7531      7530      7529      7532
      7531      7529      7532      7532      7535      7536      7532      7535      7537
      7532      7535      7538      7533      7532      7534      7533      7532      7535
      7534      7532      7535      7535      7538      7539      7535      7538      7540
      7535      7538      7541      7536      7535      7537      7536      7535      7538
      7537      7535      7538      7539      7538      7540      7539      7538      7541
      7540      7538      7541      7542      7545      7546      7542      7545      7547
      7542      7545      7548      7543      7542      7544      7543      7542      7545
      7544      7542      7545      7545      7548      7549      7545      7548      7550
      7545      7548      7551      7546      7545      7547      7546      7545      7548
      7547      7545      7548      7548      7551      7552      7548      7551      7553
      7548      7551      7554      7549      7548      7550      7549      7548      7551
      7550      7548      7551      7551      7554      7555      7551      7554      7556
      7551      7554      7557      7552      7551      7553      7552      7551      7554
      7553      7551      7554      7554      7557      7558      7554      7557      7559
      7554      7557      7560      7555      7554      7556      7555      7554      7557
      7556      7554      7557      7557      7560      7561      7557      7560      7562
      7557      7560      7563      7558      7557      7559      7558      7557      7560
      7559      7557      7560      7560      7563      7564      7560      7563      7565
      7560      7563      7566      7561      7560      7562      7561      7560      7563
      7562      7560      7563      7563      7566      7567      7563      7566      7568
      7563      7566      7569      7564      7563      7565      7564      7563      7566
      7565      7563      7566      7566      7569      7570      7566      7569      7571
      7566      7569      7572      7567      7566      7568      7567      7566      7569
      7568      7566      7569      7569      7572      7573      7569      7572      7574
      7569      7572      7575      7570      7569      7571      7570      7569      7572
      7571      7569      7572      7572      7575      7576      7572      7575      7577
      7572      7575      7578      7573      7572      7574      7573      7572      7575
      7574      7572      7575      7575      7578      7579      7575      7578      7580
      7575      7578      7581      7576      7575      7577      7576      7575      7578
      7577      7575      7578      7578      7581      7582      7578      7581      7583
      7578      7581      7584      7579      7578      7580      7579      7578      7581
      7580      7578      7581      7582      7581      7583      7582      7581      7584
      7583      7581      7584      7585      7589      7590      7585      7589      7591
      7585      7589      7592      7586      7585      7587      7586      7585      7588
      7586      7585      7589      7587      7585      7588      7587      7585      7589
      7588      7585      7589      7589      7592      7593      7589      7592      7594
      7589      7592      7599      7590      7589      7591      7590      7589      7592
      7591      7589      7592      7592      7599      7595      7593      7592      7594
      7593      7592      7599      7594      7592      7599      7595      7598      7600
      7596      7595      7597      7596      7595      7598      7596      7595      7599
      7597      7595      7598      7597      7595      7599      7598      7595      7599
      7598      7600      7601      7598      7600      7602      7598      7600      7603
      7600      7603      7604      7600      7603      7605      7600      7603      7611
      7601      7600      7602      7601      7600      7603      7602      7600      7603
      7603      7605      7606      7603      7611      7612      7603      7611      7613
      7603      7611      7614      7604      7603      7605      7604      7603      7611
      7605      7603      7611      7605      7606      7607      7605      7606      7608
      7606      7608      7609      7606      7608      7610      7606      7608      7620
      7607      7606      7608      7608      7620      7621      7608      7620      7622
      7608      7620      7623      7609      7608      7610      7609      7608      7620
      7610      7608      7620      7611      7614      7615      7612      7611      7613
      7612      7611      7614      7613      7611      7614      7614      7615      7616
      7614      7615      7617      7615      7617      7618      7615      7617      7619
      7615      7617      7664      7616      7615      7617      7617      7664      7665
      7617      7664      7666      7617      7664      7667      7618      7617      7619
      7618      7617      7664      7619      7617      7664      7620      7623      7624
      7620      7623      7625      7620      7623      7626      7621      7620      7622
      7621      7620      7623      7622      7620      7623      7623      7626      7627
      7623      7626      7628      7623      7626      7629      7624      7623      7625
      7624      7623      7626      7625      7623      7626      7626      7629      7630
      7626      7629      7631      7626      7629      7632      7627      7626      7628
      7627      7626      7629      7628      7626      7629      7629      7632      7633
      7629      7632      7634      7629      7632      7635      7630      7629      7631
      7630      7629      7632      7631      7629      7632      7632      7635      7636
      7632      7635      7637      7632      7635      7638      7633      7632      7634
      7633      7632      7635      7634      7632      7635      7635      7638      7639
      7635      7638      7640      7635      7638      7643      7636      7635      7637
      7636      7635      7638      7637      7635      7638      7638      7640      7641
      7638      7640      7642      7638      7640      7643      7638      7643      7640
      7638      7643      7644      7638      7643      7645      7639      7638      7640
      7639      7638      7643      7640      7638      7643      7640      7643      7644
      7640      7643      7645      7641      7640      7642      7641      7640      7643
      7642      7640      7643      7643      7645      7646      7643      7645      7647
      7643      7645      7648      7644      7643      7645      7645      7648      7649
      7645      7648      7650      7645      7648      7651      7646      7645      7647
      7646      7645      7648      7647      7645      7648      7648      7651      7652
      7648      7651      7653      7648      7651      7654      7649      7648      7650
      7649      7648      7651      7650      7648      7651      7651      7654      7655
      7651      7654      7656      7651      7654      7657      7652      7651      7653
      7652      7651      7654      7653      7651      7654      7654      7657      7658
      7654      7657      7659      7654      7657      7660      7655      7654      7656
      7655      7654      7657      7656      7654      7657      7657      7660      7661
      7657      7660      7662      7657      7660      7663      7658      7657      7659
      7658      7657      7660      7659      7657      7660      7661      7660      7662
      7661      7660      7663      7662      7660      7663      7664      7667      7668
      7664      7667      7669      7664      7667      7670      7665      7664      7666
      7665      7664      7667      7666      7664      7667      7667      7670      7671
      7667      7670      7672      7667      7670      7673      7668      7667      7669
      7668      7667      7670      7669      7667      7670      7670      7673      7674
      7670      7673      7675      7670      7673      7676      7671      7670      7672
      7671      7670      7673      7672      7670      7673      7673      7676      7677
      7673      7676      7678      7673      7676      7679      7674      7673      7675
      7674      7673      7676      7675      7673      7676      7676      7679      7680
      7676      7679      7681      7676      7679      7682      7677      7676      7678
      7677      7676      7679      7678      7676      7679      7679      7682      7683
      7679      7682      7684      7679      7682      7685      7680      7679      7681
      7680      7679      7682      7681      7679      7682      7682      7685      7686
      7682      7685      7687      7682      7685      7688      7683      7682      7684
      7683      7682      7685      7684      7682      7685      7685      7688      7689
      7685      7688      7690      7685      7688      7691      7686      7685      7687
      7686      7685      7688      7687      7685      7688      7688      7691      7692
      7688      7691      7693      7688      7691      7694      7689      7688      7690
      7689      7688      7691      7690      7688      7691      7691      7694      7695
      7691      7694      7696      7691      7694      7697      7692      7691      7693
      7692      7691      7694      7693      7691      7694      7694      7697      7698
      7694      7697      7699      7694      7697      7700      7695      7694      7696
      7695      7694      7697      7696      7694      7697      7697      7700      7701
      7697      7700      7702      7697      7700      7703      7698      7697      7699
      7698      7697      7700      7699      7697      7700      7700      7703      7704
      7700      7703      7705      7700      7703      7706      7701      7700      7702
      7701      7700      7703      7702      7700      7703      7704      7703      7705
      7704      7703      7706      7705      7703      7706      7707      7710      7711
      7707      7712      7713      7707      7712      7714      7707      7712      7716
      7708      7707      7709      7708      7707      7710      7708      7707      7712
      7709      7707      7710      7709      7707      7712      7710      7707      7712
      7712      7714      7715      7712      7716      7717      7712      7716      7718
      7712      7716      7723      7713      7712      7714      7713      7712      7716
      7714      7712      7716      7716      7723      7719      7717      7716      7718
      7717      7716      7723      7718      7716      7723      7719      7722      7724
      7720      7719      7721      7720      7719      7722      7720      7719      7723
      7721      7719      7722      7721      7719      7723      7722      7719      7723
      7722      7724      7725      7722      7724      7726      7722      7724      7727
      7724      7727      7728      7724      7727      7729      7724      7727      7735
      7725      7724      7726      7725      7724      7727      7726      7724      7727
      7727      7729      7730      7727      7735      7736      7727      7735      7737
      7727      7735      7738      7728      7727      7729      7728      7727      7735
      7729      7727      7735      7729      7730      7731      7729      7730      7732
      7730      7732      7733      7730      7732      7734      7730      7732      7744
      7731      7730      7732      7732      7744      7745      7732      7744      7746
      7732      7744      7747      7733      7732      7734      7733      7732      7744
      7734      7732      7744      7735      7738      7739      7736      7735      7737
      7736      7735      7738      7737      7735      7738      7738      7739      7740
      7738      7739      7741      7739      7741      7742      7739      7741      7743
      7739      7741      7785      7740      7739      7741      7741      7785      7786
      7741      7785      7787      7741      7785      7788      7742      7741      7743
      7742      7741      7785      7743      7741      7785      7744      7747      7748
      7744      7747      7749      7744      7747      7750      7745      7744      7746
      7745      7744      7747      7746      7744      7747      7747      7750      7751
      7747      7750      7752      7747      7750      7753      7748      7747      7749
      7748      7747      7750      7749      7747      7750      7750      7753      7754
      7750      7753      7755      7750      7753      7756      7751      7750      7752
      7751      7750      7753      7752      7750      7753      7753      7756      7757
      7753      7756      7758      7753      7756      7759      7754      7753      7755
      7754      7753      7756      7755      7753      7756      7756      7759      7760
      7756      7759      7761      7756      7759      7762      7757      7756      7758
      7757      7756      7759      7758      7756      7759      7759      7762      7763
      7759      7762      7764      7760      7759      7761      7760      7759      7762
      7761      7759      7762      7762      7764      7765      7762      7764      7766
      7763      7762      7764      7764      7766      7767      7764      7766      7768
      7764      7766      7769      7765      7764      7766      7766      7769      7770
      7766      7769      7771      7766      7769      7772      7767      7766      7768
      7767      7766      7769      7768      7766      7769      7769      7772      7773
      7769      7772      7774      7769      7772      7775      7770      7769      7771
      7770      7769      7772      7771      7769      7772      7772      7775      7776
      7772      7775      7777      7772      7775      7778      7773      7772      7774
      7773      7772      7775      7774      7772      7775      7775      7778      7779
      7775      7778      7780      7775      7778      7781      7776      7775      7777
      7776      7775      7778      7777      7775      7778      7778      7781      7782
      7778      7781      7783      7778      7781      7784      7779      7778      7780
      7779      7778      7781      7780      7778      7781      7782      7781      7783
      7782      7781      7784      7783      7781      7784      7785      7788      7789
      7785      7788      7790      7785      7788      7791      7786      7785      7787
      7786      7785      7788      7787      7785      7788      7788      7791      7792
      7788      7791      7793      7788      7791      7794      7789      7788      7790
      7789      7788      7791      7790      7788      7791      7791      7794      7795
      7791      7794      7796      7791      7794      7797      7792      7791      7793
      7792      7791      7794      7793      7791      7794      7794      7797      7798
      7794      7797      7799      7794      7797      7800      7795      7794      7796
      7795      7794      7797      7796      7794      7797      7797      7800      7801
      7797      7800      7802      7797      7800      7803      7798      7797      7799
      7798      7797      7800      7799      7797      7800      7800      7803      7804
      7800      7803      7805      7800      7803      7806      7801      7800      7802
      7801      7800      7803      7802      7800      7803      7803      7806      7807
      7803      7806      7808      7803      7806      7809      7804      7803      7805
      7804      7803      7806      7805      7803      7806      7806      7809      7810
      7806      7809      7811      7806      7809      7812      7807      7806      7808
      7807      7806      7809      7808      7806      7809      7809      7812      7813
      7809      7812      7814      7809      7812      7815      7810      7809      7811
      7810      7809      7812      7811      7809      7812      7812      7815      7816
      7812      7815      7817      7812      7815      7818      7813      7812      7814
      7813      7812      7815      7814      7812      7815      7815      7818      7819
      7815      7818      7820      7815      7818      7821      7816      7815      7817
      7816      7815      7818      7817      7815      7818      7818      7821      7822
      7818      7821      7823      7818      7821      7824      7819      7818      7820
      7819      7818      7821      7820      7818      7821      7821      7824      7825
      7821      7824      7826      7821      7824      7827      7822      7821      7823
      7822      7821      7824      7823      7821      7824      7825      7824      7826
      7825      7824      7827      7826      7824      7827      7828      7831      7832
      7828      7833      7834      7828      7833      7835      7828      7833      7837
      7829      7828      7830      7829      7828      7831      7829      7828      7833
      7830      7828      7831      7830      7828      7833      7831      7828      7833
      7833      7835      7836      7833      7837      7838      7833      7837      7839
      7833      7837      7844      7834      7833      7835      7834      7833      7837
      7835      7833      7837      7837      7844      7840      7838      7837      7839
      7838      7837      7844      7839      7837      7844      7840      7843      7845
      7841      7840      7842      7841      7840      7843      7841      7840      7844
      7842      7840      7843      7842      7840      7844      7843      7840      7844
      7843      7845      7846      7843      7845      7847      7843      7845      7848
      7845      7848      7849      7845      7848      7850      7845      7848      7856
      7846      7845      7847      7846      7845      7848      7847      7845      7848
      7848      7850      7851      7848      7856      7857      7848      7856      7858
      7848      7856      7859      7849      7848      7850      7849      7848      7856
      7850      7848      7856      7850      7851      7852      7850      7851      7853
      7851      7853      7854      7851      7853      7855      7851      7853      7865
      7852      7851      7853      7853      7865      7866      7853      7865      7867
      7853      7865      7868      7854      7853      7855      7854      7853      7865
      7855      7853      7865      7856      7859      7860      7857      7856      7858
      7857      7856      7859      7858      7856      7859      7859      7860      7861
      7859      7860      7862      7860      7862      7863      7860      7862      7864
      7860      7862      7906      7861      7860      7862      7862      7906      7907
      7862      7906      7908      7862      7906      7909      7863      7862      7864
      7863      7862      7906      7864      7862      7906      7865      7868      7869
      7865      7868      7870      7865      7868      7871      7866      7865      7867
      7866      7865      7868      7867      7865      7868      7868      7871      7872
      7868      7871      7873      7868      7871      7874      7869      7868      7870
      7869      7868      7871      7870      7868      7871      7871      7874      7875
      7871      7874      7876      7871      7874      7877      7872      7871      7873
      7872      7871      7874      7873      7871      7874      7874      7877      7878
      7874      7877      7879      7874      7877      7880      7875      7874      7876
      7875      7874      7877      7876      7874      7877      7877      7880      7881
      7877      7880      7882      7877      7880      7883      7878      7877      7879
      7878      7877      7880      7879      7877      7880      7880      7883      7884
      7880      7883      7885      7881      7880      7882      7881      7880      7883
      7882      7880      7883      7883      7885      7886      7883      7885      7887
      7884      7883      7885      7885      7887      7888      7885      7887      7889
      7885      7887      7890      7886      7885      7887      7887      7890      7891
      7887      7890      7892      7887      7890      7893      7888      7887      7889
      7888      7887      7890      7889      7887      7890      7890      7893      7894
      7890      7893      7895      7890      7893      7896      7891      7890      7892
      7891      7890      7893      7892      7890      7893      7893      7896      7897
      7893      7896      7898      7893      7896      7899      7894      7893      7895
      7894      7893      7896      7895      7893      7896      7896      7899      7900
      7896      7899      7901      7896      7899      7902      7897      7896      7898
      7897      7896      7899      7898      7896      7899      7899      7902      7903
      7899      7902      7904      7899      7902      7905      7900      7899      7901
      7900      7899      7902      7901      7899      7902      7903      7902      7904
      7903      7902      7905      7904      7902      7905      7906      7909      7910
      7906      7909      7911      7906      7909      7912      7907      7906      7908
      7907      7906      7909      7908      7906      7909      7909      7912      7913
      7909      7912      7914      7909      7912      7915      7910      7909      7911
      7910      7909      7912      7911      7909      7912      7912      7915      7916
      7912      7915      7917      7912      7915      7918      7913      7912      7914
      7913      7912      7915      7914      7912      7915      7915      7918      7919
      7915      7918      7920      7915      7918      7921      7916      7915      7917
      7916      7915      7918      7917      7915      7918      7918      7921      7922
      7918      7921      7923      7918      7921      7924      7919      7918      7920
      7919      7918      7921      7920      7918      7921      7921      7924      7925
      7921      7924      7926      7921      7924      7927      7922      7921      7923
      7922      7921      7924      7923      7921      7924      7924      7927      7928
      7924      7927      7929      7924      7927      7930      7925      7924      7926
      7925      7924      7927      7926      7924      7927      7927      7930      7931
      7927      7930      7932      7927      7930      7933      7928      7927      7929
      7928      7927      7930      7929      7927      7930      7930      7933      7934
      7930      7933      7935      7930      7933      7936      7931      7930      7932
      7931      7930      7933      7932      7930      7933      7933      7936      7937
      7933      7936      7938      7933      7936      7939      7934      7933      7935
      7934      7933      7936      7935      7933      7936      7936      7939      7940
      7936      7939      7941      7936      7939      7942      7937      7936      7938
      7937      7936      7939      7938      7936      7939      7939      7942      7943
      7939      7942      7944      7939      7942      7945      7940      7939      7941
      7940      7939      7942      7941      7939      7942      7942      7945      7946
      7942      7945      7947      7942      7945      7948      7943      7942      7944
      7943      7942      7945      7944      7942      7945      7946      7945      7947
      7946      7945      7948      7947      7945      7948      7949      7953      7954
      7949      7953      7955      7949      7953      7956      7950      7949      7951
      7950      7949      7952      7950      7949      7953      7951      7949      7952
      7951      7949      7953      7952      7949      7953      7953      7956      7957
      7953      7956      7958      7953      7956      7963      7954      7953      7955
      7954      7953      7956      7955      7953      7956      7956      7963      7959
      7957      7956      7958      7957      7956      7963      7958      7956      7963
      7959      7962      7964      7960      7959      7961      7960      7959      7962
      7960      7959      7963      7961      7959      7962      7961      7959      7963
      7962      7959      7963      7962      7964      7965      7962      7964      7966
      7962      7964      7967      7964      7967      7968      7964      7967      7969
      7964      7967      7975      7965      7964      7966      7965      7964      7967
      7966      7964      7967      7967      7969      7970      7967      7975      7976
      7967      7975      7977      7967      7975      7978      7968      7967      7969
      7968      7967      7975      7969      7967      7975      7969      7970      7971
      7969      7970      7972      7970      7972      7973      7970      7972      7974
      7970      7972      7984      7971      7970      7972      7972      7984      7985
      7972      7984      7986      7972      7984      7987      7973      7972      7974
      7973      7972      7984      7974      7972      7984      7975      7978      7979
      7976      7975      7977      7976      7975      7978      7977      7975      7978
      7978      7979      7980      7978      7979      7981      7979      7981      7982
      7979      7981      7983      7979      7981      8028      7980      7979      7981
      7981      8028      8029      7981      8028      8030      7981      8028      8031
      7982      7981      7983      7982      7981      8028      7983      7981      8028
      7984      7987      7988      7984      7987      7989      7984      7987      7990
      7985      7984      7986      7985      7984      7987      7986      7984      7987
      7987      7990      7991      7987      7990      7992      7987      7990      7993
      7988      7987      7989      7988      7987      7990      7989      7987      7990
      7990      7993      7994      7990      7993      7995      7990      7993      7996
      7991      7990      7992      7991      7990      7993      7992      7990      7993
      7993      7996      7997      7993      7996      7998      7993      7996      7999
      7994      7993      7995      7994      7993      7996      7995      7993      7996
      7996      7999      8000      7996      7999      8001      7996      7999      8002
      7997      7996      7998      7997      7996      7999      7998      7996      7999
      7999      8002      8003      7999      8002      8004      7999      8002      8007
      8000      7999      8001      8000      7999      8002      8001      7999      8002
      8002      8004      8005      8002      8004      8006      8002      8004      8007
      8002      8007      8004      8002      8007      8008      8002      8007      8009
      8003      8002      8004      8003      8002      8007      8004      8002      8007
      8004      8007      8008      8004      8007      8009      8005      8004      8006
      8005      8004      8007      8006      8004      8007      8007      8009      8010
      8007      8009      8011      8007      8009      8012      8008      8007      8009
      8009      8012      8013      8009      8012      8014      8009      8012      8015
      8010      8009      8011      8010      8009      8012      8011      8009      8012
      8012      8015      8016      8012      8015      8017      8012      8015      8018
      8013      8012      8014      8013      8012      8015      8014      8012      8015
      8015      8018      8019      8015      8018      8020      8015      8018      8021
      8016      8015      8017      8016      8015      8018      8017      8015      8018
      8018      8021      8022      8018      8021      8023      8018      8021      8024
      8019      8018      8020      8019      8018      8021      8020      8018      8021
      8021      8024      8025      8021      8024      8026      8021      8024      8027
      8022      8021      8023      8022      8021      8024      8023      8021      8024
      8025      8024      8026      8025      8024      8027      8026      8024      8027
      8028      8031      8032      8028      8031      8033      8028      8031      8034
      8029      8028      8030      8029      8028      8031      8030      8028      8031
      8031      8034      8035      8031      8034      8036      8031      8034      8037
      8032      8031      8033      8032      8031      8034      8033      8031      8034
      8034      8037      8038      8034      8037      8039      8034      8037      8040
      8035      8034      8036      8035      8034      8037      8036      8034      8037
      8037      8040      8041      8037      8040      8042      8037      8040      8043
      8038      8037      8039      8038      8037      8040      8039      8037      8040
      8040      8043      8044      8040      8043      8045      8040      8043      8046
      8041      8040      8042      8041      8040      8043      8042      8040      8043
      8043      8046      8047      8043      8046      8048      8043      8046      8049
      8044      8043      8045      8044      8043      8046      8045      8043      8046
      8046      8049      8050      8046      8049      8051      8046      8049      8052
      8047      8046      8048      8047      8046      8049      8048      8046      8049
      8049      8052      8053      8049      8052      8054      8049      8052      8055
      8050      8049      8051      8050      8049      8052      8051      8049      8052
      8052      8055      8056      8052      8055      8057      8052      8055      8058
      8053      8052      8054      8053      8052      8055      8054      8052      8055
      8055      8058      8059      8055      8058      8060      8055      8058      8061
      8056      8055      8057      8056      8055      8058      8057      8055      8058
      8058      8061      8062      8058      8061      8063      8058      8061      8064
      8059      8058      8060      8059      8058      8061      8060      8058      8061
      8061      8064      8065      8061      8064      8066      8061      8064      8067
      8062      8061      8063      8062      8061      8064      8063      8061      8064
      8065      8064      8066      8065      8064      8067      8066      8064      8067
      8068      8072      8073      8068      8072      8074      8068      8072      8075
      8069      8068      8070      8069      8068      8071      8069      8068      8072
      8070      8068      8071      8070      8068      8072      8071      8068      8072
      8072      8075      8076      8072      8075      8077      8072      8075      8082
      8073      8072      8074      8073      8072      8075      8074      8072      8075
      8075      8082      8078      8076      8075      8077      8076      8075      8082
      8077      8075      8082      8078      8081      8083      8079      8078      8080
      8079      8078      8081      8079      8078      8082      8080      8078      8081
      8080      8078      8082      8081      8078      8082      8081      8083      8084
      8081      8083      8085      8081      8083      8086      8083      8086      8087
      8083      8086      8088      8083      8086      8094      8084      8083      8085
      8084      8083      8086      8085      8083      8086      8086      8088      8089
      8086      8094      8095      8086      8094      8096      8086      8094      8097
      8087      8086      8088      8087      8086      8094      8088      8086      8094
      8088      8089      8090      8088      8089      8091      8089      8091      8092
      8089      8091      8093      8089      8091      8103      8090      8089      8091
      8091      8103      8104      8091      8103      8105      8091      8103      8106
      8092      8091      8093      8092      8091      8103      8093      8091      8103
      8094      8097      8098      8095      8094      8096      8095      8094      8097
      8096      8094      8097      8097      8098      8099      8097      8098      8100
      8098      8100      8101      8098      8100      8102      8098      8100      8150
      8099      8098      8100      8100      8150      8151      8100      8150      8152
      8100      8150      8153      8101      8100      8102      8101      8100      8150
      8102      8100      8150      8103      8106      8107      8103      8106      8108
      8103      8106      8109      8104      8103      8105      8104      8103      8106
      8105      8103      8106      8106      8109      8110      8106      8109      8111
      8106      8109      8112      8107      8106      8108      8107      8106      8109
      8108      8106      8109      8109      8112      8113      8109      8112      8114
      8109      8112      8115      8110      8109      8111      8110      8109      8112
      8111      8109      8112      8112      8115      8116      8112      8115      8117
      8112      8115      8118      8113      8112      8114      8113      8112      8115
      8114      8112      8115      8115      8118      8119      8115      8118      8120
      8115      8118      8121      8116      8115      8117      8116      8115      8118
      8117      8115      8118      8118      8121      8122      8118      8121      8123
      8119      8118      8120      8119      8118      8121      8120      8118      8121
      8121      8123      8124      8121      8123      8125      8122      8121      8123
      8123      8125      8126      8123      8125      8127      8123      8125      8128
      8124      8123      8125      8125      8128      8129      8125      8128      8130
      8125      8128      8131      8126      8125      8127      8126      8125      8128
      8127      8125      8128      8128      8131      8132      8128      8131      8133
      8128      8131      8134      8129      8128      8130      8129      8128      8131
      8130      8128      8131      8131      8134      8135      8131      8134      8136
      8131      8134      8137      8132      8131      8133      8132      8131      8134
      8133      8131      8134      8134      8137      8138      8134      8137      8139
      8134      8137      8140      8135      8134      8136      8135      8134      8137
      8136      8134      8137      8137      8140      8141      8137      8140      8142
      8137      8140      8143      8138      8137      8139      8138      8137      8140
      8139      8137      8140      8140      8143      8144      8140      8143      8145
      8140      8143      8146      8141      8140      8142      8141      8140      8143
      8142      8140      8143      8143      8146      8147      8143      8146      8148
      8143      8146      8149      8144      8143      8145      8144      8143      8146
      8145      8143      8146      8147      8146      8148      8147      8146      8149
      8148      8146      8149      8150      8153      8154      8150      8153      8155
      8150      8153      8156      8151      8150      8152      8151      8150      8153
      8152      8150      8153      8153      8156      8157      8153      8156      8158
      8153      8156      8159      8154      8153      8155      8154      8153      8156
      8155      8153      8156      8156      8159      8160      8156      8159      8161
      8156      8159      8162      8157      8156      8158      8157      8156      8159
      8158      8156      8159      8159      8162      8163      8159      8162      8164
      8159      8162      8165      8160      8159      8161      8160      8159      8162
      8161      8159      8162      8162      8165      8166      8162      8165      8167
      8162      8165      8168      8163      8162      8164      8163      8162      8165
      8164      8162      8165      8165      8168      8169      8165      8168      8170
      8165      8168      8171      8166      8165      8167      8166      8165      8168
      8167      8165      8168      8168      8171      8172      8168      8171      8173
      8168      8171      8174      8169      8168      8170      8169      8168      8171
      8170      8168      8171      8171      8174      8175      8171      8174      8176
      8171      8174      8177      8172      8171      8173      8172      8171      8174
      8173      8171      8174      8174      8177      8178      8174      8177      8179
      8174      8177      8180      8175      8174      8176      8175      8174      8177
      8176      8174      8177      8177      8180      8181      8177      8180      8182
      8177      8180      8183      8178      8177      8179      8178      8177      8180
      8179      8177      8180      8180      8183      8184      8180      8183      8185
      8180      8183      8186      8181      8180      8182      8181      8180      8183
      8182      8180      8183      8183      8186      8187      8183      8186      8188
      8183      8186      8189      8184      8183      8185      8184      8183      8186
      8185      8183      8186      8186      8189      8190      8186      8189      8191
      8186      8189      8192      8187      8186      8188      8187      8186      8189
      8188      8186      8189      8190      8189      8191      8190      8189      8192
      8191      8189      8192      8193      8197      8198      8193      8197      8199
      8193      8197      8200      8194      8193      8195      8194      8193      8196
      8194      8193      8197      8195      8193      8196      8195      8193      8197
      8196      8193      8197      8197      8200      8201      8197      8200      8202
      8197      8200      8207      8198      8197      8199      8198      8197      8200
      8199      8197      8200      8200      8207      8203      8201      8200      8202
      8201      8200      8207      8202      8200      8207      8203      8206      8208
      8204      8203      8205      8204      8203      8206      8204      8203      8207
      8205      8203      8206      8205      8203      8207      8206      8203      8207
      8206      8208      8209      8206      8208      8210      8206      8208      8211
      8208      8211      8212      8208      8211      8213      8208      8211      8219
      8209      8208      8210      8209      8208      8211      8210      8208      8211
      8211      8213      8214      8211      8219      8220      8211      8219      8221
      8211      8219      8222      8212      8211      8213      8212      8211      8219
      8213      8211      8219      8213      8214      8215      8213      8214      8216
      8214      8216      8217      8214      8216      8218      8214      8216      8228
      8215      8214      8216      8216      8228      8229      8216      8228      8230
      8216      8228      8231      8217      8216      8218      8217      8216      8228
      8218      8216      8228      8219      8222      8223      8220      8219      8221
      8220      8219      8222      8221      8219      8222      8222      8223      8224
      8222      8223      8225      8223      8225      8226      8223      8225      8227
      8223      8225      8269      8224      8223      8225      8225      8269      8270
      8225      8269      8271      8225      8269      8272      8226      8225      8227
      8226      8225      8269      8227      8225      8269      8228      8231      8232
      8228      8231      8233      8228      8231      8234      8229      8228      8230
      8229      8228      8231      8230      8228      8231      8231      8234      8235
      8231      8234      8236      8231      8234      8237      8232      8231      8233
      8232      8231      8234      8233      8231      8234      8234      8237      8238
      8234      8237      8239      8234      8237      8240      8235      8234      8236
      8235      8234      8237      8236      8234      8237      8237      8240      8241
      8237      8240      8242      8237      8240      8243      8238      8237      8239
      8238      8237      8240      8239      8237      8240      8240      8243      8244
      8240      8243      8245      8240      8243      8246      8241      8240      8242
      8241      8240      8243      8242      8240      8243      8243      8246      8247
      8243      8246      8248      8244      8243      8245      8244      8243      8246
      8245      8243      8246      8246      8248      8249      8246      8248      8250
      8247      8246      8248      8248      8250      8251      8248      8250      8252
      8248      8250      8253      8249      8248      8250      8250      8253      8254
      8250      8253      8255      8250      8253      8256      8251      8250      8252
      8251      8250      8253      8252      8250      8253      8253      8256      8257
      8253      8256      8258      8253      8256      8259      8254      8253      8255
      8254      8253      8256      8255      8253      8256      8256      8259      8260
      8256      8259      8261      8256      8259      8262      8257      8256      8258
      8257      8256      8259      8258      8256      8259      8259      8262      8263
      8259      8262      8264      8259      8262      8265      8260      8259      8261
      8260      8259      8262      8261      8259      8262      8262      8265      8266
      8262      8265      8267      8262      8265      8268      8263      8262      8264
      8263      8262      8265      8264      8262      8265      8266      8265      8267
      8266      8265      8268      8267      8265      8268      8269      8272      8273
      8269      8272      8274      8269      8272      8275      8270      8269      8271
      8270      8269      8272      8271      8269      8272      8272      8275      8276
      8272      8275      8277      8272      8275      8278      8273      8272      8274
      8273      8272      8275      8274      8272      8275      8275      8278      8279
      8275      8278      8280      8275      8278      8281      8276      8275      8277
      8276      8275      8278      8277      8275      8278      8278      8281      8282
      8278      8281      8283      8278      8281      8284      8279      8278      8280
      8279      8278      8281      8280      8278      8281      8281      8284      8285
      8281      8284      8286      8281      8284      8287      8282      8281      8283
      8282      8281      8284      8283      8281      8284      8284      8287      8288
      8284      8287      8289      8285      8284      8286      8285      8284      8287
      8286      8284      8287      8287      8289      8290      8287      8289      8291
      8288      8287      8289      8289      8291      8292      8289      8291      8293
      8289      8291      8294      8290      8289      8291      8291      8294      8295
      8291      8294      8296      8291      8294      8297      8292      8291      8293
      8292      8291      8294      8293      8291      8294      8294      8297      8298
      8294      8297      8299      8294      8297      8300      8295      8294      8296
      8295      8294      8297      8296      8294      8297      8297      8300      8301
      8297      8300      8302      8297      8300      8303      8298      8297      8299
      8298      8297      8300      8299      8297      8300      8300      8303      8304
      8300      8303      8305      8300      8303      8306      8301      8300      8302
      8301      8300      8303      8302      8300      8303      8303      8306      8307
      8303      8306      8308      8303      8306      8309      8304      8303      8305
      8304      8303      8306      8305      8303      8306      8306      8309      8310
      8306      8309      8311      8306      8309      8312      8307      8306      8308
      8307      8306      8309      8308      8306      8309      8309      8312      8313
      8309      8312      8314      8309      8312      8315      8310      8309      8311
      8310      8309      8312      8311      8309      8312      8313      8312      8314
      8313      8312      8315      8314      8312      8315      8316      8320      8321
      8316      8320      8322      8316      8320      8323      8317      8316      8318
      8317      8316      8319      8317      8316      8320      8318      8316      8319
      8318      8316      8320      8319      8316      8320      8320      8323      8324
      8320      8323      8325      8320      8323      8330      8321      8320      8322
      8321      8320      8323      8322      8320      8323      8323      8330      8326
      8324      8323      8325      8324      8323      8330      8325      8323      8330
      8326      8329      8331      8327      8326      8328      8327      8326      8329
      8327      8326      8330      8328      8326      8329      8328      8326      8330
      8329      8326      8330      8329      8331      8332      8329      8331      8333
      8329      8331      8334      8331      8334      8335      8331      8334      8336
      8331      8334      8342      8332      8331      8333      8332      8331      8334
      8333      8331      8334      8334      8336      8337      8334      8342      8343
      8334      8342      8344      8334      8342      8345      8335      8334      8336
      8335      8334      8342      8336      8334      8342      8336      8337      8338
      8336      8337      8339      8337      8339      8340      8337      8339      8341
      8337      8339      8351      8338      8337      8339      8339      8351      8352
      8339      8351      8353      8339      8351      8354      8340      8339      8341
      8340      8339      8351      8341      8339      8351      8342      8345      8346
      8343      8342      8344      8343      8342      8345      8344      8342      8345
      8345      8346      8347      8345      8346      8348      8346      8348      8349
      8346      8348      8350      8346      8348      8392      8347      8346      8348
      8348      8392      8393      8348      8392      8394      8348      8392      8395
      8349      8348      8350      8349      8348      8392      8350      8348      8392
      8351      8354      8355      8351      8354      8356      8351      8354      8357
      8352      8351      8353      8352      8351      8354      8353      8351      8354
      8354      8357      8358      8354      8357      8359      8354      8357      8360
      8355      8354      8356      8355      8354      8357      8356      8354      8357
      8357      8360      8361      8357      8360      8362      8357      8360      8363
      8358      8357      8359      8358      8357      8360      8359      8357      8360
      8360      8363      8364      8360      8363      8365      8360      8363      8366
      8361      8360      8362      8361      8360      8363      8362      8360      8363
      8363      8366      8367      8363      8366      8368      8363      8366      8369
      8364      8363      8365      8364      8363      8366      8365      8363      8366
      8366      8369      8370      8366      8369      8371      8367      8366      8368
      8367      8366      8369      8368      8366      8369      8369      8371      8372
      8369      8371      8373      8370      8369      8371      8371      8373      8374
      8371      8373      8375      8371      8373      8376      8372      8371      8373
      8373      8376      8377      8373      8376      8378      8373      8376      8379
      8374      8373      8375      8374      8373      8376      8375      8373      8376
      8376      8379      8380      8376      8379      8381      8376      8379      8382
      8377      8376      8378      8377      8376      8379      8378      8376      8379
      8379      8382      8383      8379      8382      8384      8379      8382      8385
      8380      8379      8381      8380      8379      8382      8381      8379      8382
      8382      8385      8386      8382      8385      8387      8382      8385      8388
      8383      8382      8384      8383      8382      8385      8384      8382      8385
      8385      8388      8389      8385      8388      8390      8385      8388      8391
      8386      8385      8387      8386      8385      8388      8387      8385      8388
      8389      8388      8390      8389      8388      8391      8390      8388      8391
      8392      8395      8396      8392      8395      8397      8392      8395      8398
      8393      8392      8394      8393      8392      8395      8394      8392      8395
      8395      8398      8399      8395      8398      8400      8395      8398      8401
      8396      8395      8397      8396      8395      8398      8397      8395      8398
      8398      8401      8402      8398      8401      8403      8398      8401      8404
      8399      8398      8400      8399      8398      8401      8400      8398      8401
      8401      8404      8405      8401      8404      8406      8401      8404      8407
      8402      8401      8403      8402      8401      8404      8403      8401      8404
      8404      8407      8408      8404      8407      8409      8404      8407      8410
      8405      8404      8406      8405      8404      8407      8406      8404      8407
      8407      8410      8411      8407      8410      8412      8408      8407      8409
      8408      8407      8410      8409      8407      8410      8410      8412      8413
      8410      8412      8414      8411      8410      8412      8412      8414      8415
      8412      8414      8416      8412      8414      8417      8413      8412      8414
      8414      8417      8418      8414      8417      8419      8414      8417      8420
      8415      8414      8416      8415      8414      8417      8416      8414      8417
      8417      8420      8421      8417      8420      8422      8417      8420      8423
      8418      8417      8419      8418      8417      8420      8419      8417      8420
      8420      8423      8424      8420      8423      8425      8420      8423      8426
      8421      8420      8422      8421      8420      8423      8422      8420      8423
      8423      8426      8427      8423      8426      8428      8423      8426      8429
      8424      8423      8425      8424      8423      8426      8425      8423      8426
      8426      8429      8430      8426      8429      8431      8426      8429      8432
      8427      8426      8428      8427      8426      8429      8428      8426      8429
      8429      8432      8433      8429      8432      8434      8429      8432      8435
      8430      8429      8431      8430      8429      8432      8431      8429      8432
      8432      8435      8436      8432      8435      8437      8432      8435      8438
      8433      8432      8434      8433      8432      8435      8434      8432      8435
      8436      8435      8437      8436      8435      8438      8437      8435      8438
      8439      8443      8444      8439      8443      8445      8439      8443      8446
      8440      8439      8441      8440      8439      8442      8440      8439      8443
      8441      8439      8442      8441      8439      8443      8442      8439      8443
      8443      8446      8447      8443      8446      8448      8443      8446      8453
      8444      8443      8445      8444      8443      8446      8445      8443      8446
      8446      8453      8449      8447      8446      8448      8447      8446      8453
      8448      8446      8453      8449      8452      8454      8450      8449      8451
      8450      8449      8452      8450      8449      8453      8451      8449      8452
      8451      8449      8453      8452      8449      8453      8452      8454      8455
      8452      8454      8456      8452      8454      8457      8454      8457      8458
      8454      8457      8459      8454      8457      8465      8455      8454      8456
      8455      8454      8457      8456      8454      8457      8457      8459      8460
      8457      8465      8466      8457      8465      8467      8457      8465      8468
      8458      8457      8459      8458      8457      8465      8459      8457      8465
      8459      8460      8461      8459      8460      8462      8460      8462      8463
      8460      8462      8464      8460      8462      8474      8461      8460      8462
      8462      8474      8475      8462      8474      8476      8462      8474      8477
      8463      8462      8464      8463      8462      8474      8464      8462      8474
      8465      8468      8469      8466      8465      8467      8466      8465      8468
      8467      8465      8468      8468      8469      8470      8468      8469      8471
      8469      8471      8472      8469      8471      8473      8469      8471      8518
      8470      8469      8471      8471      8518      8519      8471      8518      8520
      8471      8518      8521      8472      8471      8473      8472      8471      8518
      8473      8471      8518      8474      8477      8478      8474      8477      8479
      8474      8477      8480      8475      8474      8476      8475      8474      8477
      8476      8474      8477      8477      8480      8481      8477      8480      8482
      8477      8480      8483      8478      8477      8479      8478      8477      8480
      8479      8477      8480      8480      8483      8484      8480      8483      8485
      8480      8483      8486      8481      8480      8482      8481      8480      8483
      8482      8480      8483      8483      8486      8487      8483      8486      8488
      8483      8486      8489      8484      8483      8485      8484      8483      8486
      8485      8483      8486      8486      8489      8490      8486      8489      8491
      8486      8489      8492      8487      8486      8488      8487      8486      8489
      8488      8486      8489      8489      8492      8493      8489      8492      8494
      8489      8492      8497      8490      8489      8491      8490      8489      8492
      8491      8489      8492      8492      8494      8495      8492      8494      8496
      8492      8494      8497      8492      8497      8494      8492      8497      8498
      8492      8497      8499      8493      8492      8494      8493      8492      8497
      8494      8492      8497      8494      8497      8498      8494      8497      8499
      8495      8494      8496      8495      8494      8497      8496      8494      8497
      8497      8499      8500      8497      8499      8501      8497      8499      8502
      8498      8497      8499      8499      8502      8503      8499      8502      8504
      8499      8502      8505      8500      8499      8501      8500      8499      8502
      8501      8499      8502      8502      8505      8506      8502      8505      8507
      8502      8505      8508      8503      8502      8504      8503      8502      8505
      8504      8502      8505      8505      8508      8509      8505      8508      8510
      8505      8508      8511      8506      8505      8507      8506      8505      8508
      8507      8505      8508      8508      8511      8512      8508      8511      8513
      8508      8511      8514      8509      8508      8510      8509      8508      8511
      8510      8508      8511      8511      8514      8515      8511      8514      8516
      8511      8514      8517      8512      8511      8513      8512      8511      8514
      8513      8511      8514      8515      8514      8516      8515      8514      8517
      8516      8514      8517      8518      8521      8522      8518      8521      8523
      8518      8521      8524      8519      8518      8520      8519      8518      8521
      8520      8518      8521      8521      8524      8525      8521      8524      8526
      8521      8524      8527      8522      8521      8523      8522      8521      8524
      8523      8521      8524      8524      8527      8528      8524      8527      8529
      8524      8527      8530      8525      8524      8526      8525      8524      8527
      8526      8524      8527      8527      8530      8531      8527      8530      8532
      8527      8530      8533      8528      8527      8529      8528      8527      8530
      8529      8527      8530      8530      8533      8534      8530      8533      8535
      8530      8533      8536      8531      8530      8532      8531      8530      8533
      8532      8530      8533      8533      8536      8537      8533      8536      8538
      8533      8536      8539      8534      8533      8535      8534      8533      8536
      8535      8533      8536      8536      8539      8540      8536      8539      8541
      8536      8539      8542      8537      8536      8538      8537      8536      8539
      8538      8536      8539      8539      8542      8543      8539      8542      8544
      8539      8542      8545      8540      8539      8541      8540      8539      8542
      8541      8539      8542      8542      8545      8546      8542      8545      8547
      8542      8545      8548      8543      8542      8544      8543      8542      8545
      8544      8542      8545      8545      8548      8549      8545      8548      8550
      8545      8548      8551      8546      8545      8547      8546      8545      8548
      8547      8545      8548      8548      8551      8552      8548      8551      8553
      8548      8551      8554      8549      8548      8550      8549      8548      8551
      8550      8548      8551      8551      8554      8555      8551      8554      8556
      8551      8554      8557      8552      8551      8553      8552      8551      8554
      8553      8551      8554      8554      8557      8558      8554      8557      8559
      8554      8557      8560      8555      8554      8556      8555      8554      8557
      8556      8554      8557      8558      8557      8559      8558      8557      8560
      8559      8557      8560      8561      8565      8566      8561      8565      8567
      8561      8565      8568      8562      8561      8563      8562      8561      8564
      8562      8561      8565      8563      8561      8564      8563      8561      8565
      8564      8561      8565      8565      8568      8569      8565      8568      8570
      8565      8568      8575      8566      8565      8567      8566      8565      8568
      8567      8565      8568      8568      8575      8571      8569      8568      8570
      8569      8568      8575      8570      8568      8575      8571      8574      8576
      8572      8571      8573      8572      8571      8574      8572      8571      8575
      8573      8571      8574      8573      8571      8575      8574      8571      8575
      8574      8576      8577      8574      8576      8578      8574      8576      8579
      8576      8579      8580      8576      8579      8581      8576      8579      8587
      8577      8576      8578      8577      8576      8579      8578      8576      8579
      8579      8581      8582      8579      8587      8588      8579      8587      8589
      8579      8587      8590      8580      8579      8581      8580      8579      8587
      8581      8579      8587      8581      8582      8583      8581      8582      8584
      8582      8584      8585      8582      8584      8586      8582      8584      8596
      8583      8582      8584      8584      8596      8597      8584      8596      8598
      8584      8596      8599      8585      8584      8586      8585      8584      8596
      8586      8584      8596      8587      8590      8591      8588      8587      8589
      8588      8587      8590      8589      8587      8590      8590      8591      8592
      8590      8591      8593      8591      8593      8594      8591      8593      8595
      8591      8593      8640      8592      8591      8593      8593      8640      8641
      8593      8640      8642      8593      8640      8643      8594      8593      8595
      8594      8593      8640      8595      8593      8640      8596      8599      8600
      8596      8599      8601      8596      8599      8602      8597      8596      8598
      8597      8596      8599      8598      8596      8599      8599      8602      8603
      8599      8602      8604      8599      8602      8605      8600      8599      8601
      8600      8599      8602      8601      8599      8602      8602      8605      8606
      8602      8605      8607      8602      8605      8608      8603      8602      8604
      8603      8602      8605      8604      8602      8605      8605      8608      8609
      8605      8608      8610      8605      8608      8611      8606      8605      8607
      8606      8605      8608      8607      8605      8608      8608      8611      8612
      8608      8611      8613      8608      8611      8614      8609      8608      8610
      8609      8608      8611      8610      8608      8611      8611      8614      8615
      8611      8614      8616      8611      8614      8619      8612      8611      8613
      8612      8611      8614      8613      8611      8614      8614      8616      8617
      8614      8616      8618      8614      8616      8619      8614      8619      8616
      8614      8619      8620      8614      8619      8621      8615      8614      8616
      8615      8614      8619      8616      8614      8619      8616      8619      8620
      8616      8619      8621      8617      8616      8618      8617      8616      8619
      8618      8616      8619      8619      8621      8622      8619      8621      8623
      8619      8621      8624      8620      8619      8621      8621      8624      8625
      8621      8624      8626      8621      8624      8627      8622      8621      8623
      8622      8621      8624      8623      8621      8624      8624      8627      8628
      8624      8627      8629      8624      8627      8630      8625      8624      8626
      8625      8624      8627      8626      8624      8627      8627      8630      8631
      8627      8630      8632      8627      8630      8633      8628      8627      8629
      8628      8627      8630      8629      8627      8630      8630      8633      8634
      8630      8633      8635      8630      8633      8636      8631      8630      8632
      8631      8630      8633      8632      8630      8633      8633      8636      8637
      8633      8636      8638      8633      8636      8639      8634      8633      8635
      8634      8633      8636      8635      8633      8636      8637      8636      8638
      8637      8636      8639      8638      8636      8639      8640      8643      8644
      8640      8643      8645      8640      8643      8646      8641      8640      8642
      8641      8640      8643      8642      8640      8643      8643      8646      8647
      8643      8646      8648      8643      8646      8649      8644      8643      8645
      8644      8643      8646      8645      8643      8646      8646      8649      8650
      8646      8649      8651      8646      8649      8652      8647      8646      8648
      8647      8646      8649      8648      8646      8649      8649      8652      8653
      8649      8652      8654      8649      8652      8655      8650      8649      8651
      8650      8649      8652      8651      8649      8652      8652      8655      8656
      8652      8655      8657      8652      8655      8658      8653      8652      8654
      8653      8652      8655      8654      8652      8655      8655      8658      8659
      8655      8658      8660      8655      8658      8661      8656      8655      8657
      8656      8655      8658      8657      8655      8658      8658      8661      8662
      8658      8661      8663      8658      8661      8664      8659      8658      8660
      8659      8658      8661      8660      8658      8661      8661      8664      8665
      8661      8664      8666      8661      8664      8667      8662      8661      8663
      8662      8661      8664      8663      8661      8664      8664      8667      8668
      8664      8667      8669      8664      8667      8670      8665      8664      8666
      8665      8664      8667      8666      8664      8667      8667      8670      8671
      8667      8670      8672      8667      8670      8673      8668      8667      8669
      8668      8667      8670      8669      8667      8670      8670      8673      8674
      8670      8673      8675      8670      8673      8676      8671      8670      8672
      8671      8670      8673      8672      8670      8673      8673      8676      8677
      8673      8676      8678      8673      8676      8679      8674      8673      8675
      8674      8673      8676      8675      8673      8676      8676      8679      8680
      8676      8679      8681      8676      8679      8682      8677      8676      8678
      8677      8676      8679      8678      8676      8679      8680      8679      8681
      8680      8679      8682      8681      8679      8682      8683      8687      8688
      8683      8687      8689      8683      8687      8690      8684      8683      8685
      8684      8683      8686      8684      8683      8687      8685      8683      8686
      8685      8683      8687      8686      8683      8687      8687      8690      8691
      8687      8690      8692      8687      8690      8697      8688      8687      8689
      8688      8687      8690      8689      8687      8690      8690      8697      8693
      8691      8690      8692      8691      8690      8697      8692      8690      8697
      8693      8696      8698      8694      8693      8695      8694      8693      8696
      8694      8693      8697      8695      8693      8696      8695      8693      8697
      8696      8693      8697      8696      8698      8699      8696      8698      8700
      8696      8698      8701      8698      8701      8702      8698      8701      8703
      8698      8701      8709      8699      8698      8700      8699      8698      8701
      8700      8698      8701      8701      8703      8704      8701      8709      8710
      8701      8709      8711      8701      8709      8712      8702      8701      8703
      8702      8701      8709      8703      8701      8709      8703      8704      8705
      8703      8704      8706      8704      8706      8707      8704      8706      8708
      8704      8706      8718      8705      8704      8706      8706      8718      8719
      8706      8718      8720      8706      8718      8721      8707      8706      8708
      8707      8706      8718      8708      8706      8718      8709      8712      8713
      8710      8709      8711      8710      8709      8712      8711      8709      8712
      8712      8713      8714      8712      8713      8715      8713      8715      8716
      8713      8715      8717      8713      8715      8759      8714      8713      8715
      8715      8759      8760      8715      8759      8761      8715      8759      8762
      8716      8715      8717      8716      8715      8759      8717      8715      8759
      8718      8721      8722      8718      8721      8723      8718      8721      8724
      8719      8718      8720      8719      8718      8721      8720      8718      8721
      8721      8724      8725      8721      8724      8726      8721      8724      8727
      8722      8721      8723      8722      8721      8724      8723      8721      8724
      8724      8727      8728      8724      8727      8729      8724      8727      8730
      8725      8724      8726      8725      8724      8727      8726      8724      8727
      8727      8730      8731      8727      8730      8732      8727      8730      8733
      8728      8727      8729      8728      8727      8730      8729      8727      8730
      8730      8733      8734      8730      8733      8735      8730      8733      8736
      8731      8730      8732      8731      8730      8733      8732      8730      8733
      8733      8736      8737      8733      8736      8738      8734      8733      8735
      8734      8733      8736      8735      8733      8736      8736      8738      8739
      8736      8738      8740      8737      8736      8738      8738      8740      8741
      8738      8740      8742      8738      8740      8743      8739      8738      8740
      8740      8743      8744      8740      8743      8745      8740      8743      8746
      8741      8740      8742      8741      8740      8743      8742      8740      8743
      8743      8746      8747      8743      8746      8748      8743      8746      8749
      8744      8743      8745      8744      8743      8746      8745      8743      8746
      8746      8749      8750      8746      8749      8751      8746      8749      8752
      8747      8746      8748      8747      8746      8749      8748      8746      8749
      8749      8752      8753      8749      8752      8754      8749      8752      8755
      8750      8749      8751      8750      8749      8752      8751      8749      8752
      8752      8755      8756      8752      8755      8757      8752      8755      8758
      8753      8752      8754      8753      8752      8755      8754      8752      8755
      8756      8755      8757      8756      8755      8758      8757      8755      8758
      8759      8762      8763      8759      8762      8764      8759      8762      8765
      8760      8759      8761      8760      8759      8762      8761      8759      8762
      8762      8765      8766      8762      8765      8767      8762      8765      8768
      8763      8762      8764      8763      8762      8765      8764      8762      8765
      8765      8768      8769      8765      8768      8770      8765      8768      8771
      8766      8765      8767      8766      8765      8768      8767      8765      8768
      8768      8771      8772      8768      8771      8773      8768      8771      8774
      8769      8768      8770      8769      8768      8771      8770      8768      8771
      8771      8774      8775      8771      8774      8776      8771      8774      8777
      8772      8771      8773      8772      8771      8774      8773      8771      8774
      8774      8777      8778      8774      8777      8779      8775      8774      8776
      8775      8774      8777      8776      8774      8777      8777      8779      8780
      8777      8779      8781      8778      8777      8779      8779      8781      8782
      8779      8781      8783      8779      8781      8784      8780      8779      8781
      8781      8784      8785      8781      8784      8786      8781      8784      8787
      8782      8781      8783      8782      8781      8784      8783      8781      8784
      8784      8787      8788      8784      8787      8789      8784      8787      8790
      8785      8784      8786      8785      8784      8787      8786      8784      8787
      8787      8790      8791      8787      8790      8792      8787      8790      8793
      8788      8787      8789      8788      8787      8790      8789      8787      8790
      8790      8793      8794      8790      8793      8795      8790      8793      8796
      8791      8790      8792      8791      8790      8793      8792      8790      8793
      8793      8796      8797      8793      8796      8798      8793      8796      8799
      8794      8793      8795      8794      8793      8796      8795      8793      8796
      8796      8799      8800      8796      8799      8801      8796      8799      8802
      8797      8796      8798      8797      8796      8799      8798      8796      8799
      8799      8802      8803      8799      8802      8804      8799      8802      8805
      8800      8799      8801      8800      8799      8802      8801      8799      8802
      8803      8802      8804      8803      8802      8805      8804      8802      8805
      8806      8810      8811      8806      8810      8812      8806      8810      8813
      8807      8806      8808      8807      8806      8809      8807      8806      8810
      8808      8806      8809      8808      8806      8810      8809      8806      8810
      8810      8813      8814      8810      8813      8815      8810      8813      8820
      8811      8810      8812      8811      8810      8813      8812      8810      8813
      8813      8820      8816      8814      8813      8815      8814      8813      8820
      8815      8813      8820      8816      8819      8821      8817      8816      8818
      8817      8816      8819      8817      8816      8820      8818      8816      8819
      8818      8816      8820      8819      8816      8820      8819      8821      8822
      8819      8821      8823      8819      8821      8824      8821      8824      8825
      8821      8824      8826      8821      8824      8832      8822      8821      8823
      8822      8821      8824      8823      8821      8824      8824      8826      8827
      8824      8832      8833      8824      8832      8834      8824      8832      8835
      8825      8824      8826      8825      8824      8832      8826      8824      8832
      8826      8827      8828      8826      8827      8829      8827      8829      8830
      8827      8829      8831      8827      8829      8841      8828      8827      8829
      8829      8841      8842      8829      8841      8843      8829      8841      8844
      8830      8829      8831      8830      8829      8841      8831      8829      8841
      8832      8835      8836      8833      8832      8834      8833      8832      8835
      8834      8832      8835      8835      8836      8837      8835      8836      8838
      8836      8838      8839      8836      8838      8840      8836      8838      8885
      8837      8836      8838      8838      8885      8886      8838      8885      8887
      8838      8885      8888      8839      8838      8840      8839      8838      8885
      8840      8838      8885      8841      8844      8845      8841      8844      8846
      8841      8844      8847      8842      8841      8843      8842      8841      8844
      8843      8841      8844      8844      8847      8848      8844      8847      8849
      8844      8847      8850      8845      8844      8846      8845      8844      8847
      8846      8844      8847      8847      8850      8851      8847      8850      8852
      8847      8850      8853      8848      8847      8849      8848      8847      8850
      8849      8847      8850      8850      8853      8854      8850      8853      8855
      8850      8853      8856      8851      8850      8852      8851      8850      8853
      8852      8850      8853      8853      8856      8857      8853      8856      8858
      8853      8856      8859      8854      8853      8855      8854      8853      8856
      8855      8853      8856      8856      8859      8860      8856      8859      8861
      8856      8859      8864      8857      8856      8858      8857      8856      8859
      8858      8856      8859      8859      8861      8862      8859      8861      8863
      8859      8861      8864      8859      8864      8861      8859      8864      8865
      8859      8864      8866      8860      8859      8861      8860      8859      8864
      8861      8859      8864      8861      8864      8865      8861      8864      8866
      8862      8861      8863      8862      8861      8864      8863      8861      8864
      8864      8866      8867      8864      8866      8868      8864      8866      8869
      8865      8864      8866      8866      8869      8870      8866      8869      8871
      8866      8869      8872      8867      8866      8868      8867      8866      8869
      8868      8866      8869      8869      8872      8873      8869      8872      8874
      8869      8872      8875      8870      8869      8871      8870      8869      8872
      8871      8869      8872      8872      8875      8876      8872      8875      8877
      8872      8875      8878      8873      8872      8874      8873      8872      8875
      8874      8872      8875      8875      8878      8879      8875      8878      8880
      8875      8878      8881      8876      8875      8877      8876      8875      8878
      8877      8875      8878      8878      8881      8882      8878      8881      8883
      8878      8881      8884      8879      8878      8880      8879      8878      8881
      8880      8878      8881      8882      8881      8883      8882      8881      8884
      8883      8881      8884      8885      8888      8889      8885      8888      8890
      8885      8888      8891      8886      8885      8887      8886      8885      8888
      8887      8885      8888      8888      8891      8892      8888      8891      8893
      8888      8891      8894      8889      8888      8890      8889      8888      8891
      8890      8888      8891      8891      8894      8895      8891      8894      8896
      8891      8894      8897      8892      8891      8893      8892      8891      8894
      8893      8891      8894      8894      8897      8898      8894      8897      8899
      8894      8897      8900      8895      8894      8896      8895      8894      8897
      8896      8894      8897      8897      8900      8901      8897      8900      8902
      8897      8900      8903      8898      8897      8899      8898      8897      8900
      8899      8897      8900      8900      8903      8904      8900      8903      8905
      8900      8903      8906      8901      8900      8902      8901      8900      8903
      8902      8900      8903      8903      8906      8907      8903      8906      8908
      8903      8906      8909      8904      8903      8905      8904      8903      8906
      8905      8903      8906      8906      8909      8910      8906      8909      8911
      8906      8909      8912      8907      8906      8908      8907      8906      8909
      8908      8906      8909      8909      8912      8913      8909      8912      8914
      8909      8912      8915      8910      8909      8911      8910      8909      8912
      8911      8909      8912      8912      8915      8916      8912      8915      8917
      8912      8915      8918      8913      8912      8914      8913      8912      8915
      8914      8912      8915      8915      8918      8919      8915      8918      8920
      8915      8918      8921      8916      8915      8917      8916      8915      8918
      8917      8915      8918      8918      8921      8922      8918      8921      8923
      8918      8921      8924      8919      8918      8920      8919      8918      8921
      8920      8918      8921      8922      8921      8923      8922      8921      8924
      8923      8921      8924      8925      8929      8930      8925      8929      8931
      8925      8929      8932      8926      8925      8927      8926      8925      8928
      8926      8925      8929      8927      8925      8928      8927      8925      8929
      8928      8925      8929      8929      8932      8933      8929      8932      8934
      8929      8932      8939      8930      8929      8931      8930      8929      8932
      8931      8929      8932      8932      8939      8935      8933      8932      8934
      8933      8932      8939      8934      8932      8939      8935      8938      8940
      8936      8935      8937      8936      8935      8938      8936      8935      8939
      8937      8935      8938      8937      8935      8939      8938      8935      8939
      8938      8940      8941      8938      8940      8942      8938      8940      8943
      8940      8943      8944      8940      8943      8945      8940      8943      8951
      8941      8940      8942      8941      8940      8943      8942      8940      8943
      8943      8945      8946      8943      8951      8952      8943      8951      8953
      8943      8951      8954      8944      8943      8945      8944      8943      8951
      8945      8943      8951      8945      8946      8947      8945      8946      8948
      8946      8948      8949      8946      8948      8950      8946      8948      8960
      8947      8946      8948      8948      8960      8961      8948      8960      8962
      8948      8960      8963      8949      8948      8950      8949      8948      8960
      8950      8948      8960      8951      8954      8955      8952      8951      8953
      8952      8951      8954      8953      8951      8954      8954      8955      8956
      8954      8955      8957      8955      8957      8958      8955      8957      8959
      8955      8957      9001      8956      8955      8957      8957      9001      9002
      8957      9001      9003      8957      9001      9004      8958      8957      8959
      8958      8957      9001      8959      8957      9001      8960      8963      8964
      8960      8963      8965      8960      8963      8966      8961      8960      8962
      8961      8960      8963      8962      8960      8963      8963      8966      8967
      8963      8966      8968      8963      8966      8969      8964      8963      8965
      8964      8963      8966      8965      8963      8966      8966      8969      8970
      8966      8969      8971      8966      8969      8972      8967      8966      8968
      8967      8966      8969      8968      8966      8969      8969      8972      8973
      8969      8972      8974      8969      8972      8975      8970      8969      8971
      8970      8969      8972      8971      8969      8972      8972      8975      8976
      8972      8975      8977      8972      8975      8978      8973      8972      8974
      8973      8972      8975      8974      8972      8975      8975      8978      8979
      8975      8978      8980      8976      8975      8977      8976      8975      8978
      8977      8975      8978      8978      8980      8981      8978      8980      8982
      8979      8978      8980      8980      8982      8983      8980      8982      8984
      8980      8982      8985      8981      8980      8982      8982      8985      8986
      8982      8985      8987      8982      8985      8988      8983      8982      8984
      8983      8982      8985      8984      8982      8985      8985      8988      8989
      8985      8988      8990      8985      8988      8991      8986      8985      8987
      8986      8985      8988      8987      8985      8988      8988      8991      8992
      8988      8991      8993      8988      8991      8994      8989      8988      8990
      8989      8988      8991      8990      8988      8991      8991      8994      8995
      8991      8994      8996      8991      8994      8997      8992      8991      8993
      8992      8991      8994      8993      8991      8994      8994      8997      8998
      8994      8997      8999      8994      8997      9000      8995      8994      8996
      8995      8994      8997      8996      8994      8997      8998      8997      8999
      8998      8997      9000      8999      8997      9000      9001      9004      9005
      9001      9004      9006      9001      9004      9007      9002      9001      9003
      9002      9001      9004      9003      9001      9004      9004      9007      9008
      9004      9007      9009      9004      9007      9010      9005      9004      9006
      9005      9004      9007      9006      9004      9007      9007      9010      9011
      9007      9010      9012      9007      9010      9013      9008      9007      9009
      9008      9007      9010      9009      9007      9010      9010      9013      9014
      9010      9013      9015      9010      9013      9016      9011      9010      9012
      9011      9010      9013      9012      9010      9013      9013      9016      9017
      9013      9016      9018      9013      9016      9019      9014      9013      9015
      9014      9013      9016      9015      9013      9016      9016      9019      9020
      9016      9019      9021      9017      9016      9018      9017      9016      9019
      9018      9016      9019      9019      9021      9022      9019      9021      9023
      9020      9019      9021      9021      9023      9024      9021      9023      9025
      9021      9023      9026      9022      9021      9023      9023      9026      9027
      9023      9026      9028      9023      9026      9029      9024      9023      9025
      9024      9023      9026      9025      9023      9026      9026      9029      9030
      9026      9029      9031      9026      9029      9032      9027      9026      9028
      9027      9026      9029      9028      9026      9029      9029      9032      9033
      9029      9032      9034      9029      9032      9035      9030      9029      9031
      9030      9029      9032      9031      9029      9032      9032      9035      9036
      9032      9035      9037      9032      9035      9038      9033      9032      9034
      9033      9032      9035      9034      9032      9035      9035      9038      9039
      9035      9038      9040      9035      9038      9041      9036      9035      9037
      9036      9035      9038      9037      9035      9038      9038      9041      9042
      9038      9041      9043      9038      9041      9044      9039      9038      9040
      9039      9038      9041      9040      9038      9041      9041      9044      9045
      9041      9044      9046      9041      9044      9047      9042      9041      9043
      9042      9041      9044      9043      9041      9044      9045      9044      9046
      9045      9044      9047      9046      9044      9047      9048      9051      9052
      9048      9053      9054      9048      9053      9055      9048      9053      9057
      9049      9048      9050      9049      9048      9051      9049      9048      9053
      9050      9048      9051      9050      9048      9053      9051      9048      9053
      9053      9055      9056      9053      9057      9058      9053      9057      9059
      9053      9057      9064      9054      9053      9055      9054      9053      9057
      9055      9053      9057      9057      9064      9060      9058      9057      9059
      9058      9057      9064      9059      9057      9064      9060      9063      9065
      9061      9060      9062      9061      9060      9063      9061      9060      9064
      9062      9060      9063      9062      9060      9064      9063      9060      9064
      9063      9065      9066      9063      9065      9067      9063      9065      9068
      9065      9068      9069      9065      9068      9070      9065      9068      9076
      9066      9065      9067      9066      9065      9068      9067      9065      9068
      9068      9070      9071      9068      9076      9077      9068      9076      9078
      9068      9076      9079      9069      9068      9070      9069      9068      9076
      9070      9068      9076      9070      9071      9072      9070      9071      9073
      9071      9073      9074      9071      9073      9075      9071      9073      9085
      9072      9071      9073      9073      9085      9086      9073      9085      9087
      9073      9085      9088      9074      9073      9075      9074      9073      9085
      9075      9073      9085      9076      9079      9080      9077      9076      9078
      9077      9076      9079      9078      9076      9079      9079      9080      9081
      9079      9080      9082      9080      9082      9083      9080      9082      9084
      9080      9082      9129      9081      9080      9082      9082      9129      9130
      9082      9129      9131      9082      9129      9132      9083      9082      9084
      9083      9082      9129      9084      9082      9129      9085      9088      9089
      9085      9088      9090      9085      9088      9091      9086      9085      9087
      9086      9085      9088      9087      9085      9088      9088      9091      9092
      9088      9091      9093      9088      9091      9094      9089      9088      9090
      9089      9088      9091      9090      9088      9091      9091      9094      9095
      9091      9094      9096      9091      9094      9097      9092      9091      9093
      9092      9091      9094      9093      9091      9094      9094      9097      9098
      9094      9097      9099      9094      9097      9100      9095      9094      9096
      9095      9094      9097      9096      9094      9097      9097      9100      9101
      9097      9100      9102      9097      9100      9103      9098      9097      9099
      9098      9097      9100      9099      9097      9100      9100      9103      9104
      9100      9103      9105      9100      9103      9108      9101      9100      9102
      9101      9100      9103      9102      9100      9103      9103      9105      9106
      9103      9105      9107      9103      9105      9108      9103      9108      9105
      9103      9108      9109      9103      9108      9110      9104      9103      9105
      9104      9103      9108      9105      9103      9108      9105      9108      9109
      9105      9108      9110      9106      9105      9107      9106      9105      9108
      9107      9105      9108      9108      9110      9111      9108      9110      9112
      9108      9110      9113      9109      9108      9110      9110      9113      9114
      9110      9113      9115      9110      9113      9116      9111      9110      9112
      9111      9110      9113      9112      9110      9113      9113      9116      9117
      9113      9116      9118      9113      9116      9119      9114      9113      9115
      9114      9113      9116      9115      9113      9116      9116      9119      9120
      9116      9119      9121      9116      9119      9122      9117      9116      9118
      9117      9116      9119      9118      9116      9119      9119      9122      9123
      9119      9122      9124      9119      9122      9125      9120      9119      9121
      9120      9119      9122      9121      9119      9122      9122      9125      9126
      9122      9125      9127      9122      9125      9128      9123      9122      9124
      9123      9122      9125      9124      9122      9125      9126      9125      9127
      9126      9125      9128      9127      9125      9128      9129      9132      9133
      9129      9132      9134      9129      9132      9135      9130      9129      9131
      9130      9129      9132      9131      9129      9132      9132      9135      9136
      9132      9135      9137      9132      9135      9138      9133      9132      9134
      9133      9132      9135      9134      9132      9135      9135      9138      9139
      9135      9138      9140      9135      9138      9141      9136      9135      9137
      9136      9135      9138      9137      9135      9138      9138      9141      9142
      9138      9141      9143      9138      9141      9144      9139      9138      9140
      9139      9138      9141      9140      9138      9141      9141      9144      9145
      9141      9144      9146      9141      9144      9147      9142      9141      9143
      9142      9141      9144      9143      9141      9144      9144      9147      9148
      9144      9147      9149      9144      9147      9150      9145      9144      9146
      9145      9144      9147      9146      9144      9147      9147      9150      9151
      9147      9150      9152      9147      9150      9153      9148      9147      9149
      9148      9147      9150      9149      9147      9150      9150      9153      9154
      9150      9153      9155      9150      9153      9156      9151      9150      9152
      9151      9150      9153      9152      9150      9153      9153      9156      9157
      9153      9156      9158      9153      9156      9159      9154      9153      9155
      9154      9153      9156      9155      9153      9156      9156      9159      9160
      9156      9159      9161      9156      9159      9162      9157      9156      9158
      9157      9156      9159      9158      9156      9159      9159      9162      9163
      9159      9162      9164      9159      9162      9165      9160      9159      9161
      9160      9159      9162      9161      9159      9162      9162      9165      9166
      9162      9165      9167      9162      9165      9168      9163      9162      9164
      9163      9162      9165      9164      9162      9165      9165      9168      9169
      9165      9168      9170      9165      9168      9171      9166      9165      9167
      9166      9165      9168      9167      9165      9168      9169      9168      9170
      9169      9168      9171      9170      9168      9171      9172      9176      9177
      9172      9176      9178      9172      9176      9179      9173      9172      9174
      9173      9172      9175      9173      9172      9176      9174      9172      9175
      9174      9172      9176      9175      9172      9176      9176      9179      9180
      9176      9179      9181      9176      9179      9186      9177      9176      9178
      9177      9176      9179      9178      9176      9179      9179      9186      9182
      9180      9179      9181      9180      9179      9186      9181      9179      9186
      9182      9185      9187      9183      9182      9184      9183      9182      9185
      9183      9182      9186      9184      9182      9185      9184      9182      9186
      9185      9182      9186      9185      9187      9188      9185      9187      9189
      9185      9187      9190      9187      9190      9191      9187      9190      9192
      9187      9190      9198      9188      9187      9189      9188      9187      9190
      9189      9187      9190      9190      9192      9193      9190      9198      9199
      9190      9198      9200      9190      9198      9201      9191      9190      9192
      9191      9190      9198      9192      9190      9198      9192      9193      9194
      9192      9193      9195      9193      9195      9196      9193      9195      9197
      9193      9195      9207      9194      9193      9195      9195      9207      9208
      9195      9207      9209      9195      9207      9210      9196      9195      9197
      9196      9195      9207      9197      9195      9207      9198      9201      9202
      9199      9198      9200      9199      9198      9201      9200      9198      9201
      9201      9202      9203      9201      9202      9204      9202      9204      9205
      9202      9204      9206      9202      9204      9251      9203      9202      9204
      9204      9251      9252      9204      9251      9253      9204      9251      9254
      9205      9204      9206      9205      9204      9251      9206      9204      9251
      9207      9210      9211      9207      9210      9212      9207      9210      9213
      9208      9207      9209      9208      9207      9210      9209      9207      9210
      9210      9213      9214      9210      9213      9215      9210      9213      9216
      9211      9210      9212      9211      9210      9213      9212      9210      9213
      9213      9216      9217      9213      9216      9218      9213      9216      9219
      9214      9213      9215      9214      9213      9216      9215      9213      9216
      9216      9219      9220      9216      9219      9221      9216      9219      9222
      9217      9216      9218      9217      9216      9219      9218      9216      9219
      9219      9222      9223      9219      9222      9224      9219      9222      9225
      9220      9219      9221      9220      9219      9222      9221      9219      9222
      9222      9225      9226      9222      9225      9227      9222      9225      9230
      9223      9222      9224      9223      9222      9225      9224      9222      9225
      9225      9227      9228      9225      9227      9229      9225      9227      9230
      9225      9230      9227      9225      9230      9231      9225      9230      9232
      9226      9225      9227      9226      9225      9230      9227      9225      9230
      9227      9230      9231      9227      9230      9232      9228      9227      9229
      9228      9227      9230      9229      9227      9230      9230      9232      9233
      9230      9232      9234      9230      9232      9235      9231      9230      9232
      9232      9235      9236      9232      9235      9237      9232      9235      9238
      9233      9232      9234      9233      9232      9235      9234      9232      9235
      9235      9238      9239      9235      9238      9240      9235      9238      9241
      9236      9235      9237      9236      9235      9238      9237      9235      9238
      9238      9241      9242      9238      9241      9243      9238      9241      9244
      9239      9238      9240      9239      9238      9241      9240      9238      9241
      9241      9244      9245      9241      9244      9246      9241      9244      9247
      9242      9241      9243      9242      9241      9244      9243      9241      9244
      9244      9247      9248      9244      9247      9249      9244      9247      9250
      9245      9244      9246      9245      9244      9247      9246      9244      9247
      9248      9247      9249      9248      9247      9250      9249      9247      9250
      9251      9254      9255      9251      9254      9256      9251      9254      9257
      9252      9251      9253      9252      9251      9254      9253      9251      9254
      9254      9257      9258      9254      9257      9259      9254      9257      9260
      9255      9254      9256      9255      9254      9257      9256      9254      9257
      9257      9260      9261      9257      9260      9262      9257      9260      9263
      9258      9257      9259      9258      9257      9260      9259      9257      9260
      9260      9263      9264      9260      9263      9265      9260      9263      9266
      9261      9260      9262      9261      9260      9263      9262      9260      9263
      9263      9266      9267      9263      9266      9268      9263      9266      9269
      9264      9263      9265      9264      9263      9266      9265      9263      9266
      9266      9269      9270      9266      9269      9271      9266      9269      9272
      9267      9266      9268      9267      9266      9269      9268      9266      9269
      9269      9272      9273      9269      9272      9274      9269      9272      9275
      9270      9269      9271      9270      9269      9272      9271      9269      9272
      9272      9275      9276      9272      9275      9277      9272      9275      9278
      9273      9272      9274      9273      9272      9275      9274      9272      9275
      9275      9278      9279      9275      9278      9280      9275      9278      9281
      9276      9275      9277      9276      9275      9278      9277      9275      9278
      9278      9281      9282      9278      9281      9283      9278      9281      9284
      9279      9278      9280      9279      9278      9281      9280      9278      9281
      9281      9284      9285      9281      9284      9286      9281      9284      9287
      9282      9281      9283      9282      9281      9284      9283      9281      9284
      9284      9287      9288      9284      9287      9289      9284      9287      9290
      9285      9284      9286      9285      9284      9287      9286      9284      9287
      9288      9287      9289      9288      9287      9290      9289      9287      9290
      9291      9295      9296      9291      9295      9297      9291      9295      9298
      9292      9291      9293      9292      9291      9294      9292      9291      9295
      9293      9291      9294      9293      9291      9295      9294      9291      9295
      9295      9298      9299      9295      9298      9300      9295      9298      9305
      9296      9295      9297      9296      9295      9298      9297      9295      9298
      9298      9305      9301      9299      9298      9300      9299      9298      9305
      9300      9298      9305      9301      9304      9306      9302      9301      9303
      9302      9301      9304      9302      9301      9305      9303      9301      9304
      9303      9301      9305      9304      9301      9305      9304      9306      9307
      9304      9306      9308      9304      9306      9309      9306      9309      9310
      9306      9309      9311      9306      9309      9317      9307      9306      9308
      9307      9306      9309      9308      9306      9309      9309      9311      9312
      9309      9317      9318      9309      9317      9319      9309      9317      9320
      9310      9309      9311      9310      9309      9317      9311      9309      9317
      9311      9312      9313      9311      9312      9314      9312      9314      9315
      9312      9314      9316      9312      9314      9326      9313      9312      9314
      9314      9326      9327      9314      9326      9328      9314      9326      9329
      9315      9314      9316      9315      9314      9326      9316      9314      9326
      9317      9320      9321      9318      9317      9319      9318      9317      9320
      9319      9317      9320      9320      9321      9322      9320      9321      9323
      9321      9323      9324      9321      9323      9325      9321      9323      9370
      9322      9321      9323      9323      9370      9371      9323      9370      9372
      9323      9370      9373      9324      9323      9325      9324      9323      9370
      9325      9323      9370      9326      9329      9330      9326      9329      9331
      9326      9329      9332      9327      9326      9328      9327      9326      9329
      9328      9326      9329      9329      9332      9333      9329      9332      9334
      9329      9332      9335      9330      9329      9331      9330      9329      9332
      9331      9329      9332      9332      9335      9336      9332      9335      9337
      9332      9335      9338      9333      9332      9334      9333      9332      9335
      9334      9332      9335      9335      9338      9339      9335      9338      9340
      9335      9338      9341      9336      9335      9337      9336      9335      9338
      9337      9335      9338      9338      9341      9342      9338      9341      9343
      9338      9341      9344      9339      9338      9340      9339      9338      9341
      9340      9338      9341      9341      9344      9345      9341      9344      9346
      9341      9344      9349      9342      9341      9343      9342      9341      9344
      9343      9341      9344      9344      9346      9347      9344      9346      9348
      9344      9346      9349      9344      9349      9346      9344      9349      9350
      9344      9349      9351      9345      9344      9346      9345      9344      9349
      9346      9344      9349      9346      9349      9350      9346      9349      9351
      9347      9346      9348      9347      9346      9349      9348      9346      9349
      9349      9351      9352      9349      9351      9353      9349      9351      9354
      9350      9349      9351      9351      9354      9355      9351      9354      9356
      9351      9354      9357      9352      9351      9353      9352      9351      9354
      9353      9351      9354      9354      9357      9358      9354      9357      9359
      9354      9357      9360      9355      9354      9356      9355      9354      9357
      9356      9354      9357      9357      9360      9361      9357      9360      9362
      9357      9360      9363      9358      9357      9359      9358      9357      9360
      9359      9357      9360      9360      9363      9364      9360      9363      9365
      9360      9363      9366      9361      9360      9362      9361      9360      9363
      9362      9360      9363      9363      9366      9367      9363      9366      9368
      9363      9366      9369      9364      9363      9365      9364      9363      9366
      9365      9363      9366      9367      9366      9368      9367      9366      9369
      9368      9366      9369      9370      9373      9374      9370      9373      9375
      9370      9373      9376      9371      9370      9372      9371      9370      9373
      9372      9370      9373      9373      9376      9377      9373      9376      9378
      9373      9376      9379      9374      9373      9375      9374      9373      9376
      9375      9373      9376      9376      9379      9380      9376      9379      9381
      9376      9379      9382      9377      9376      9378      9377      9376      9379
      9378      9376      9379      9379      9382      9383      9379      9382      9384
      9379      9382      9385      9380      9379      9381      9380      9379      9382
      9381      9379      9382      9382      9385      9386      9382      9385      9387
      9382      9385      9388      9383      9382      9384      9383      9382      9385
      9384      9382      9385      9385      9388      9389      9385      9388      9390
      9385      9388      9391      9386      9385      9387      9386      9385      9388
      9387      9385      9388      9388      9391      9392      9388      9391      9393
      9388      9391      9394      9389      9388      9390      9389      9388      9391
      9390      9388      9391      9391      9394      9395      9391      9394      9396
      9391      9394      9397      9392      9391      9393      9392      9391      9394
      9393      9391      9394      9394      9397      9398      9394      9397      9399
      9394      9397      9400      9395      9394      9396      9395      9394      9397
      9396      9394      9397      9397      9400      9401      9397      9400      9402
      9397      9400      9403      9398      9397      9399      9398      9397      9400
      9399      9397      9400      9400      9403      9404      9400      9403      9405
      9400      9403      9406      9401      9400      9402      9401      9400      9403
      9402      9400      9403      9403      9406      9407      9403      9406      9408
      9403      9406      9409      9404      9403      9405      9404      9403      9406
      9405      9403      9406      9406      9409      9410      9406      9409      9411
      9406      9409      9412      9407      9406      9408      9407      9406      9409
      9408      9406      9409      9410      9409      9411      9410      9409      9412
      9411      9409      9412      9413      9417      9418      9413      9417      9419
      9413      9417      9420      9414      9413      9415      9414      9413      9416
      9414      9413      9417      9415      9413      9416      9415      9413      9417
      9416      9413      9417      9417      9420      9421      9417      9420      9422
      9417      9420      9427      9418      9417      9419      9418      9417      9420
      9419      9417      9420      9420      9427      9423      9421      9420      9422
      9421      9420      9427      9422      9420      9427      9423      9426      9428
      9424      9423      9425      9424      9423      9426      9424      9423      9427
      9425      9423      9426      9425      9423      9427      9426      9423      9427
      9426      9428      9429      9426      9428      9430      9426      9428      9431
      9428      9431      9432      9428      9431      9433      9428      9431      9439
      9429      9428      9430      9429      9428      9431      9430      9428      9431
      9431      9433      9434      9431      9439      9440      9431      9439      9441
      9431      9439      9442      9432      9431      9433      9432      9431      9439
      9433      9431      9439      9433      9434      9435      9433      9434      9436
      9434      9436      9437      9434      9436      9438      9434      9436      9448
      9435      9434      9436      9436      9448      9449      9436      9448      9450
      9436      9448      9451      9437      9436      9438      9437      9436      9448
      9438      9436      9448      9439      9442      9443      9440      9439      9441
      9440      9439      9442      9441      9439      9442      9442      9443      9444
      9442      9443      9445      9443      9445      9446      9443      9445      9447
      9443      9445      9492      9444      9443      9445      9445      9492      9493
      9445      9492      9494      9445      9492      9495      9446      9445      9447
      9446      9445      9492      9447      9445      9492      9448      9451      9452
      9448      9451      9453      9448      9451      9454      9449      9448      9450
      9449      9448      9451      9450      9448      9451      9451      9454      9455
      9451      9454      9456      9451      9454      9457      9452      9451      9453
      9452      9451      9454      9453      9451      9454      9454      9457      9458
      9454      9457      9459      9454      9457      9460      9455      9454      9456
      9455      9454      9457      9456      9454      9457      9457      9460      9461
      9457      9460      9462      9457      9460      9463      9458      9457      9459
      9458      9457      9460      9459      9457      9460      9460      9463      9464
      9460      9463      9465      9460      9463      9466      9461      9460      9462
      9461      9460      9463      9462      9460      9463      9463      9466      9467
      9463      9466      9468      9463      9466      9471      9464      9463      9465
      9464      9463      9466      9465      9463      9466      9466      9468      9469
      9466      9468      9470      9466      9468      9471      9466      9471      9468
      9466      9471      9472      9466      9471      9473      9467      9466      9468
      9467      9466      9471      9468      9466      9471      9468      9471      9472
      9468      9471      9473      9469      9468      9470      9469      9468      9471
      9470      9468      9471      9471      9473      9474      9471      9473      9475
      9471      9473      9476      9472      9471      9473      9473      9476      9477
      9473      9476      9478      9473      9476      9479      9474      9473      9475
      9474      9473      9476      9475      9473      9476      9476      9479      9480
      9476      9479      9481      9476      9479      9482      9477      9476      9478
      9477      9476      9479      9478      9476      9479      9479      9482      9483
      9479      9482      9484      9479      9482      9485      9480      9479      9481
      9480      9479      9482      9481      9479      9482      9482      9485      9486
      9482      9485      9487      9482      9485      9488      9483      9482      9484
      9483      9482      9485      9484      9482      9485      9485      9488      9489
      9485      9488      9490      9485      9488      9491      9486      9485      9487
      9486      9485      9488      9487      9485      9488      9489      9488      9490
      9489      9488      9491      9490      9488      9491      9492      9495      9496
      9492      9495      9497      9492      9495      9498      9493      9492      9494
      9493      9492      9495      9494      9492      9495      9495      9498      9499
      9495      9498      9500      9495      9498      9501      9496      9495      9497
      9496      9495      9498      9497      9495      9498      9498      9501      9502
      9498      9501      9503      9498      9501      9504      9499      9498      9500
      9499      9498      9501      9500      9498      9501      9501      9504      9505
      9501      9504      9506      9501      9504      9507      9502      9501      9503
      9502      9501      9504      9503      9501      9504      9504      9507      9508
      9504      9507      9509      9504      9507      9510      9505      9504      9506
      9505      9504      9507      9506      9504      9507      9507      9510      9511
      9507      9510      9512      9507      9510      9513      9508      9507      9509
      9508      9507      9510      9509      9507      9510      9510      9513      9514
      9510      9513      9515      9510      9513      9516      9511      9510      9512
      9511      9510      9513      9512      9510      9513      9513      9516      9517
      9513      9516      9518      9513      9516      9519      9514      9513      9515
      9514      9513      9516      9515      9513      9516      9516      9519      9520
      9516      9519      9521      9516      9519      9522      9517      9516      9518
      9517      9516      9519      9518      9516      9519      9519      9522      9523
      9519      9522      9524      9519      9522      9525      9520      9519      9521
      9520      9519      9522      9521      9519      9522      9522      9525      9526
      9522      9525      9527      9522      9525      9528      9523      9522      9524
      9523      9522      9525      9524      9522      9525      9525      9528      9529
      9525      9528      9530      9525      9528      9531      9526      9525      9527
      9526      9525      9528      9527      9525      9528      9529      9528      9530
      9529      9528      9531      9530      9528      9531      9532      9535      9536
      9532      9537      9538      9532      9537      9539      9532      9537      9541
      9533      9532      9534      9533      9532      9535      9533      9532      9537
      9534      9532      9535      9534      9532      9537      9535      9532      9537
      9537      9539      9540      9537      9541      9542      9537      9541      9543
      9537      9541      9548      9538      9537      9539      9538      9537      9541
      9539      9537      9541      9541      9548      9544      9542      9541      9543
      9542      9541      9548      9543      9541      9548      9544      9547      9549
      9545      9544      9546      9545      9544      9547      9545      9544      9548
      9546      9544      9547      9546      9544      9548      9547      9544      9548
      9547      9549      9550      9547      9549      9551      9547      9549      9552
      9549      9552      9553      9549      9552      9554      9549      9552      9560
      9550      9549      9551      9550      9549      9552      9551      9549      9552
      9552      9554      9555      9552      9560      9561      9552      9560      9562
      9552      9560      9563      9553      9552      9554      9553      9552      9560
      9554      9552      9560      9554      9555      9556      9554      9555      9557
      9555      9557      9558      9555      9557      9559      9555      9557      9569
      9556      9555      9557      9557      9569      9570      9557      9569      9571
      9557      9569      9572      9558      9557      9559      9558      9557      9569
      9559      9557      9569      9560      9563      9564      9561      9560      9562
      9561      9560      9563      9562      9560      9563      9563      9564      9565
      9563      9564      9566      9564      9566      9567      9564      9566      9568
      9564      9566      9610      9565      9564      9566      9566      9610      9611
      9566      9610      9612      9566      9610      9613      9567      9566      9568
      9567      9566      9610      9568      9566      9610      9569      9572      9573
      9569      9572      9574      9569      9572      9575      9570      9569      9571
      9570      9569      9572      9571      9569      9572      9572      9575      9576
      9572      9575      9577      9572      9575      9578      9573      9572      9574
      9573      9572      9575      9574      9572      9575      9575      9578      9579
      9575      9578      9580      9575      9578      9581      9576      9575      9577
      9576      9575      9578      9577      9575      9578      9578      9581      9582
      9578      9581      9583      9578      9581      9584      9579      9578      9580
      9579      9578      9581      9580      9578      9581      9581      9584      9585
      9581      9584      9586      9581      9584      9587      9582      9581      9583
      9582      9581      9584      9583      9581      9584      9584      9587      9588
      9584      9587      9589      9585      9584      9586      9585      9584      9587
      9586      9584      9587      9587      9589      9590      9587      9589      9591
      9588      9587      9589      9589      9591      9592      9589      9591      9593
      9589      9591      9594      9590      9589      9591      9591      9594      9595
      9591      9594      9596      9591      9594      9597      9592      9591      9593
      9592      9591      9594      9593      9591      9594      9594      9597      9598
      9594      9597      9599      9594      9597      9600      9595      9594      9596
      9595      9594      9597      9596      9594      9597      9597      9600      9601
      9597      9600      9602      9597      9600      9603      9598      9597      9599
      9598      9597      9600      9599      9597      9600      9600      9603      9604
      9600      9603      9605      9600      9603      9606      9601      9600      9602
      9601      9600      9603      9602      9600      9603      9603      9606      9607
      9603      9606      9608      9603      9606      9609      9604      9603      9605
      9604      9603      9606      9605      9603      9606      9607      9606      9608
      9607      9606      9609      9608      9606      9609      9610      9613      9614
      9610      9613      9615      9610      9613      9616      9611      9610      9612
      9611      9610      9613      9612      9610      9613      9613      9616      9617
      9613      9616      9618      9613      9616      9619      9614      9613      9615
      9614      9613      9616      9615      9613      9616      9616      9619      9620
      9616      9619      9621      9616      9619      9622      9617      9616      9618
      9617      9616      9619      9618      9616      9619      9619      9622      9623
      9619      9622      9624      9619      9622      9625      9620      9619      9621
      9620      9619      9622      9621      9619      9622      9622      9625      9626
      9622      9625      9627      9622      9625      9628      9623      9622      9624
      9623      9622      9625      9624      9622      9625      9625      9628      9629
      9625      9628      9630      9625      9628      9631      9626      9625      9627
      9626      9625      9628      9627      9625      9628      9628      9631      9632
      9628      9631      9633      9628      9631      9634      9629      9628      9630
      9629      9628      9631      9630      9628      9631      9631      9634      9635
      9631      9634      9636      9631      9634      9637      9632      9631      9633
      9632      9631      9634      9633      9631      9634      9634      9637      9638
      9634      9637      9639      9634      9637      9640      9635      9634      9636
      9635      9634      9637      9636      9634      9637      9637      9640      9641
      9637      9640      9642      9637      9640      9643      9638      9637      9639
      9638      9637      9640      9639      9637      9640      9640      9643      9644
      9640      9643      9645      9640      9643      9646      9641      9640      9642
      9641      9640      9643      9642      9640      9643      9643      9646      9647
      9643      9646      9648      9643      9646      9649      9644      9643      9645
      9644      9643      9646      9645      9643      9646      9646      9649      9650
      9646      9649      9651      9646      9649      9652      9647      9646      9648
      9647      9646      9649      9648      9646      9649      9650      9649      9651
      9650      9649      9652      9651      9649      9652      9653      9656      9657
      9653      9658      9659      9653      9658      9660      9653      9658      9662
      9654      9653      9655      9654      9653      9656      9654      9653      9658
      9655      9653      9656      9655      9653      9658      9656      9653      9658
      9658      9660      9661      9658      9662      9663      9658      9662      9664
      9658      9662      9669      9659      9658      9660      9659      9658      9662
      9660      9658      9662      9662      9669      9665      9663      9662      9664
      9663      9662      9669      9664      9662      9669      9665      9668      9670
      9666      9665      9667      9666      9665      9668      9666      9665      9669
      9667      9665      9668      9667      9665      9669      9668      9665      9669
      9668      9670      9671      9668      9670      9672      9668      9670      9673
      9670      9673      9674      9670      9673      9675      9670      9673      9681
      9671      9670      9672      9671      9670      9673      9672      9670      9673
      9673      9675      9676      9673      9681      9682      9673      9681      9683
      9673      9681      9684      9674      9673      9675      9674      9673      9681
      9675      9673      9681      9675      9676      9677      9675      9676      9678
      9676      9678      9679      9676      9678      9680      9676      9678      9690
      9677      9676      9678      9678      9690      9691      9678      9690      9692
      9678      9690      9693      9679      9678      9680      9679      9678      9690
      9680      9678      9690      9681      9684      9685      9682      9681      9683
      9682      9681      9684      9683      9681      9684      9684      9685      9686
      9684      9685      9687      9685      9687      9688      9685      9687      9689
      9685      9687      9734      9686      9685      9687      9687      9734      9735
      9687      9734      9736      9687      9734      9737      9688      9687      9689
      9688      9687      9734      9689      9687      9734      9690      9693      9694
      9690      9693      9695      9690      9693      9696      9691      9690      9692
      9691      9690      9693      9692      9690      9693      9693      9696      9697
      9693      9696      9698      9693      9696      9699      9694      9693      9695
      9694      9693      9696      9695      9693      9696      9696      9699      9700
      9696      9699      9701      9696      9699      9702      9697      9696      9698
      9697      9696      9699      9698      9696      9699      9699      9702      9703
      9699      9702      9704      9699      9702      9705      9700      9699      9701
      9700      9699      9702      9701      9699      9702      9702      9705      9706
      9702      9705      9707      9702      9705      9708      9703      9702      9704
      9703      9702      9705      9704      9702      9705      9705      9708      9709
      9705      9708      9710      9705      9708      9713      9706      9705      9707
      9706      9705      9708      9707      9705      9708      9708      9710      9711
      9708      9710      9712      9708      9710      9713      9708      9713      9710
      9708      9713      9714      9708      9713      9715      9709      9708      9710
      9709      9708      9713      9710      9708      9713      9710      9713      9714
      9710      9713      9715      9711      9710      9712      9711      9710      9713
      9712      9710      9713      9713      9715      9716      9713      9715      9717
      9713      9715      9718      9714      9713      9715      9715      9718      9719
      9715      9718      9720      9715      9718      9721      9716      9715      9717
      9716      9715      9718      9717      9715      9718      9718      9721      9722
      9718      9721      9723      9718      9721      9724      9719      9718      9720
      9719      9718      9721      9720      9718      9721      9721      9724      9725
      9721      9724      9726      9721      9724      9727      9722      9721      9723
      9722      9721      9724      9723      9721      9724      9724      9727      9728
      9724      9727      9729      9724      9727      9730      9725      9724      9726
      9725      9724      9727      9726      9724      9727      9727      9730      9731
      9727      9730      9732      9727      9730      9733      9728      9727      9729
      9728      9727      9730      9729      9727      9730      9731      9730      9732
      9731      9730      9733      9732      9730      9733      9734      9737      9738
      9734      9737      9739      9734      9737      9740      9735      9734      9736
      9735      9734      9737      9736      9734      9737      9737      9740      9741
      9737      9740      9742      9737      9740      9743      9738      9737      9739
      9738      9737      9740      9739      9737      9740      9740      9743      9744
      9740      9743      9745      9740      9743      9746      9741      9740      9742
      9741      9740      9743      9742      9740      9743      9743      9746      9747
      9743      9746      9748      9743      9746      9749      9744      9743      9745
      9744      9743      9746      9745      9743      9746      9746      9749      9750
      9746      9749      9751      9746      9749      9752      9747      9746      9748
      9747      9746      9749      9748      9746      9749      9749      9752      9753
      9749      9752      9754      9749      9752      9755      9750      9749      9751
      9750      9749      9752      9751      9749      9752      9752      9755      9756
      9752      9755      9757      9752      9755      9758      9753      9752      9754
      9753      9752      9755      9754      9752      9755      9755      9758      9759
      9755      9758      9760      9755      9758      9761      9756      9755      9757
      9756      9755      9758      9757      9755      9758      9758      9761      9762
      9758      9761      9763      9758      9761      9764      9759      9758      9760
      9759      9758      9761      9760      9758      9761      9761      9764      9765
      9761      9764      9766      9761      9764      9767      9762      9761      9763
      9762      9761      9764      9763      9761      9764      9764      9767      9768
      9764      9767      9769      9764      9767      9770      9765      9764      9766
      9765      9764      9767      9766      9764      9767      9767      9770      9771
      9767      9770      9772      9767      9770      9773      9768      9767      9769
      9768      9767      9770      9769      9767      9770      9770      9773      9774
      9770      9773      9775      9770      9773      9776      9771      9770      9772
      9771      9770      9773      9772      9770      9773      9774      9773      9775
      9774      9773      9776      9775      9773      9776      9777      9780      9781
      9777      9782      9783      9777      9782      9784      9777      9782      9786
      9778      9777      9779      9778      9777      9780      9778      9777      9782
      9779      9777      9780      9779      9777      9782      9780      9777      9782
      9782      9784      9785      9782      9786      9787      9782      9786      9788
      9782      9786      9793      9783      9782      9784      9783      9782      9786
      9784      9782      9786      9786      9793      9789      9787      9786      9788
      9787      9786      9793      9788      9786      9793      9789      9792      9794
      9790      9789      9791      9790      9789      9792      9790      9789      9793
      9791      9789      9792      9791      9789      9793      9792      9789      9793
      9792      9794      9795      9792      9794      9796      9792      9794      9797
      9794      9797      9798      9794      9797      9799      9794      9797      9805
      9795      9794      9796      9795      9794      9797      9796      9794      9797
      9797      9799      9800      9797      9805      9806      9797      9805      9807
      9797      9805      9808      9798      9797      9799      9798      9797      9805
      9799      9797      9805      9799      9800      9801      9799      9800      9802
      9800      9802      9803      9800      9802      9804      9800      9802      9814
      9801      9800      9802      9802      9814      9815      9802      9814      9816
      9802      9814      9817      9803      9802      9804      9803      9802      9814
      9804      9802      9814      9805      9808      9809      9806      9805      9807
      9806      9805      9808      9807      9805      9808      9808      9809      9810
      9808      9809      9811      9809      9811      9812      9809      9811      9813
      9809      9811      9858      9810      9809      9811      9811      9858      9859
      9811      9858      9860      9811      9858      9861      9812      9811      9813
      9812      9811      9858      9813      9811      9858      9814      9817      9818
      9814      9817      9819      9814      9817      9820      9815      9814      9816
      9815      9814      9817      9816      9814      9817      9817      9820      9821
      9817      9820      9822      9817      9820      9823      9818      9817      9819
      9818      9817      9820      9819      9817      9820      9820      9823      9824
      9820      9823      9825      9820      9823      9826      9821      9820      9822
      9821      9820      9823      9822      9820      9823      9823      9826      9827
      9823      9826      9828      9823      9826      9829      9824      9823      9825
      9824      9823      9826      9825      9823      9826      9826      9829      9830
      9826      9829      9831      9826      9829      9832      9827      9826      9828
      9827      9826      9829      9828      9826      9829      9829      9832      9833
      9829      9832      9834      9829      9832      9837      9830      9829      9831
      9830      9829      9832      9831      9829      9832      9832      9834      9835
      9832      9834      9836      9832      9834      9837      9832      9837      9834
      9832      9837      9838      9832      9837      9839      9833      9832      9834
      9833      9832      9837      9834      9832      9837      9834      9837      9838
      9834      9837      9839      9835      9834      9836      9835      9834      9837
      9836      9834      9837      9837      9839      9840      9837      9839      9841
      9837      9839      9842      9838      9837      9839      9839      9842      9843
      9839      9842      9844      9839      9842      9845      9840      9839      9841
      9840      9839      9842      9841      9839      9842      9842      9845      9846
      9842      9845      9847      9842      9845      9848      9843      9842      9844
      9843      9842      9845      9844      9842      9845      9845      9848      9849
      9845      9848      9850      9845      9848      9851      9846      9845      9847
      9846      9845      9848      9847      9845      9848      9848      9851      9852
      9848      9851      9853      9848      9851      9854      9849      9848      9850
      9849      9848      9851      9850      9848      9851      9851      9854      9855
      9851      9854      9856      9851      9854      9857      9852      9851      9853
      9852      9851      9854      9853      9851      9854      9855      9854      9856
      9855      9854      9857      9856      9854      9857      9858      9861      9862
      9858      9861      9863      9858      9861      9864      9859      9858      9860
      9859      9858      9861      9860      9858      9861      9861      9864      9865
      9861      9864      9866      9861      9864      9867      9862      9861      9863
      9862      9861      9864      9863      9861      9864      9864      9867      9868
      9864      9867      9869      9864      9867      9870      9865      9864      9866
      9865      9864      9867      9866      9864      9867      9867      9870      9871
      9867      9870      9872      9867      9870      9873      9868      9867      9869
      9868      9867      9870      9869      9867      9870      9870      9873      9874
      9870      9873      9875      9870      9873      9876      9871      9870      9872
      9871      9870      9873      9872      9870      9873      9873      9876      9877
      9873      9876      9878      9873      9876      9879      9874      9873      9875
      9874      9873      9876      9875      9873      9876      9876      9879      9880
      9876      9879      9881      9876      9879      9882      9877      9876      9878
      9877      9876      9879      9878      9876      9879      9879      9882      9883
      9879      9882      9884      9879      9882      9885      9880      9879      9881
      9880      9879      9882      9881      9879      9882      9882      9885      9886
      9882      9885      9887      9882      9885      9888      9883      9882      9884
      9883      9882      9885      9884      9882      9885      9885      9888      9889
      9885      9888      9890      9885      9888      9891      9886      9885      9887
      9886      9885      9888      9887      9885      9888      9888      9891      9892
      9888      9891      9893      9888      9891      9894      9889      9888      9890
      9889      9888      9891      9890      9888      9891      9891      9894      9895
      9891      9894      9896      9891      9894      9897      9892      9891      9893
      9892      9891      9894      9893      9891      9894      9894      9897      9898
      9894      9897      9899      9894      9897      9900      9895      9894      9896
      9895      9894      9897      9896      9894      9897      9898      9897      9899
      9898      9897      9900      9899      9897      9900      9901      9905      9906
      9901      9905      9907      9901      9905      9908      9902      9901      9903
      9902      9901      9904      9902      9901      9905      9903      9901      9904
      9903      9901      9905      9904      9901      9905      9905      9908      9909
      9905      9908      9910      9905      9908      9915      9906      9905      9907
      9906      9905      9908      9907      9905      9908      9908      9915      9911
      9909      9908      9910      9909      9908      9915      9910      9908      9915
      9911      9914      9916      9912      9911      9913      9912      9911      9914
      9912      9911      9915      9913      9911      9914      9913      9911      9915
      9914      9911      9915      9914      9916      9917      9914      9916      9918
      9914      9916      9919      9916      9919      9920      9916      9919      9921
      9916      9919      9927      9917      9916      9918      9917      9916      9919
      9918      9916      9919      9919      9921      9922      9919      9927      9928
      9919      9927      9929      9919      9927      9930      9920      9919      9921
      9920      9919      9927      9921      9919      9927      9921      9922      9923
      9921      9922      9924      9922      9924      9925      9922      9924      9926
      9922      9924      9936      9923      9922      9924      9924      9936      9937
      9924      9936      9938      9924      9936      9939      9925      9924      9926
      9925      9924      9936      9926      9924      9936      9927      9930      9931
      9928      9927      9929      9928      9927      9930      9929      9927      9930
      9930      9931      9932      9930      9931      9933      9931      9933      9934
      9931      9933      9935      9931      9933      9980      9932      9931      9933
      9933      9980      9981      9933      9980      9982      9933      9980      9983
      9934      9933      9935      9934      9933      9980      9935      9933      9980
      9936      9939      9940      9936      9939      9941      9936      9939      9942
      9937      9936      9938      9937      9936      9939      9938      9936      9939
      9939      9942      9943      9939      9942      9944      9939      9942      9945
      9940      9939      9941      9940      9939      9942      9941      9939      9942
      9942      9945      9946      9942      9945      9947      9942      9945      9948
      9943      9942      9944      9943      9942      9945      9944      9942      9945
      9945      9948      9949      9945      9948      9950      9945      9948      9951
      9946      9945      9947      9946      9945      9948      9947      9945      9948
      9948      9951      9952      9948      9951      9953      9948      9951      9954
      9949      9948      9950      9949      9948      9951      9950      9948      9951
      9951      9954      9955      9951      9954      9956      9951      9954      9959
      9952      9951      9953      9952      9951      9954      9953      9951      9954
      9954      9956      9957      9954      9956      9958      9954      9956      9959
      9954      9959      9956      9954      9959      9960      9954      9959      9961
      9955      9954      9956      9955      9954      9959      9956      9954      9959
      9956      9959      9960      9956      9959      9961      9957      9956      9958
      9957      9956      9959      9958      9956      9959      9959      9961      9962
      9959      9961      9963      9959      9961      9964      9960      9959      9961
      9961      9964      9965      9961      9964      9966      9961      9964      9967
      9962      9961      9963      9962      9961      9964      9963      9961      9964
      9964      9967      9968      9964      9967      9969      9964      9967      9970
      9965      9964      9966      9965      9964      9967      9966      9964      9967
      9967      9970      9971      9967      9970      9972      9967      9970      9973
      9968      9967      9969      9968      9967      9970      9969      9967      9970
      9970      9973      9974      9970      9973      9975      9970      9973      9976
      9971      9970      9972      9971      9970      9973      9972      9970      9973
      9973      9976      9977      9973      9976      9978      9973      9976      9979
      9974      9973      9975      9974      9973      9976      9975      9973      9976
      9977      9976      9978      9977      9976      9979      9978      9976      9979
      9980      9983      9984      9980      9983      9985      9980      9983      9986
      9981      9980      9982      9981      9980      9983      9982      9980      9983
      9983      9986      9987      9983      9986      9988      9983      9986      9989
      9984      9983      9985      9984      9983      9986      9985      9983      9986
      9986      9989      9990      9986      9989      9991      9986      9989      9992
      9987      9986      9988      9987      9986      9989      9988      9986      9989
      9989      9992      9993      9989      9992      9994      9989      9992      9995
      9990      9989      9991      9990      9989      9992      9991      9989      9992
      9992      9995      9996      9992      9995      9997      9992      9995      9998
      9993      9992      9994      9993      9992      9995      9994      9992      9995
      9995      9998      9999      9995      9998     10000      9995      9998     10001
      9996      9995      9997      9996      9995      9998      9997      9995      9998
      9998     10001     10002      9998     10001     10003      9998     10001     10004
      9999      9998     10000      9999      9998     10001     10000      9998     10001
     10001     10004     10005     10001     10004     10006     10001     10004     10007
     10002     10001     10003     10002     10001     10004     10003     10001     10004
     10004     10007     10008     10004     10007     10009     10004     10007     10010
     10005     10004     10006     10005     10004     10007     10006     10004     10007
     10007     10010     10011     10007     10010     10012     10007     10010     10013
     10008     10007     10009     10008     10007     10010     10009     10007     10010
     10010     10013     10014     10010     10013     10015     10010     10013     10016
     10011     10010     10012     10011     10010     10013     10012     10010     10013
     10013     10016     10017     10013     10016     10018     10013     10016     10019
     10014     10013     10015     10014     10013     10016     10015     10013     10016
     10016     10019     10020     10016     10019     10021     10016     10019     10022
     10017     10016     10018     10017     10016     10019     10018     10016     10019
     10020     10019     10021     10020     10019     10022     10021     10019     10022
     10023     10027     10028     10023     10027     10029     10023     10027     10030
     10024     10023     10025     10024     10023     10026     10024     10023     10027
     10025     10023     10026     10025     10023     10027     10026     10023     10027
     10027     10030     10031     10027     10030     10032     10027     10030     10037
     10028     10027     10029     10028     10027     10030     10029     10027     10030
     10030     10037     10033     10031     10030     10032     10031     10030     10037
     10032     10030     10037     10033     10036     10038     10034     10033     10035
     10034     10033     10036     10034     10033     10037     10035     10033     10036
     10035     10033     10037     10036     10033     10037     10036     10038     10039
     10036     10038     10040     10036     10038     10041     10038     10041     10042
     10038     10041     10043     10038     10041     10049     10039     10038     10040
     10039     10038     10041     10040     10038     10041     10041     10043     10044
     10041     10049     10050     10041     10049     10051     10041     10049     10052
     10042     10041     10043     10042     10041     10049     10043     10041     10049
     10043     10044     10045     10043     10044     10046     10044     10046     10047
     10044     10046     10048     10044     10046     10058     10045     10044     10046
     10046     10058     10059     10046     10058     10060     10046     10058     10061
     10047     10046     10048     10047     10046     10058     10048     10046     10058
     10049     10052     10053     10050     10049     10051     10050     10049     10052
     10051     10049     10052     10052     10053     10054     10052     10053     10055
     10053     10055     10056     10053     10055     10057     10053     10055     10105
     10054     10053     10055     10055     10105     10106     10055     10105     10107
     10055     10105     10108     10056     10055     10057     10056     10055     10105
     10057     10055     10105     10058     10061     10062     10058     10061     10063
     10058     10061     10064     10059     10058     10060     10059     10058     10061
     10060     10058     10061     10061     10064     10065     10061     10064     10066
     10061     10064     10067     10062     10061     10063     10062     10061     10064
     10063     10061     10064     10064     10067     10068     10064     10067     10069
     10064     10067     10070     10065     10064     10066     10065     10064     10067
     10066     10064     10067     10067     10070     10071     10067     10070     10072
     10067     10070     10073     10068     10067     10069     10068     10067     10070
     10069     10067     10070     10070     10073     10074     10070     10073     10075
     10070     10073     10076     10071     10070     10072     10071     10070     10073
     10072     10070     10073     10073     10076     10077     10073     10076     10078
     10074     10073     10075     10074     10073     10076     10075     10073     10076
     10076     10078     10079     10076     10078     10080     10077     10076     10078
     10078     10080     10081     10078     10080     10082     10078     10080     10083
     10079     10078     10080     10080     10083     10084     10080     10083     10085
     10080     10083     10086     10081     10080     10082     10081     10080     10083
     10082     10080     10083     10083     10086     10087     10083     10086     10088
     10083     10086     10089     10084     10083     10085     10084     10083     10086
     10085     10083     10086     10086     10089     10090     10086     10089     10091
     10086     10089     10092     10087     10086     10088     10087     10086     10089
     10088     10086     10089     10089     10092     10093     10089     10092     10094
     10089     10092     10095     10090     10089     10091     10090     10089     10092
     10091     10089     10092     10092     10095     10096     10092     10095     10097
     10092     10095     10098     10093     10092     10094     10093     10092     10095
     10094     10092     10095     10095     10098     10099     10095     10098     10100
     10095     10098     10101     10096     10095     10097     10096     10095     10098
     10097     10095     10098     10098     10101     10102     10098     10101     10103
     10098     10101     10104     10099     10098     10100     10099     10098     10101
     10100     10098     10101     10102     10101     10103     10102     10101     10104
     10103     10101     10104     10105     10108     10109     10105     10108     10110
     10105     10108     10111     10106     10105     10107     10106     10105     10108
     10107     10105     10108     10108     10111     10112     10108     10111     10113
     10108     10111     10114     10109     10108     10110     10109     10108     10111
     10110     10108     10111     10111     10114     10115     10111     10114     10116
     10111     10114     10117     10112     10111     10113     10112     10111     10114
     10113     10111     10114     10114     10117     10118     10114     10117     10119
     10114     10117     10120     10115     10114     10116     10115     10114     10117
     10116     10114     10117     10117     10120     10121     10117     10120     10122
     10117     10120     10123     10118     10117     10119     10118     10117     10120
     10119     10117     10120     10120     10123     10124     10120     10123     10125
     10120     10123     10126     10121     10120     10122     10121     10120     10123
     10122     10120     10123     10123     10126     10127     10123     10126     10128
     10123     10126     10129     10124     10123     10125     10124     10123     10126
     10125     10123     10126     10126     10129     10130     10126     10129     10131
     10126     10129     10132     10127     10126     10128     10127     10126     10129
     10128     10126     10129     10129     10132     10133     10129     10132     10134
     10129     10132     10135     10130     10129     10131     10130     10129     10132
     10131     10129     10132     10132     10135     10136     10132     10135     10137
     10132     10135     10138     10133     10132     10134     10133     10132     10135
     10134     10132     10135     10135     10138     10139     10135     10138     10140
     10135     10138     10141     10136     10135     10137     10136     10135     10138
     10137     10135     10138     10138     10141     10142     10138     10141     10143
     10138     10141     10144     10139     10138     10140     10139     10138     10141
     10140     10138     10141     10141     10144     10145     10141     10144     10146
     10141     10144     10147     10142     10141     10143     10142     10141     10144
     10143     10141     10144     10145     10144     10146     10145     10144     10147
     10146     10144     10147     10148     10152     10153     10148     10152     10154
     10148     10152     10155     10149     10148     10150     10149     10148     10151
     10149     10148     10152     10150     10148     10151     10150     10148     10152
     10151     10148     10152     10152     10155     10156     10152     10155     10157
     10152     10155     10162     10153     10152     10154     10153     10152     10155
     10154     10152     10155     10155     10162     10158     10156     10155     10157
     10156     10155     10162     10157     10155     10162     10158     10161     10163
     10159     10158     10160     10159     10158     10161     10159     10158     10162
     10160     10158     10161     10160     10158     10162     10161     10158     10162
     10161     10163     10164     10161     10163     10165     10161     10163     10166
     10163     10166     10167     10163     10166     10168     10163     10166     10174
     10164     10163     10165     10164     10163     10166     10165     10163     10166
     10166     10168     10169     10166     10174     10175     10166     10174     10176
     10166     10174     10177     10167     10166     10168     10167     10166     10174
     10168     10166     10174     10168     10169     10170     10168     10169     10171
     10169     10171     10172     10169     10171     10173     10169     10171     10183
     10170     10169     10171     10171     10183     10184     10171     10183     10185
     10171     10183     10186     10172     10171     10173     10172     10171     10183
     10173     10171     10183     10174     10177     10178     10175     10174     10176
     10175     10174     10177     10176     10174     10177     10177     10178     10179
     10177     10178     10180     10178     10180     10181     10178     10180     10182
     10178     10180     10227     10179     10178     10180     10180     10227     10228
     10180     10227     10229     10180     10227     10230     10181     10180     10182
     10181     10180     10227     10182     10180     10227     10183     10186     10187
     10183     10186     10188     10183     10186     10189     10184     10183     10185
     10184     10183     10186     10185     10183     10186     10186     10189     10190
     10186     10189     10191     10186     10189     10192     10187     10186     10188
     10187     10186     10189     10188     10186     10189     10189     10192     10193
     10189     10192     10194     10189     10192     10195     10190     10189     10191
     10190     10189     10192     10191     10189     10192     10192     10195     10196
     10192     10195     10197     10192     10195     10198     10193     10192     10194
     10193     10192     10195     10194     10192     10195     10195     10198     10199
     10195     10198     10200     10195     10198     10201     10196     10195     10197
     10196     10195     10198     10197     10195     10198     10198     10201     10202
     10198     10201     10203     10198     10201     10206     10199     10198     10200
     10199     10198     10201     10200     10198     10201     10201     10203     10204
     10201     10203     10205     10201     10203     10206     10201     10206     10203
     10201     10206     10207     10201     10206     10208     10202     10201     10203
     10202     10201     10206     10203     10201     10206     10203     10206     10207
     10203     10206     10208     10204     10203     10205     10204     10203     10206
     10205     10203     10206     10206     10208     10209     10206     10208     10210
     10206     10208     10211     10207     10206     10208     10208     10211     10212
     10208     10211     10213     10208     10211     10214     10209     10208     10210
     10209     10208     10211     10210     10208     10211     10211     10214     10215
     10211     10214     10216     10211     10214     10217     10212     10211     10213
     10212     10211     10214     10213     10211     10214     10214     10217     10218
     10214     10217     10219     10214     10217     10220     10215     10214     10216
     10215     10214     10217     10216     10214     10217     10217     10220     10221
     10217     10220     10222     10217     10220     10223     10218     10217     10219
     10218     10217     10220     10219     10217     10220     10220     10223     10224
     10220     10223     10225     10220     10223     10226     10221     10220     10222
     10221     10220     10223     10222     10220     10223     10224     10223     10225
     10224     10223     10226     10225     10223     10226     10227     10230     10231
     10227     10230     10232     10227     10230     10233     10228     10227     10229
     10228     10227     10230     10229     10227     10230     10230     10233     10234
     10230     10233     10235     10230     10233     10236     10231     10230     10232
     10231     10230     10233     10232     10230     10233     10233     10236     10237
     10233     10236     10238     10233     10236     10239     10234     10233     10235
     10234     10233     10236     10235     10233     10236     10236     10239     10240
     10236     10239     10241     10236     10239     10242     10237     10236     10238
     10237     10236     10239     10238     10236     10239     10239     10242     10243
     10239     10242     10244     10239     10242     10245     10240     10239     10241
     10240     10239     10242     10241     10239     10242     10242     10245     10246
     10242     10245     10247     10242     10245     10248     10243     10242     10244
     10243     10242     10245     10244     10242     10245     10245     10248     10249
     10245     10248     10250     10245     10248     10251     10246     10245     10247
     10246     10245     10248     10247     10245     10248     10248     10251     10252
     10248     10251     10253     10248     10251     10254     10249     10248     10250
     10249     10248     10251     10250     10248     10251     10251     10254     10255
     10251     10254     10256     10251     10254     10257     10252     10251     10253
     10252     10251     10254     10253     10251     10254     10254     10257     10258
     10254     10257     10259     10254     10257     10260     10255     10254     10256
     10255     10254     10257     10256     10254     10257     10257     10260     10261
     10257     10260     10262     10257     10260     10263     10258     10257     10259
     10258     10257     10260     10259     10257     10260     10260     10263     10264
     10260     10263     10265     10260     10263     10266     10261     10260     10262
     10261     10260     10263     10262     10260     10263     10263     10266     10267
     10263     10266     10268     10263     10266     10269     10264     10263     10265
     10264     10263     10266     10265     10263     10266     10267     10266     10268
     10267     10266     10269     10268     10266     10269     10270     10273     10274
     10270     10275     10276     10270     10275     10277     10270     10275     10279
     10271     10270     10272     10271     10270     10273     10271     10270     10275
     10272     10270     10273     10272     10270     10275     10273     10270     10275
     10275     10277     10278     10275     10279     10280     10275     10279     10281
     10275     10279     10286     10276     10275     10277     10276     10275     10279
     10277     10275     10279     10279     10286     10282     10280     10279     10281
     10280     10279     10286     10281     10279     10286     10282     10285     10287
     10283     10282     10284     10283     10282     10285     10283     10282     10286
     10284     10282     10285     10284     10282     10286     10285     10282     10286
     10285     10287     10288     10285     10287     10289     10285     10287     10290
     10287     10290     10291     10287     10290     10292     10287     10290     10298
     10288     10287     10289     10288     10287     10290     10289     10287     10290
     10290     10292     10293     10290     10298     10299     10290     10298     10300
     10290     10298     10301     10291     10290     10292     10291     10290     10298
     10292     10290     10298     10292     10293     10294     10292     10293     10295
     10293     10295     10296     10293     10295     10297     10293     10295     10307
     10294     10293     10295     10295     10307     10308     10295     10307     10309
     10295     10307     10310     10296     10295     10297     10296     10295     10307
     10297     10295     10307     10298     10301     10302     10299     10298     10300
     10299     10298     10301     10300     10298     10301     10301     10302     10303
     10301     10302     10304     10302     10304     10305     10302     10304     10306
     10302     10304     10348     10303     10302     10304     10304     10348     10349
     10304     10348     10350     10304     10348     10351     10305     10304     10306
     10305     10304     10348     10306     10304     10348     10307     10310     10311
     10307     10310     10312     10307     10310     10313     10308     10307     10309
     10308     10307     10310     10309     10307     10310     10310     10313     10314
     10310     10313     10315     10310     10313     10316     10311     10310     10312
     10311     10310     10313     10312     10310     10313     10313     10316     10317
     10313     10316     10318     10313     10316     10319     10314     10313     10315
     10314     10313     10316     10315     10313     10316     10316     10319     10320
     10316     10319     10321     10316     10319     10322     10317     10316     10318
     10317     10316     10319     10318     10316     10319     10319     10322     10323
     10319     10322     10324     10319     10322     10325     10320     10319     10321
     10320     10319     10322     10321     10319     10322     10322     10325     10326
     10322     10325     10327     10323     10322     10324     10323     10322     10325
     10324     10322     10325     10325     10327     10328     10325     10327     10329
     10326     10325     10327     10327     10329     10330     10327     10329     10331
     10327     10329     10332     10328     10327     10329     10329     10332     10333
     10329     10332     10334     10329     10332     10335     10330     10329     10331
     10330     10329     10332     10331     10329     10332     10332     10335     10336
     10332     10335     10337     10332     10335     10338     10333     10332     10334
     10333     10332     10335     10334     10332     10335     10335     10338     10339
     10335     10338     10340     10335     10338     10341     10336     10335     10337
     10336     10335     10338     10337     10335     10338     10338     10341     10342
     10338     10341     10343     10338     10341     10344     10339     10338     10340
     10339     10338     10341     10340     10338     10341     10341     10344     10345
     10341     10344     10346     10341     10344     10347     10342     10341     10343
     10342     10341     10344     10343     10341     10344     10345     10344     10346
     10345     10344     10347     10346     10344     10347     10348     10351     10352
     10348     10351     10353     10348     10351     10354     10349     10348     10350
     10349     10348     10351     10350     10348     10351     10351     10354     10355
     10351     10354     10356     10351     10354     10357     10352     10351     10353
     10352     10351     10354     10353     10351     10354     10354     10357     10358
     10354     10357     10359     10354     10357     10360     10355     10354     10356
     10355     10354     10357     10356     10354     10357     10357     10360     10361
     10357     10360     10362     10357     10360     10363     10358     10357     10359
     10358     10357     10360     10359     10357     10360     10360     10363     10364
     10360     10363     10365     10360     10363     10366     10361     10360     10362
     10361     10360     10363     10362     10360     10363     10363     10366     10367
     10363     10366     10368     10363     10366     10369     10364     10363     10365
     10364     10363     10366     10365     10363     10366     10366     10369     10370
     10366     10369     10371     10366     10369     10372     10367     10366     10368
     10367     10366     10369     10368     10366     10369     10369     10372     10373
     10369     10372     10374     10369     10372     10375     10370     10369     10371
     10370     10369     10372     10371     10369     10372     10372     10375     10376
     10372     10375     10377     10372     10375     10378     10373     10372     10374
     10373     10372     10375     10374     10372     10375     10375     10378     10379
     10375     10378     10380     10375     10378     10381     10376     10375     10377
     10376     10375     10378     10377     10375     10378     10378     10381     10382
     10378     10381     10383     10378     10381     10384     10379     10378     10380
     10379     10378     10381     10380     10378     10381     10381     10384     10385
     10381     10384     10386     10381     10384     10387     10382     10381     10383
     10382     10381     10384     10383     10381     10384     10384     10387     10388
     10384     10387     10389     10384     10387     10390     10385     10384     10386
     10385     10384     10387     10386     10384     10387     10388     10387     10389
     10388     10387     10390     10389     10387     10390     10391     10394     10395
     10391     10396     10397     10391     10396     10398     10391     10396     10400
     10392     10391     10393     10392     10391     10394     10392     10391     10396
     10393     10391     10394     10393     10391     10396     10394     10391     10396
     10396     10398     10399     10396     10400     10401     10396     10400     10402
     10396     10400     10407     10397     10396     10398     10397     10396     10400
     10398     10396     10400     10400     10407     10403     10401     10400     10402
     10401     10400     10407     10402     10400     10407     10403     10406     10408
     10404     10403     10405     10404     10403     10406     10404     10403     10407
     10405     10403     10406     10405     10403     10407     10406     10403     10407
     10406     10408     10409     10406     10408     10410     10406     10408     10411
     10408     10411     10412     10408     10411     10413     10408     10411     10419
     10409     10408     10410     10409     10408     10411     10410     10408     10411
     10411     10413     10414     10411     10419     10420     10411     10419     10421
     10411     10419     10422     10412     10411     10413     10412     10411     10419
     10413     10411     10419     10413     10414     10415     10413     10414     10416
     10414     10416     10417     10414     10416     10418     10414     10416     10428
     10415     10414     10416     10416     10428     10429     10416     10428     10430
     10416     10428     10431     10417     10416     10418     10417     10416     10428
     10418     10416     10428     10419     10422     10423     10420     10419     10421
     10420     10419     10422     10421     10419     10422     10422     10423     10424
     10422     10423     10425     10423     10425     10426     10423     10425     10427
     10423     10425     10472     10424     10423     10425     10425     10472     10473
     10425     10472     10474     10425     10472     10475     10426     10425     10427
     10426     10425     10472     10427     10425     10472     10428     10431     10432
     10428     10431     10433     10428     10431     10434     10429     10428     10430
     10429     10428     10431     10430     10428     10431     10431     10434     10435
     10431     10434     10436     10431     10434     10437     10432     10431     10433
     10432     10431     10434     10433     10431     10434     10434     10437     10438
     10434     10437     10439     10434     10437     10440     10435     10434     10436
     10435     10434     10437     10436     10434     10437     10437     10440     10441
     10437     10440     10442     10437     10440     10443     10438     10437     10439
     10438     10437     10440     10439     10437     10440     10440     10443     10444
     10440     10443     10445     10440     10443     10446     10441     10440     10442
     10441     10440     10443     10442     10440     10443     10443     10446     10447
     10443     10446     10448     10443     10446     10451     10444     10443     10445
     10444     10443     10446     10445     10443     10446     10446     10448     10449
     10446     10448     10450     10446     10448     10451     10446     10451     10448
     10446     10451     10452     10446     10451     10453     10447     10446     10448
     10447     10446     10451     10448     10446     10451     10448     10451     10452
     10448     10451     10453     10449     10448     10450     10449     10448     10451
     10450     10448     10451     10451     10453     10454     10451     10453     10455
     10451     10453     10456     10452     10451     10453     10453     10456     10457
     10453     10456     10458     10453     10456     10459     10454     10453     10455
     10454     10453     10456     10455     10453     10456     10456     10459     10460
     10456     10459     10461     10456     10459     10462     10457     10456     10458
     10457     10456     10459     10458     10456     10459     10459     10462     10463
     10459     10462     10464     10459     10462     10465     10460     10459     10461
     10460     10459     10462     10461     10459     10462     10462     10465     10466
     10462     10465     10467     10462     10465     10468     10463     10462     10464
     10463     10462     10465     10464     10462     10465     10465     10468     10469
     10465     10468     10470     10465     10468     10471     10466     10465     10467
     10466     10465     10468     10467     10465     10468     10469     10468     10470
     10469     10468     10471     10470     10468     10471     10472     10475     10476
     10472     10475     10477     10472     10475     10478     10473     10472     10474
     10473     10472     10475     10474     10472     10475     10475     10478     10479
     10475     10478     10480     10475     10478     10481     10476     10475     10477
     10476     10475     10478     10477     10475     10478     10478     10481     10482
     10478     10481     10483     10478     10481     10484     10479     10478     10480
     10479     10478     10481     10480     10478     10481     10481     10484     10485
     10481     10484     10486     10481     10484     10487     10482     10481     10483
     10482     10481     10484     10483     10481     10484     10484     10487     10488
     10484     10487     10489     10484     10487     10490     10485     10484     10486
     10485     10484     10487     10486     10484     10487     10487     10490     10491
     10487     10490     10492     10487     10490     10493     10488     10487     10489
     10488     10487     10490     10489     10487     10490     10490     10493     10494
     10490     10493     10495     10490     10493     10496     10491     10490     10492
     10491     10490     10493     10492     10490     10493     10493     10496     10497
     10493     10496     10498     10493     10496     10499     10494     10493     10495
     10494     10493     10496     10495     10493     10496     10496     10499     10500
     10496     10499     10501     10496     10499     10502     10497     10496     10498
     10497     10496     10499     10498     10496     10499     10499     10502     10503
     10499     10502     10504     10499     10502     10505     10500     10499     10501
     10500     10499     10502     10501     10499     10502     10502     10505     10506
     10502     10505     10507     10502     10505     10508     10503     10502     10504
     10503     10502     10505     10504     10502     10505     10505     10508     10509
     10505     10508     10510     10505     10508     10511     10506     10505     10507
     10506     10505     10508     10507     10505     10508     10508     10511     10512
     10508     10511     10513     10508     10511     10514     10509     10508     10510
     10509     10508     10511     10510     10508     10511     10512     10511     10513
     10512     10511     10514     10513     10511     10514     10515     10518     10519
     10515     10520     10521     10515     10520     10522     10515     10520     10524
     10516     10515     10517     10516     10515     10518     10516     10515     10520
     10517     10515     10518     10517     10515     10520     10518     10515     10520
     10520     10522     10523     10520     10524     10525     10520     10524     10526
     10520     10524     10531     10521     10520     10522     10521     10520     10524
     10522     10520     10524     10524     10531     10527     10525     10524     10526
     10525     10524     10531     10526     10524     10531     10527     10530     10532
     10528     10527     10529     10528     10527     10530     10528     10527     10531
     10529     10527     10530     10529     10527     10531     10530     10527     10531
     10530     10532     10533     10530     10532     10534     10530     10532     10535
     10532     10535     10536     10532     10535     10537     10532     10535     10543
     10533     10532     10534     10533     10532     10535     10534     10532     10535
     10535     10537     10538     10535     10543     10544     10535     10543     10545
     10535     10543     10546     10536     10535     10537     10536     10535     10543
     10537     10535     10543     10537     10538     10539     10537     10538     10540
     10538     10540     10541     10538     10540     10542     10538     10540     10552
     10539     10538     10540     10540     10552     10553     10540     10552     10554
     10540     10552     10555     10541     10540     10542     10541     10540     10552
     10542     10540     10552     10543     10546     10547     10544     10543     10545
     10544     10543     10546     10545     10543     10546     10546     10547     10548
     10546     10547     10549     10547     10549     10550     10547     10549     10551
     10547     10549     10593     10548     10547     10549     10549     10593     10594
     10549     10593     10595     10549     10593     10596     10550     10549     10551
     10550     10549     10593     10551     10549     10593     10552     10555     10556
     10552     10555     10557     10552     10555     10558     10553     10552     10554
     10553     10552     10555     10554     10552     10555     10555     10558     10559
     10555     10558     10560     10555     10558     10561     10556     10555     10557
     10556     10555     10558     10557     10555     10558     10558     10561     10562
     10558     10561     10563     10558     10561     10564     10559     10558     10560
     10559     10558     10561     10560     10558     10561     10561     10564     10565
     10561     10564     10566     10561     10564     10567     10562     10561     10563
     10562     10561     10564     10563     10561     10564     10564     10567     10568
     10564     10567     10569     10564     10567     10570     10565     10564     10566
     10565     10564     10567     10566     10564     10567     10567     10570     10571
     10567     10570     10572     10568     10567     10569     10568     10567     10570
     10569     10567     10570     10570     10572     10573     10570     10572     10574
     10571     10570     10572     10572     10574     10575     10572     10574     10576
     10572     10574     10577     10573     10572     10574     10574     10577     10578
     10574     10577     10579     10574     10577     10580     10575     10574     10576
     10575     10574     10577     10576     10574     10577     10577     10580     10581
     10577     10580     10582     10577     10580     10583     10578     10577     10579
     10578     10577     10580     10579     10577     10580     10580     10583     10584
     10580     10583     10585     10580     10583     10586     10581     10580     10582
     10581     10580     10583     10582     10580     10583     10583     10586     10587
     10583     10586     10588     10583     10586     10589     10584     10583     10585
     10584     10583     10586     10585     10583     10586     10586     10589     10590
     10586     10589     10591     10586     10589     10592     10587     10586     10588
     10587     10586     10589     10588     10586     10589     10590     10589     10591
     10590     10589     10592     10591     10589     10592     10593     10596     10597
     10593     10596     10598     10593     10596     10599     10594     10593     10595
     10594     10593     10596     10595     10593     10596     10596     10599     10600
     10596     10599     10601     10596     10599     10602     10597     10596     10598
     10597     10596     10599     10598     10596     10599     10599     10602     10603
     10599     10602     10604     10599     10602     10605     10600     10599     10601
     10600     10599     10602     10601     10599     10602     10602     10605     10606
     10602     10605     10607     10602     10605     10608     10603     10602     10604
     10603     10602     10605     10604     10602     10605     10605     10608     10609
     10605     10608     10610     10605     10608     10611     10606     10605     10607
     10606     10605     10608     10607     10605     10608     10608     10611     10612
     10608     10611     10613     10608     10611     10614     10609     10608     10610
     10609     10608     10611     10610     10608     10611     10611     10614     10615
     10611     10614     10616     10611     10614     10617     10612     10611     10613
     10612     10611     10614     10613     10611     10614     10614     10617     10618
     10614     10617     10619     10614     10617     10620     10615     10614     10616
     10615     10614     10617     10616     10614     10617     10617     10620     10621
     10617     10620     10622     10617     10620     10623     10618     10617     10619
     10618     10617     10620     10619     10617     10620     10620     10623     10624
     10620     10623     10625     10620     10623     10626     10621     10620     10622
     10621     10620     10623     10622     10620     10623     10623     10626     10627
     10623     10626     10628     10623     10626     10629     10624     10623     10625
     10624     10623     10626     10625     10623     10626     10626     10629     10630
     10626     10629     10631     10626     10629     10632     10627     10626     10628
     10627     10626     10629     10628     10626     10629     10629     10632     10633
     10629     10632     10634     10629     10632     10635     10630     10629     10631
     10630     10629     10632     10631     10629     10632     10633     10632     10634
     10633     10632     10635     10634     10632     10635     10636     10640     10641
     10636     10640     10642     10636     10640     10643     10637     10636     10638
     10637     10636     10639     10637     10636     10640     10638     10636     10639
     10638     10636     10640     10639     10636     10640     10640     10643     10644
     10640     10643     10645     10640     10643     10650     10641     10640     10642
     10641     10640     10643     10642     10640     10643     10643     10650     10646
     10644     10643     10645     10644     10643     10650     10645     10643     10650
     10646     10649     10651     10647     10646     10648     10647     10646     10649
     10647     10646     10650     10648     10646     10649     10648     10646     10650
     10649     10646     10650     10649     10651     10652     10649     10651     10653
     10649     10651     10654     10651     10654     10655     10651     10654     10656
     10651     10654     10662     10652     10651     10653     10652     10651     10654
     10653     10651     10654     10654     10656     10657     10654     10662     10663
     10654     10662     10664     10654     10662     10665     10655     10654     10656
     10655     10654     10662     10656     10654     10662     10656     10657     10658
     10656     10657     10659     10657     10659     10660     10657     10659     10661
     10657     10659     10671     10658     10657     10659     10659     10671     10672
     10659     10671     10673     10659     10671     10674     10660     10659     10661
     10660     10659     10671     10661     10659     10671     10662     10665     10666
     10663     10662     10664     10663     10662     10665     10664     10662     10665
     10665     10666     10667     10665     10666     10668     10666     10668     10669
     10666     10668     10670     10666     10668     10715     10667     10666     10668
     10668     10715     10716     10668     10715     10717     10668     10715     10718
     10669     10668     10670     10669     10668     10715     10670     10668     10715
     10671     10674     10675     10671     10674     10676     10671     10674     10677
     10672     10671     10673     10672     10671     10674     10673     10671     10674
     10674     10677     10678     10674     10677     10679     10674     10677     10680
     10675     10674     10676     10675     10674     10677     10676     10674     10677
     10677     10680     10681     10677     10680     10682     10677     10680     10683
     10678     10677     10679     10678     10677     10680     10679     10677     10680
     10680     10683     10684     10680     10683     10685     10680     10683     10686
     10681     10680     10682     10681     10680     10683     10682     10680     10683
     10683     10686     10687     10683     10686     10688     10683     10686     10689
     10684     10683     10685     10684     10683     10686     10685     10683     10686
     10686     10689     10690     10686     10689     10691     10686     10689     10694
     10687     10686     10688     10687     10686     10689     10688     10686     10689
     10689     10691     10692     10689     10691     10693     10689     10691     10694
     10689     10694     10691     10689     10694     10695     10689     10694     10696
     10690     10689     10691     10690     10689     10694     10691     10689     10694
     10691     10694     10695     10691     10694     10696     10692     10691     10693
     10692     10691     10694     10693     10691     10694     10694     10696     10697
     10694     10696     10698     10694     10696     10699     10695     10694     10696
     10696     10699     10700     10696     10699     10701     10696     10699     10702
     10697     10696     10698     10697     10696     10699     10698     10696     10699
     10699     10702     10703     10699     10702     10704     10699     10702     10705
     10700     10699     10701     10700     10699     10702     10701     10699     10702
     10702     10705     10706     10702     10705     10707     10702     10705     10708
     10703     10702     10704     10703     10702     10705     10704     10702     10705
     10705     10708     10709     10705     10708     10710     10705     10708     10711
     10706     10705     10707     10706     10705     10708     10707     10705     10708
     10708     10711     10712     10708     10711     10713     10708     10711     10714
     10709     10708     10710     10709     10708     10711     10710     10708     10711
     10712     10711     10713     10712     10711     10714     10713     10711     10714
     10715     10718     10719     10715     10718     10720     10715     10718     10721
     10716     10715     10717     10716     10715     10718     10717     10715     10718
     10718     10721     10722     10718     10721     10723     10718     10721     10724
     10719     10718     10720     10719     10718     10721     10720     10718     10721
     10721     10724     10725     10721     10724     10726     10721     10724     10727
     10722     10721     10723     10722     10721     10724     10723     10721     10724
     10724     10727     10728     10724     10727     10729     10724     10727     10730
     10725     10724     10726     10725     10724     10727     10726     10724     10727
     10727     10730     10731     10727     10730     10732     10727     10730     10733
     10728     10727     10729     10728     10727     10730     10729     10727     10730
     10730     10733     10734     10730     10733     10735     10730     10733     10736
     10731     10730     10732     10731     10730     10733     10732     10730     10733
     10733     10736     10737     10733     10736     10738     10733     10736     10739
     10734     10733     10735     10734     10733     10736     10735     10733     10736
     10736     10739     10740     10736     10739     10741     10736     10739     10742
     10737     10736     10738     10737     10736     10739     10738     10736     10739
     10739     10742     10743     10739     10742     10744     10739     10742     10745
     10740     10739     10741     10740     10739     10742     10741     10739     10742
     10742     10745     10746     10742     10745     10747     10742     10745     10748
     10743     10742     10744     10743     10742     10745     10744     10742     10745
     10745     10748     10749     10745     10748     10750     10745     10748     10751
     10746     10745     10747     10746     10745     10748     10747     10745     10748
     10748     10751     10752     10748     10751     10753     10748     10751     10754
     10749     10748     10750     10749     10748     10751     10750     10748     10751
     10751     10754     10755     10751     10754     10756     10751     10754     10757
     10752     10751     10753     10752     10751     10754     10753     10751     10754
     10755     10754     10756     10755     10754     10757     10756     10754     10757
     10758     10762     10763     10758     10762     10764     10758     10762     10765
     10759     10758     10760     10759     10758     10761     10759     10758     10762
     10760     10758     10761     10760     10758     10762     10761     10758     10762
     10762     10765     10766     10762     10765     10767     10762     10765     10772
     10763     10762     10764     10763     10762     10765     10764     10762     10765
     10765     10772     10768     10766     10765     10767     10766     10765     10772
     10767     10765     10772     10768     10771     10773     10769     10768     10770
     10769     10768     10771     10769     10768     10772     10770     10768     10771
     10770     10768     10772     10771     10768     10772     10771     10773     10774
     10771     10773     10775     10771     10773     10776     10773     10776     10777
     10773     10776     10778     10773     10776     10784     10774     10773     10775
     10774     10773     10776     10775     10773     10776     10776     10778     10779
     10776     10784     10785     10776     10784     10786     10776     10784     10787
     10777     10776     10778     10777     10776     10784     10778     10776     10784
     10778     10779     10780     10778     10779     10781     10779     10781     10782
     10779     10781     10783     10779     10781     10793     10780     10779     10781
     10781     10793     10794     10781     10793     10795     10781     10793     10796
     10782     10781     10783     10782     10781     10793     10783     10781     10793
     10784     10787     10788     10785     10784     10786     10785     10784     10787
     10786     10784     10787     10787     10788     10789     10787     10788     10790
     10788     10790     10791     10788     10790     10792     10788     10790     10837
     10789     10788     10790     10790     10837     10838     10790     10837     10839
     10790     10837     10840     10791     10790     10792     10791     10790     10837
     10792     10790     10837     10793     10796     10797     10793     10796     10798
     10793     10796     10799     10794     10793     10795     10794     10793     10796
     10795     10793     10796     10796     10799     10800     10796     10799     10801
     10796     10799     10802     10797     10796     10798     10797     10796     10799
     10798     10796     10799     10799     10802     10803     10799     10802     10804
     10799     10802     10805     10800     10799     10801     10800     10799     10802
     10801     10799     10802     10802     10805     10806     10802     10805     10807
     10802     10805     10808     10803     10802     10804     10803     10802     10805
     10804     10802     10805     10805     10808     10809     10805     10808     10810
     10805     10808     10811     10806     10805     10807     10806     10805     10808
     10807     10805     10808     10808     10811     10812     10808     10811     10813
     10808     10811     10816     10809     10808     10810     10809     10808     10811
     10810     10808     10811     10811     10813     10814     10811     10813     10815
     10811     10813     10816     10811     10816     10813     10811     10816     10817
     10811     10816     10818     10812     10811     10813     10812     10811     10816
     10813     10811     10816     10813     10816     10817     10813     10816     10818
     10814     10813     10815     10814     10813     10816     10815     10813     10816
     10816     10818     10819     10816     10818     10820     10816     10818     10821
     10817     10816     10818     10818     10821     10822     10818     10821     10823
     10818     10821     10824     10819     10818     10820     10819     10818     10821
     10820     10818     10821     10821     10824     10825     10821     10824     10826
     10821     10824     10827     10822     10821     10823     10822     10821     10824
     10823     10821     10824     10824     10827     10828     10824     10827     10829
     10824     10827     10830     10825     10824     10826     10825     10824     10827
     10826     10824     10827     10827     10830     10831     10827     10830     10832
     10827     10830     10833     10828     10827     10829     10828     10827     10830
     10829     10827     10830     10830     10833     10834     10830     10833     10835
     10830     10833     10836     10831     10830     10832     10831     10830     10833
     10832     10830     10833     10834     10833     10835     10834     10833     10836
     10835     10833     10836     10837     10840     10841     10837     10840     10842
     10837     10840     10843     10838     10837     10839     10838     10837     10840
     10839     10837     10840     10840     10843     10844     10840     10843     10845
     10840     10843     10846     10841     10840     10842     10841     10840     10843
     10842     10840     10843     10843     10846     10847     10843     10846     10848
     10843     10846     10849     10844     10843     10845     10844     10843     10846
     10845     10843     10846     10846     10849     10850     10846     10849     10851
     10846     10849     10852     10847     10846     10848     10847     10846     10849
     10848     10846     10849     10849     10852     10853     10849     10852     10854
     10849     10852     10855     10850     10849     10851     10850     10849     10852
     10851     10849     10852     10852     10855     10856     10852     10855     10857
     10852     10855     10858     10853     10852     10854     10853     10852     10855
     10854     10852     10855     10855     10858     10859     10855     10858     10860
     10855     10858     10861     10856     10855     10857     10856     10855     10858
     10857     10855     10858     10858     10861     10862     10858     10861     10863
     10858     10861     10864     10859     10858     10860     10859     10858     10861
     10860     10858     10861     10861     10864     10865     10861     10864     10866
     10861     10864     10867     10862     10861     10863     10862     10861     10864
     10863     10861     10864     10864     10867     10868     10864     10867     10869
     10864     10867     10870     10865     10864     10866     10865     10864     10867
     10866     10864     10867     10867     10870     10871     10867     10870     10872
     10867     10870     10873     10868     10867     10869     10868     10867     10870
     10869     10867     10870     10870     10873     10874     10870     10873     10875
     10870     10873     10876     10871     10870     10872     10871     10870     10873
     10872     10870     10873     10873     10876     10877     10873     10876     10878
     10873     10876     10879     10874     10873     10875     10874     10873     10876
     10875     10873     10876     10877     10876     10878     10877     10876     10879
     10878     10876     10879     10880     10883     10884     10880     10885     10886
     10880     10885     10887     10880     10885     10889     10881     10880     10882
     10881     10880     10883     10881     10880     10885     10882     10880     10883
     10882     10880     10885     10883     10880     10885     10885     10887     10888
     10885     10889     10890     10885     10889     10891     10885     10889     10896
     10886     10885     10887     10886     10885     10889     10887     10885     10889
     10889     10896     10892     10890     10889     10891     10890     10889     10896
     10891     10889     10896     10892     10895     10897     10893     10892     10894
     10893     10892     10895     10893     10892     10896     10894     10892     10895
     10894     10892     10896     10895     10892     10896     10895     10897     10898
     10895     10897     10899     10895     10897     10900     10897     10900     10901
     10897     10900     10902     10897     10900     10908     10898     10897     10899
     10898     10897     10900     10899     10897     10900     10900     10902     10903
     10900     10908     10909     10900     10908     10910     10900     10908     10911
     10901     10900     10902     10901     10900     10908     10902     10900     10908
     10902     10903     10904     10902     10903     10905     10903     10905     10906
     10903     10905     10907     10903     10905     10917     10904     10903     10905
     10905     10917     10918     10905     10917     10919     10905     10917     10920
     10906     10905     10907     10906     10905     10917     10907     10905     10917
     10908     10911     10912     10909     10908     10910     10909     10908     10911
     10910     10908     10911     10911     10912     10913     10911     10912     10914
     10912     10914     10915     10912     10914     10916     10912     10914     10958
     10913     10912     10914     10914     10958     10959     10914     10958     10960
     10914     10958     10961     10915     10914     10916     10915     10914     10958
     10916     10914     10958     10917     10920     10921     10917     10920     10922
     10917     10920     10923     10918     10917     10919     10918     10917     10920
     10919     10917     10920     10920     10923     10924     10920     10923     10925
     10920     10923     10926     10921     10920     10922     10921     10920     10923
     10922     10920     10923     10923     10926     10927     10923     10926     10928
     10923     10926     10929     10924     10923     10925     10924     10923     10926
     10925     10923     10926     10926     10929     10930     10926     10929     10931
     10926     10929     10932     10927     10926     10928     10927     10926     10929
     10928     10926     10929     10929     10932     10933     10929     10932     10934
     10929     10932     10935     10930     10929     10931     10930     10929     10932
     10931     10929     10932     10932     10935     10936     10932     10935     10937
     10933     10932     10934     10933     10932     10935     10934     10932     10935
     10935     10937     10938     10935     10937     10939     10936     10935     10937
     10937     10939     10940     10937     10939     10941     10937     10939     10942
     10938     10937     10939     10939     10942     10943     10939     10942     10944
     10939     10942     10945     10940     10939     10941     10940     10939     10942
     10941     10939     10942     10942     10945     10946     10942     10945     10947
     10942     10945     10948     10943     10942     10944     10943     10942     10945
     10944     10942     10945     10945     10948     10949     10945     10948     10950
     10945     10948     10951     10946     10945     10947     10946     10945     10948
     10947     10945     10948     10948     10951     10952     10948     10951     10953
     10948     10951     10954     10949     10948     10950     10949     10948     10951
     10950     10948     10951     10951     10954     10955     10951     10954     10956
     10951     10954     10957     10952     10951     10953     10952     10951     10954
     10953     10951     10954     10955     10954     10956     10955     10954     10957
     10956     10954     10957     10958     10961     10962     10958     10961     10963
     10958     10961     10964     10959     10958     10960     10959     10958     10961
     10960     10958     10961     10961     10964     10965     10961     10964     10966
     10961     10964     10967     10962     10961     10963     10962     10961     10964
     10963     10961     10964     10964     10967     10968     10964     10967     10969
     10964     10967     10970     10965     10964     10966     10965     10964     10967
     10966     10964     10967     10967     10970     10971     10967     10970     10972
     10967     10970     10973     10968     10967     10969     10968     10967     10970
     10969     10967     10970     10970     10973     10974     10970     10973     10975
     10970     10973     10976     10971     10970     10972     10971     10970     10973
     10972     10970     10973     10973     10976     10977     10973     10976     10978
     10973     10976     10979     10974     10973     10975     10974     10973     10976
     10975     10973     10976     10976     10979     10980     10976     10979     10981
     10976     10979     10982     10977     10976     10978     10977     10976     10979
     10978     10976     10979     10979     10982     10983     10979     10982     10984
     10979     10982     10985     10980     10979     10981     10980     10979     10982
     10981     10979     10982     10982     10985     10986     10982     10985     10987
     10982     10985     10988     10983     10982     10984     10983     10982     10985
     10984     10982     10985     10985     10988     10989     10985     10988     10990
     10985     10988     10991     10986     10985     10987     10986     10985     10988
     10987     10985     10988     10988     10991     10992     10988     10991     10993
     10988     10991     10994     10989     10988     10990     10989     10988     10991
     10990     10988     10991     10991     10994     10995     10991     10994     10996
     10991     10994     10997     10992     10991     10993     10992     10991     10994
     10993     10991     10994     10994     10997     10998     10994     10997     10999
     10994     10997     11000     10995     10994     10996     10995     10994     10997
     10996     10994     10997     10998     10997     10999     10998     10997     11000
     10999     10997     11000     11001     11004     11005     11001     11006     11007
     11001     11006     11008     11001     11006     11010     11002     11001     11003
     11002     11001     11004     11002     11001     11006     11003     11001     11004
     11003     11001     11006     11004     11001     11006     11006     11008     11009
     11006     11010     11011     11006     11010     11012     11006     11010     11017
     11007     11006     11008     11007     11006     11010     11008     11006     11010
     11010     11017     11013     11011     11010     11012     11011     11010     11017
     11012     11010     11017     11013     11016     11018     11014     11013     11015
     11014     11013     11016     11014     11013     11017     11015     11013     11016
     11015     11013     11017     11016     11013     11017     11016     11018     11019
     11016     11018     11020     11016     11018     11021     11018     11021     11022
     11018     11021     11023     11018     11021     11029     11019     11018     11020
     11019     11018     11021     11020     11018     11021     11021     11023     11024
     11021     11029     11030     11021     11029     11031     11021     11029     11032
     11022     11021     11023     11022     11021     11029     11023     11021     11029
     11023     11024     11025     11023     11024     11026     11024     11026     11027
     11024     11026     11028     11024     11026     11038     11025     11024     11026
     11026     11038     11039     11026     11038     11040     11026     11038     11041
     11027     11026     11028     11027     11026     11038     11028     11026     11038
     11029     11032     11033     11030     11029     11031     11030     11029     11032
     11031     11029     11032     11032     11033     11034     11032     11033     11035
     11033     11035     11036     11033     11035     11037     11033     11035     11082
     11034     11033     11035     11035     11082     11083     11035     11082     11084
     11035     11082     11085     11036     11035     11037     11036     11035     11082
     11037     11035     11082     11038     11041     11042     11038     11041     11043
     11038     11041     11044     11039     11038     11040     11039     11038     11041
     11040     11038     11041     11041     11044     11045     11041     11044     11046
     11041     11044     11047     11042     11041     11043     11042     11041     11044
     11043     11041     11044     11044     11047     11048     11044     11047     11049
     11044     11047     11050     11045     11044     11046     11045     11044     11047
     11046     11044     11047     11047     11050     11051     11047     11050     11052
     11047     11050     11053     11048     11047     11049     11048     11047     11050
     11049     11047     11050     11050     11053     11054     11050     11053     11055
     11050     11053     11056     11051     11050     11052     11051     11050     11053
     11052     11050     11053     11053     11056     11057     11053     11056     11058
     11053     11056     11061     11054     11053     11055     11054     11053     11056
     11055     11053     11056     11056     11058     11059     11056     11058     11060
     11056     11058     11061     11056     11061     11058     11056     11061     11062
     11056     11061     11063     11057     11056     11058     11057     11056     11061
     11058     11056     11061     11058     11061     11062     11058     11061     11063
     11059     11058     11060     11059     11058     11061     11060     11058     11061
     11061     11063     11064     11061     11063     11065     11061     11063     11066
     11062     11061     11063     11063     11066     11067     11063     11066     11068
     11063     11066     11069     11064     11063     11065     11064     11063     11066
     11065     11063     11066     11066     11069     11070     11066     11069     11071
     11066     11069     11072     11067     11066     11068     11067     11066     11069
     11068     11066     11069     11069     11072     11073     11069     11072     11074
     11069     11072     11075     11070     11069     11071     11070     11069     11072
     11071     11069     11072     11072     11075     11076     11072     11075     11077
     11072     11075     11078     11073     11072     11074     11073     11072     11075
     11074     11072     11075     11075     11078     11079     11075     11078     11080
     11075     11078     11081     11076     11075     11077     11076     11075     11078
     11077     11075     11078     11079     11078     11080     11079     11078     11081
     11080     11078     11081     11082     11085     11086     11082     11085     11087
     11082     11085     11088     11083     11082     11084     11083     11082     11085
     11084     11082     11085     11085     11088     11089     11085     11088     11090
     11085     11088     11091     11086     11085     11087     11086     11085     11088
     11087     11085     11088     11088     11091     11092     11088     11091     11093
     11088     11091     11094     11089     11088     11090     11089     11088     11091
     11090     11088     11091     11091     11094     11095     11091     11094     11096
     11091     11094     11097     11092     11091     11093     11092     11091     11094
     11093     11091     11094     11094     11097     11098     11094     11097     11099
     11094     11097     11100     11095     11094     11096     11095     11094     11097
     11096     11094     11097     11097     11100     11101     11097     11100     11102
     11097     11100     11103     11098     11097     11099     11098     11097     11100
     11099     11097     11100     11100     11103     11104     11100     11103     11105
     11100     11103     11106     11101     11100     11102     11101     11100     11103
     11102     11100     11103     11103     11106     11107     11103     11106     11108
     11103     11106     11109     11104     11103     11105     11104     11103     11106
     11105     11103     11106     11106     11109     11110     11106     11109     11111
     11106     11109     11112     11107     11106     11108     11107     11106     11109
     11108     11106     11109     11109     11112     11113     11109     11112     11114
     11109     11112     11115     11110     11109     11111     11110     11109     11112
     11111     11109     11112     11112     11115     11116     11112     11115     11117
     11112     11115     11118     11113     11112     11114     11113     11112     11115
     11114     11112     11115     11115     11118     11119     11115     11118     11120
     11115     11118     11121     11116     11115     11117     11116     11115     11118
     11117     11115     11118     11118     11121     11122     11118     11121     11123
     11118     11121     11124     11119     11118     11120     11119     11118     11121
     11120     11118     11121     11122     11121     11123     11122     11121     11124
     11123     11121     11124     11125     11129     11130     11125     11129     11131
     11125     11129     11132     11126     11125     11127     11126     11125     11128
     11126     11125     11129     11127     11125     11128     11127     11125     11129
     11128     11125     11129     11129     11132     11133     11129     11132     11134
     11129     11132     11139     11130     11129     11131     11130     11129     11132
     11131     11129     11132     11132     11139     11135     11133     11132     11134
     11133     11132     11139     11134     11132     11139     11135     11138     11140
     11136     11135     11137     11136     11135     11138     11136     11135     11139
     11137     11135     11138     11137     11135     11139     11138     11135     11139
     11138     11140     11141     11138     11140     11142     11138     11140     11143
     11140     11143     11144     11140     11143     11145     11140     11143     11151
     11141     11140     11142     11141     11140     11143     11142     11140     11143
     11143     11145     11146     11143     11151     11152     11143     11151     11153
     11143     11151     11154     11144     11143     11145     11144     11143     11151
     11145     11143     11151     11145     11146     11147     11145     11146     11148
     11146     11148     11149     11146     11148     11150     11146     11148     11160
     11147     11146     11148     11148     11160     11161     11148     11160     11162
     11148     11160     11163     11149     11148     11150     11149     11148     11160
     11150     11148     11160     11151     11154     11155     11152     11151     11153
     11152     11151     11154     11153     11151     11154     11154     11155     11156
     11154     11155     11157     11155     11157     11158     11155     11157     11159
     11155     11157     11204     11156     11155     11157     11157     11204     11205
     11157     11204     11206     11157     11204     11207     11158     11157     11159
     11158     11157     11204     11159     11157     11204     11160     11163     11164
     11160     11163     11165     11160     11163     11166     11161     11160     11162
     11161     11160     11163     11162     11160     11163     11163     11166     11167
     11163     11166     11168     11163     11166     11169     11164     11163     11165
     11164     11163     11166     11165     11163     11166     11166     11169     11170
     11166     11169     11171     11166     11169     11172     11167     11166     11168
     11167     11166     11169     11168     11166     11169     11169     11172     11173
     11169     11172     11174     11169     11172     11175     11170     11169     11171
     11170     11169     11172     11171     11169     11172     11172     11175     11176
     11172     11175     11177     11172     11175     11178     11173     11172     11174
     11173     11172     11175     11174     11172     11175     11175     11178     11179
     11175     11178     11180     11175     11178     11183     11176     11175     11177
     11176     11175     11178     11177     11175     11178     11178     11180     11181
     11178     11180     11182     11178     11180     11183     11178     11183     11180
     11178     11183     11184     11178     11183     11185     11179     11178     11180
     11179     11178     11183     11180     11178     11183     11180     11183     11184
     11180     11183     11185     11181     11180     11182     11181     11180     11183
     11182     11180     11183     11183     11185     11186     11183     11185     11187
     11183     11185     11188     11184     11183     11185     11185     11188     11189
     11185     11188     11190     11185     11188     11191     11186     11185     11187
     11186     11185     11188     11187     11185     11188     11188     11191     11192
     11188     11191     11193     11188     11191     11194     11189     11188     11190
     11189     11188     11191     11190     11188     11191     11191     11194     11195
     11191     11194     11196     11191     11194     11197     11192     11191     11193
     11192     11191     11194     11193     11191     11194     11194     11197     11198
     11194     11197     11199     11194     11197     11200     11195     11194     11196
     11195     11194     11197     11196     11194     11197     11197     11200     11201
     11197     11200     11202     11197     11200     11203     11198     11197     11199
     11198     11197     11200     11199     11197     11200     11201     11200     11202
     11201     11200     11203     11202     11200     11203     11204     11207     11208
     11204     11207     11209     11204     11207     11210     11205     11204     11206
     11205     11204     11207     11206     11204     11207     11207     11210     11211
     11207     11210     11212     11207     11210     11213     11208     11207     11209
     11208     11207     11210     11209     11207     11210     11210     11213     11214
     11210     11213     11215     11210     11213     11216     11211     11210     11212
     11211     11210     11213     11212     11210     11213     11213     11216     11217
     11213     11216     11218     11213     11216     11219     11214     11213     11215
     11214     11213     11216     11215     11213     11216     11216     11219     11220
     11216     11219     11221     11216     11219     11222     11217     11216     11218
     11217     11216     11219     11218     11216     11219     11219     11222     11223
     11219     11222     11224     11219     11222     11225     11220     11219     11221
     11220     11219     11222     11221     11219     11222     11222     11225     11226
     11222     11225     11227     11222     11225     11228     11223     11222     11224
     11223     11222     11225     11224     11222     11225     11225     11228     11229
     11225     11228     11230     11225     11228     11231     11226     11225     11227
     11226     11225     11228     11227     11225     11228     11228     11231     11232
     11228     11231     11233     11228     11231     11234     11229     11228     11230
     11229     11228     11231     11230     11228     11231     11231     11234     11235
     11231     11234     11236     11231     11234     11237     11232     11231     11233
     11232     11231     11234     11233     11231     11234     11234     11237     11238
     11234     11237     11239     11234     11237     11240     11235     11234     11236
     11235     11234     11237     11236     11234     11237     11237     11240     11241
     11237     11240     11242     11237     11240     11243     11238     11237     11239
     11238     11237     11240     11239     11237     11240     11240     11243     11244
     11240     11243     11245     11240     11243     11246     11241     11240     11242
     11241     11240     11243     11242     11240     11243     11244     11243     11245
     11244     11243     11246     11245     11243     11246     11247     11251     11252
     11247     11251     11253     11247     11251     11254     11248     11247     11249
     11248     11247     11250     11248     11247     11251     11249     11247     11250
     11249     11247     11251     11250     11247     11251     11251     11254     11255
     11251     11254     11256     11251     11254     11261     11252     11251     11253
     11252     11251     11254     11253     11251     11254     11254     11261     11257
     11255     11254     11256     11255     11254     11261     11256     11254     11261
     11257     11260     11262     11258     11257     11259     11258     11257     11260
     11258     11257     11261     11259     11257     11260     11259     11257     11261
     11260     11257     11261     11260     11262     11263     11260     11262     11264
     11260     11262     11265     11262     11265     11266     11262     11265     11267
     11262     11265     11273     11263     11262     11264     11263     11262     11265
     11264     11262     11265     11265     11267     11268     11265     11273     11274
     11265     11273     11275     11265     11273     11276     11266     11265     11267
     11266     11265     11273     11267     11265     11273     11267     11268     11269
     11267     11268     11270     11268     11270     11271     11268     11270     11272
     11268     11270     11282     11269     11268     11270     11270     11282     11283
     11270     11282     11284     11270     11282     11285     11271     11270     11272
     11271     11270     11282     11272     11270     11282     11273     11276     11277
     11274     11273     11275     11274     11273     11276     11275     11273     11276
     11276     11277     11278     11276     11277     11279     11277     11279     11280
     11277     11279     11281     11277     11279     11323     11278     11277     11279
     11279     11323     11324     11279     11323     11325     11279     11323     11326
     11280     11279     11281     11280     11279     11323     11281     11279     11323
     11282     11285     11286     11282     11285     11287     11282     11285     11288
     11283     11282     11284     11283     11282     11285     11284     11282     11285
     11285     11288     11289     11285     11288     11290     11285     11288     11291
     11286     11285     11287     11286     11285     11288     11287     11285     11288
     11288     11291     11292     11288     11291     11293     11288     11291     11294
     11289     11288     11290     11289     11288     11291     11290     11288     11291
     11291     11294     11295     11291     11294     11296     11291     11294     11297
     11292     11291     11293     11292     11291     11294     11293     11291     11294
     11294     11297     11298     11294     11297     11299     11294     11297     11300
     11295     11294     11296     11295     11294     11297     11296     11294     11297
     11297     11300     11301     11297     11300     11302     11298     11297     11299
     11298     11297     11300     11299     11297     11300     11300     11302     11303
     11300     11302     11304     11301     11300     11302     11302     11304     11305
     11302     11304     11306     11302     11304     11307     11303     11302     11304
     11304     11307     11308     11304     11307     11309     11304     11307     11310
     11305     11304     11306     11305     11304     11307     11306     11304     11307
     11307     11310     11311     11307     11310     11312     11307     11310     11313
     11308     11307     11309     11308     11307     11310     11309     11307     11310
     11310     11313     11314     11310     11313     11315     11310     11313     11316
     11311     11310     11312     11311     11310     11313     11312     11310     11313
     11313     11316     11317     11313     11316     11318     11313     11316     11319
     11314     11313     11315     11314     11313     11316     11315     11313     11316
     11316     11319     11320     11316     11319     11321     11316     11319     11322
     11317     11316     11318     11317     11316     11319     11318     11316     11319
     11320     11319     11321     11320     11319     11322     11321     11319     11322
     11323     11326     11327     11323     11326     11328     11323     11326     11329
     11324     11323     11325     11324     11323     11326     11325     11323     11326
     11326     11329     11330     11326     11329     11331     11326     11329     11332
     11327     11326     11328     11327     11326     11329     11328     11326     11329
     11329     11332     11333     11329     11332     11334     11329     11332     11335
     11330     11329     11331     11330     11329     11332     11331     11329     11332
     11332     11335     11336     11332     11335     11337     11332     11335     11338
     11333     11332     11334     11333     11332     11335     11334     11332     11335
     11335     11338     11339     11335     11338     11340     11335     11338     11341
     11336     11335     11337     11336     11335     11338     11337     11335     11338
     11338     11341     11342     11338     11341     11343     11339     11338     11340
     11339     11338     11341     11340     11338     11341     11341     11343     11344
     11341     11343     11345     11342     11341     11343     11343     11345     11346
     11343     11345     11347     11343     11345     11348     11344     11343     11345
     11345     11348     11349     11345     11348     11350     11345     11348     11351
     11346     11345     11347     11346     11345     11348     11347     11345     11348
     11348     11351     11352     11348     11351     11353     11348     11351     11354
     11349     11348     11350     11349     11348     11351     11350     11348     11351
     11351     11354     11355     11351     11354     11356     11351     11354     11357
     11352     11351     11353     11352     11351     11354     11353     11351     11354
     11354     11357     11358     11354     11357     11359     11354     11357     11360
     11355     11354     11356     11355     11354     11357     11356     11354     11357
     11357     11360     11361     11357     11360     11362     11357     11360     11363
     11358     11357     11359     11358     11357     11360     11359     11357     11360
     11360     11363     11364     11360     11363     11365     11360     11363     11366
     11361     11360     11362     11361     11360     11363     11362     11360     11363
     11363     11366     11367     11363     11366     11368     11363     11366     11369
     11364     11363     11365     11364     11363     11366     11365     11363     11366
     11367     11366     11368     11367     11366     11369     11368     11366     11369
     11370     11373     11374     11370     11375     11376     11370     11375     11377
     11370     11375     11379     11371     11370     11372     11371     11370     11373
     11371     11370     11375     11372     11370     11373     11372     11370     11375
     11373     11370     11375     11375     11377     11378     11375     11379     11380
     11375     11379     11381     11375     11379     11386     11376     11375     11377
     11376     11375     11379     11377     11375     11379     11379     11386     11382
     11380     11379     11381     11380     11379     11386     11381     11379     11386
     11382     11385     11387     11383     11382     11384     11383     11382     11385
     11383     11382     11386     11384     11382     11385     11384     11382     11386
     11385     11382     11386     11385     11387     11388     11385     11387     11389
     11385     11387     11390     11387     11390     11391     11387     11390     11392
     11387     11390     11398     11388     11387     11389     11388     11387     11390
     11389     11387     11390     11390     11392     11393     11390     11398     11399
     11390     11398     11400     11390     11398     11401     11391     11390     11392
     11391     11390     11398     11392     11390     11398     11392     11393     11394
     11392     11393     11395     11393     11395     11396     11393     11395     11397
     11393     11395     11407     11394     11393     11395     11395     11407     11408
     11395     11407     11409     11395     11407     11410     11396     11395     11397
     11396     11395     11407     11397     11395     11407     11398     11401     11402
     11399     11398     11400     11399     11398     11401     11400     11398     11401
     11401     11402     11403     11401     11402     11404     11402     11404     11405
     11402     11404     11406     11402     11404     11448     11403     11402     11404
     11404     11448     11449     11404     11448     11450     11404     11448     11451
     11405     11404     11406     11405     11404     11448     11406     11404     11448
     11407     11410     11411     11407     11410     11412     11407     11410     11413
     11408     11407     11409     11408     11407     11410     11409     11407     11410
     11410     11413     11414     11410     11413     11415     11410     11413     11416
     11411     11410     11412     11411     11410     11413     11412     11410     11413
     11413     11416     11417     11413     11416     11418     11413     11416     11419
     11414     11413     11415     11414     11413     11416     11415     11413     11416
     11416     11419     11420     11416     11419     11421     11416     11419     11422
     11417     11416     11418     11417     11416     11419     11418     11416     11419
     11419     11422     11423     11419     11422     11424     11419     11422     11425
     11420     11419     11421     11420     11419     11422     11421     11419     11422
     11422     11425     11426     11422     11425     11427     11423     11422     11424
     11423     11422     11425     11424     11422     11425     11425     11427     11428
     11425     11427     11429     11426     11425     11427     11427     11429     11430
     11427     11429     11431     11427     11429     11432     11428     11427     11429
     11429     11432     11433     11429     11432     11434     11429     11432     11435
     11430     11429     11431     11430     11429     11432     11431     11429     11432
     11432     11435     11436     11432     11435     11437     11432     11435     11438
     11433     11432     11434     11433     11432     11435     11434     11432     11435
     11435     11438     11439     11435     11438     11440     11435     11438     11441
     11436     11435     11437     11436     11435     11438     11437     11435     11438
     11438     11441     11442     11438     11441     11443     11438     11441     11444
     11439     11438     11440     11439     11438     11441     11440     11438     11441
     11441     11444     11445     11441     11444     11446     11441     11444     11447
     11442     11441     11443     11442     11441     11444     11443     11441     11444
     11445     11444     11446     11445     11444     11447     11446     11444     11447
     11448     11451     11452     11448     11451     11453     11448     11451     11454
     11449     11448     11450     11449     11448     11451     11450     11448     11451
     11451     11454     11455     11451     11454     11456     11451     11454     11457
     11452     11451     11453     11452     11451     11454     11453     11451     11454
     11454     11457     11458     11454     11457     11459     11454     11457     11460
     11455     11454     11456     11455     11454     11457     11456     11454     11457
     11457     11460     11461     11457     11460     11462     11457     11460     11463
     11458     11457     11459     11458     11457     11460     11459     11457     11460
     11460     11463     11464     11460     11463     11465     11460     11463     11466
     11461     11460     11462     11461     11460     11463     11462     11460     11463
     11463     11466     11467     11463     11466     11468     11463     11466     11469
     11464     11463     11465     11464     11463     11466     11465     11463     11466
     11466     11469     11470     11466     11469     11471     11466     11469     11472
     11467     11466     11468     11467     11466     11469     11468     11466     11469
     11469     11472     11473     11469     11472     11474     11469     11472     11475
     11470     11469     11471     11470     11469     11472     11471     11469     11472
     11472     11475     11476     11472     11475     11477     11472     11475     11478
     11473     11472     11474     11473     11472     11475     11474     11472     11475
     11475     11478     11479     11475     11478     11480     11475     11478     11481
     11476     11475     11477     11476     11475     11478     11477     11475     11478
     11478     11481     11482     11478     11481     11483     11478     11481     11484
     11479     11478     11480     11479     11478     11481     11480     11478     11481
     11481     11484     11485     11481     11484     11486     11481     11484     11487
     11482     11481     11483     11482     11481     11484     11483     11481     11484
     11484     11487     11488     11484     11487     11489     11484     11487     11490
     11485     11484     11486     11485     11484     11487     11486     11484     11487
     11488     11487     11489     11488     11487     11490     11489     11487     11490
     11491     11495     11496     11491     11495     11497     11491     11495     11498
     11492     11491     11493     11492     11491     11494     11492     11491     11495
     11493     11491     11494     11493     11491     11495     11494     11491     11495
     11495     11498     11499     11495     11498     11500     11495     11498     11505
     11496     11495     11497     11496     11495     11498     11497     11495     11498
     11498     11505     11501     11499     11498     11500     11499     11498     11505
     11500     11498     11505     11501     11504     11506     11502     11501     11503
     11502     11501     11504     11502     11501     11505     11503     11501     11504
     11503     11501     11505     11504     11501     11505     11504     11506     11507
     11504     11506     11508     11504     11506     11509     11506     11509     11510
     11506     11509     11511     11506     11509     11517     11507     11506     11508
     11507     11506     11509     11508     11506     11509     11509     11511     11512
     11509     11517     11518     11509     11517     11519     11509     11517     11520
     11510     11509     11511     11510     11509     11517     11511     11509     11517
     11511     11512     11513     11511     11512     11514     11512     11514     11515
     11512     11514     11516     11512     11514     11526     11513     11512     11514
     11514     11526     11527     11514     11526     11528     11514     11526     11529
     11515     11514     11516     11515     11514     11526     11516     11514     11526
     11517     11520     11521     11518     11517     11519     11518     11517     11520
     11519     11517     11520     11520     11521     11522     11520     11521     11523
     11521     11523     11524     11521     11523     11525     11521     11523     11570
     11522     11521     11523     11523     11570     11571     11523     11570     11572
     11523     11570     11573     11524     11523     11525     11524     11523     11570
     11525     11523     11570     11526     11529     11530     11526     11529     11531
     11526     11529     11532     11527     11526     11528     11527     11526     11529
     11528     11526     11529     11529     11532     11533     11529     11532     11534
     11529     11532     11535     11530     11529     11531     11530     11529     11532
     11531     11529     11532     11532     11535     11536     11532     11535     11537
     11532     11535     11538     11533     11532     11534     11533     11532     11535
     11534     11532     11535     11535     11538     11539     11535     11538     11540
     11535     11538     11541     11536     11535     11537     11536     11535     11538
     11537     11535     11538     11538     11541     11542     11538     11541     11543
     11538     11541     11544     11539     11538     11540     11539     11538     11541
     11540     11538     11541     11541     11544     11545     11541     11544     11546
     11541     11544     11549     11542     11541     11543     11542     11541     11544
     11543     11541     11544     11544     11546     11547     11544     11546     11548
     11544     11546     11549     11544     11549     11546     11544     11549     11550
     11544     11549     11551     11545     11544     11546     11545     11544     11549
     11546     11544     11549     11546     11549     11550     11546     11549     11551
     11547     11546     11548     11547     11546     11549     11548     11546     11549
     11549     11551     11552     11549     11551     11553     11549     11551     11554
     11550     11549     11551     11551     11554     11555     11551     11554     11556
     11551     11554     11557     11552     11551     11553     11552     11551     11554
     11553     11551     11554     11554     11557     11558     11554     11557     11559
     11554     11557     11560     11555     11554     11556     11555     11554     11557
     11556     11554     11557     11557     11560     11561     11557     11560     11562
     11557     11560     11563     11558     11557     11559     11558     11557     11560
     11559     11557     11560     11560     11563     11564     11560     11563     11565
     11560     11563     11566     11561     11560     11562     11561     11560     11563
     11562     11560     11563     11563     11566     11567     11563     11566     11568
     11563     11566     11569     11564     11563     11565     11564     11563     11566
     11565     11563     11566     11567     11566     11568     11567     11566     11569
     11568     11566     11569     11570     11573     11574     11570     11573     11575
     11570     11573     11576     11571     11570     11572     11571     11570     11573
     11572     11570     11573     11573     11576     11577     11573     11576     11578
     11573     11576     11579     11574     11573     11575     11574     11573     11576
     11575     11573     11576     11576     11579     11580     11576     11579     11581
     11576     11579     11582     11577     11576     11578     11577     11576     11579
     11578     11576     11579     11579     11582     11583     11579     11582     11584
     11579     11582     11585     11580     11579     11581     11580     11579     11582
     11581     11579     11582     11582     11585     11586     11582     11585     11587
     11582     11585     11588     11583     11582     11584     11583     11582     11585
     11584     11582     11585     11585     11588     11589     11585     11588     11590
     11585     11588     11591     11586     11585     11587     11586     11585     11588
     11587     11585     11588     11588     11591     11592     11588     11591     11593
     11588     11591     11594     11589     11588     11590     11589     11588     11591
     11590     11588     11591     11591     11594     11595     11591     11594     11596
     11591     11594     11597     11592     11591     11593     11592     11591     11594
     11593     11591     11594     11594     11597     11598     11594     11597     11599
     11594     11597     11600     11595     11594     11596     11595     11594     11597
     11596     11594     11597     11597     11600     11601     11597     11600     11602
     11597     11600     11603     11598     11597     11599     11598     11597     11600
     11599     11597     11600     11600     11603     11604     11600     11603     11605
     11600     11603     11606     11601     11600     11602     11601     11600     11603
     11602     11600     11603     11603     11606     11607     11603     11606     11608
     11603     11606     11609     11604     11603     11605     11604     11603     11606
     11605     11603     11606     11606     11609     11610     11606     11609     11611
     11606     11609     11612     11607     11606     11608     11607     11606     11609
     11608     11606     11609     11610     11609     11611     11610     11609     11612
     11611     11609     11612     11613     11617     11618     11613     11617     11619
     11613     11617     11620     11614     11613     11615     11614     11613     11616
     11614     11613     11617     11615     11613     11616     11615     11613     11617
     11616     11613     11617     11617     11620     11621     11617     11620     11622
     11617     11620     11627     11618     11617     11619     11618     11617     11620
     11619     11617     11620     11620     11627     11623     11621     11620     11622
     11621     11620     11627     11622     11620     11627     11623     11626     11628
     11624     11623     11625     11624     11623     11626     11624     11623     11627
     11625     11623     11626     11625     11623     11627     11626     11623     11627
     11626     11628     11629     11626     11628     11630     11626     11628     11631
     11628     11631     11632     11628     11631     11633     11628     11631     11639
     11629     11628     11630     11629     11628     11631     11630     11628     11631
     11631     11633     11634     11631     11639     11640     11631     11639     11641
     11631     11639     11642     11632     11631     11633     11632     11631     11639
     11633     11631     11639     11633     11634     11635     11633     11634     11636
     11634     11636     11637     11634     11636     11638     11634     11636     11648
     11635     11634     11636     11636     11648     11649     11636     11648     11650
     11636     11648     11651     11637     11636     11638     11637     11636     11648
     11638     11636     11648     11639     11642     11643     11640     11639     11641
     11640     11639     11642     11641     11639     11642     11642     11643     11644
     11642     11643     11645     11643     11645     11646     11643     11645     11647
     11643     11645     11692     11644     11643     11645     11645     11692     11693
     11645     11692     11694     11645     11692     11695     11646     11645     11647
     11646     11645     11692     11647     11645     11692     11648     11651     11652
     11648     11651     11653     11648     11651     11654     11649     11648     11650
     11649     11648     11651     11650     11648     11651     11651     11654     11655
     11651     11654     11656     11651     11654     11657     11652     11651     11653
     11652     11651     11654     11653     11651     11654     11654     11657     11658
     11654     11657     11659     11654     11657     11660     11655     11654     11656
     11655     11654     11657     11656     11654     11657     11657     11660     11661
     11657     11660     11662     11657     11660     11663     11658     11657     11659
     11658     11657     11660     11659     11657     11660     11660     11663     11664
     11660     11663     11665     11660     11663     11666     11661     11660     11662
     11661     11660     11663     11662     11660     11663     11663     11666     11667
     11663     11666     11668     11663     11666     11671     11664     11663     11665
     11664     11663     11666     11665     11663     11666     11666     11668     11669
     11666     11668     11670     11666     11668     11671     11666     11671     11668
     11666     11671     11672     11666     11671     11673     11667     11666     11668
     11667     11666     11671     11668     11666     11671     11668     11671     11672
     11668     11671     11673     11669     11668     11670     11669     11668     11671
     11670     11668     11671     11671     11673     11674     11671     11673     11675
     11671     11673     11676     11672     11671     11673     11673     11676     11677
     11673     11676     11678     11673     11676     11679     11674     11673     11675
     11674     11673     11676     11675     11673     11676     11676     11679     11680
     11676     11679     11681     11676     11679     11682     11677     11676     11678
     11677     11676     11679     11678     11676     11679     11679     11682     11683
     11679     11682     11684     11679     11682     11685     11680     11679     11681
     11680     11679     11682     11681     11679     11682     11682     11685     11686
     11682     11685     11687     11682     11685     11688     11683     11682     11684
     11683     11682     11685     11684     11682     11685     11685     11688     11689
     11685     11688     11690     11685     11688     11691     11686     11685     11687
     11686     11685     11688     11687     11685     11688     11689     11688     11690
     11689     11688     11691     11690     11688     11691     11692     11695     11696
     11692     11695     11697     11692     11695     11698     11693     11692     11694
     11693     11692     11695     11694     11692     11695     11695     11698     11699
     11695     11698     11700     11695     11698     11701     11696     11695     11697
     11696     11695     11698     11697     11695     11698     11698     11701     11702
     11698     11701     11703     11698     11701     11704     11699     11698     11700
     11699     11698     11701     11700     11698     11701     11701     11704     11705
     11701     11704     11706     11701     11704     11707     11702     11701     11703
     11702     11701     11704     11703     11701     11704     11704     11707     11708
     11704     11707     11709     11704     11707     11710     11705     11704     11706
     11705     11704     11707     11706     11704     11707     11707     11710     11711
     11707     11710     11712     11707     11710     11713     11708     11707     11709
     11708     11707     11710     11709     11707     11710     11710     11713     11714
     11710     11713     11715     11710     11713     11716     11711     11710     11712
     11711     11710     11713     11712     11710     11713     11713     11716     11717
     11713     11716     11718     11713     11716     11719     11714     11713     11715
     11714     11713     11716     11715     11713     11716     11716     11719     11720
     11716     11719     11721     11716     11719     11722     11717     11716     11718
     11717     11716     11719     11718     11716     11719     11719     11722     11723
     11719     11722     11724     11719     11722     11725     11720     11719     11721
     11720     11719     11722     11721     11719     11722     11722     11725     11726
     11722     11725     11727     11722     11725     11728     11723     11722     11724
     11723     11722     11725     11724     11722     11725     11725     11728     11729
     11725     11728     11730     11725     11728     11731     11726     11725     11727
     11726     11725     11728     11727     11725     11728     11728     11731     11732
     11728     11731     11733     11728     11731     11734     11729     11728     11730
     11729     11728     11731     11730     11728     11731     11732     11731     11733
     11732     11731     11734     11733     11731     11734     11735     11739     11740
     11735     11739     11741     11735     11739     11742     11736     11735     11737
     11736     11735     11738     11736     11735     11739     11737     11735     11738
     11737     11735     11739     11738     11735     11739     11739     11742     11743
     11739     11742     11744     11739     11742     11749     11740     11739     11741
     11740     11739     11742     11741     11739     11742     11742     11749     11745
     11743     11742     11744     11743     11742     11749     11744     11742     11749
     11745     11748     11750     11746     11745     11747     11746     11745     11748
     11746     11745     11749     11747     11745     11748     11747     11745     11749
     11748     11745     11749     11748     11750     11751     11748     11750     11752
     11748     11750     11753     11750     11753     11754     11750     11753     11755
     11750     11753     11761     11751     11750     11752     11751     11750     11753
     11752     11750     11753     11753     11755     11756     11753     11761     11762
     11753     11761     11763     11753     11761     11764     11754     11753     11755
     11754     11753     11761     11755     11753     11761     11755     11756     11757
     11755     11756     11758     11756     11758     11759     11756     11758     11760
     11756     11758     11770     11757     11756     11758     11758     11770     11771
     11758     11770     11772     11758     11770     11773     11759     11758     11760
     11759     11758     11770     11760     11758     11770     11761     11764     11765
     11762     11761     11763     11762     11761     11764     11763     11761     11764
     11764     11765     11766     11764     11765     11767     11765     11767     11768
     11765     11767     11769     11765     11767     11814     11766     11765     11767
     11767     11814     11815     11767     11814     11816     11767     11814     11817
     11768     11767     11769     11768     11767     11814     11769     11767     11814
     11770     11773     11774     11770     11773     11775     11770     11773     11776
     11771     11770     11772     11771     11770     11773     11772     11770     11773
     11773     11776     11777     11773     11776     11778     11773     11776     11779
     11774     11773     11775     11774     11773     11776     11775     11773     11776
     11776     11779     11780     11776     11779     11781     11776     11779     11782
     11777     11776     11778     11777     11776     11779     11778     11776     11779
     11779     11782     11783     11779     11782     11784     11779     11782     11785
     11780     11779     11781     11780     11779     11782     11781     11779     11782
     11782     11785     11786     11782     11785     11787     11782     11785     11788
     11783     11782     11784     11783     11782     11785     11784     11782     11785
     11785     11788     11789     11785     11788     11790     11785     11788     11793
     11786     11785     11787     11786     11785     11788     11787     11785     11788
     11788     11790     11791     11788     11790     11792     11788     11790     11793
     11788     11793     11790     11788     11793     11794     11788     11793     11795
     11789     11788     11790     11789     11788     11793     11790     11788     11793
     11790     11793     11794     11790     11793     11795     11791     11790     11792
     11791     11790     11793     11792     11790     11793     11793     11795     11796
     11793     11795     11797     11793     11795     11798     11794     11793     11795
     11795     11798     11799     11795     11798     11800     11795     11798     11801
     11796     11795     11797     11796     11795     11798     11797     11795     11798
     11798     11801     11802     11798     11801     11803     11798     11801     11804
     11799     11798     11800     11799     11798     11801     11800     11798     11801
     11801     11804     11805     11801     11804     11806     11801     11804     11807
     11802     11801     11803     11802     11801     11804     11803     11801     11804
     11804     11807     11808     11804     11807     11809     11804     11807     11810
     11805     11804     11806     11805     11804     11807     11806     11804     11807
     11807     11810     11811     11807     11810     11812     11807     11810     11813
     11808     11807     11809     11808     11807     11810     11809     11807     11810
     11811     11810     11812     11811     11810     11813     11812     11810     11813
     11814     11817     11818     11814     11817     11819     11814     11817     11820
     11815     11814     11816     11815     11814     11817     11816     11814     11817
     11817     11820     11821     11817     11820     11822     11817     11820     11823
     11818     11817     11819     11818     11817     11820     11819     11817     11820
     11820     11823     11824     11820     11823     11825     11820     11823     11826
     11821     11820     11822     11821     11820     11823     11822     11820     11823
     11823     11826     11827     11823     11826     11828     11823     11826     11829
     11824     11823     11825     11824     11823     11826     11825     11823     11826
     11826     11829     11830     11826     11829     11831     11826     11829     11832
     11827     11826     11828     11827     11826     11829     11828     11826     11829
     11829     11832     11833     11829     11832     11834     11829     11832     11835
     11830     11829     11831     11830     11829     11832     11831     11829     11832
     11832     11835     11836     11832     11835     11837     11832     11835     11838
     11833     11832     11834     11833     11832     11835     11834     11832     11835
     11835     11838     11839     11835     11838     11840     11835     11838     11841
     11836     11835     11837     11836     11835     11838     11837     11835     11838
     11838     11841     11842     11838     11841     11843     11838     11841     11844
     11839     11838     11840     11839     11838     11841     11840     11838     11841
     11841     11844     11845     11841     11844     11846     11841     11844     11847
     11842     11841     11843     11842     11841     11844     11843     11841     11844
     11844     11847     11848     11844     11847     11849     11844     11847     11850
     11845     11844     11846     11845     11844     11847     11846     11844     11847
     11847     11850     11851     11847     11850     11852     11847     11850     11853
     11848     11847     11849     11848     11847     11850     11849     11847     11850
     11850     11853     11854     11850     11853     11855     11850     11853     11856
     11851     11850     11852     11851     11850     11853     11852     11850     11853
     11854     11853     11855     11854     11853     11856     11855     11853     11856
     11857     11861     11862     11857     11861     11863     11857     11861     11864
     11858     11857     11859     11858     11857     11860     11858     11857     11861
     11859     11857     11860     11859     11857     11861     11860     11857     11861
     11861     11864     11865     11861     11864     11866     11861     11864     11871
     11862     11861     11863     11862     11861     11864     11863     11861     11864
     11864     11871     11867     11865     11864     11866     11865     11864     11871
     11866     11864     11871     11867     11870     11872     11868     11867     11869
     11868     11867     11870     11868     11867     11871     11869     11867     11870
     11869     11867     11871     11870     11867     11871     11870     11872     11873
     11870     11872     11874     11870     11872     11875     11872     11875     11876
     11872     11875     11877     11872     11875     11883     11873     11872     11874
     11873     11872     11875     11874     11872     11875     11875     11877     11878
     11875     11883     11884     11875     11883     11885     11875     11883     11886
     11876     11875     11877     11876     11875     11883     11877     11875     11883
     11877     11878     11879     11877     11878     11880     11878     11880     11881
     11878     11880     11882     11878     11880     11892     11879     11878     11880
     11880     11892     11893     11880     11892     11894     11880     11892     11895
     11881     11880     11882     11881     11880     11892     11882     11880     11892
     11883     11886     11887     11884     11883     11885     11884     11883     11886
     11885     11883     11886     11886     11887     11888     11886     11887     11889
     11887     11889     11890     11887     11889     11891     11887     11889     11936
     11888     11887     11889     11889     11936     11937     11889     11936     11938
     11889     11936     11939     11890     11889     11891     11890     11889     11936
     11891     11889     11936     11892     11895     11896     11892     11895     11897
     11892     11895     11898     11893     11892     11894     11893     11892     11895
     11894     11892     11895     11895     11898     11899     11895     11898     11900
     11895     11898     11901     11896     11895     11897     11896     11895     11898
     11897     11895     11898     11898     11901     11902     11898     11901     11903
     11898     11901     11904     11899     11898     11900     11899     11898     11901
     11900     11898     11901     11901     11904     11905     11901     11904     11906
     11901     11904     11907     11902     11901     11903     11902     11901     11904
     11903     11901     11904     11904     11907     11908     11904     11907     11909
     11904     11907     11910     11905     11904     11906     11905     11904     11907
     11906     11904     11907     11907     11910     11911     11907     11910     11912
     11907     11910     11915     11908     11907     11909     11908     11907     11910
     11909     11907     11910     11910     11912     11913     11910     11912     11914
     11910     11912     11915     11910     11915     11912     11910     11915     11916
     11910     11915     11917     11911     11910     11912     11911     11910     11915
     11912     11910     11915     11912     11915     11916     11912     11915     11917
     11913     11912     11914     11913     11912     11915     11914     11912     11915
     11915     11917     11918     11915     11917     11919     11915     11917     11920
     11916     11915     11917     11917     11920     11921     11917     11920     11922
     11917     11920     11923     11918     11917     11919     11918     11917     11920
     11919     11917     11920     11920     11923     11924     11920     11923     11925
     11920     11923     11926     11921     11920     11922     11921     11920     11923
     11922     11920     11923     11923     11926     11927     11923     11926     11928
     11923     11926     11929     11924     11923     11925     11924     11923     11926
     11925     11923     11926     11926     11929     11930     11926     11929     11931
     11926     11929     11932     11927     11926     11928     11927     11926     11929
     11928     11926     11929     11929     11932     11933     11929     11932     11934
     11929     11932     11935     11930     11929     11931     11930     11929     11932
     11931     11929     11932     11933     11932     11934     11933     11932     11935
     11934     11932     11935     11936     11939     11940     11936     11939     11941
     11936     11939     11942     11937     11936     11938     11937     11936     11939
     11938     11936     11939     11939     11942     11943     11939     11942     11944
     11939     11942     11945     11940     11939     11941     11940     11939     11942
     11941     11939     11942     11942     11945     11946     11942     11945     11947
     11942     11945     11948     11943     11942     11944     11943     11942     11945
     11944     11942     11945     11945     11948     11949     11945     11948     11950
     11945     11948     11951     11946     11945     11947     11946     11945     11948
     11947     11945     11948     11948     11951     11952     11948     11951     11953
     11948     11951     11954     11949     11948     11950     11949     11948     11951
     11950     11948     11951     11951     11954     11955     11951     11954     11956
     11951     11954     11957     11952     11951     11953     11952     11951     11954
     11953     11951     11954     11954     11957     11958     11954     11957     11959
     11954     11957     11960     11955     11954     11956     11955     11954     11957
     11956     11954     11957     11957     11960     11961     11957     11960     11962
     11957     11960     11963     11958     11957     11959     11958     11957     11960
     11959     11957     11960     11960     11963     11964     11960     11963     11965
     11960     11963     11966     11961     11960     11962     11961     11960     11963
     11962     11960     11963     11963     11966     11967     11963     11966     11968
     11963     11966     11969     11964     11963     11965     11964     11963     11966
     11965     11963     11966     11966     11969     11970     11966     11969     11971
     11966     11969     11972     11967     11966     11968     11967     11966     11969
     11968     11966     11969     11969     11972     11973     11969     11972     11974
     11969     11972     11975     11970     11969     11971     11970     11969     11972
     11971     11969     11972     11972     11975     11976     11972     11975     11977
     11972     11975     11978     11973     11972     11974     11973     11972     11975
     11974     11972     11975     11976     11975     11977     11976     11975     11978
     11977     11975     11978     11979     11983     11984     11979     11983     11985
     11979     11983     11986     11980     11979     11981     11980     11979     11982
     11980     11979     11983     11981     11979     11982     11981     11979     11983
     11982     11979     11983     11983     11986     11987     11983     11986     11988
     11983     11986     11993     11984     11983     11985     11984     11983     11986
     11985     11983     11986     11986     11993     11989     11987     11986     11988
     11987     11986     11993     11988     11986     11993     11989     11992     11994
     11990     11989     11991     11990     11989     11992     11990     11989     11993
     11991     11989     11992     11991     11989     11993     11992     11989     11993
     11992     11994     11995     11992     11994     11996     11992     11994     11997
     11994     11997     11998     11994     11997     11999     11994     11997     12005
     11995     11994     11996     11995     11994     11997     11996     11994     11997
     11997     11999     12000     11997     12005     12006     11997     12005     12007
     11997     12005     12008     11998     11997     11999     11998     11997     12005
     11999     11997     12005     11999     12000     12001     11999     12000     12002
     12000     12002     12003     12000     12002     12004     12000     12002     12014
     12001     12000     12002     12002     12014     12015     12002     12014     12016
     12002     12014     12017     12003     12002     12004     12003     12002     12014
     12004     12002     12014     12005     12008     12009     12006     12005     12007
     12006     12005     12008     12007     12005     12008     12008     12009     12010
     12008     12009     12011     12009     12011     12012     12009     12011     12013
     12009     12011     12058     12010     12009     12011     12011     12058     12059
     12011     12058     12060     12011     12058     12061     12012     12011     12013
     12012     12011     12058     12013     12011     12058     12014     12017     12018
     12014     12017     12019     12014     12017     12020     12015     12014     12016
     12015     12014     12017     12016     12014     12017     12017     12020     12021
     12017     12020     12022     12017     12020     12023     12018     12017     12019
     12018     12017     12020     12019     12017     12020     12020     12023     12024
     12020     12023     12025     12020     12023     12026     12021     12020     12022
     12021     12020     12023     12022     12020     12023     12023     12026     12027
     12023     12026     12028     12023     12026     12029     12024     12023     12025
     12024     12023     12026     12025     12023     12026     12026     12029     12030
     12026     12029     12031     12026     12029     12032     12027     12026     12028
     12027     12026     12029     12028     12026     12029     12029     12032     12033
     12029     12032     12034     12029     12032     12037     12030     12029     12031
     12030     12029     12032     12031     12029     12032     12032     12034     12035
     12032     12034     12036     12032     12034     12037     12032     12037     12034
     12032     12037     12038     12032     12037     12039     12033     12032     12034
     12033     12032     12037     12034     12032     12037     12034     12037     12038
     12034     12037     12039     12035     12034     12036     12035     12034     12037
     12036     12034     12037     12037     12039     12040     12037     12039     12041
     12037     12039     12042     12038     12037     12039     12039     12042     12043
     12039     12042     12044     12039     12042     12045     12040     12039     12041
     12040     12039     12042     12041     12039     12042     12042     12045     12046
     12042     12045     12047     12042     12045     12048     12043     12042     12044
     12043     12042     12045     12044     12042     12045     12045     12048     12049
     12045     12048     12050     12045     12048     12051     12046     12045     12047
     12046     12045     12048     12047     12045     12048     12048     12051     12052
     12048     12051     12053     12048     12051     12054     12049     12048     12050
     12049     12048     12051     12050     12048     12051     12051     12054     12055
     12051     12054     12056     12051     12054     12057     12052     12051     12053
     12052     12051     12054     12053     12051     12054     12055     12054     12056
     12055     12054     12057     12056     12054     12057     12058     12061     12062
     12058     12061     12063     12058     12061     12064     12059     12058     12060
     12059     12058     12061     12060     12058     12061     12061     12064     12065
     12061     12064     12066     12061     12064     12067     12062     12061     12063
     12062     12061     12064     12063     12061     12064     12064     12067     12068
     12064     12067     12069     12064     12067     12070     12065     12064     12066
     12065     12064     12067     12066     12064     12067     12067     12070     12071
     12067     12070     12072     12067     12070     12073     12068     12067     12069
     12068     12067     12070     12069     12067     12070     12070     12073     12074
     12070     12073     12075     12070     12073     12076     12071     12070     12072
     12071     12070     12073     12072     12070     12073     12073     12076     12077
     12073     12076     12078     12073     12076     12079     12074     12073     12075
     12074     12073     12076     12075     12073     12076     12076     12079     12080
     12076     12079     12081     12076     12079     12082     12077     12076     12078
     12077     12076     12079     12078     12076     12079     12079     12082     12083
     12079     12082     12084     12079     12082     12085     12080     12079     12081
     12080     12079     12082     12081     12079     12082     12082     12085     12086
     12082     12085     12087     12082     12085     12088     12083     12082     12084
     12083     12082     12085     12084     12082     12085     12085     12088     12089
     12085     12088     12090     12085     12088     12091     12086     12085     12087
     12086     12085     12088     12087     12085     12088     12088     12091     12092
     12088     12091     12093     12088     12091     12094     12089     12088     12090
     12089     12088     12091     12090     12088     12091     12091     12094     12095
     12091     12094     12096     12091     12094     12097     12092     12091     12093
     12092     12091     12094     12093     12091     12094     12095     12094     12096
     12095     12094     12097     12096     12094     12097     12098     12101     12102
     12098     12103     12104     12098     12103     12105     12098     12103     12107
     12099     12098     12100     12099     12098     12101     12099     12098     12103
     12100     12098     12101     12100     12098     12103     12101     12098     12103
     12103     12105     12106     12103     12107     12108     12103     12107     12109
     12103     12107     12114     12104     12103     12105     12104     12103     12107
     12105     12103     12107     12107     12114     12110     12108     12107     12109
     12108     12107     12114     12109     12107     12114     12110     12113     12115
     12111     12110     12112     12111     12110     12113     12111     12110     12114
     12112     12110     12113     12112     12110     12114     12113     12110     12114
     12113     12115     12116     12113     12115     12117     12113     12115     12118
     12115     12118     12119     12115     12118     12120     12115     12118     12126
     12116     12115     12117     12116     12115     12118     12117     12115     12118
     12118     12120     12121     12118     12126     12127     12118     12126     12128
     12118     12126     12129     12119     12118     12120     12119     12118     12126
     12120     12118     12126     12120     12121     12122     12120     12121     12123
     12121     12123     12124     12121     12123     12125     12121     12123     12135
     12122     12121     12123     12123     12135     12136     12123     12135     12137
     12123     12135     12138     12124     12123     12125     12124     12123     12135
     12125     12123     12135     12126     12129     12130     12127     12126     12128
     12127     12126     12129     12128     12126     12129     12129     12130     12131
     12129     12130     12132     12130     12132     12133     12130     12132     12134
     12130     12132     12179     12131     12130     12132     12132     12179     12180
     12132     12179     12181     12132     12179     12182     12133     12132     12134
     12133     12132     12179     12134     12132     12179     12135     12138     12139
     12135     12138     12140     12135     12138     12141     12136     12135     12137
     12136     12135     12138     12137     12135     12138     12138     12141     12142
     12138     12141     12143     12138     12141     12144     12139     12138     12140
     12139     12138     12141     12140     12138     12141     12141     12144     12145
     12141     12144     12146     12141     12144     12147     12142     12141     12143
     12142     12141     12144     12143     12141     12144     12144     12147     12148
     12144     12147     12149     12144     12147     12150     12145     12144     12146
     12145     12144     12147     12146     12144     12147     12147     12150     12151
     12147     12150     12152     12147     12150     12153     12148     12147     12149
     12148     12147     12150     12149     12147     12150     12150     12153     12154
     12150     12153     12155     12150     12153     12158     12151     12150     12152
     12151     12150     12153     12152     12150     12153     12153     12155     12156
     12153     12155     12157     12153     12155     12158     12153     12158     12155
     12153     12158     12159     12153     12158     12160     12154     12153     12155
     12154     12153     12158     12155     12153     12158     12155     12158     12159
     12155     12158     12160     12156     12155     12157     12156     12155     12158
     12157     12155     12158     12158     12160     12161     12158     12160     12162
     12158     12160     12163     12159     12158     12160     12160     12163     12164
     12160     12163     12165     12160     12163     12166     12161     12160     12162
     12161     12160     12163     12162     12160     12163     12163     12166     12167
     12163     12166     12168     12163     12166     12169     12164     12163     12165
     12164     12163     12166     12165     12163     12166     12166     12169     12170
     12166     12169     12171     12166     12169     12172     12167     12166     12168
     12167     12166     12169     12168     12166     12169     12169     12172     12173
     12169     12172     12174     12169     12172     12175     12170     12169     12171
     12170     12169     12172     12171     12169     12172     12172     12175     12176
     12172     12175     12177     12172     12175     12178     12173     12172     12174
     12173     12172     12175     12174     12172     12175     12176     12175     12177
     12176     12175     12178     12177     12175     12178     12179     12182     12183
     12179     12182     12184     12179     12182     12185     12180     12179     12181
     12180     12179     12182     12181     12179     12182     12182     12185     12186
     12182     12185     12187     12182     12185     12188     12183     12182     12184
     12183     12182     12185     12184     12182     12185     12185     12188     12189
     12185     12188     12190     12185     12188     12191     12186     12185     12187
     12186     12185     12188     12187     12185     12188     12188     12191     12192
     12188     12191     12193     12188     12191     12194     12189     12188     12190
     12189     12188     12191     12190     12188     12191     12191     12194     12195
     12191     12194     12196     12191     12194     12197     12192     12191     12193
     12192     12191     12194     12193     12191     12194     12194     12197     12198
     12194     12197     12199     12194     12197     12200     12195     12194     12196
     12195     12194     12197     12196     12194     12197     12197     12200     12201
     12197     12200     12202     12197     12200     12203     12198     12197     12199
     12198     12197     12200     12199     12197     12200     12200     12203     12204
     12200     12203     12205     12200     12203     12206     12201     12200     12202
     12201     12200     12203     12202     12200     12203     12203     12206     12207
     12203     12206     12208     12203     12206     12209     12204     12203     12205
     12204     12203     12206     12205     12203     12206     12206     12209     12210
     12206     12209     12211     12206     12209     12212     12207     12206     12208
     12207     12206     12209     12208     12206     12209     12209     12212     12213
     12209     12212     12214     12209     12212     12215     12210     12209     12211
     12210     12209     12212     12211     12209     12212     12212     12215     12216
     12212     12215     12217     12212     12215     12218     12213     12212     12214
     12213     12212     12215     12214     12212     12215     12215     12218     12219
     12215     12218     12220     12215     12218     12221     12216     12215     12217
     12216     12215     12218     12217     12215     12218     12219     12218     12220
     12219     12218     12221     12220     12218     12221     12222     12226     12227
     12222     12226     12228     12222     12226     12229     12223     12222     12224
     12223     12222     12225     12223     12222     12226     12224     12222     12225
     12224     12222     12226     12225     12222     12226     12226     12229     12230
     12226     12229     12231     12226     12229     12236     12227     12226     12228
     12227     12226     12229     12228     12226     12229     12229     12236     12232
     12230     12229     12231     12230     12229     12236     12231     12229     12236
     12232     12235     12237     12233     12232     12234     12233     12232     12235
     12233     12232     12236     12234     12232     12235     12234     12232     12236
     12235     12232     12236     12235     12237     12238     12235     12237     12239
     12235     12237     12240     12237     12240     12241     12237     12240     12242
     12237     12240     12248     12238     12237     12239     12238     12237     12240
     12239     12237     12240     12240     12242     12243     12240     12248     12249
     12240     12248     12250     12240     12248     12251     12241     12240     12242
     12241     12240     12248     12242     12240     12248     12242     12243     12244
     12242     12243     12245     12243     12245     12246     12243     12245     12247
     12243     12245     12257     12244     12243     12245     12245     12257     12258
     12245     12257     12259     12245     12257     12260     12246     12245     12247
     12246     12245     12257     12247     12245     12257     12248     12251     12252
     12249     12248     12250     12249     12248     12251     12250     12248     12251
     12251     12252     12253     12251     12252     12254     12252     12254     12255
     12252     12254     12256     12252     12254     12301     12253     12252     12254
     12254     12301     12302     12254     12301     12303     12254     12301     12304
     12255     12254     12256     12255     12254     12301     12256     12254     12301
     12257     12260     12261     12257     12260     12262     12257     12260     12263
     12258     12257     12259     12258     12257     12260     12259     12257     12260
     12260     12263     12264     12260     12263     12265     12260     12263     12266
     12261     12260     12262     12261     12260     12263     12262     12260     12263
     12263     12266     12267     12263     12266     12268     12263     12266     12269
     12264     12263     12265     12264     12263     12266     12265     12263     12266
     12266     12269     12270     12266     12269     12271     12266     12269     12272
     12267     12266     12268     12267     12266     12269     12268     12266     12269
     12269     12272     12273     12269     12272     12274     12269     12272     12275
     12270     12269     12271     12270     12269     12272     12271     12269     12272
     12272     12275     12276     12272     12275     12277     12272     12275     12280
     12273     12272     12274     12273     12272     12275     12274     12272     12275
     12275     12277     12278     12275     12277     12279     12275     12277     12280
     12275     12280     12277     12275     12280     12281     12275     12280     12282
     12276     12275     12277     12276     12275     12280     12277     12275     12280
     12277     12280     12281     12277     12280     12282     12278     12277     12279
     12278     12277     12280     12279     12277     12280     12280     12282     12283
     12280     12282     12284     12280     12282     12285     12281     12280     12282
     12282     12285     12286     12282     12285     12287     12282     12285     12288
     12283     12282     12284     12283     12282     12285     12284     12282     12285
     12285     12288     12289     12285     12288     12290     12285     12288     12291
     12286     12285     12287     12286     12285     12288     12287     12285     12288
     12288     12291     12292     12288     12291     12293     12288     12291     12294
     12289     12288     12290     12289     12288     12291     12290     12288     12291
     12291     12294     12295     12291     12294     12296     12291     12294     12297
     12292     12291     12293     12292     12291     12294     12293     12291     12294
     12294     12297     12298     12294     12297     12299     12294     12297     12300
     12295     12294     12296     12295     12294     12297     12296     12294     12297
     12298     12297     12299     12298     12297     12300     12299     12297     12300
     12301     12304     12305     12301     12304     12306     12301     12304     12307
     12302     12301     12303     12302     12301     12304     12303     12301     12304
     12304     12307     12308     12304     12307     12309     12304     12307     12310
     12305     12304     12306     12305     12304     12307     12306     12304     12307
     12307     12310     12311     12307     12310     12312     12307     12310     12313
     12308     12307     12309     12308     12307     12310     12309     12307     12310
     12310     12313     12314     12310     12313     12315     12310     12313     12316
     12311     12310     12312     12311     12310     12313     12312     12310     12313
     12313     12316     12317     12313     12316     12318     12313     12316     12319
     12314     12313     12315     12314     12313     12316     12315     12313     12316
     12316     12319     12320     12316     12319     12321     12316     12319     12322
     12317     12316     12318     12317     12316     12319     12318     12316     12319
     12319     12322     12323     12319     12322     12324     12319     12322     12325
     12320     12319     12321     12320     12319     12322     12321     12319     12322
     12322     12325     12326     12322     12325     12327     12322     12325     12328
     12323     12322     12324     12323     12322     12325     12324     12322     12325
     12325     12328     12329     12325     12328     12330     12325     12328     12331
     12326     12325     12327     12326     12325     12328     12327     12325     12328
     12328     12331     12332     12328     12331     12333     12328     12331     12334
     12329     12328     12330     12329     12328     12331     12330     12328     12331
     12331     12334     12335     12331     12334     12336     12331     12334     12337
     12332     12331     12333     12332     12331     12334     12333     12331     12334
     12334     12337     12338     12334     12337     12339     12334     12337     12340
     12335     12334     12336     12335     12334     12337     12336     12334     12337
     12337     12340     12341     12337     12340     12342     12337     12340     12343
     12338     12337     12339     12338     12337     12340     12339     12337     12340
     12341     12340     12342     12341     12340     12343     12342     12340     12343
     12344     12348     12349     12344     12348     12350     12344     12348     12351
     12345     12344     12346     12345     12344     12347     12345     12344     12348
     12346     12344     12347     12346     12344     12348     12347     12344     12348
     12348     12351     12352     12348     12351     12353     12348     12351     12358
     12349     12348     12350     12349     12348     12351     12350     12348     12351
     12351     12358     12354     12352     12351     12353     12352     12351     12358
     12353     12351     12358     12354     12357     12359     12355     12354     12356
     12355     12354     12357     12355     12354     12358     12356     12354     12357
     12356     12354     12358     12357     12354     12358     12357     12359     12360
     12357     12359     12361     12357     12359     12362     12359     12362     12363
     12359     12362     12364     12359     12362     12370     12360     12359     12361
     12360     12359     12362     12361     12359     12362     12362     12364     12365
     12362     12370     12371     12362     12370     12372     12362     12370     12373
     12363     12362     12364     12363     12362     12370     12364     12362     12370
     12364     12365     12366     12364     12365     12367     12365     12367     12368
     12365     12367     12369     12365     12367     12379     12366     12365     12367
     12367     12379     12380     12367     12379     12381     12367     12379     12382
     12368     12367     12369     12368     12367     12379     12369     12367     12379
     12370     12373     12374     12371     12370     12372     12371     12370     12373
     12372     12370     12373     12373     12374     12375     12373     12374     12376
     12374     12376     12377     12374     12376     12378     12374     12376     12420
     12375     12374     12376     12376     12420     12421     12376     12420     12422
     12376     12420     12423     12377     12376     12378     12377     12376     12420
     12378     12376     12420     12379     12382     12383     12379     12382     12384
     12379     12382     12385     12380     12379     12381     12380     12379     12382
     12381     12379     12382     12382     12385     12386     12382     12385     12387
     12382     12385     12388     12383     12382     12384     12383     12382     12385
     12384     12382     12385     12385     12388     12389     12385     12388     12390
     12385     12388     12391     12386     12385     12387     12386     12385     12388
     12387     12385     12388     12388     12391     12392     12388     12391     12393
     12388     12391     12394     12389     12388     12390     12389     12388     12391
     12390     12388     12391     12391     12394     12395     12391     12394     12396
     12391     12394     12397     12392     12391     12393     12392     12391     12394
     12393     12391     12394     12394     12397     12398     12394     12397     12399
     12395     12394     12396     12395     12394     12397     12396     12394     12397
     12397     12399     12400     12397     12399     12401     12398     12397     12399
     12399     12401     12402     12399     12401     12403     12399     12401     12404
     12400     12399     12401     12401     12404     12405     12401     12404     12406
     12401     12404     12407     12402     12401     12403     12402     12401     12404
     12403     12401     12404     12404     12407     12408     12404     12407     12409
     12404     12407     12410     12405     12404     12406     12405     12404     12407
     12406     12404     12407     12407     12410     12411     12407     12410     12412
     12407     12410     12413     12408     12407     12409     12408     12407     12410
     12409     12407     12410     12410     12413     12414     12410     12413     12415
     12410     12413     12416     12411     12410     12412     12411     12410     12413
     12412     12410     12413     12413     12416     12417     12413     12416     12418
     12413     12416     12419     12414     12413     12415     12414     12413     12416
     12415     12413     12416     12417     12416     12418     12417     12416     12419
     12418     12416     12419     12420     12423     12424     12420     12423     12425
     12420     12423     12426     12421     12420     12422     12421     12420     12423
     12422     12420     12423     12423     12426     12427     12423     12426     12428
     12423     12426     12429     12424     12423     12425     12424     12423     12426
     12425     12423     12426     12426     12429     12430     12426     12429     12431
     12426     12429     12432     12427     12426     12428     12427     12426     12429
     12428     12426     12429     12429     12432     12433     12429     12432     12434
     12429     12432     12435     12430     12429     12431     12430     12429     12432
     12431     12429     12432     12432     12435     12436     12432     12435     12437
     12432     12435     12438     12433     12432     12434     12433     12432     12435
     12434     12432     12435     12435     12438     12439     12435     12438     12440
     12436     12435     12437     12436     12435     12438     12437     12435     12438
     12438     12440     12441     12438     12440     12442     12439     12438     12440
     12440     12442     12443     12440     12442     12444     12440     12442     12445
     12441     12440     12442     12442     12445     12446     12442     12445     12447
     12442     12445     12448     12443     12442     12444     12443     12442     12445
     12444     12442     12445     12445     12448     12449     12445     12448     12450
     12445     12448     12451     12446     12445     12447     12446     12445     12448
     12447     12445     12448     12448     12451     12452     12448     12451     12453
     12448     12451     12454     12449     12448     12450     12449     12448     12451
     12450     12448     12451     12451     12454     12455     12451     12454     12456
     12451     12454     12457     12452     12451     12453     12452     12451     12454
     12453     12451     12454     12454     12457     12458     12454     12457     12459
     12454     12457     12460     12455     12454     12456     12455     12454     12457
     12456     12454     12457     12457     12460     12461     12457     12460     12462
     12457     12460     12463     12458     12457     12459     12458     12457     12460
     12459     12457     12460     12460     12463     12464     12460     12463     12465
     12460     12463     12466     12461     12460     12462     12461     12460     12463
     12462     12460     12463     12464     12463     12465     12464     12463     12466
     12465     12463     12466     12467     12471     12472     12467     12471     12473
     12467     12471     12474     12468     12467     12469     12468     12467     12470
     12468     12467     12471     12469     12467     12470     12469     12467     12471
     12470     12467     12471     12471     12474     12475     12471     12474     12476
     12471     12474     12481     12472     12471     12473     12472     12471     12474
     12473     12471     12474     12474     12481     12477     12475     12474     12476
     12475     12474     12481     12476     12474     12481     12477     12480     12482
     12478     12477     12479     12478     12477     12480     12478     12477     12481
     12479     12477     12480     12479     12477     12481     12480     12477     12481
     12480     12482     12483     12480     12482     12484     12480     12482     12485
     12482     12485     12486     12482     12485     12487     12482     12485     12493
     12483     12482     12484     12483     12482     12485     12484     12482     12485
     12485     12487     12488     12485     12493     12494     12485     12493     12495
     12485     12493     12496     12486     12485     12487     12486     12485     12493
     12487     12485     12493     12487     12488     12489     12487     12488     12490
     12488     12490     12491     12488     12490     12492     12488     12490     12502
     12489     12488     12490     12490     12502     12503     12490     12502     12504
     12490     12502     12505     12491     12490     12492     12491     12490     12502
     12492     12490     12502     12493     12496     12497     12494     12493     12495
     12494     12493     12496     12495     12493     12496     12496     12497     12498
     12496     12497     12499     12497     12499     12500     12497     12499     12501
     12497     12499     12546     12498     12497     12499     12499     12546     12547
     12499     12546     12548     12499     12546     12549     12500     12499     12501
     12500     12499     12546     12501     12499     12546     12502     12505     12506
     12502     12505     12507     12502     12505     12508     12503     12502     12504
     12503     12502     12505     12504     12502     12505     12505     12508     12509
     12505     12508     12510     12505     12508     12511     12506     12505     12507
     12506     12505     12508     12507     12505     12508     12508     12511     12512
     12508     12511     12513     12508     12511     12514     12509     12508     12510
     12509     12508     12511     12510     12508     12511     12511     12514     12515
     12511     12514     12516     12511     12514     12517     12512     12511     12513
     12512     12511     12514     12513     12511     12514     12514     12517     12518
     12514     12517     12519     12514     12517     12520     12515     12514     12516
     12515     12514     12517     12516     12514     12517     12517     12520     12521
     12517     12520     12522     12517     12520     12525     12518     12517     12519
     12518     12517     12520     12519     12517     12520     12520     12522     12523
     12520     12522     12524     12520     12522     12525     12520     12525     12522
     12520     12525     12526     12520     12525     12527     12521     12520     12522
     12521     12520     12525     12522     12520     12525     12522     12525     12526
     12522     12525     12527     12523     12522     12524     12523     12522     12525
     12524     12522     12525     12525     12527     12528     12525     12527     12529
     12525     12527     12530     12526     12525     12527     12527     12530     12531
     12527     12530     12532     12527     12530     12533     12528     12527     12529
     12528     12527     12530     12529     12527     12530     12530     12533     12534
     12530     12533     12535     12530     12533     12536     12531     12530     12532
     12531     12530     12533     12532     12530     12533     12533     12536     12537
     12533     12536     12538     12533     12536     12539     12534     12533     12535
     12534     12533     12536     12535     12533     12536     12536     12539     12540
     12536     12539     12541     12536     12539     12542     12537     12536     12538
     12537     12536     12539     12538     12536     12539     12539     12542     12543
     12539     12542     12544     12539     12542     12545     12540     12539     12541
     12540     12539     12542     12541     12539     12542     12543     12542     12544
     12543     12542     12545     12544     12542     12545     12546     12549     12550
     12546     12549     12551     12546     12549     12552     12547     12546     12548
     12547     12546     12549     12548     12546     12549     12549     12552     12553
     12549     12552     12554     12549     12552     12555     12550     12549     12551
     12550     12549     12552     12551     12549     12552     12552     12555     12556
     12552     12555     12557     12552     12555     12558     12553     12552     12554
     12553     12552     12555     12554     12552     12555     12555     12558     12559
     12555     12558     12560     12555     12558     12561     12556     12555     12557
     12556     12555     12558     12557     12555     12558     12558     12561     12562
     12558     12561     12563     12558     12561     12564     12559     12558     12560
     12559     12558     12561     12560     12558     12561     12561     12564     12565
     12561     12564     12566     12561     12564     12567     12562     12561     12563
     12562     12561     12564     12563     12561     12564     12564     12567     12568
     12564     12567     12569     12564     12567     12570     12565     12564     12566
     12565     12564     12567     12566     12564     12567     12567     12570     12571
     12567     12570     12572     12567     12570     12573     12568     12567     12569
     12568     12567     12570     12569     12567     12570     12570     12573     12574
     12570     12573     12575     12570     12573     12576     12571     12570     12572
     12571     12570     12573     12572     12570     12573     12573     12576     12577
     12573     12576     12578     12573     12576     12579     12574     12573     12575
     12574     12573     12576     12575     12573     12576     12576     12579     12580
     12576     12579     12581     12576     12579     12582     12577     12576     12578
     12577     12576     12579     12578     12576     12579     12579     12582     12583
     12579     12582     12584     12579     12582     12585     12580     12579     12581
     12580     12579     12582     12581     12579     12582     12582     12585     12586
     12582     12585     12587     12582     12585     12588     12583     12582     12584
     12583     12582     12585     12584     12582     12585     12586     12585     12587
     12586     12585     12588     12587     12585     12588     12589     12593     12594
     12589     12593     12595     12589     12593     12596     12590     12589     12591
     12590     12589     12592     12590     12589     12593     12591     12589     12592
     12591     12589     12593     12592     12589     12593     12593     12596     12597
     12593     12596     12598     12593     12596     12603     12594     12593     12595
     12594     12593     12596     12595     12593     12596     12596     12603     12599
     12597     12596     12598     12597     12596     12603     12598     12596     12603
     12599     12602     12604     12600     12599     12601     12600     12599     12602
     12600     12599     12603     12601     12599     12602     12601     12599     12603
     12602     12599     12603     12602     12604     12605     12602     12604     12606
     12602     12604     12607     12604     12607     12608     12604     12607     12609
     12604     12607     12615     12605     12604     12606     12605     12604     12607
     12606     12604     12607     12607     12609     12610     12607     12615     12616
     12607     12615     12617     12607     12615     12618     12608     12607     12609
     12608     12607     12615     12609     12607     12615     12609     12610     12611
     12609     12610     12612     12610     12612     12613     12610     12612     12614
     12610     12612     12624     12611     12610     12612     12612     12624     12625
     12612     12624     12626     12612     12624     12627     12613     12612     12614
     12613     12612     12624     12614     12612     12624     12615     12618     12619
     12616     12615     12617     12616     12615     12618     12617     12615     12618
     12618     12619     12620     12618     12619     12621     12619     12621     12622
     12619     12621     12623     12619     12621     12668     12620     12619     12621
     12621     12668     12669     12621     12668     12670     12621     12668     12671
     12622     12621     12623     12622     12621     12668     12623     12621     12668
     12624     12627     12628     12624     12627     12629     12624     12627     12630
     12625     12624     12626     12625     12624     12627     12626     12624     12627
     12627     12630     12631     12627     12630     12632     12627     12630     12633
     12628     12627     12629     12628     12627     12630     12629     12627     12630
     12630     12633     12634     12630     12633     12635     12630     12633     12636
     12631     12630     12632     12631     12630     12633     12632     12630     12633
     12633     12636     12637     12633     12636     12638     12633     12636     12639
     12634     12633     12635     12634     12633     12636     12635     12633     12636
     12636     12639     12640     12636     12639     12641     12636     12639     12642
     12637     12636     12638     12637     12636     12639     12638     12636     12639
     12639     12642     12643     12639     12642     12644     12639     12642     12647
     12640     12639     12641     12640     12639     12642     12641     12639     12642
     12642     12644     12645     12642     12644     12646     12642     12644     12647
     12642     12647     12644     12642     12647     12648     12642     12647     12649
     12643     12642     12644     12643     12642     12647     12644     12642     12647
     12644     12647     12648     12644     12647     12649     12645     12644     12646
     12645     12644     12647     12646     12644     12647     12647     12649     12650
     12647     12649     12651     12647     12649     12652     12648     12647     12649
     12649     12652     12653     12649     12652     12654     12649     12652     12655
     12650     12649     12651     12650     12649     12652     12651     12649     12652
     12652     12655     12656     12652     12655     12657     12652     12655     12658
     12653     12652     12654     12653     12652     12655     12654     12652     12655
     12655     12658     12659     12655     12658     12660     12655     12658     12661
     12656     12655     12657     12656     12655     12658     12657     12655     12658
     12658     12661     12662     12658     12661     12663     12658     12661     12664
     12659     12658     12660     12659     12658     12661     12660     12658     12661
     12661     12664     12665     12661     12664     12666     12661     12664     12667
     12662     12661     12663     12662     12661     12664     12663     12661     12664
     12665     12664     12666     12665     12664     12667     12666     12664     12667
     12668     12671     12672     12668     12671     12673     12668     12671     12674
     12669     12668     12670     12669     12668     12671     12670     12668     12671
     12671     12674     12675     12671     12674     12676     12671     12674     12677
     12672     12671     12673     12672     12671     12674     12673     12671     12674
     12674     12677     12678     12674     12677     12679     12674     12677     12680
     12675     12674     12676     12675     12674     12677     12676     12674     12677
     12677     12680     12681     12677     12680     12682     12677     12680     12683
     12678     12677     12679     12678     12677     12680     12679     12677     12680
     12680     12683     12684     12680     12683     12685     12680     12683     12686
     12681     12680     12682     12681     12680     12683     12682     12680     12683
     12683     12686     12687     12683     12686     12688     12683     12686     12689
     12684     12683     12685     12684     12683     12686     12685     12683     12686
     12686     12689     12690     12686     12689     12691     12686     12689     12692
     12687     12686     12688     12687     12686     12689     12688     12686     12689
     12689     12692     12693     12689     12692     12694     12689     12692     12695
     12690     12689     12691     12690     12689     12692     12691     12689     12692
     12692     12695     12696     12692     12695     12697     12692     12695     12698
     12693     12692     12694     12693     12692     12695     12694     12692     12695
     12695     12698     12699     12695     12698     12700     12695     12698     12701
     12696     12695     12697     12696     12695     12698     12697     12695     12698
     12698     12701     12702     12698     12701     12703     12698     12701     12704
     12699     12698     12700     12699     12698     12701     12700     12698     12701
     12701     12704     12705     12701     12704     12706     12701     12704     12707
     12702     12701     12703     12702     12701     12704     12703     12701     12704
     12704     12707     12708     12704     12707     12709     12704     12707     12710
     12705     12704     12706     12705     12704     12707     12706     12704     12707
     12708     12707     12709     12708     12707     12710     12709     12707     12710
     12711     12714     12715     12711     12716     12717     12711     12716     12718
     12711     12716     12720     12712     12711     12713     12712     12711     12714
     12712     12711     12716     12713     12711     12714     12713     12711     12716
     12714     12711     12716     12716     12718     12719     12716     12720     12721
     12716     12720     12722     12716     12720     12727     12717     12716     12718
     12717     12716     12720     12718     12716     12720     12720     12727     12723
     12721     12720     12722     12721     12720     12727     12722     12720     12727
     12723     12726     12728     12724     12723     12725     12724     12723     12726
     12724     12723     12727     12725     12723     12726     12725     12723     12727
     12726     12723     12727     12726     12728     12729     12726     12728     12730
     12726     12728     12731     12728     12731     12732     12728     12731     12733
     12728     12731     12739     12729     12728     12730     12729     12728     12731
     12730     12728     12731     12731     12733     12734     12731     12739     12740
     12731     12739     12741     12731     12739     12742     12732     12731     12733
     12732     12731     12739     12733     12731     12739     12733     12734     12735
     12733     12734     12736     12734     12736     12737     12734     12736     12738
     12734     12736     12748     12735     12734     12736     12736     12748     12749
     12736     12748     12750     12736     12748     12751     12737     12736     12738
     12737     12736     12748     12738     12736     12748     12739     12742     12743
     12740     12739     12741     12740     12739     12742     12741     12739     12742
     12742     12743     12744     12742     12743     12745     12743     12745     12746
     12743     12745     12747     12743     12745     12792     12744     12743     12745
     12745     12792     12793     12745     12792     12794     12745     12792     12795
     12746     12745     12747     12746     12745     12792     12747     12745     12792
     12748     12751     12752     12748     12751     12753     12748     12751     12754
     12749     12748     12750     12749     12748     12751     12750     12748     12751
     12751     12754     12755     12751     12754     12756     12751     12754     12757
     12752     12751     12753     12752     12751     12754     12753     12751     12754
     12754     12757     12758     12754     12757     12759     12754     12757     12760
     12755     12754     12756     12755     12754     12757     12756     12754     12757
     12757     12760     12761     12757     12760     12762     12757     12760     12763
     12758     12757     12759     12758     12757     12760     12759     12757     12760
     12760     12763     12764     12760     12763     12765     12760     12763     12766
     12761     12760     12762     12761     12760     12763     12762     12760     12763
     12763     12766     12767     12763     12766     12768     12763     12766     12771
     12764     12763     12765     12764     12763     12766     12765     12763     12766
     12766     12768     12769     12766     12768     12770     12766     12768     12771
     12766     12771     12768     12766     12771     12772     12766     12771     12773
     12767     12766     12768     12767     12766     12771     12768     12766     12771
     12768     12771     12772     12768     12771     12773     12769     12768     12770
     12769     12768     12771     12770     12768     12771     12771     12773     12774
     12771     12773     12775     12771     12773     12776     12772     12771     12773
     12773     12776     12777     12773     12776     12778     12773     12776     12779
     12774     12773     12775     12774     12773     12776     12775     12773     12776
     12776     12779     12780     12776     12779     12781     12776     12779     12782
     12777     12776     12778     12777     12776     12779     12778     12776     12779
     12779     12782     12783     12779     12782     12784     12779     12782     12785
     12780     12779     12781     12780     12779     12782     12781     12779     12782
     12782     12785     12786     12782     12785     12787     12782     12785     12788
     12783     12782     12784     12783     12782     12785     12784     12782     12785
     12785     12788     12789     12785     12788     12790     12785     12788     12791
     12786     12785     12787     12786     12785     12788     12787     12785     12788
     12789     12788     12790     12789     12788     12791     12790     12788     12791
     12792     12795     12796     12792     12795     12797     12792     12795     12798
     12793     12792     12794     12793     12792     12795     12794     12792     12795
     12795     12798     12799     12795     12798     12800     12795     12798     12801
     12796     12795     12797     12796     12795     12798     12797     12795     12798
     12798     12801     12802     12798     12801     12803     12798     12801     12804
     12799     12798     12800     12799     12798     12801     12800     12798     12801
     12801     12804     12805     12801     12804     12806     12801     12804     12807
     12802     12801     12803     12802     12801     12804     12803     12801     12804
     12804     12807     12808     12804     12807     12809     12804     12807     12810
     12805     12804     12806     12805     12804     12807     12806     12804     12807
     12807     12810     12811     12807     12810     12812     12807     12810     12813
     12808     12807     12809     12808     12807     12810     12809     12807     12810
     12810     12813     12814     12810     12813     12815     12810     12813     12816
     12811     12810     12812     12811     12810     12813     12812     12810     12813
     12813     12816     12817     12813     12816     12818     12813     12816     12819
     12814     12813     12815     12814     12813     12816     12815     12813     12816
     12816     12819     12820     12816     12819     12821     12816     12819     12822
     12817     12816     12818     12817     12816     12819     12818     12816     12819
     12819     12822     12823     12819     12822     12824     12819     12822     12825
     12820     12819     12821     12820     12819     12822     12821     12819     12822
     12822     12825     12826     12822     12825     12827     12822     12825     12828
     12823     12822     12824     12823     12822     12825     12824     12822     12825
     12825     12828     12829     12825     12828     12830     12825     12828     12831
     12826     12825     12827     12826     12825     12828     12827     12825     12828
     12828     12831     12832     12828     12831     12833     12828     12831     12834
     12829     12828     12830     12829     12828     12831     12830     12828     12831
     12832     12831     12833     12832     12831     12834     12833     12831     12834
     12835     12839     12840     12835     12839     12841     12835     12839     12842
     12836     12835     12837     12836     12835     12838     12836     12835     12839
     12837     12835     12838     12837     12835     12839     12838     12835     12839
     12839     12842     12843     12839     12842     12844     12839     12842     12849
     12840     12839     12841     12840     12839     12842     12841     12839     12842
     12842     12849     12845     12843     12842     12844     12843     12842     12849
     12844     12842     12849     12845     12848     12850     12846     12845     12847
     12846     12845     12848     12846     12845     12849     12847     12845     12848
     12847     12845     12849     12848     12845     12849     12848     12850     12851
     12848     12850     12852     12848     12850     12853     12850     12853     12854
     12850     12853     12855     12850     12853     12861     12851     12850     12852
     12851     12850     12853     12852     12850     12853     12853     12855     12856
     12853     12861     12862     12853     12861     12863     12853     12861     12864
     12854     12853     12855     12854     12853     12861     12855     12853     12861
     12855     12856     12857     12855     12856     12858     12856     12858     12859
     12856     12858     12860     12856     12858     12870     12857     12856     12858
     12858     12870     12871     12858     12870     12872     12858     12870     12873
     12859     12858     12860     12859     12858     12870     12860     12858     12870
     12861     12864     12865     12862     12861     12863     12862     12861     12864
     12863     12861     12864     12864     12865     12866     12864     12865     12867
     12865     12867     12868     12865     12867     12869     12865     12867     12914
     12866     12865     12867     12867     12914     12915     12867     12914     12916
     12867     12914     12917     12868     12867     12869     12868     12867     12914
     12869     12867     12914     12870     12873     12874     12870     12873     12875
     12870     12873     12876     12871     12870     12872     12871     12870     12873
     12872     12870     12873     12873     12876     12877     12873     12876     12878
     12873     12876     12879     12874     12873     12875     12874     12873     12876
     12875     12873     12876     12876     12879     12880     12876     12879     12881
     12876     12879     12882     12877     12876     12878     12877     12876     12879
     12878     12876     12879     12879     12882     12883     12879     12882     12884
     12879     12882     12885     12880     12879     12881     12880     12879     12882
     12881     12879     12882     12882     12885     12886     12882     12885     12887
     12882     12885     12888     12883     12882     12884     12883     12882     12885
     12884     12882     12885     12885     12888     12889     12885     12888     12890
     12885     12888     12893     12886     12885     12887     12886     12885     12888
     12887     12885     12888     12888     12890     12891     12888     12890     12892
     12888     12890     12893     12888     12893     12890     12888     12893     12894
     12888     12893     12895     12889     12888     12890     12889     12888     12893
     12890     12888     12893     12890     12893     12894     12890     12893     12895
     12891     12890     12892     12891     12890     12893     12892     12890     12893
     12893     12895     12896     12893     12895     12897     12893     12895     12898
     12894     12893     12895     12895     12898     12899     12895     12898     12900
     12895     12898     12901     12896     12895     12897     12896     12895     12898
     12897     12895     12898     12898     12901     12902     12898     12901     12903
     12898     12901     12904     12899     12898     12900     12899     12898     12901
     12900     12898     12901     12901     12904     12905     12901     12904     12906
     12901     12904     12907     12902     12901     12903     12902     12901     12904
     12903     12901     12904     12904     12907     12908     12904     12907     12909
     12904     12907     12910     12905     12904     12906     12905     12904     12907
     12906     12904     12907     12907     12910     12911     12907     12910     12912
     12907     12910     12913     12908     12907     12909     12908     12907     12910
     12909     12907     12910     12911     12910     12912     12911     12910     12913
     12912     12910     12913     12914     12917     12918     12914     12917     12919
     12914     12917     12920     12915     12914     12916     12915     12914     12917
     12916     12914     12917     12917     12920     12921     12917     12920     12922
     12917     12920     12923     12918     12917     12919     12918     12917     12920
     12919     12917     12920     12920     12923     12924     12920     12923     12925
     12920     12923     12926     12921     12920     12922     12921     12920     12923
     12922     12920     12923     12923     12926     12927     12923     12926     12928
     12923     12926     12929     12924     12923     12925     12924     12923     12926
     12925     12923     12926     12926     12929     12930     12926     12929     12931
     12926     12929     12932     12927     12926     12928     12927     12926     12929
     12928     12926     12929     12929     12932     12933     12929     12932     12934
     12929     12932     12935     12930     12929     12931     12930     12929     12932
     12931     12929     12932     12932     12935     12936     12932     12935     12937
     12932     12935     12938     12933     12932     12934     12933     12932     12935
     12934     12932     12935     12935     12938     12939     12935     12938     12940
     12935     12938     12941     12936     12935     12937     12936     12935     12938
     12937     12935     12938     12938     12941     12942     12938     12941     12943
     12938     12941     12944     12939     12938     12940     12939     12938     12941
     12940     12938     12941     12941     12944     12945     12941     12944     12946
     12941     12944     12947     12942     12941     12943     12942     12941     12944
     12943     12941     12944     12944     12947     12948     12944     12947     12949
     12944     12947     12950     12945     12944     12946     12945     12944     12947
     12946     12944     12947     12947     12950     12951     12947     12950     12952
     12947     12950     12953     12948     12947     12949     12948     12947     12950
     12949     12947     12950     12950     12953     12954     12950     12953     12955
     12950     12953     12956     12951     12950     12952     12951     12950     12953
     12952     12950     12953     12954     12953     12955     12954     12953     12956
     12955     12953     12956     12957     12961     12962     12957     12961     12963
     12957     12961     12964     12958     12957     12959     12958     12957     12960
     12958     12957     12961     12959     12957     12960     12959     12957     12961
     12960     12957     12961     12961     12964     12965     12961     12964     12966
     12961     12964     12971     12962     12961     12963     12962     12961     12964
     12963     12961     12964     12964     12971     12967     12965     12964     12966
     12965     12964     12971     12966     12964     12971     12967     12970     12972
     12968     12967     12969     12968     12967     12970     12968     12967     12971
     12969     12967     12970     12969     12967     12971     12970     12967     12971
     12970     12972     12973     12970     12972     12974     12970     12972     12975
     12972     12975     12976     12972     12975     12977     12972     12975     12983
     12973     12972     12974     12973     12972     12975     12974     12972     12975
     12975     12977     12978     12975     12983     12984     12975     12983     12985
     12975     12983     12986     12976     12975     12977     12976     12975     12983
     12977     12975     12983     12977     12978     12979     12977     12978     12980
     12978     12980     12981     12978     12980     12982     12978     12980     12992
     12979     12978     12980     12980     12992     12993     12980     12992     12994
     12980     12992     12995     12981     12980     12982     12981     12980     12992
     12982     12980     12992     12983     12986     12987     12984     12983     12985
     12984     12983     12986     12985     12983     12986     12986     12987     12988
     12986     12987     12989     12987     12989     12990     12987     12989     12991
     12987     12989     13036     12988     12987     12989     12989     13036     13037
     12989     13036     13038     12989     13036     13039     12990     12989     12991
     12990     12989     13036     12991     12989     13036     12992     12995     12996
     12992     12995     12997     12992     12995     12998     12993     12992     12994
     12993     12992     12995     12994     12992     12995     12995     12998     12999
     12995     12998     13000     12995     12998     13001     12996     12995     12997
     12996     12995     12998     12997     12995     12998     12998     13001     13002
     12998     13001     13003     12998     13001     13004     12999     12998     13000
     12999     12998     13001     13000     12998     13001     13001     13004     13005
     13001     13004     13006     13001     13004     13007     13002     13001     13003
     13002     13001     13004     13003     13001     13004     13004     13007     13008
     13004     13007     13009     13004     13007     13010     13005     13004     13006
     13005     13004     13007     13006     13004     13007     13007     13010     13011
     13007     13010     13012     13007     13010     13015     13008     13007     13009
     13008     13007     13010     13009     13007     13010     13010     13012     13013
     13010     13012     13014     13010     13012     13015     13010     13015     13012
     13010     13015     13016     13010     13015     13017     13011     13010     13012
     13011     13010     13015     13012     13010     13015     13012     13015     13016
     13012     13015     13017     13013     13012     13014     13013     13012     13015
     13014     13012     13015     13015     13017     13018     13015     13017     13019
     13015     13017     13020     13016     13015     13017     13017     13020     13021
     13017     13020     13022     13017     13020     13023     13018     13017     13019
     13018     13017     13020     13019     13017     13020     13020     13023     13024
     13020     13023     13025     13020     13023     13026     13021     13020     13022
     13021     13020     13023     13022     13020     13023     13023     13026     13027
     13023     13026     13028     13023     13026     13029     13024     13023     13025
     13024     13023     13026     13025     13023     13026     13026     13029     13030
     13026     13029     13031     13026     13029     13032     13027     13026     13028
     13027     13026     13029     13028     13026     13029     13029     13032     13033
     13029     13032     13034     13029     13032     13035     13030     13029     13031
     13030     13029     13032     13031     13029     13032     13033     13032     13034
     13033     13032     13035     13034     13032     13035     13036     13039     13040
     13036     13039     13041     13036     13039     13042     13037     13036     13038
     13037     13036     13039     13038     13036     13039     13039     13042     13043
     13039     13042     13044     13039     13042     13045     13040     13039     13041
     13040     13039     13042     13041     13039     13042     13042     13045     13046
     13042     13045     13047     13042     13045     13048     13043     13042     13044
     13043     13042     13045     13044     13042     13045     13045     13048     13049
     13045     13048     13050     13045     13048     13051     13046     13045     13047
     13046     13045     13048     13047     13045     13048     13048     13051     13052
     13048     13051     13053     13048     13051     13054     13049     13048     13050
     13049     13048     13051     13050     13048     13051     13051     13054     13055
     13051     13054     13056     13051     13054     13057     13052     13051     13053
     13052     13051     13054     13053     13051     13054     13054     13057     13058
     13054     13057     13059     13054     13057     13060     13055     13054     13056
     13055     13054     13057     13056     13054     13057     13057     13060     13061
     13057     13060     13062     13057     13060     13063     13058     13057     13059
     13058     13057     13060     13059     13057     13060     13060     13063     13064
     13060     13063     13065     13060     13063     13066     13061     13060     13062
     13061     13060     13063     13062     13060     13063     13063     13066     13067
     13063     13066     13068     13063     13066     13069     13064     13063     13065
     13064     13063     13066     13065     13063     13066     13066     13069     13070
     13066     13069     13071     13066     13069     13072     13067     13066     13068
     13067     13066     13069     13068     13066     13069     13069     13072     13073
     13069     13072     13074     13069     13072     13075     13070     13069     13071
     13070     13069     13072     13071     13069     13072     13072     13075     13076
     13072     13075     13077     13072     13075     13078     13073     13072     13074
     13073     13072     13075     13074     13072     13075     13076     13075     13077
     13076     13075     13078     13077     13075     13078     13079     13082     13083
     13079     13084     13085     13079     13084     13086     13079     13084     13088
     13080     13079     13081     13080     13079     13082     13080     13079     13084
     13081     13079     13082     13081     13079     13084     13082     13079     13084
     13084     13086     13087     13084     13088     13089     13084     13088     13090
     13084     13088     13095     13085     13084     13086     13085     13084     13088
     13086     13084     13088     13088     13095     13091     13089     13088     13090
     13089     13088     13095     13090     13088     13095     13091     13094     13096
     13092     13091     13093     13092     13091     13094     13092     13091     13095
     13093     13091     13094     13093     13091     13095     13094     13091     13095
     13094     13096     13097     13094     13096     13098     13094     13096     13099
     13096     13099     13100     13096     13099     13101     13096     13099     13107
     13097     13096     13098     13097     13096     13099     13098     13096     13099
     13099     13101     13102     13099     13107     13108     13099     13107     13109
     13099     13107     13110     13100     13099     13101     13100     13099     13107
     13101     13099     13107     13101     13102     13103     13101     13102     13104
     13102     13104     13105     13102     13104     13106     13102     13104     13116
     13103     13102     13104     13104     13116     13117     13104     13116     13118
     13104     13116     13119     13105     13104     13106     13105     13104     13116
     13106     13104     13116     13107     13110     13111     13108     13107     13109
     13108     13107     13110     13109     13107     13110     13110     13111     13112
     13110     13111     13113     13111     13113     13114     13111     13113     13115
     13111     13113     13160     13112     13111     13113     13113     13160     13161
     13113     13160     13162     13113     13160     13163     13114     13113     13115
     13114     13113     13160     13115     13113     13160     13116     13119     13120
     13116     13119     13121     13116     13119     13122     13117     13116     13118
     13117     13116     13119     13118     13116     13119     13119     13122     13123
     13119     13122     13124     13119     13122     13125     13120     13119     13121
     13120     13119     13122     13121     13119     13122     13122     13125     13126
     13122     13125     13127     13122     13125     13128     13123     13122     13124
     13123     13122     13125     13124     13122     13125     13125     13128     13129
     13125     13128     13130     13125     13128     13131     13126     13125     13127
     13126     13125     13128     13127     13125     13128     13128     13131     13132
     13128     13131     13133     13128     13131     13134     13129     13128     13130
     13129     13128     13131     13130     13128     13131     13131     13134     13135
     13131     13134     13136     13131     13134     13139     13132     13131     13133
     13132     13131     13134     13133     13131     13134     13134     13136     13137
     13134     13136     13138     13134     13136     13139     13134     13139     13136
     13134     13139     13140     13134     13139     13141     13135     13134     13136
     13135     13134     13139     13136     13134     13139     13136     13139     13140
     13136     13139     13141     13137     13136     13138     13137     13136     13139
     13138     13136     13139     13139     13141     13142     13139     13141     13143
     13139     13141     13144     13140     13139     13141     13141     13144     13145
     13141     13144     13146     13141     13144     13147     13142     13141     13143
     13142     13141     13144     13143     13141     13144     13144     13147     13148
     13144     13147     13149     13144     13147     13150     13145     13144     13146
     13145     13144     13147     13146     13144     13147     13147     13150     13151
     13147     13150     13152     13147     13150     13153     13148     13147     13149
     13148     13147     13150     13149     13147     13150     13150     13153     13154
     13150     13153     13155     13150     13153     13156     13151     13150     13152
     13151     13150     13153     13152     13150     13153     13153     13156     13157
     13153     13156     13158     13153     13156     13159     13154     13153     13155
     13154     13153     13156     13155     13153     13156     13157     13156     13158
     13157     13156     13159     13158     13156     13159     13160     13163     13164
     13160     13163     13165     13160     13163     13166     13161     13160     13162
     13161     13160     13163     13162     13160     13163     13163     13166     13167
     13163     13166     13168     13163     13166     13169     13164     13163     13165
     13164     13163     13166     13165     13163     13166     13166     13169     13170
     13166     13169     13171     13166     13169     13172     13167     13166     13168
     13167     13166     13169     13168     13166     13169     13169     13172     13173
     13169     13172     13174     13169     13172     13175     13170     13169     13171
     13170     13169     13172     13171     13169     13172     13172     13175     13176
     13172     13175     13177     13172     13175     13178     13173     13172     13174
     13173     13172     13175     13174     13172     13175     13175     13178     13179
     13175     13178     13180     13175     13178     13181     13176     13175     13177
     13176     13175     13178     13177     13175     13178     13178     13181     13182
     13178     13181     13183     13178     13181     13184     13179     13178     13180
     13179     13178     13181     13180     13178     13181     13181     13184     13185
     13181     13184     13186     13181     13184     13187     13182     13181     13183
     13182     13181     13184     13183     13181     13184     13184     13187     13188
     13184     13187     13189     13184     13187     13190     13185     13184     13186
     13185     13184     13187     13186     13184     13187     13187     13190     13191
     13187     13190     13192     13187     13190     13193     13188     13187     13189
     13188     13187     13190     13189     13187     13190     13190     13193     13194
     13190     13193     13195     13190     13193     13196     13191     13190     13192
     13191     13190     13193     13192     13190     13193     13193     13196     13197
     13193     13196     13198     13193     13196     13199     13194     13193     13195
     13194     13193     13196     13195     13193     13196     13196     13199     13200
     13196     13199     13201     13196     13199     13202     13197     13196     13198
     13197     13196     13199     13198     13196     13199     13200     13199     13201
     13200     13199     13202     13201     13199     13202     13203     13207     13208
     13203     13207     13209     13203     13207     13210     13204     13203     13205
     13204     13203     13206     13204     13203     13207     13205     13203     13206
     13205     13203     13207     13206     13203     13207     13207     13210     13211
     13207     13210     13212     13207     13210     13217     13208     13207     13209
     13208     13207     13210     13209     13207     13210     13210     13217     13213
     13211     13210     13212     13211     13210     13217     13212     13210     13217
     13213     13216     13218     13214     13213     13215     13214     13213     13216
     13214     13213     13217     13215     13213     13216     13215     13213     13217
     13216     13213     13217     13216     13218     13219     13216     13218     13220
     13216     13218     13221     13218     13221     13222     13218     13221     13223
     13218     13221     13229     13219     13218     13220     13219     13218     13221
     13220     13218     13221     13221     13223     13224     13221     13229     13230
     13221     13229     13231     13221     13229     13232     13222     13221     13223
     13222     13221     13229     13223     13221     13229     13223     13224     13225
     13223     13224     13226     13224     13226     13227     13224     13226     13228
     13224     13226     13238     13225     13224     13226     13226     13238     13239
     13226     13238     13240     13226     13238     13241     13227     13226     13228
     13227     13226     13238     13228     13226     13238     13229     13232     13233
     13230     13229     13231     13230     13229     13232     13231     13229     13232
     13232     13233     13234     13232     13233     13235     13233     13235     13236
     13233     13235     13237     13233     13235     13282     13234     13233     13235
     13235     13282     13283     13235     13282     13284     13235     13282     13285
     13236     13235     13237     13236     13235     13282     13237     13235     13282
     13238     13241     13242     13238     13241     13243     13238     13241     13244
     13239     13238     13240     13239     13238     13241     13240     13238     13241
     13241     13244     13245     13241     13244     13246     13241     13244     13247
     13242     13241     13243     13242     13241     13244     13243     13241     13244
     13244     13247     13248     13244     13247     13249     13244     13247     13250
     13245     13244     13246     13245     13244     13247     13246     13244     13247
     13247     13250     13251     13247     13250     13252     13247     13250     13253
     13248     13247     13249     13248     13247     13250     13249     13247     13250
     13250     13253     13254     13250     13253     13255     13250     13253     13256
     13251     13250     13252     13251     13250     13253     13252     13250     13253
     13253     13256     13257     13253     13256     13258     13253     13256     13261
     13254     13253     13255     13254     13253     13256     13255     13253     13256
     13256     13258     13259     13256     13258     13260     13256     13258     13261
     13256     13261     13258     13256     13261     13262     13256     13261     13263
     13257     13256     13258     13257     13256     13261     13258     13256     13261
     13258     13261     13262     13258     13261     13263     13259     13258     13260
     13259     13258     13261     13260     13258     13261     13261     13263     13264
     13261     13263     13265     13261     13263     13266     13262     13261     13263
     13263     13266     13267     13263     13266     13268     13263     13266     13269
     13264     13263     13265     13264     13263     13266     13265     13263     13266
     13266     13269     13270     13266     13269     13271     13266     13269     13272
     13267     13266     13268     13267     13266     13269     13268     13266     13269
     13269     13272     13273     13269     13272     13274     13269     13272     13275
     13270     13269     13271     13270     13269     13272     13271     13269     13272
     13272     13275     13276     13272     13275     13277     13272     13275     13278
     13273     13272     13274     13273     13272     13275     13274     13272     13275
     13275     13278     13279     13275     13278     13280     13275     13278     13281
     13276     13275     13277     13276     13275     13278     13277     13275     13278
     13279     13278     13280     13279     13278     13281     13280     13278     13281
     13282     13285     13286     13282     13285     13287     13282     13285     13288
     13283     13282     13284     13283     13282     13285     13284     13282     13285
     13285     13288     13289     13285     13288     13290     13285     13288     13291
     13286     13285     13287     13286     13285     13288     13287     13285     13288
     13288     13291     13292     13288     13291     13293     13288     13291     13294
     13289     13288     13290     13289     13288     13291     13290     13288     13291
     13291     13294     13295     13291     13294     13296     13291     13294     13297
     13292     13291     13293     13292     13291     13294     13293     13291     13294
     13294     13297     13298     13294     13297     13299     13294     13297     13300
     13295     13294     13296     13295     13294     13297     13296     13294     13297
     13297     13300     13301     13297     13300     13302     13297     13300     13303
     13298     13297     13299     13298     13297     13300     13299     13297     13300
     13300     13303     13304     13300     13303     13305     13300     13303     13306
     13301     13300     13302     13301     13300     13303     13302     13300     13303
     13303     13306     13307     13303     13306     13308     13303     13306     13309
     13304     13303     13305     13304     13303     13306     13305     13303     13306
     13306     13309     13310     13306     13309     13311     13306     13309     13312
     13307     13306     13308     13307     13306     13309     13308     13306     13309
     13309     13312     13313     13309     13312     13314     13309     13312     13315
     13310     13309     13311     13310     13309     13312     13311     13309     13312
     13312     13315     13316     13312     13315     13317     13312     13315     13318
     13313     13312     13314     13313     13312     13315     13314     13312     13315
     13315     13318     13319     13315     13318     13320     13315     13318     13321
     13316     13315     13317     13316     13315     13318     13317     13315     13318
     13319     13318     13320     13319     13318     13321     13320     13318     13321
     13322     13326     13327     13322     13326     13328     13322     13326     13329
     13323     13322     13324     13323     13322     13325     13323     13322     13326
     13324     13322     13325     13324     13322     13326     13325     13322     13326
     13326     13329     13330     13326     13329     13331     13326     13329     13336
     13327     13326     13328     13327     13326     13329     13328     13326     13329
     13329     13336     13332     13330     13329     13331     13330     13329     13336
     13331     13329     13336     13332     13335     13337     13333     13332     13334
     13333     13332     13335     13333     13332     13336     13334     13332     13335
     13334     13332     13336     13335     13332     13336     13335     13337     13338
     13335     13337     13339     13335     13337     13340     13337     13340     13341
     13337     13340     13342     13337     13340     13348     13338     13337     13339
     13338     13337     13340     13339     13337     13340     13340     13342     13343
     13340     13348     13349     13340     13348     13350     13340     13348     13351
     13341     13340     13342     13341     13340     13348     13342     13340     13348
     13342     13343     13344     13342     13343     13345     13343     13345     13346
     13343     13345     13347     13343     13345     13357     13344     13343     13345
     13345     13357     13358     13345     13357     13359     13345     13357     13360
     13346     13345     13347     13346     13345     13357     13347     13345     13357
     13348     13351     13352     13349     13348     13350     13349     13348     13351
     13350     13348     13351     13351     13352     13353     13351     13352     13354
     13352     13354     13355     13352     13354     13356     13352     13354     13401
     13353     13352     13354     13354     13401     13402     13354     13401     13403
     13354     13401     13404     13355     13354     13356     13355     13354     13401
     13356     13354     13401     13357     13360     13361     13357     13360     13362
     13357     13360     13363     13358     13357     13359     13358     13357     13360
     13359     13357     13360     13360     13363     13364     13360     13363     13365
     13360     13363     13366     13361     13360     13362     13361     13360     13363
     13362     13360     13363     13363     13366     13367     13363     13366     13368
     13363     13366     13369     13364     13363     13365     13364     13363     13366
     13365     13363     13366     13366     13369     13370     13366     13369     13371
     13366     13369     13372     13367     13366     13368     13367     13366     13369
     13368     13366     13369     13369     13372     13373     13369     13372     13374
     13369     13372     13375     13370     13369     13371     13370     13369     13372
     13371     13369     13372     13372     13375     13376     13372     13375     13377
     13372     13375     13380     13373     13372     13374     13373     13372     13375
     13374     13372     13375     13375     13377     13378     13375     13377     13379
     13375     13377     13380     13375     13380     13377     13375     13380     13381
     13375     13380     13382     13376     13375     13377     13376     13375     13380
     13377     13375     13380     13377     13380     13381     13377     13380     13382
     13378     13377     13379     13378     13377     13380     13379     13377     13380
     13380     13382     13383     13380     13382     13384     13380     13382     13385
     13381     13380     13382     13382     13385     13386     13382     13385     13387
     13382     13385     13388     13383     13382     13384     13383     13382     13385
     13384     13382     13385     13385     13388     13389     13385     13388     13390
     13385     13388     13391     13386     13385     13387     13386     13385     13388
     13387     13385     13388     13388     13391     13392     13388     13391     13393
     13388     13391     13394     13389     13388     13390     13389     13388     13391
     13390     13388     13391     13391     13394     13395     13391     13394     13396
     13391     13394     13397     13392     13391     13393     13392     13391     13394
     13393     13391     13394     13394     13397     13398     13394     13397     13399
     13394     13397     13400     13395     13394     13396     13395     13394     13397
     13396     13394     13397     13398     13397     13399     13398     13397     13400
     13399     13397     13400     13401     13404     13405     13401     13404     13406
     13401     13404     13407     13402     13401     13403     13402     13401     13404
     13403     13401     13404     13404     13407     13408     13404     13407     13409
     13404     13407     13410     13405     13404     13406     13405     13404     13407
     13406     13404     13407     13407     13410     13411     13407     13410     13412
     13407     13410     13413     13408     13407     13409     13408     13407     13410
     13409     13407     13410     13410     13413     13414     13410     13413     13415
     13410     13413     13416     13411     13410     13412     13411     13410     13413
     13412     13410     13413     13413     13416     13417     13413     13416     13418
     13413     13416     13419     13414     13413     13415     13414     13413     13416
     13415     13413     13416     13416     13419     13420     13416     13419     13421
     13416     13419     13422     13417     13416     13418     13417     13416     13419
     13418     13416     13419     13419     13422     13423     13419     13422     13424
     13419     13422     13425     13420     13419     13421     13420     13419     13422
     13421     13419     13422     13422     13425     13426     13422     13425     13427
     13422     13425     13428     13423     13422     13424     13423     13422     13425
     13424     13422     13425     13425     13428     13429     13425     13428     13430
     13425     13428     13431     13426     13425     13427     13426     13425     13428
     13427     13425     13428     13428     13431     13432     13428     13431     13433
     13428     13431     13434     13429     13428     13430     13429     13428     13431
     13430     13428     13431     13431     13434     13435     13431     13434     13436
     13431     13434     13437     13432     13431     13433     13432     13431     13434
     13433     13431     13434     13434     13437     13438     13434     13437     13439
     13434     13437     13440     13435     13434     13436     13435     13434     13437
     13436     13434     13437     13437     13440     13441     13437     13440     13442
     13437     13440     13443     13438     13437     13439     13438     13437     13440
     13439     13437     13440     13441     13440     13442     13441     13440     13443
     13442     13440     13443     13444     13448     13449     13444     13448     13450
     13444     13448     13451     13445     13444     13446     13445     13444     13447
     13445     13444     13448     13446     13444     13447     13446     13444     13448
     13447     13444     13448     13448     13451     13452     13448     13451     13453
     13448     13451     13458     13449     13448     13450     13449     13448     13451
     13450     13448     13451     13451     13458     13454     13452     13451     13453
     13452     13451     13458     13453     13451     13458     13454     13457     13459
     13455     13454     13456     13455     13454     13457     13455     13454     13458
     13456     13454     13457     13456     13454     13458     13457     13454     13458
     13457     13459     13460     13457     13459     13461     13457     13459     13462
     13459     13462     13463     13459     13462     13464     13459     13462     13470
     13460     13459     13461     13460     13459     13462     13461     13459     13462
     13462     13464     13465     13462     13470     13471     13462     13470     13472
     13462     13470     13473     13463     13462     13464     13463     13462     13470
     13464     13462     13470     13464     13465     13466     13464     13465     13467
     13465     13467     13468     13465     13467     13469     13465     13467     13479
     13466     13465     13467     13467     13479     13480     13467     13479     13481
     13467     13479     13482     13468     13467     13469     13468     13467     13479
     13469     13467     13479     13470     13473     13474     13471     13470     13472
     13471     13470     13473     13472     13470     13473     13473     13474     13475
     13473     13474     13476     13474     13476     13477     13474     13476     13478
     13474     13476     13523     13475     13474     13476     13476     13523     13524
     13476     13523     13525     13476     13523     13526     13477     13476     13478
     13477     13476     13523     13478     13476     13523     13479     13482     13483
     13479     13482     13484     13479     13482     13485     13480     13479     13481
     13480     13479     13482     13481     13479     13482     13482     13485     13486
     13482     13485     13487     13482     13485     13488     13483     13482     13484
     13483     13482     13485     13484     13482     13485     13485     13488     13489
     13485     13488     13490     13485     13488     13491     13486     13485     13487
     13486     13485     13488     13487     13485     13488     13488     13491     13492
     13488     13491     13493     13488     13491     13494     13489     13488     13490
     13489     13488     13491     13490     13488     13491     13491     13494     13495
     13491     13494     13496     13491     13494     13497     13492     13491     13493
     13492     13491     13494     13493     13491     13494     13494     13497     13498
     13494     13497     13499     13494     13497     13502     13495     13494     13496
     13495     13494     13497     13496     13494     13497     13497     13499     13500
     13497     13499     13501     13497     13499     13502     13497     13502     13499
     13497     13502     13503     13497     13502     13504     13498     13497     13499
     13498     13497     13502     13499     13497     13502     13499     13502     13503
     13499     13502     13504     13500     13499     13501     13500     13499     13502
     13501     13499     13502     13502     13504     13505     13502     13504     13506
     13502     13504     13507     13503     13502     13504     13504     13507     13508
     13504     13507     13509     13504     13507     13510     13505     13504     13506
     13505     13504     13507     13506     13504     13507     13507     13510     13511
     13507     13510     13512     13507     13510     13513     13508     13507     13509
     13508     13507     13510     13509     13507     13510     13510     13513     13514
     13510     13513     13515     13510     13513     13516     13511     13510     13512
     13511     13510     13513     13512     13510     13513     13513     13516     13517
     13513     13516     13518     13513     13516     13519     13514     13513     13515
     13514     13513     13516     13515     13513     13516     13516     13519     13520
     13516     13519     13521     13516     13519     13522     13517     13516     13518
     13517     13516     13519     13518     13516     13519     13520     13519     13521
     13520     13519     13522     13521     13519     13522     13523     13526     13527
     13523     13526     13528     13523     13526     13529     13524     13523     13525
     13524     13523     13526     13525     13523     13526     13526     13529     13530
     13526     13529     13531     13526     13529     13532     13527     13526     13528
     13527     13526     13529     13528     13526     13529     13529     13532     13533
     13529     13532     13534     13529     13532     13535     13530     13529     13531
     13530     13529     13532     13531     13529     13532     13532     13535     13536
     13532     13535     13537     13532     13535     13538     13533     13532     13534
     13533     13532     13535     13534     13532     13535     13535     13538     13539
     13535     13538     13540     13535     13538     13541     13536     13535     13537
     13536     13535     13538     13537     13535     13538     13538     13541     13542
     13538     13541     13543     13538     13541     13544     13539     13538     13540
     13539     13538     13541     13540     13538     13541     13541     13544     13545
     13541     13544     13546     13541     13544     13547     13542     13541     13543
     13542     13541     13544     13543     13541     13544     13544     13547     13548
     13544     13547     13549     13544     13547     13550     13545     13544     13546
     13545     13544     13547     13546     13544     13547     13547     13550     13551
     13547     13550     13552     13547     13550     13553     13548     13547     13549
     13548     13547     13550     13549     13547     13550     13550     13553     13554
     13550     13553     13555     13550     13553     13556     13551     13550     13552
     13551     13550     13553     13552     13550     13553     13553     13556     13557
     13553     13556     13558     13553     13556     13559     13554     13553     13555
     13554     13553     13556     13555     13553     13556     13556     13559     13560
     13556     13559     13561     13556     13559     13562     13557     13556     13558
     13557     13556     13559     13558     13556     13559     13559     13562     13563
     13559     13562     13564     13559     13562     13565     13560     13559     13561
     13560     13559     13562     13561     13559     13562     13563     13562     13564
     13563     13562     13565     13564     13562     13565     13566     13570     13571
     13566     13570     13572     13566     13570     13573     13567     13566     13568
     13567     13566     13569     13567     13566     13570     13568     13566     13569
     13568     13566     13570     13569     13566     13570     13570     13573     13574
     13570     13573     13575     13570     13573     13580     13571     13570     13572
     13571     13570     13573     13572     13570     13573     13573     13580     13576
     13574     13573     13575     13574     13573     13580     13575     13573     13580
     13576     13579     13581     13577     13576     13578     13577     13576     13579
     13577     13576     13580     13578     13576     13579     13578     13576     13580
     13579     13576     13580     13579     13581     13582     13579     13581     13583
     13579     13581     13584     13581     13584     13585     13581     13584     13586
     13581     13584     13592     13582     13581     13583     13582     13581     13584
     13583     13581     13584     13584     13586     13587     13584     13592     13593
     13584     13592     13594     13584     13592     13595     13585     13584     13586
     13585     13584     13592     13586     13584     13592     13586     13587     13588
     13586     13587     13589     13587     13589     13590     13587     13589     13591
     13587     13589     13601     13588     13587     13589     13589     13601     13602
     13589     13601     13603     13589     13601     13604     13590     13589     13591
     13590     13589     13601     13591     13589     13601     13592     13595     13596
     13593     13592     13594     13593     13592     13595     13594     13592     13595
     13595     13596     13597     13595     13596     13598     13596     13598     13599
     13596     13598     13600     13596     13598     13645     13597     13596     13598
     13598     13645     13646     13598     13645     13647     13598     13645     13648
     13599     13598     13600     13599     13598     13645     13600     13598     13645
     13601     13604     13605     13601     13604     13606     13601     13604     13607
     13602     13601     13603     13602     13601     13604     13603     13601     13604
     13604     13607     13608     13604     13607     13609     13604     13607     13610
     13605     13604     13606     13605     13604     13607     13606     13604     13607
     13607     13610     13611     13607     13610     13612     13607     13610     13613
     13608     13607     13609     13608     13607     13610     13609     13607     13610
     13610     13613     13614     13610     13613     13615     13610     13613     13616
     13611     13610     13612     13611     13610     13613     13612     13610     13613
     13613     13616     13617     13613     13616     13618     13613     13616     13619
     13614     13613     13615     13614     13613     13616     13615     13613     13616
     13616     13619     13620     13616     13619     13621     13616     13619     13624
     13617     13616     13618     13617     13616     13619     13618     13616     13619
     13619     13621     13622     13619     13621     13623     13619     13621     13624
     13619     13624     13621     13619     13624     13625     13619     13624     13626
     13620     13619     13621     13620     13619     13624     13621     13619     13624
     13621     13624     13625     13621     13624     13626     13622     13621     13623
     13622     13621     13624     13623     13621     13624     13624     13626     13627
     13624     13626     13628     13624     13626     13629     13625     13624     13626
     13626     13629     13630     13626     13629     13631     13626     13629     13632
     13627     13626     13628     13627     13626     13629     13628     13626     13629
     13629     13632     13633     13629     13632     13634     13629     13632     13635
     13630     13629     13631     13630     13629     13632     13631     13629     13632
     13632     13635     13636     13632     13635     13637     13632     13635     13638
     13633     13632     13634     13633     13632     13635     13634     13632     13635
     13635     13638     13639     13635     13638     13640     13635     13638     13641
     13636     13635     13637     13636     13635     13638     13637     13635     13638
     13638     13641     13642     13638     13641     13643     13638     13641     13644
     13639     13638     13640     13639     13638     13641     13640     13638     13641
     13642     13641     13643     13642     13641     13644     13643     13641     13644
     13645     13648     13649     13645     13648     13650     13645     13648     13651
     13646     13645     13647     13646     13645     13648     13647     13645     13648
     13648     13651     13652     13648     13651     13653     13648     13651     13654
     13649     13648     13650     13649     13648     13651     13650     13648     13651
     13651     13654     13655     13651     13654     13656     13651     13654     13657
     13652     13651     13653     13652     13651     13654     13653     13651     13654
     13654     13657     13658     13654     13657     13659     13654     13657     13660
     13655     13654     13656     13655     13654     13657     13656     13654     13657
     13657     13660     13661     13657     13660     13662     13657     13660     13663
     13658     13657     13659     13658     13657     13660     13659     13657     13660
     13660     13663     13664     13660     13663     13665     13660     13663     13666
     13661     13660     13662     13661     13660     13663     13662     13660     13663
     13663     13666     13667     13663     13666     13668     13663     13666     13669
     13664     13663     13665     13664     13663     13666     13665     13663     13666
     13666     13669     13670     13666     13669     13671     13666     13669     13672
     13667     13666     13668     13667     13666     13669     13668     13666     13669
     13669     13672     13673     13669     13672     13674     13669     13672     13675
     13670     13669     13671     13670     13669     13672     13671     13669     13672
     13672     13675     13676     13672     13675     13677     13672     13675     13678
     13673     13672     13674     13673     13672     13675     13674     13672     13675
     13675     13678     13679     13675     13678     13680     13675     13678     13681
     13676     13675     13677     13676     13675     13678     13677     13675     13678
     13678     13681     13682     13678     13681     13683     13678     13681     13684
     13679     13678     13680     13679     13678     13681     13680     13678     13681
     13681     13684     13685     13681     13684     13686     13681     13684     13687
     13682     13681     13683     13682     13681     13684     13683     13681     13684
     13685     13684     13686     13685     13684     13687     13686     13684     13687
     13688     13692     13693     13688     13692     13694     13688     13692     13695
     13689     13688     13690     13689     13688     13691     13689     13688     13692
     13690     13688     13691     13690     13688     13692     13691     13688     13692
     13692     13695     13696     13692     13695     13697     13692     13695     13702
     13693     13692     13694     13693     13692     13695     13694     13692     13695
     13695     13702     13698     13696     13695     13697     13696     13695     13702
     13697     13695     13702     13698     13701     13703     13699     13698     13700
     13699     13698     13701     13699     13698     13702     13700     13698     13701
     13700     13698     13702     13701     13698     13702     13701     13703     13704
     13701     13703     13705     13701     13703     13706     13703     13706     13707
     13703     13706     13708     13703     13706     13714     13704     13703     13705
     13704     13703     13706     13705     13703     13706     13706     13708     13709
     13706     13714     13715     13706     13714     13716     13706     13714     13717
     13707     13706     13708     13707     13706     13714     13708     13706     13714
     13708     13709     13710     13708     13709     13711     13709     13711     13712
     13709     13711     13713     13709     13711     13723     13710     13709     13711
     13711     13723     13724     13711     13723     13725     13711     13723     13726
     13712     13711     13713     13712     13711     13723     13713     13711     13723
     13714     13717     13718     13715     13714     13716     13715     13714     13717
     13716     13714     13717     13717     13718     13719     13717     13718     13720
     13718     13720     13721     13718     13720     13722     13718     13720     13767
     13719     13718     13720     13720     13767     13768     13720     13767     13769
     13720     13767     13770     13721     13720     13722     13721     13720     13767
     13722     13720     13767     13723     13726     13727     13723     13726     13728
     13723     13726     13729     13724     13723     13725     13724     13723     13726
     13725     13723     13726     13726     13729     13730     13726     13729     13731
     13726     13729     13732     13727     13726     13728     13727     13726     13729
     13728     13726     13729     13729     13732     13733     13729     13732     13734
     13729     13732     13735     13730     13729     13731     13730     13729     13732
     13731     13729     13732     13732     13735     13736     13732     13735     13737
     13732     13735     13738     13733     13732     13734     13733     13732     13735
     13734     13732     13735     13735     13738     13739     13735     13738     13740
     13735     13738     13741     13736     13735     13737     13736     13735     13738
     13737     13735     13738     13738     13741     13742     13738     13741     13743
     13738     13741     13746     13739     13738     13740     13739     13738     13741
     13740     13738     13741     13741     13743     13744     13741     13743     13745
     13741     13743     13746     13741     13746     13743     13741     13746     13747
     13741     13746     13748     13742     13741     13743     13742     13741     13746
     13743     13741     13746     13743     13746     13747     13743     13746     13748
     13744     13743     13745     13744     13743     13746     13745     13743     13746
     13746     13748     13749     13746     13748     13750     13746     13748     13751
     13747     13746     13748     13748     13751     13752     13748     13751     13753
     13748     13751     13754     13749     13748     13750     13749     13748     13751
     13750     13748     13751     13751     13754     13755     13751     13754     13756
     13751     13754     13757     13752     13751     13753     13752     13751     13754
     13753     13751     13754     13754     13757     13758     13754     13757     13759
     13754     13757     13760     13755     13754     13756     13755     13754     13757
     13756     13754     13757     13757     13760     13761     13757     13760     13762
     13757     13760     13763     13758     13757     13759     13758     13757     13760
     13759     13757     13760     13760     13763     13764     13760     13763     13765
     13760     13763     13766     13761     13760     13762     13761     13760     13763
     13762     13760     13763     13764     13763     13765     13764     13763     13766
     13765     13763     13766     13767     13770     13771     13767     13770     13772
     13767     13770     13773     13768     13767     13769     13768     13767     13770
     13769     13767     13770     13770     13773     13774     13770     13773     13775
     13770     13773     13776     13771     13770     13772     13771     13770     13773
     13772     13770     13773     13773     13776     13777     13773     13776     13778
     13773     13776     13779     13774     13773     13775     13774     13773     13776
     13775     13773     13776     13776     13779     13780     13776     13779     13781
     13776     13779     13782     13777     13776     13778     13777     13776     13779
     13778     13776     13779     13779     13782     13783     13779     13782     13784
     13779     13782     13785     13780     13779     13781     13780     13779     13782
     13781     13779     13782     13782     13785     13786     13782     13785     13787
     13782     13785     13788     13783     13782     13784     13783     13782     13785
     13784     13782     13785     13785     13788     13789     13785     13788     13790
     13785     13788     13791     13786     13785     13787     13786     13785     13788
     13787     13785     13788     13788     13791     13792     13788     13791     13793
     13788     13791     13794     13789     13788     13790     13789     13788     13791
     13790     13788     13791     13791     13794     13795     13791     13794     13796
     13791     13794     13797     13792     13791     13793     13792     13791     13794
     13793     13791     13794     13794     13797     13798     13794     13797     13799
     13794     13797     13800     13795     13794     13796     13795     13794     13797
     13796     13794     13797     13797     13800     13801     13797     13800     13802
     13797     13800     13803     13798     13797     13799     13798     13797     13800
     13799     13797     13800     13800     13803     13804     13800     13803     13805
     13800     13803     13806     13801     13800     13802     13801     13800     13803
     13802     13800     13803     13804     13803     13805     13804     13803     13806
     13805     13803     13806     13807     13811     13812     13807     13811     13813
     13807     13811     13814     13808     13807     13809     13808     13807     13810
     13808     13807     13811     13809     13807     13810     13809     13807     13811
     13810     13807     13811     13811     13814     13815     13811     13814     13816
     13811     13814     13821     13812     13811     13813     13812     13811     13814
     13813     13811     13814     13814     13821     13817     13815     13814     13816
     13815     13814     13821     13816     13814     13821     13817     13820     13822
     13818     13817     13819     13818     13817     13820     13818     13817     13821
     13819     13817     13820     13819     13817     13821     13820     13817     13821
     13820     13822     13823     13820     13822     13824     13820     13822     13825
     13822     13825     13826     13822     13825     13827     13822     13825     13833
     13823     13822     13824     13823     13822     13825     13824     13822     13825
     13825     13827     13828     13825     13833     13834     13825     13833     13835
     13825     13833     13836     13826     13825     13827     13826     13825     13833
     13827     13825     13833     13827     13828     13829     13827     13828     13830
     13828     13830     13831     13828     13830     13832     13828     13830     13842
     13829     13828     13830     13830     13842     13843     13830     13842     13844
     13830     13842     13845     13831     13830     13832     13831     13830     13842
     13832     13830     13842     13833     13836     13837     13834     13833     13835
     13834     13833     13836     13835     13833     13836     13836     13837     13838
     13836     13837     13839     13837     13839     13840     13837     13839     13841
     13837     13839     13886     13838     13837     13839     13839     13886     13887
     13839     13886     13888     13839     13886     13889     13840     13839     13841
     13840     13839     13886     13841     13839     13886     13842     13845     13846
     13842     13845     13847     13842     13845     13848     13843     13842     13844
     13843     13842     13845     13844     13842     13845     13845     13848     13849
     13845     13848     13850     13845     13848     13851     13846     13845     13847
     13846     13845     13848     13847     13845     13848     13848     13851     13852
     13848     13851     13853     13848     13851     13854     13849     13848     13850
     13849     13848     13851     13850     13848     13851     13851     13854     13855
     13851     13854     13856     13851     13854     13857     13852     13851     13853
     13852     13851     13854     13853     13851     13854     13854     13857     13858
     13854     13857     13859     13854     13857     13860     13855     13854     13856
     13855     13854     13857     13856     13854     13857     13857     13860     13861
     13857     13860     13862     13857     13860     13865     13858     13857     13859
     13858     13857     13860     13859     13857     13860     13860     13862     13863
     13860     13862     13864     13860     13862     13865     13860     13865     13862
     13860     13865     13866     13860     13865     13867     13861     13860     13862
     13861     13860     13865     13862     13860     13865     13862     13865     13866
     13862     13865     13867     13863     13862     13864     13863     13862     13865
     13864     13862     13865     13865     13867     13868     13865     13867     13869
     13865     13867     13870     13866     13865     13867     13867     13870     13871
     13867     13870     13872     13867     13870     13873     13868     13867     13869
     13868     13867     13870     13869     13867     13870     13870     13873     13874
     13870     13873     13875     13870     13873     13876     13871     13870     13872
     13871     13870     13873     13872     13870     13873     13873     13876     13877
     13873     13876     13878     13873     13876     13879     13874     13873     13875
     13874     13873     13876     13875     13873     13876     13876     13879     13880
     13876     13879     13881     13876     13879     13882     13877     13876     13878
     13877     13876     13879     13878     13876     13879     13879     13882     13883
     13879     13882     13884     13879     13882     13885     13880     13879     13881
     13880     13879     13882     13881     13879     13882     13883     13882     13884
     13883     13882     13885     13884     13882     13885     13886     13889     13890
     13886     13889     13891     13886     13889     13892     13887     13886     13888
     13887     13886     13889     13888     13886     13889     13889     13892     13893
     13889     13892     13894     13889     13892     13895     13890     13889     13891
     13890     13889     13892     13891     13889     13892     13892     13895     13896
     13892     13895     13897     13892     13895     13898     13893     13892     13894
     13893     13892     13895     13894     13892     13895     13895     13898     13899
     13895     13898     13900     13895     13898     13901     13896     13895     13897
     13896     13895     13898     13897     13895     13898     13898     13901     13902
     13898     13901     13903     13898     13901     13904     13899     13898     13900
     13899     13898     13901     13900     13898     13901     13901     13904     13905
     13901     13904     13906     13901     13904     13907     13902     13901     13903
     13902     13901     13904     13903     13901     13904     13904     13907     13908
     13904     13907     13909     13904     13907     13910     13905     13904     13906
     13905     13904     13907     13906     13904     13907     13907     13910     13911
     13907     13910     13912     13907     13910     13913     13908     13907     13909
     13908     13907     13910     13909     13907     13910     13910     13913     13914
     13910     13913     13915     13910     13913     13916     13911     13910     13912
     13911     13910     13913     13912     13910     13913     13913     13916     13917
     13913     13916     13918     13913     13916     13919     13914     13913     13915
     13914     13913     13916     13915     13913     13916     13916     13919     13920
     13916     13919     13921     13916     13919     13922     13917     13916     13918
     13917     13916     13919     13918     13916     13919     13919     13922     13923
     13919     13922     13924     13919     13922     13925     13920     13919     13921
     13920     13919     13922     13921     13919     13922     13922     13925     13926
     13922     13925     13927     13922     13925     13928     13923     13922     13924
     13923     13922     13925     13924     13922     13925     13926     13925     13927
     13926     13925     13928     13927     13925     13928     13929     13933     13934
     13929     13933     13935     13929     13933     13936     13930     13929     13931
     13930     13929     13932     13930     13929     13933     13931     13929     13932
     13931     13929     13933     13932     13929     13933     13933     13936     13937
     13933     13936     13938     13933     13936     13943     13934     13933     13935
     13934     13933     13936     13935     13933     13936     13936     13943     13939
     13937     13936     13938     13937     13936     13943     13938     13936     13943
     13939     13942     13944     13940     13939     13941     13940     13939     13942
     13940     13939     13943     13941     13939     13942     13941     13939     13943
     13942     13939     13943     13942     13944     13945     13942     13944     13946
     13942     13944     13947     13944     13947     13948     13944     13947     13949
     13944     13947     13955     13945     13944     13946     13945     13944     13947
     13946     13944     13947     13947     13949     13950     13947     13955     13956
     13947     13955     13957     13947     13955     13958     13948     13947     13949
     13948     13947     13955     13949     13947     13955     13949     13950     13951
     13949     13950     13952     13950     13952     13953     13950     13952     13954
     13950     13952     13964     13951     13950     13952     13952     13964     13965
     13952     13964     13966     13952     13964     13967     13953     13952     13954
     13953     13952     13964     13954     13952     13964     13955     13958     13959
     13956     13955     13957     13956     13955     13958     13957     13955     13958
     13958     13959     13960     13958     13959     13961     13959     13961     13962
     13959     13961     13963     13959     13961     14008     13960     13959     13961
     13961     14008     14009     13961     14008     14010     13961     14008     14011
     13962     13961     13963     13962     13961     14008     13963     13961     14008
     13964     13967     13968     13964     13967     13969     13964     13967     13970
     13965     13964     13966     13965     13964     13967     13966     13964     13967
     13967     13970     13971     13967     13970     13972     13967     13970     13973
     13968     13967     13969     13968     13967     13970     13969     13967     13970
     13970     13973     13974     13970     13973     13975     13970     13973     13976
     13971     13970     13972     13971     13970     13973     13972     13970     13973
     13973     13976     13977     13973     13976     13978     13973     13976     13979
     13974     13973     13975     13974     13973     13976     13975     13973     13976
     13976     13979     13980     13976     13979     13981     13976     13979     13982
     13977     13976     13978     13977     13976     13979     13978     13976     13979
     13979     13982     13983     13979     13982     13984     13979     13982     13987
     13980     13979     13981     13980     13979     13982     13981     13979     13982
     13982     13984     13985     13982     13984     13986     13982     13984     13987
     13982     13987     13984     13982     13987     13988     13982     13987     13989
     13983     13982     13984     13983     13982     13987     13984     13982     13987
     13984     13987     13988     13984     13987     13989     13985     13984     13986
     13985     13984     13987     13986     13984     13987     13987     13989     13990
     13987     13989     13991     13987     13989     13992     13988     13987     13989
     13989     13992     13993     13989     13992     13994     13989     13992     13995
     13990     13989     13991     13990     13989     13992     13991     13989     13992
     13992     13995     13996     13992     13995     13997     13992     13995     13998
     13993     13992     13994     13993     13992     13995     13994     13992     13995
     13995     13998     13999     13995     13998     14000     13995     13998     14001
     13996     13995     13997     13996     13995     13998     13997     13995     13998
     13998     14001     14002     13998     14001     14003     13998     14001     14004
     13999     13998     14000     13999     13998     14001     14000     13998     14001
     14001     14004     14005     14001     14004     14006     14001     14004     14007
     14002     14001     14003     14002     14001     14004     14003     14001     14004
     14005     14004     14006     14005     14004     14007     14006     14004     14007
     14008     14011     14012     14008     14011     14013     14008     14011     14014
     14009     14008     14010     14009     14008     14011     14010     14008     14011
     14011     14014     14015     14011     14014     14016     14011     14014     14017
     14012     14011     14013     14012     14011     14014     14013     14011     14014
     14014     14017     14018     14014     14017     14019     14014     14017     14020
     14015     14014     14016     14015     14014     14017     14016     14014     14017
     14017     14020     14021     14017     14020     14022     14017     14020     14023
     14018     14017     14019     14018     14017     14020     14019     14017     14020
     14020     14023     14024     14020     14023     14025     14020     14023     14026
     14021     14020     14022     14021     14020     14023     14022     14020     14023
     14023     14026     14027     14023     14026     14028     14023     14026     14029
     14024     14023     14025     14024     14023     14026     14025     14023     14026
     14026     14029     14030     14026     14029     14031     14026     14029     14032
     14027     14026     14028     14027     14026     14029     14028     14026     14029
     14029     14032     14033     14029     14032     14034     14029     14032     14035
     14030     14029     14031     14030     14029     14032     14031     14029     14032
     14032     14035     14036     14032     14035     14037     14032     14035     14038
     14033     14032     14034     14033     14032     14035     14034     14032     14035
     14035     14038     14039     14035     14038     14040     14035     14038     14041
     14036     14035     14037     14036     14035     14038     14037     14035     14038
     14038     14041     14042     14038     14041     14043     14038     14041     14044
     14039     14038     14040     14039     14038     14041     14040     14038     14041
     14041     14044     14045     14041     14044     14046     14041     14044     14047
     14042     14041     14043     14042     14041     14044     14043     14041     14044
     14044     14047     14048     14044     14047     14049     14044     14047     14050
     14045     14044     14046     14045     14044     14047     14046     14044     14047
     14048     14047     14049     14048     14047     14050     14049     14047     14050
     14051     14057     14054     14051     14062     14063     14051     14062     14064
     14051     14062     14066     14052     14051     14053     14052     14051     14057
     14052     14051     14062     14053     14051     14057     14053     14051     14062
     14054     14058     14059     14055     14054     14056     14055     14054     14057
     14055     14054     14058     14056     14054     14057     14056     14054     14058
     14057     14051     14062     14057     14054     14058     14058     14059     14060
     14058     14059     14061     14058     14059     14094     14059     14094     14095
     14059     14094     14096     14059     14094     14102     14060     14059     14061
     14060     14059     14094     14061     14059     14094     14062     14064     14065
     14062     14066     14067     14062     14066     14068     14062     14066     14072
     14063     14062     14064     14063     14062     14066     14064     14062     14066
     14066     14072     14069     14067     14066     14068     14067     14066     14072
     14068     14066     14072     14069     14073     14074     14070     14069     14071
     14070     14069     14072     14070     14069     14073     14071     14069     14072
     14071     14069     14073     14072     14069     14073     14073     14074     14075
     14073     14074     14076     14073     14074     14077     14074     14077     14078
     14074     14077     14079     14074     14077     14085     14075     14074     14076
     14075     14074     14077     14076     14074     14077     14077     14079     14080
     14077     14085     14086     14077     14085     14087     14077     14085     14088
     14078     14077     14079     14078     14077     14085     14079     14077     14085
     14079     14080     14081     14079     14080     14082     14080     14082     14083
     14080     14082     14084     14080     14082     14111     14081     14080     14082
     14082     14111     14112     14082     14111     14113     14082     14111     14114
     14083     14082     14084     14083     14082     14111     14084     14082     14111
     14085     14088     14089     14086     14085     14087     14086     14085     14088
     14087     14085     14088     14088     14089     14090     14088     14089     14091
     14089     14091     14092     14089     14091     14093     14089     14091     14158
     14090     14089     14091     14091     14158     14159     14091     14158     14160
     14091     14158     14161     14092     14091     14093     14092     14091     14158
     14093     14091     14158     14094     14096     14097     14094     14102     14103
     14094     14102     14104     14094     14102     14105     14095     14094     14096
     14095     14094     14102     14096     14094     14102     14096     14097     14098
     14096     14097     14099     14097     14099     14100     14097     14099     14101
     14097     14099     14201     14098     14097     14099     14099     14201     14202
     14099     14201     14203     14099     14201     14204     14100     14099     14101
     14100     14099     14201     14101     14099     14201     14102     14105     14106
     14103     14102     14104     14103     14102     14105     14104     14102     14105
     14105     14106     14107     14105     14106     14108     14106     14108     14109
     14106     14108     14110     14106     14108     14248     14107     14106     14108
     14108     14248     14249     14108     14248     14250     14108     14248     14251
     14109     14108     14110     14109     14108     14248     14110     14108     14248
     14111     14114     14115     14111     14114     14116     14111     14114     14117
     14112     14111     14113     14112     14111     14114     14113     14111     14114
     14114     14117     14118     14114     14117     14119     14114     14117     14120
     14115     14114     14116     14115     14114     14117     14116     14114     14117
     14117     14120     14121     14117     14120     14122     14117     14120     14123
     14118     14117     14119     14118     14117     14120     14119     14117     14120
     14120     14123     14124     14120     14123     14125     14120     14123     14126
     14121     14120     14122     14121     14120     14123     14122     14120     14123
     14123     14126     14127     14123     14126     14128     14123     14126     14129
     14124     14123     14125     14124     14123     14126     14125     14123     14126
     14126     14129     14130     14126     14129     14131     14126     14129     14132
     14127     14126     14128     14127     14126     14129     14128     14126     14129
     14129     14132     14133     14129     14132     14134     14129     14132     14135
     14130     14129     14131     14130     14129     14132     14131     14129     14132
     14132     14135     14136     14132     14135     14137     14133     14132     14134
     14133     14132     14135     14134     14132     14135     14135     14137     14138
     14135     14137     14139     14136     14135     14137     14137     14139     14140
     14137     14139     14141     14137     14139     14142     14138     14137     14139
     14139     14142     14143     14139     14142     14144     14139     14142     14145
     14140     14139     14141     14140     14139     14142     14141     14139     14142
     14142     14145     14146     14142     14145     14147     14142     14145     14148
     14143     14142     14144     14143     14142     14145     14144     14142     14145
     14145     14148     14149     14145     14148     14150     14145     14148     14151
     14146     14145     14147     14146     14145     14148     14147     14145     14148
     14148     14151     14152     14148     14151     14153     14148     14151     14154
     14149     14148     14150     14149     14148     14151     14150     14148     14151
     14151     14154     14155     14151     14154     14156     14151     14154     14157
     14152     14151     14153     14152     14151     14154     14153     14151     14154
     14155     14154     14156     14155     14154     14157     14156     14154     14157
     14158     14161     14162     14158     14161     14163     14158     14161     14164
     14159     14158     14160     14159     14158     14161     14160     14158     14161
     14161     14164     14165     14161     14164     14166     14161     14164     14167
     14162     14161     14163     14162     14161     14164     14163     14161     14164
     14164     14167     14168     14164     14167     14169     14164     14167     14170
     14165     14164     14166     14165     14164     14167     14166     14164     14167
     14167     14170     14171     14167     14170     14172     14167     14170     14173
     14168     14167     14169     14168     14167     14170     14169     14167     14170
     14170     14173     14174     14170     14173     14175     14170     14173     14176
     14171     14170     14172     14171     14170     14173     14172     14170     14173
     14173     14176     14177     14173     14176     14178     14173     14176     14179
     14174     14173     14175     14174     14173     14176     14175     14173     14176
     14176     14179     14180     14176     14179     14181     14176     14179     14182
     14177     14176     14178     14177     14176     14179     14178     14176     14179
     14179     14182     14183     14179     14182     14184     14179     14182     14185
     14180     14179     14181     14180     14179     14182     14181     14179     14182
     14182     14185     14186     14182     14185     14187     14182     14185     14188
     14183     14182     14184     14183     14182     14185     14184     14182     14185
     14185     14188     14189     14185     14188     14190     14185     14188     14191
     14186     14185     14187     14186     14185     14188     14187     14185     14188
     14188     14191     14192     14188     14191     14193     14188     14191     14194
     14189     14188     14190     14189     14188     14191     14190     14188     14191
     14191     14194     14195     14191     14194     14196     14191     14194     14197
     14192     14191     14193     14192     14191     14194     14193     14191     14194
     14194     14197     14198     14194     14197     14199     14194     14197     14200
     14195     14194     14196     14195     14194     14197     14196     14194     14197
     14198     14197     14199     14198     14197     14200     14199     14197     14200
     14201     14204     14205     14201     14204     14206     14201     14204     14207
     14202     14201     14203     14202     14201     14204     14203     14201     14204
     14204     14207     14208     14204     14207     14209     14204     14207     14210
     14205     14204     14206     14205     14204     14207     14206     14204     14207
     14207     14210     14211     14207     14210     14212     14207     14210     14213
     14208     14207     14209     14208     14207     14210     14209     14207     14210
     14210     14213     14214     14210     14213     14215     14210     14213     14216
     14211     14210     14212     14211     14210     14213     14212     14210     14213
     14213     14216     14217     14213     14216     14218     14213     14216     14219
     14214     14213     14215     14214     14213     14216     14215     14213     14216
     14216     14219     14220     14216     14219     14221     14216     14219     14222
     14217     14216     14218     14217     14216     14219     14218     14216     14219
     14219     14222     14223     14219     14222     14224     14219     14222     14225
     14220     14219     14221     14220     14219     14222     14221     14219     14222
     14222     14225     14226     14222     14225     14227     14223     14222     14224
     14223     14222     14225     14224     14222     14225     14225     14227     14228
     14225     14227     14229     14226     14225     14227     14227     14229     14230
     14227     14229     14231     14227     14229     14232     14228     14227     14229
     14229     14232     14233     14229     14232     14234     14229     14232     14235
     14230     14229     14231     14230     14229     14232     14231     14229     14232
     14232     14235     14236     14232     14235     14237     14232     14235     14238
     14233     14232     14234     14233     14232     14235     14234     14232     14235
     14235     14238     14239     14235     14238     14240     14235     14238     14241
     14236     14235     14237     14236     14235     14238     14237     14235     14238
     14238     14241     14242     14238     14241     14243     14238     14241     14244
     14239     14238     14240     14239     14238     14241     14240     14238     14241
     14241     14244     14245     14241     14244     14246     14241     14244     14247
     14242     14241     14243     14242     14241     14244     14243     14241     14244
     14245     14244     14246     14245     14244     14247     14246     14244     14247
     14248     14251     14252     14248     14251     14253     14248     14251     14254
     14249     14248     14250     14249     14248     14251     14250     14248     14251
     14251     14254     14255     14251     14254     14256     14251     14254     14257
     14252     14251     14253     14252     14251     14254     14253     14251     14254
     14254     14257     14258     14254     14257     14259     14254     14257     14260
     14255     14254     14256     14255     14254     14257     14256     14254     14257
     14257     14260     14261     14257     14260     14262     14257     14260     14263
     14258     14257     14259     14258     14257     14260     14259     14257     14260
     14260     14263     14264     14260     14263     14265     14260     14263     14266
     14261     14260     14262     14261     14260     14263     14262     14260     14263
     14263     14266     14267     14263     14266     14268     14263     14266     14269
     14264     14263     14265     14264     14263     14266     14265     14263     14266
     14266     14269     14270     14266     14269     14271     14266     14269     14272
     14267     14266     14268     14267     14266     14269     14268     14266     14269
     14269     14272     14273     14269     14272     14274     14269     14272     14275
     14270     14269     14271     14270     14269     14272     14271     14269     14272
     14272     14275     14276     14272     14275     14277     14272     14275     14278
     14273     14272     14274     14273     14272     14275     14274     14272     14275
     14275     14278     14279     14275     14278     14280     14275     14278     14281
     14276     14275     14277     14276     14275     14278     14277     14275     14278
     14278     14281     14282     14278     14281     14283     14278     14281     14284
     14279     14278     14280     14279     14278     14281     14280     14278     14281
     14281     14284     14285     14281     14284     14286     14281     14284     14287
     14282     14281     14283     14282     14281     14284     14283     14281     14284
     14284     14287     14288     14284     14287     14289     14284     14287     14290
     14285     14284     14286     14285     14284     14287     14286     14284     14287
     14288     14287     14289     14288     14287     14290     14289     14287     14290
     14291     14294     14295     14291     14296     14297     14291     14296     14298
     14291     14296     14300     14292     14291     14293     14292     14291     14294
     14292     14291     14296     14293     14291     14294     14293     14291     14296
     14294     14291     14296     14296     14298     14299     14296     14300     14301
     14296     14300     14302     14296     14300     14307     14297     14296     14298
     14297     14296     14300     14298     14296     14300     14300     14307     14303
     14301     14300     14302     14301     14300     14307     14302     14300     14307
     14303     14306     14308     14304     14303     14305     14304     14303     14306
     14304     14303     14307     14305     14303     14306     14305     14303     14307
     14306     14303     14307     14306     14308     14309     14306     14308     14310
     14306     14308     14311     14308     14311     14312     14308     14311     14313
     14308     14311     14319     14309     14308     14310     14309     14308     14311
     14310     14308     14311     14311     14313     14314     14311     14319     14320
     14311     14319     14321     14311     14319     14322     14312     14311     14313
     14312     14311     14319     14313     14311     14319     14313     14314     14315
     14313     14314     14316     14314     14316     14317     14314     14316     14318
     14314     14316     14328     14315     14314     14316     14316     14328     14329
     14316     14328     14330     14316     14328     14331     14317     14316     14318
     14317     14316     14328     14318     14316     14328     14319     14322     14323
     14320     14319     14321     14320     14319     14322     14321     14319     14322
     14322     14323     14324     14322     14323     14325     14323     14325     14326
     14323     14325     14327     14323     14325     14372     14324     14323     14325
     14325     14372     14373     14325     14372     14374     14325     14372     14375
     14326     14325     14327     14326     14325     14372     14327     14325     14372
     14328     14331     14332     14328     14331     14333     14328     14331     14334
     14329     14328     14330     14329     14328     14331     14330     14328     14331
     14331     14334     14335     14331     14334     14336     14331     14334     14337
     14332     14331     14333     14332     14331     14334     14333     14331     14334
     14334     14337     14338     14334     14337     14339     14334     14337     14340
     14335     14334     14336     14335     14334     14337     14336     14334     14337
     14337     14340     14341     14337     14340     14342     14337     14340     14343
     14338     14337     14339     14338     14337     14340     14339     14337     14340
     14340     14343     14344     14340     14343     14345     14340     14343     14346
     14341     14340     14342     14341     14340     14343     14342     14340     14343
     14343     14346     14347     14343     14346     14348     14343     14346     14351
     14344     14343     14345     14344     14343     14346     14345     14343     14346
     14346     14348     14349     14346     14348     14350     14346     14348     14351
     14346     14351     14348     14346     14351     14352     14346     14351     14353
     14347     14346     14348     14347     14346     14351     14348     14346     14351
     14348     14351     14352     14348     14351     14353     14349     14348     14350
     14349     14348     14351     14350     14348     14351     14351     14353     14354
     14351     14353     14355     14351     14353     14356     14352     14351     14353
     14353     14356     14357     14353     14356     14358     14353     14356     14359
     14354     14353     14355     14354     14353     14356     14355     14353     14356
     14356     14359     14360     14356     14359     14361     14356     14359     14362
     14357     14356     14358     14357     14356     14359     14358     14356     14359
     14359     14362     14363     14359     14362     14364     14359     14362     14365
     14360     14359     14361     14360     14359     14362     14361     14359     14362
     14362     14365     14366     14362     14365     14367     14362     14365     14368
     14363     14362     14364     14363     14362     14365     14364     14362     14365
     14365     14368     14369     14365     14368     14370     14365     14368     14371
     14366     14365     14367     14366     14365     14368     14367     14365     14368
     14369     14368     14370     14369     14368     14371     14370     14368     14371
     14372     14375     14376     14372     14375     14377     14372     14375     14378
     14373     14372     14374     14373     14372     14375     14374     14372     14375
     14375     14378     14379     14375     14378     14380     14375     14378     14381
     14376     14375     14377     14376     14375     14378     14377     14375     14378
     14378     14381     14382     14378     14381     14383     14378     14381     14384
     14379     14378     14380     14379     14378     14381     14380     14378     14381
     14381     14384     14385     14381     14384     14386     14381     14384     14387
     14382     14381     14383     14382     14381     14384     14383     14381     14384
     14384     14387     14388     14384     14387     14389     14384     14387     14390
     14385     14384     14386     14385     14384     14387     14386     14384     14387
     14387     14390     14391     14387     14390     14392     14387     14390     14393
     14388     14387     14389     14388     14387     14390     14389     14387     14390
     14390     14393     14394     14390     14393     14395     14390     14393     14396
     14391     14390     14392     14391     14390     14393     14392     14390     14393
     14393     14396     14397     14393     14396     14398     14393     14396     14399
     14394     14393     14395     14394     14393     14396     14395     14393     14396
     14396     14399     14400     14396     14399     14401     14396     14399     14402
     14397     14396     14398     14397     14396     14399     14398     14396     14399
     14399     14402     14403     14399     14402     14404     14399     14402     14405
     14400     14399     14401     14400     14399     14402     14401     14399     14402
     14402     14405     14406     14402     14405     14407     14402     14405     14408
     14403     14402     14404     14403     14402     14405     14404     14402     14405
     14405     14408     14409     14405     14408     14410     14405     14408     14411
     14406     14405     14407     14406     14405     14408     14407     14405     14408
     14408     14411     14412     14408     14411     14413     14408     14411     14414
     14409     14408     14410     14409     14408     14411     14410     14408     14411
     14412     14411     14413     14412     14411     14414     14413     14411     14414
     14415     14421     14418     14415     14426     14427     14415     14426     14428
     14415     14426     14430     14416     14415     14417     14416     14415     14421
     14416     14415     14426     14417     14415     14421     14417     14415     14426
     14418     14422     14423     14419     14418     14420     14419     14418     14421
     14419     14418     14422     14420     14418     14421     14420     14418     14422
     14421     14415     14426     14421     14418     14422     14422     14423     14424
     14422     14423     14425     14422     14423     14458     14423     14458     14459
     14423     14458     14460     14423     14458     14466     14424     14423     14425
     14424     14423     14458     14425     14423     14458     14426     14428     14429
     14426     14430     14431     14426     14430     14432     14426     14430     14436
     14427     14426     14428     14427     14426     14430     14428     14426     14430
     14430     14436     14433     14431     14430     14432     14431     14430     14436
     14432     14430     14436     14433     14437     14438     14434     14433     14435
     14434     14433     14436     14434     14433     14437     14435     14433     14436
     14435     14433     14437     14436     14433     14437     14437     14438     14439
     14437     14438     14440     14437     14438     14441     14438     14441     14442
     14438     14441     14443     14438     14441     14449     14439     14438     14440
     14439     14438     14441     14440     14438     14441     14441     14443     14444
     14441     14449     14450     14441     14449     14451     14441     14449     14452
     14442     14441     14443     14442     14441     14449     14443     14441     14449
     14443     14444     14445     14443     14444     14446     14444     14446     14447
     14444     14446     14448     14444     14446     14475     14445     14444     14446
     14446     14475     14476     14446     14475     14477     14446     14475     14478
     14447     14446     14448     14447     14446     14475     14448     14446     14475
     14449     14452     14453     14450     14449     14451     14450     14449     14452
     14451     14449     14452     14452     14453     14454     14452     14453     14455
     14453     14455     14456     14453     14455     14457     14453     14455     14522
     14454     14453     14455     14455     14522     14523     14455     14522     14524
     14455     14522     14525     14456     14455     14457     14456     14455     14522
     14457     14455     14522     14458     14460     14461     14458     14466     14467
     14458     14466     14468     14458     14466     14469     14459     14458     14460
     14459     14458     14466     14460     14458     14466     14460     14461     14462
     14460     14461     14463     14461     14463     14464     14461     14463     14465
     14461     14463     14565     14462     14461     14463     14463     14565     14566
     14463     14565     14567     14463     14565     14568     14464     14463     14465
     14464     14463     14565     14465     14463     14565     14466     14469     14470
     14467     14466     14468     14467     14466     14469     14468     14466     14469
     14469     14470     14471     14469     14470     14472     14470     14472     14473
     14470     14472     14474     14470     14472     14612     14471     14470     14472
     14472     14612     14613     14472     14612     14614     14472     14612     14615
     14473     14472     14474     14473     14472     14612     14474     14472     14612
     14475     14478     14479     14475     14478     14480     14475     14478     14481
     14476     14475     14477     14476     14475     14478     14477     14475     14478
     14478     14481     14482     14478     14481     14483     14478     14481     14484
     14479     14478     14480     14479     14478     14481     14480     14478     14481
     14481     14484     14485     14481     14484     14486     14481     14484     14487
     14482     14481     14483     14482     14481     14484     14483     14481     14484
     14484     14487     14488     14484     14487     14489     14484     14487     14490
     14485     14484     14486     14485     14484     14487     14486     14484     14487
     14487     14490     14491     14487     14490     14492     14487     14490     14493
     14488     14487     14489     14488     14487     14490     14489     14487     14490
     14490     14493     14494     14490     14493     14495     14490     14493     14496
     14491     14490     14492     14491     14490     14493     14492     14490     14493
     14493     14496     14497     14493     14496     14498     14493     14496     14499
     14494     14493     14495     14494     14493     14496     14495     14493     14496
     14496     14499     14500     14496     14499     14501     14497     14496     14498
     14497     14496     14499     14498     14496     14499     14499     14501     14502
     14499     14501     14503     14500     14499     14501     14501     14503     14504
     14501     14503     14505     14501     14503     14506     14502     14501     14503
     14503     14506     14507     14503     14506     14508     14503     14506     14509
     14504     14503     14505     14504     14503     14506     14505     14503     14506
     14506     14509     14510     14506     14509     14511     14506     14509     14512
     14507     14506     14508     14507     14506     14509     14508     14506     14509
     14509     14512     14513     14509     14512     14514     14509     14512     14515
     14510     14509     14511     14510     14509     14512     14511     14509     14512
     14512     14515     14516     14512     14515     14517     14512     14515     14518
     14513     14512     14514     14513     14512     14515     14514     14512     14515
     14515     14518     14519     14515     14518     14520     14515     14518     14521
     14516     14515     14517     14516     14515     14518     14517     14515     14518
     14519     14518     14520     14519     14518     14521     14520     14518     14521
     14522     14525     14526     14522     14525     14527     14522     14525     14528
     14523     14522     14524     14523     14522     14525     14524     14522     14525
     14525     14528     14529     14525     14528     14530     14525     14528     14531
     14526     14525     14527     14526     14525     14528     14527     14525     14528
     14528     14531     14532     14528     14531     14533     14528     14531     14534
     14529     14528     14530     14529     14528     14531     14530     14528     14531
     14531     14534     14535     14531     14534     14536     14531     14534     14537
     14532     14531     14533     14532     14531     14534     14533     14531     14534
     14534     14537     14538     14534     14537     14539     14534     14537     14540
     14535     14534     14536     14535     14534     14537     14536     14534     14537
     14537     14540     14541     14537     14540     14542     14537     14540     14543
     14538     14537     14539     14538     14537     14540     14539     14537     14540
     14540     14543     14544     14540     14543     14545     14540     14543     14546
     14541     14540     14542     14541     14540     14543     14542     14540     14543
     14543     14546     14547     14543     14546     14548     14543     14546     14549
     14544     14543     14545     14544     14543     14546     14545     14543     14546
     14546     14549     14550     14546     14549     14551     14546     14549     14552
     14547     14546     14548     14547     14546     14549     14548     14546     14549
     14549     14552     14553     14549     14552     14554     14549     14552     14555
     14550     14549     14551     14550     14549     14552     14551     14549     14552
     14552     14555     14556     14552     14555     14557     14552     14555     14558
     14553     14552     14554     14553     14552     14555     14554     14552     14555
     14555     14558     14559     14555     14558     14560     14555     14558     14561
     14556     14555     14557     14556     14555     14558     14557     14555     14558
     14558     14561     14562     14558     14561     14563     14558     14561     14564
     14559     14558     14560     14559     14558     14561     14560     14558     14561
     14562     14561     14563     14562     14561     14564     14563     14561     14564
     14565     14568     14569     14565     14568     14570     14565     14568     14571
     14566     14565     14567     14566     14565     14568     14567     14565     14568
     14568     14571     14572     14568     14571     14573     14568     14571     14574
     14569     14568     14570     14569     14568     14571     14570     14568     14571
     14571     14574     14575     14571     14574     14576     14571     14574     14577
     14572     14571     14573     14572     14571     14574     14573     14571     14574
     14574     14577     14578     14574     14577     14579     14574     14577     14580
     14575     14574     14576     14575     14574     14577     14576     14574     14577
     14577     14580     14581     14577     14580     14582     14577     14580     14583
     14578     14577     14579     14578     14577     14580     14579     14577     14580
     14580     14583     14584     14580     14583     14585     14580     14583     14586
     14581     14580     14582     14581     14580     14583     14582     14580     14583
     14583     14586     14587     14583     14586     14588     14583     14586     14589
     14584     14583     14585     14584     14583     14586     14585     14583     14586
     14586     14589     14590     14586     14589     14591     14587     14586     14588
     14587     14586     14589     14588     14586     14589     14589     14591     14592
     14589     14591     14593     14590     14589     14591     14591     14593     14594
     14591     14593     14595     14591     14593     14596     14592     14591     14593
     14593     14596     14597     14593     14596     14598     14593     14596     14599
     14594     14593     14595     14594     14593     14596     14595     14593     14596
     14596     14599     14600     14596     14599     14601     14596     14599     14602
     14597     14596     14598     14597     14596     14599     14598     14596     14599
     14599     14602     14603     14599     14602     14604     14599     14602     14605
     14600     14599     14601     14600     14599     14602     14601     14599     14602
     14602     14605     14606     14602     14605     14607     14602     14605     14608
     14603     14602     14604     14603     14602     14605     14604     14602     14605
     14605     14608     14609     14605     14608     14610     14605     14608     14611
     14606     14605     14607     14606     14605     14608     14607     14605     14608
     14609     14608     14610     14609     14608     14611     14610     14608     14611
     14612     14615     14616     14612     14615     14617     14612     14615     14618
     14613     14612     14614     14613     14612     14615     14614     14612     14615
     14615     14618     14619     14615     14618     14620     14615     14618     14621
     14616     14615     14617     14616     14615     14618     14617     14615     14618
     14618     14621     14622     14618     14621     14623     14618     14621     14624
     14619     14618     14620     14619     14618     14621     14620     14618     14621
     14621     14624     14625     14621     14624     14626     14621     14624     14627
     14622     14621     14623     14622     14621     14624     14623     14621     14624
     14624     14627     14628     14624     14627     14629     14624     14627     14630
     14625     14624     14626     14625     14624     14627     14626     14624     14627
     14627     14630     14631     14627     14630     14632     14627     14630     14633
     14628     14627     14629     14628     14627     14630     14629     14627     14630
     14630     14633     14634     14630     14633     14635     14630     14633     14636
     14631     14630     14632     14631     14630     14633     14632     14630     14633
     14633     14636     14637     14633     14636     14638     14633     14636     14639
     14634     14633     14635     14634     14633     14636     14635     14633     14636
     14636     14639     14640     14636     14639     14641     14636     14639     14642
     14637     14636     14638     14637     14636     14639     14638     14636     14639
     14639     14642     14643     14639     14642     14644     14639     14642     14645
     14640     14639     14641     14640     14639     14642     14641     14639     14642
     14642     14645     14646     14642     14645     14647     14642     14645     14648
     14643     14642     14644     14643     14642     14645     14644     14642     14645
     14645     14648     14649     14645     14648     14650     14645     14648     14651
     14646     14645     14647     14646     14645     14648     14647     14645     14648
     14648     14651     14652     14648     14651     14653     14648     14651     14654
     14649     14648     14650     14649     14648     14651     14650     14648     14651
     14652     14651     14653     14652     14651     14654     14653     14651     14654
     14655     14659     14660     14655     14659     14661     14655     14659     14662
     14656     14655     14657     14656     14655     14658     14656     14655     14659
     14657     14655     14658     14657     14655     14659     14658     14655     14659
     14659     14662     14663     14659     14662     14664     14659     14662     14669
     14660     14659     14661     14660     14659     14662     14661     14659     14662
     14662     14669     14665     14663     14662     14664     14663     14662     14669
     14664     14662     14669     14665     14668     14670     14666     14665     14667
     14666     14665     14668     14666     14665     14669     14667     14665     14668
     14667     14665     14669     14668     14665     14669     14668     14670     14671
     14668     14670     14672     14668     14670     14673     14670     14673     14674
     14670     14673     14675     14670     14673     14681     14671     14670     14672
     14671     14670     14673     14672     14670     14673     14673     14675     14676
     14673     14681     14682     14673     14681     14683     14673     14681     14684
     14674     14673     14675     14674     14673     14681     14675     14673     14681
     14675     14676     14677     14675     14676     14678     14676     14678     14679
     14676     14678     14680     14676     14678     14690     14677     14676     14678
     14678     14690     14691     14678     14690     14692     14678     14690     14693
     14679     14678     14680     14679     14678     14690     14680     14678     14690
     14681     14684     14685     14682     14681     14683     14682     14681     14684
     14683     14681     14684     14684     14685     14686     14684     14685     14687
     14685     14687     14688     14685     14687     14689     14685     14687     14734
     14686     14685     14687     14687     14734     14735     14687     14734     14736
     14687     14734     14737     14688     14687     14689     14688     14687     14734
     14689     14687     14734     14690     14693     14694     14690     14693     14695
     14690     14693     14696     14691     14690     14692     14691     14690     14693
     14692     14690     14693     14693     14696     14697     14693     14696     14698
     14693     14696     14699     14694     14693     14695     14694     14693     14696
     14695     14693     14696     14696     14699     14700     14696     14699     14701
     14696     14699     14702     14697     14696     14698     14697     14696     14699
     14698     14696     14699     14699     14702     14703     14699     14702     14704
     14699     14702     14705     14700     14699     14701     14700     14699     14702
     14701     14699     14702     14702     14705     14706     14702     14705     14707
     14702     14705     14708     14703     14702     14704     14703     14702     14705
     14704     14702     14705     14705     14708     14709     14705     14708     14710
     14705     14708     14713     14706     14705     14707     14706     14705     14708
     14707     14705     14708     14708     14710     14711     14708     14710     14712
     14708     14710     14713     14708     14713     14710     14708     14713     14714
     14708     14713     14715     14709     14708     14710     14709     14708     14713
     14710     14708     14713     14710     14713     14714     14710     14713     14715
     14711     14710     14712     14711     14710     14713     14712     14710     14713
     14713     14715     14716     14713     14715     14717     14713     14715     14718
     14714     14713     14715     14715     14718     14719     14715     14718     14720
     14715     14718     14721     14716     14715     14717     14716     14715     14718
     14717     14715     14718     14718     14721     14722     14718     14721     14723
     14718     14721     14724     14719     14718     14720     14719     14718     14721
     14720     14718     14721     14721     14724     14725     14721     14724     14726
     14721     14724     14727     14722     14721     14723     14722     14721     14724
     14723     14721     14724     14724     14727     14728     14724     14727     14729
     14724     14727     14730     14725     14724     14726     14725     14724     14727
     14726     14724     14727     14727     14730     14731     14727     14730     14732
     14727     14730     14733     14728     14727     14729     14728     14727     14730
     14729     14727     14730     14731     14730     14732     14731     14730     14733
     14732     14730     14733     14734     14737     14738     14734     14737     14739
     14734     14737     14740     14735     14734     14736     14735     14734     14737
     14736     14734     14737     14737     14740     14741     14737     14740     14742
     14737     14740     14743     14738     14737     14739     14738     14737     14740
     14739     14737     14740     14740     14743     14744     14740     14743     14745
     14740     14743     14746     14741     14740     14742     14741     14740     14743
     14742     14740     14743     14743     14746     14747     14743     14746     14748
     14743     14746     14749     14744     14743     14745     14744     14743     14746
     14745     14743     14746     14746     14749     14750     14746     14749     14751
     14746     14749     14752     14747     14746     14748     14747     14746     14749
     14748     14746     14749     14749     14752     14753     14749     14752     14754
     14749     14752     14755     14750     14749     14751     14750     14749     14752
     14751     14749     14752     14752     14755     14756     14752     14755     14757
     14752     14755     14758     14753     14752     14754     14753     14752     14755
     14754     14752     14755     14755     14758     14759     14755     14758     14760
     14755     14758     14761     14756     14755     14757     14756     14755     14758
     14757     14755     14758     14758     14761     14762     14758     14761     14763
     14758     14761     14764     14759     14758     14760     14759     14758     14761
     14760     14758     14761     14761     14764     14765     14761     14764     14766
     14761     14764     14767     14762     14761     14763     14762     14761     14764
     14763     14761     14764     14764     14767     14768     14764     14767     14769
     14764     14767     14770     14765     14764     14766     14765     14764     14767
     14766     14764     14767     14767     14770     14771     14767     14770     14772
     14767     14770     14773     14768     14767     14769     14768     14767     14770
     14769     14767     14770     14770     14773     14774     14770     14773     14775
     14770     14773     14776     14771     14770     14772     14771     14770     14773
     14772     14770     14773     14774     14773     14775     14774     14773     14776
     14775     14773     14776     14777     14781     14782     14777     14781     14783
     14777     14781     14784     14778     14777     14779     14778     14777     14780
     14778     14777     14781     14779     14777     14780     14779     14777     14781
     14780     14777     14781     14781     14784     14785     14781     14784     14786
     14781     14784     14791     14782     14781     14783     14782     14781     14784
     14783     14781     14784     14784     14791     14787     14785     14784     14786
     14785     14784     14791     14786     14784     14791     14787     14790     14792
     14788     14787     14789     14788     14787     14790     14788     14787     14791
     14789     14787     14790     14789     14787     14791     14790     14787     14791
     14790     14792     14793     14790     14792     14794     14790     14792     14795
     14792     14795     14796     14792     14795     14797     14792     14795     14803
     14793     14792     14794     14793     14792     14795     14794     14792     14795
     14795     14797     14798     14795     14803     14804     14795     14803     14805
     14795     14803     14806     14796     14795     14797     14796     14795     14803
     14797     14795     14803     14797     14798     14799     14797     14798     14800
     14798     14800     14801     14798     14800     14802     14798     14800     14812
     14799     14798     14800     14800     14812     14813     14800     14812     14814
     14800     14812     14815     14801     14800     14802     14801     14800     14812
     14802     14800     14812     14803     14806     14807     14804     14803     14805
     14804     14803     14806     14805     14803     14806     14806     14807     14808
     14806     14807     14809     14807     14809     14810     14807     14809     14811
     14807     14809     14856     14808     14807     14809     14809     14856     14857
     14809     14856     14858     14809     14856     14859     14810     14809     14811
     14810     14809     14856     14811     14809     14856     14812     14815     14816
     14812     14815     14817     14812     14815     14818     14813     14812     14814
     14813     14812     14815     14814     14812     14815     14815     14818     14819
     14815     14818     14820     14815     14818     14821     14816     14815     14817
     14816     14815     14818     14817     14815     14818     14818     14821     14822
     14818     14821     14823     14818     14821     14824     14819     14818     14820
     14819     14818     14821     14820     14818     14821     14821     14824     14825
     14821     14824     14826     14821     14824     14827     14822     14821     14823
     14822     14821     14824     14823     14821     14824     14824     14827     14828
     14824     14827     14829     14824     14827     14830     14825     14824     14826
     14825     14824     14827     14826     14824     14827     14827     14830     14831
     14827     14830     14832     14827     14830     14835     14828     14827     14829
     14828     14827     14830     14829     14827     14830     14830     14832     14833
     14830     14832     14834     14830     14832     14835     14830     14835     14832
     14830     14835     14836     14830     14835     14837     14831     14830     14832
     14831     14830     14835     14832     14830     14835     14832     14835     14836
     14832     14835     14837     14833     14832     14834     14833     14832     14835
     14834     14832     14835     14835     14837     14838     14835     14837     14839
     14835     14837     14840     14836     14835     14837     14837     14840     14841
     14837     14840     14842     14837     14840     14843     14838     14837     14839
     14838     14837     14840     14839     14837     14840     14840     14843     14844
     14840     14843     14845     14840     14843     14846     14841     14840     14842
     14841     14840     14843     14842     14840     14843     14843     14846     14847
     14843     14846     14848     14843     14846     14849     14844     14843     14845
     14844     14843     14846     14845     14843     14846     14846     14849     14850
     14846     14849     14851     14846     14849     14852     14847     14846     14848
     14847     14846     14849     14848     14846     14849     14849     14852     14853
     14849     14852     14854     14849     14852     14855     14850     14849     14851
     14850     14849     14852     14851     14849     14852     14853     14852     14854
     14853     14852     14855     14854     14852     14855     14856     14859     14860
     14856     14859     14861     14856     14859     14862     14857     14856     14858
     14857     14856     14859     14858     14856     14859     14859     14862     14863
     14859     14862     14864     14859     14862     14865     14860     14859     14861
     14860     14859     14862     14861     14859     14862     14862     14865     14866
     14862     14865     14867     14862     14865     14868     14863     14862     14864
     14863     14862     14865     14864     14862     14865     14865     14868     14869
     14865     14868     14870     14865     14868     14871     14866     14865     14867
     14866     14865     14868     14867     14865     14868     14868     14871     14872
     14868     14871     14873     14868     14871     14874     14869     14868     14870
     14869     14868     14871     14870     14868     14871     14871     14874     14875
     14871     14874     14876     14871     14874     14877     14872     14871     14873
     14872     14871     14874     14873     14871     14874     14874     14877     14878
     14874     14877     14879     14874     14877     14880     14875     14874     14876
     14875     14874     14877     14876     14874     14877     14877     14880     14881
     14877     14880     14882     14877     14880     14883     14878     14877     14879
     14878     14877     14880     14879     14877     14880     14880     14883     14884
     14880     14883     14885     14880     14883     14886     14881     14880     14882
     14881     14880     14883     14882     14880     14883     14883     14886     14887
     14883     14886     14888     14883     14886     14889     14884     14883     14885
     14884     14883     14886     14885     14883     14886     14886     14889     14890
     14886     14889     14891     14886     14889     14892     14887     14886     14888
     14887     14886     14889     14888     14886     14889     14889     14892     14893
     14889     14892     14894     14889     14892     14895     14890     14889     14891
     14890     14889     14892     14891     14889     14892     14892     14895     14896
     14892     14895     14897     14892     14895     14898     14893     14892     14894
     14893     14892     14895     14894     14892     14895     14896     14895     14897
     14896     14895     14898     14897     14895     14898     14899     14903     14904
     14899     14903     14905     14899     14903     14906     14900     14899     14901
     14900     14899     14902     14900     14899     14903     14901     14899     14902
     14901     14899     14903     14902     14899     14903     14903     14906     14907
     14903     14906     14908     14903     14906     14913     14904     14903     14905
     14904     14903     14906     14905     14903     14906     14906     14913     14909
     14907     14906     14908     14907     14906     14913     14908     14906     14913
     14909     14912     14914     14910     14909     14911     14910     14909     14912
     14910     14909     14913     14911     14909     14912     14911     14909     14913
     14912     14909     14913     14912     14914     14915     14912     14914     14916
     14912     14914     14917     14914     14917     14918     14914     14917     14919
     14914     14917     14925     14915     14914     14916     14915     14914     14917
     14916     14914     14917     14917     14919     14920     14917     14925     14926
     14917     14925     14927     14917     14925     14928     14918     14917     14919
     14918     14917     14925     14919     14917     14925     14919     14920     14921
     14919     14920     14922     14920     14922     14923     14920     14922     14924
     14920     14922     14934     14921     14920     14922     14922     14934     14935
     14922     14934     14936     14922     14934     14937     14923     14922     14924
     14923     14922     14934     14924     14922     14934     14925     14928     14929
     14926     14925     14927     14926     14925     14928     14927     14925     14928
     14928     14929     14930     14928     14929     14931     14929     14931     14932
     14929     14931     14933     14929     14931     14978     14930     14929     14931
     14931     14978     14979     14931     14978     14980     14931     14978     14981
     14932     14931     14933     14932     14931     14978     14933     14931     14978
     14934     14937     14938     14934     14937     14939     14934     14937     14940
     14935     14934     14936     14935     14934     14937     14936     14934     14937
     14937     14940     14941     14937     14940     14942     14937     14940     14943
     14938     14937     14939     14938     14937     14940     14939     14937     14940
     14940     14943     14944     14940     14943     14945     14940     14943     14946
     14941     14940     14942     14941     14940     14943     14942     14940     14943
     14943     14946     14947     14943     14946     14948     14943     14946     14949
     14944     14943     14945     14944     14943     14946     14945     14943     14946
     14946     14949     14950     14946     14949     14951     14946     14949     14952
     14947     14946     14948     14947     14946     14949     14948     14946     14949
     14949     14952     14953     14949     14952     14954     14949     14952     14957
     14950     14949     14951     14950     14949     14952     14951     14949     14952
     14952     14954     14955     14952     14954     14956     14952     14954     14957
     14952     14957     14954     14952     14957     14958     14952     14957     14959
     14953     14952     14954     14953     14952     14957     14954     14952     14957
     14954     14957     14958     14954     14957     14959     14955     14954     14956
     14955     14954     14957     14956     14954     14957     14957     14959     14960
     14957     14959     14961     14957     14959     14962     14958     14957     14959
     14959     14962     14963     14959     14962     14964     14959     14962     14965
     14960     14959     14961     14960     14959     14962     14961     14959     14962
     14962     14965     14966     14962     14965     14967     14962     14965     14968
     14963     14962     14964     14963     14962     14965     14964     14962     14965
     14965     14968     14969     14965     14968     14970     14965     14968     14971
     14966     14965     14967     14966     14965     14968     14967     14965     14968
     14968     14971     14972     14968     14971     14973     14968     14971     14974
     14969     14968     14970     14969     14968     14971     14970     14968     14971
     14971     14974     14975     14971     14974     14976     14971     14974     14977
     14972     14971     14973     14972     14971     14974     14973     14971     14974
     14975     14974     14976     14975     14974     14977     14976     14974     14977
     14978     14981     14982     14978     14981     14983     14978     14981     14984
     14979     14978     14980     14979     14978     14981     14980     14978     14981
     14981     14984     14985     14981     14984     14986     14981     14984     14987
     14982     14981     14983     14982     14981     14984     14983     14981     14984
     14984     14987     14988     14984     14987     14989     14984     14987     14990
     14985     14984     14986     14985     14984     14987     14986     14984     14987
     14987     14990     14991     14987     14990     14992     14987     14990     14993
     14988     14987     14989     14988     14987     14990     14989     14987     14990
     14990     14993     14994     14990     14993     14995     14990     14993     14996
     14991     14990     14992     14991     14990     14993     14992     14990     14993
     14993     14996     14997     14993     14996     14998     14993     14996     14999
     14994     14993     14995     14994     14993     14996     14995     14993     14996
     14996     14999     15000     14996     14999     15001     14996     14999     15002
     14997     14996     14998     14997     14996     14999     14998     14996     14999
     14999     15002     15003     14999     15002     15004     14999     15002     15005
     15000     14999     15001     15000     14999     15002     15001     14999     15002
     15002     15005     15006     15002     15005     15007     15002     15005     15008
     15003     15002     15004     15003     15002     15005     15004     15002     15005
     15005     15008     15009     15005     15008     15010     15005     15008     15011
     15006     15005     15007     15006     15005     15008     15007     15005     15008
     15008     15011     15012     15008     15011     15013     15008     15011     15014
     15009     15008     15010     15009     15008     15011     15010     15008     15011
     15011     15014     15015     15011     15014     15016     15011     15014     15017
     15012     15011     15013     15012     15011     15014     15013     15011     15014
     15014     15017     15018     15014     15017     15019     15014     15017     15020
     15015     15014     15016     15015     15014     15017     15016     15014     15017
     15018     15017     15019     15018     15017     15020     15019     15017     15020
     15021     15025     15026     15021     15025     15027     15021     15025     15028
     15022     15021     15023     15022     15021     15024     15022     15021     15025
     15023     15021     15024     15023     15021     15025     15024     15021     15025
     15025     15028     15029     15025     15028     15030     15025     15028     15035
     15026     15025     15027     15026     15025     15028     15027     15025     15028
     15028     15035     15031     15029     15028     15030     15029     15028     15035
     15030     15028     15035     15031     15034     15036     15032     15031     15033
     15032     15031     15034     15032     15031     15035     15033     15031     15034
     15033     15031     15035     15034     15031     15035     15034     15036     15037
     15034     15036     15038     15034     15036     15039     15036     15039     15040
     15036     15039     15041     15036     15039     15047     15037     15036     15038
     15037     15036     15039     15038     15036     15039     15039     15041     15042
     15039     15047     15048     15039     15047     15049     15039     15047     15050
     15040     15039     15041     15040     15039     15047     15041     15039     15047
     15041     15042     15043     15041     15042     15044     15042     15044     15045
     15042     15044     15046     15042     15044     15056     15043     15042     15044
     15044     15056     15057     15044     15056     15058     15044     15056     15059
     15045     15044     15046     15045     15044     15056     15046     15044     15056
     15047     15050     15051     15048     15047     15049     15048     15047     15050
     15049     15047     15050     15050     15051     15052     15050     15051     15053
     15051     15053     15054     15051     15053     15055     15051     15053     15100
     15052     15051     15053     15053     15100     15101     15053     15100     15102
     15053     15100     15103     15054     15053     15055     15054     15053     15100
     15055     15053     15100     15056     15059     15060     15056     15059     15061
     15056     15059     15062     15057     15056     15058     15057     15056     15059
     15058     15056     15059     15059     15062     15063     15059     15062     15064
     15059     15062     15065     15060     15059     15061     15060     15059     15062
     15061     15059     15062     15062     15065     15066     15062     15065     15067
     15062     15065     15068     15063     15062     15064     15063     15062     15065
     15064     15062     15065     15065     15068     15069     15065     15068     15070
     15065     15068     15071     15066     15065     15067     15066     15065     15068
     15067     15065     15068     15068     15071     15072     15068     15071     15073
     15068     15071     15074     15069     15068     15070     15069     15068     15071
     15070     15068     15071     15071     15074     15075     15071     15074     15076
     15071     15074     15079     15072     15071     15073     15072     15071     15074
     15073     15071     15074     15074     15076     15077     15074     15076     15078
     15074     15076     15079     15074     15079     15076     15074     15079     15080
     15074     15079     15081     15075     15074     15076     15075     15074     15079
     15076     15074     15079     15076     15079     15080     15076     15079     15081
     15077     15076     15078     15077     15076     15079     15078     15076     15079
     15079     15081     15082     15079     15081     15083     15079     15081     15084
     15080     15079     15081     15081     15084     15085     15081     15084     15086
     15081     15084     15087     15082     15081     15083     15082     15081     15084
     15083     15081     15084     15084     15087     15088     15084     15087     15089
     15084     15087     15090     15085     15084     15086     15085     15084     15087
     15086     15084     15087     15087     15090     15091     15087     15090     15092
     15087     15090     15093     15088     15087     15089     15088     15087     15090
     15089     15087     15090     15090     15093     15094     15090     15093     15095
     15090     15093     15096     15091     15090     15092     15091     15090     15093
     15092     15090     15093     15093     15096     15097     15093     15096     15098
     15093     15096     15099     15094     15093     15095     15094     15093     15096
     15095     15093     15096     15097     15096     15098     15097     15096     15099
     15098     15096     15099     15100     15103     15104     15100     15103     15105
     15100     15103     15106     15101     15100     15102     15101     15100     15103
     15102     15100     15103     15103     15106     15107     15103     15106     15108
     15103     15106     15109     15104     15103     15105     15104     15103     15106
     15105     15103     15106     15106     15109     15110     15106     15109     15111
     15106     15109     15112     15107     15106     15108     15107     15106     15109
     15108     15106     15109     15109     15112     15113     15109     15112     15114
     15109     15112     15115     15110     15109     15111     15110     15109     15112
     15111     15109     15112     15112     15115     15116     15112     15115     15117
     15112     15115     15118     15113     15112     15114     15113     15112     15115
     15114     15112     15115     15115     15118     15119     15115     15118     15120
     15115     15118     15121     15116     15115     15117     15116     15115     15118
     15117     15115     15118     15118     15121     15122     15118     15121     15123
     15118     15121     15124     15119     15118     15120     15119     15118     15121
     15120     15118     15121     15121     15124     15125     15121     15124     15126
     15121     15124     15127     15122     15121     15123     15122     15121     15124
     15123     15121     15124     15124     15127     15128     15124     15127     15129
     15124     15127     15130     15125     15124     15126     15125     15124     15127
     15126     15124     15127     15127     15130     15131     15127     15130     15132
     15127     15130     15133     15128     15127     15129     15128     15127     15130
     15129     15127     15130     15130     15133     15134     15130     15133     15135
     15130     15133     15136     15131     15130     15132     15131     15130     15133
     15132     15130     15133     15133     15136     15137     15133     15136     15138
     15133     15136     15139     15134     15133     15135     15134     15133     15136
     15135     15133     15136     15136     15139     15140     15136     15139     15141
     15136     15139     15142     15137     15136     15138     15137     15136     15139
     15138     15136     15139     15140     15139     15141     15140     15139     15142
     15141     15139     15142     15143     15147     15148     15143     15147     15149
     15143     15147     15150     15144     15143     15145     15144     15143     15146
     15144     15143     15147     15145     15143     15146     15145     15143     15147
     15146     15143     15147     15147     15150     15151     15147     15150     15152
     15147     15150     15157     15148     15147     15149     15148     15147     15150
     15149     15147     15150     15150     15157     15153     15151     15150     15152
     15151     15150     15157     15152     15150     15157     15153     15156     15158
     15154     15153     15155     15154     15153     15156     15154     15153     15157
     15155     15153     15156     15155     15153     15157     15156     15153     15157
     15156     15158     15159     15156     15158     15160     15156     15158     15161
     15158     15161     15162     15158     15161     15163     15158     15161     15169
     15159     15158     15160     15159     15158     15161     15160     15158     15161
     15161     15163     15164     15161     15169     15170     15161     15169     15171
     15161     15169     15172     15162     15161     15163     15162     15161     15169
     15163     15161     15169     15163     15164     15165     15163     15164     15166
     15164     15166     15167     15164     15166     15168     15164     15166     15178
     15165     15164     15166     15166     15178     15179     15166     15178     15180
     15166     15178     15181     15167     15166     15168     15167     15166     15178
     15168     15166     15178     15169     15172     15173     15170     15169     15171
     15170     15169     15172     15171     15169     15172     15172     15173     15174
     15172     15173     15175     15173     15175     15176     15173     15175     15177
     15173     15175     15225     15174     15173     15175     15175     15225     15226
     15175     15225     15227     15175     15225     15228     15176     15175     15177
     15176     15175     15225     15177     15175     15225     15178     15181     15182
     15178     15181     15183     15178     15181     15184     15179     15178     15180
     15179     15178     15181     15180     15178     15181     15181     15184     15185
     15181     15184     15186     15181     15184     15187     15182     15181     15183
     15182     15181     15184     15183     15181     15184     15184     15187     15188
     15184     15187     15189     15184     15187     15190     15185     15184     15186
     15185     15184     15187     15186     15184     15187     15187     15190     15191
     15187     15190     15192     15187     15190     15193     15188     15187     15189
     15188     15187     15190     15189     15187     15190     15190     15193     15194
     15190     15193     15195     15190     15193     15196     15191     15190     15192
     15191     15190     15193     15192     15190     15193     15193     15196     15197
     15193     15196     15198     15194     15193     15195     15194     15193     15196
     15195     15193     15196     15196     15198     15199     15196     15198     15200
     15197     15196     15198     15198     15200     15201     15198     15200     15202
     15198     15200     15203     15199     15198     15200     15200     15203     15204
     15200     15203     15205     15200     15203     15206     15201     15200     15202
     15201     15200     15203     15202     15200     15203     15203     15206     15207
     15203     15206     15208     15203     15206     15209     15204     15203     15205
     15204     15203     15206     15205     15203     15206     15206     15209     15210
     15206     15209     15211     15206     15209     15212     15207     15206     15208
     15207     15206     15209     15208     15206     15209     15209     15212     15213
     15209     15212     15214     15209     15212     15215     15210     15209     15211
     15210     15209     15212     15211     15209     15212     15212     15215     15216
     15212     15215     15217     15212     15215     15218     15213     15212     15214
     15213     15212     15215     15214     15212     15215     15215     15218     15219
     15215     15218     15220     15215     15218     15221     15216     15215     15217
     15216     15215     15218     15217     15215     15218     15218     15221     15222
     15218     15221     15223     15218     15221     15224     15219     15218     15220
     15219     15218     15221     15220     15218     15221     15222     15221     15223
     15222     15221     15224     15223     15221     15224     15225     15228     15229
     15225     15228     15230     15225     15228     15231     15226     15225     15227
     15226     15225     15228     15227     15225     15228     15228     15231     15232
     15228     15231     15233     15228     15231     15234     15229     15228     15230
     15229     15228     15231     15230     15228     15231     15231     15234     15235
     15231     15234     15236     15231     15234     15237     15232     15231     15233
     15232     15231     15234     15233     15231     15234     15234     15237     15238
     15234     15237     15239     15234     15237     15240     15235     15234     15236
     15235     15234     15237     15236     15234     15237     15237     15240     15241
     15237     15240     15242     15237     15240     15243     15238     15237     15239
     15238     15237     15240     15239     15237     15240     15240     15243     15244
     15240     15243     15245     15240     15243     15246     15241     15240     15242
     15241     15240     15243     15242     15240     15243     15243     15246     15247
     15243     15246     15248     15243     15246     15249     15244     15243     15245
     15244     15243     15246     15245     15243     15246     15246     15249     15250
     15246     15249     15251     15246     15249     15252     15247     15246     15248
     15247     15246     15249     15248     15246     15249     15249     15252     15253
     15249     15252     15254     15249     15252     15255     15250     15249     15251
     15250     15249     15252     15251     15249     15252     15252     15255     15256
     15252     15255     15257     15252     15255     15258     15253     15252     15254
     15253     15252     15255     15254     15252     15255     15255     15258     15259
     15255     15258     15260     15255     15258     15261     15256     15255     15257
     15256     15255     15258     15257     15255     15258     15258     15261     15262
     15258     15261     15263     15258     15261     15264     15259     15258     15260
     15259     15258     15261     15260     15258     15261     15261     15264     15265
     15261     15264     15266     15261     15264     15267     15262     15261     15263
     15262     15261     15264     15263     15261     15264     15265     15264     15266
     15265     15264     15267     15266     15264     15267     15268     15272     15273
     15268     15272     15274     15268     15272     15275     15269     15268     15270
     15269     15268     15271     15269     15268     15272     15270     15268     15271
     15270     15268     15272     15271     15268     15272     15272     15275     15276
     15272     15275     15277     15272     15275     15282     15273     15272     15274
     15273     15272     15275     15274     15272     15275     15275     15282     15278
     15276     15275     15277     15276     15275     15282     15277     15275     15282
     15278     15281     15283     15279     15278     15280     15279     15278     15281
     15279     15278     15282     15280     15278     15281     15280     15278     15282
     15281     15278     15282     15281     15283     15284     15281     15283     15285
     15281     15283     15286     15283     15286     15287     15283     15286     15288
     15283     15286     15294     15284     15283     15285     15284     15283     15286
     15285     15283     15286     15286     15288     15289     15286     15294     15295
     15286     15294     15296     15286     15294     15297     15287     15286     15288
     15287     15286     15294     15288     15286     15294     15288     15289     15290
     15288     15289     15291     15289     15291     15292     15289     15291     15293
     15289     15291     15303     15290     15289     15291     15291     15303     15304
     15291     15303     15305     15291     15303     15306     15292     15291     15293
     15292     15291     15303     15293     15291     15303     15294     15297     15298
     15295     15294     15296     15295     15294     15297     15296     15294     15297
     15297     15298     15299     15297     15298     15300     15298     15300     15301
     15298     15300     15302     15298     15300     15347     15299     15298     15300
     15300     15347     15348     15300     15347     15349     15300     15347     15350
     15301     15300     15302     15301     15300     15347     15302     15300     15347
     15303     15306     15307     15303     15306     15308     15303     15306     15309
     15304     15303     15305     15304     15303     15306     15305     15303     15306
     15306     15309     15310     15306     15309     15311     15306     15309     15312
     15307     15306     15308     15307     15306     15309     15308     15306     15309
     15309     15312     15313     15309     15312     15314     15309     15312     15315
     15310     15309     15311     15310     15309     15312     15311     15309     15312
     15312     15315     15316     15312     15315     15317     15312     15315     15318
     15313     15312     15314     15313     15312     15315     15314     15312     15315
     15315     15318     15319     15315     15318     15320     15315     15318     15321
     15316     15315     15317     15316     15315     15318     15317     15315     15318
     15318     15321     15322     15318     15321     15323     15318     15321     15326
     15319     15318     15320     15319     15318     15321     15320     15318     15321
     15321     15323     15324     15321     15323     15325     15321     15323     15326
     15321     15326     15323     15321     15326     15327     15321     15326     15328
     15322     15321     15323     15322     15321     15326     15323     15321     15326
     15323     15326     15327     15323     15326     15328     15324     15323     15325
     15324     15323     15326     15325     15323     15326     15326     15328     15329
     15326     15328     15330     15326     15328     15331     15327     15326     15328
     15328     15331     15332     15328     15331     15333     15328     15331     15334
     15329     15328     15330     15329     15328     15331     15330     15328     15331
     15331     15334     15335     15331     15334     15336     15331     15334     15337
     15332     15331     15333     15332     15331     15334     15333     15331     15334
     15334     15337     15338     15334     15337     15339     15334     15337     15340
     15335     15334     15336     15335     15334     15337     15336     15334     15337
     15337     15340     15341     15337     15340     15342     15337     15340     15343
     15338     15337     15339     15338     15337     15340     15339     15337     15340
     15340     15343     15344     15340     15343     15345     15340     15343     15346
     15341     15340     15342     15341     15340     15343     15342     15340     15343
     15344     15343     15345     15344     15343     15346     15345     15343     15346
     15347     15350     15351     15347     15350     15352     15347     15350     15353
     15348     15347     15349     15348     15347     15350     15349     15347     15350
     15350     15353     15354     15350     15353     15355     15350     15353     15356
     15351     15350     15352     15351     15350     15353     15352     15350     15353
     15353     15356     15357     15353     15356     15358     15353     15356     15359
     15354     15353     15355     15354     15353     15356     15355     15353     15356
     15356     15359     15360     15356     15359     15361     15356     15359     15362
     15357     15356     15358     15357     15356     15359     15358     15356     15359
     15359     15362     15363     15359     15362     15364     15359     15362     15365
     15360     15359     15361     15360     15359     15362     15361     15359     15362
     15362     15365     15366     15362     15365     15367     15362     15365     15368
     15363     15362     15364     15363     15362     15365     15364     15362     15365
     15365     15368     15369     15365     15368     15370     15365     15368     15371
     15366     15365     15367     15366     15365     15368     15367     15365     15368
     15368     15371     15372     15368     15371     15373     15368     15371     15374
     15369     15368     15370     15369     15368     15371     15370     15368     15371
     15371     15374     15375     15371     15374     15376     15371     15374     15377
     15372     15371     15373     15372     15371     15374     15373     15371     15374
     15374     15377     15378     15374     15377     15379     15374     15377     15380
     15375     15374     15376     15375     15374     15377     15376     15374     15377
     15377     15380     15381     15377     15380     15382     15377     15380     15383
     15378     15377     15379     15378     15377     15380     15379     15377     15380
     15380     15383     15384     15380     15383     15385     15380     15383     15386
     15381     15380     15382     15381     15380     15383     15382     15380     15383
     15383     15386     15387     15383     15386     15388     15383     15386     15389
     15384     15383     15385     15384     15383     15386     15385     15383     15386
     15387     15386     15388     15387     15386     15389     15388     15386     15389
     15390     15394     15395     15390     15394     15396     15390     15394     15397
     15391     15390     15392     15391     15390     15393     15391     15390     15394
     15392     15390     15393     15392     15390     15394     15393     15390     15394
     15394     15397     15398     15394     15397     15399     15394     15397     15404
     15395     15394     15396     15395     15394     15397     15396     15394     15397
     15397     15404     15400     15398     15397     15399     15398     15397     15404
     15399     15397     15404     15400     15403     15405     15401     15400     15402
     15401     15400     15403     15401     15400     15404     15402     15400     15403
     15402     15400     15404     15403     15400     15404     15403     15405     15406
     15403     15405     15407     15403     15405     15408     15405     15408     15409
     15405     15408     15410     15405     15408     15416     15406     15405     15407
     15406     15405     15408     15407     15405     15408     15408     15410     15411
     15408     15416     15417     15408     15416     15418     15408     15416     15419
     15409     15408     15410     15409     15408     15416     15410     15408     15416
     15410     15411     15412     15410     15411     15413     15411     15413     15414
     15411     15413     15415     15411     15413     15425     15412     15411     15413
     15413     15425     15426     15413     15425     15427     15413     15425     15428
     15414     15413     15415     15414     15413     15425     15415     15413     15425
     15416     15419     15420     15417     15416     15418     15417     15416     15419
     15418     15416     15419     15419     15420     15421     15419     15420     15422
     15420     15422     15423     15420     15422     15424     15420     15422     15469
     15421     15420     15422     15422     15469     15470     15422     15469     15471
     15422     15469     15472     15423     15422     15424     15423     15422     15469
     15424     15422     15469     15425     15428     15429     15425     15428     15430
     15425     15428     15431     15426     15425     15427     15426     15425     15428
     15427     15425     15428     15428     15431     15432     15428     15431     15433
     15428     15431     15434     15429     15428     15430     15429     15428     15431
     15430     15428     15431     15431     15434     15435     15431     15434     15436
     15431     15434     15437     15432     15431     15433     15432     15431     15434
     15433     15431     15434     15434     15437     15438     15434     15437     15439
     15434     15437     15440     15435     15434     15436     15435     15434     15437
     15436     15434     15437     15437     15440     15441     15437     15440     15442
     15437     15440     15443     15438     15437     15439     15438     15437     15440
     15439     15437     15440     15440     15443     15444     15440     15443     15445
     15440     15443     15448     15441     15440     15442     15441     15440     15443
     15442     15440     15443     15443     15445     15446     15443     15445     15447
     15443     15445     15448     15443     15448     15445     15443     15448     15449
     15443     15448     15450     15444     15443     15445     15444     15443     15448
     15445     15443     15448     15445     15448     15449     15445     15448     15450
     15446     15445     15447     15446     15445     15448     15447     15445     15448
     15448     15450     15451     15448     15450     15452     15448     15450     15453
     15449     15448     15450     15450     15453     15454     15450     15453     15455
     15450     15453     15456     15451     15450     15452     15451     15450     15453
     15452     15450     15453     15453     15456     15457     15453     15456     15458
     15453     15456     15459     15454     15453     15455     15454     15453     15456
     15455     15453     15456     15456     15459     15460     15456     15459     15461
     15456     15459     15462     15457     15456     15458     15457     15456     15459
     15458     15456     15459     15459     15462     15463     15459     15462     15464
     15459     15462     15465     15460     15459     15461     15460     15459     15462
     15461     15459     15462     15462     15465     15466     15462     15465     15467
     15462     15465     15468     15463     15462     15464     15463     15462     15465
     15464     15462     15465     15466     15465     15467     15466     15465     15468
     15467     15465     15468     15469     15472     15473     15469     15472     15474
     15469     15472     15475     15470     15469     15471     15470     15469     15472
     15471     15469     15472     15472     15475     15476     15472     15475     15477
     15472     15475     15478     15473     15472     15474     15473     15472     15475
     15474     15472     15475     15475     15478     15479     15475     15478     15480
     15475     15478     15481     15476     15475     15477     15476     15475     15478
     15477     15475     15478     15478     15481     15482     15478     15481     15483
     15478     15481     15484     15479     15478     15480     15479     15478     15481
     15480     15478     15481     15481     15484     15485     15481     15484     15486
     15481     15484     15487     15482     15481     15483     15482     15481     15484
     15483     15481     15484     15484     15487     15488     15484     15487     15489
     15484     15487     15490     15485     15484     15486     15485     15484     15487
     15486     15484     15487     15487     15490     15491     15487     15490     15492
     15487     15490     15493     15488     15487     15489     15488     15487     15490
     15489     15487     15490     15490     15493     15494     15490     15493     15495
     15490     15493     15496     15491     15490     15492     15491     15490     15493
     15492     15490     15493     15493     15496     15497     15493     15496     15498
     15493     15496     15499     15494     15493     15495     15494     15493     15496
     15495     15493     15496     15496     15499     15500     15496     15499     15501
     15496     15499     15502     15497     15496     15498     15497     15496     15499
     15498     15496     15499     15499     15502     15503     15499     15502     15504
     15499     15502     15505     15500     15499     15501     15500     15499     15502
     15501     15499     15502     15502     15505     15506     15502     15505     15507
     15502     15505     15508     15503     15502     15504     15503     15502     15505
     15504     15502     15505     15505     15508     15509     15505     15508     15510
     15505     15508     15511     15506     15505     15507     15506     15505     15508
     15507     15505     15508     15509     15508     15510     15509     15508     15511
     15510     15508     15511     15512     15515     15516     15512     15517     15518
     15512     15517     15519     15512     15517     15521     15513     15512     15514
     15513     15512     15515     15513     15512     15517     15514     15512     15515
     15514     15512     15517     15515     15512     15517     15517     15519     15520
     15517     15521     15522     15517     15521     15523     15517     15521     15528
     15518     15517     15519     15518     15517     15521     15519     15517     15521
     15521     15528     15524     15522     15521     15523     15522     15521     15528
     15523     15521     15528     15524     15527     15529     15525     15524     15526
     15525     15524     15527     15525     15524     15528     15526     15524     15527
     15526     15524     15528     15527     15524     15528     15527     15529     15530
     15527     15529     15531     15527     15529     15532     15529     15532     15533
     15529     15532     15534     15529     15532     15540     15530     15529     15531
     15530     15529     15532     15531     15529     15532     15532     15534     15535
     15532     15540     15541     15532     15540     15542     15532     15540     15543
     15533     15532     15534     15533     15532     15540     15534     15532     15540
     15534     15535     15536     15534     15535     15537     15535     15537     15538
     15535     15537     15539     15535     15537     15549     15536     15535     15537
     15537     15549     15550     15537     15549     15551     15537     15549     15552
     15538     15537     15539     15538     15537     15549     15539     15537     15549
     15540     15543     15544     15541     15540     15542     15541     15540     15543
     15542     15540     15543     15543     15544     15545     15543     15544     15546
     15544     15546     15547     15544     15546     15548     15544     15546     15593
     15545     15544     15546     15546     15593     15594     15546     15593     15595
     15546     15593     15596     15547     15546     15548     15547     15546     15593
     15548     15546     15593     15549     15552     15553     15549     15552     15554
     15549     15552     15555     15550     15549     15551     15550     15549     15552
     15551     15549     15552     15552     15555     15556     15552     15555     15557
     15552     15555     15558     15553     15552     15554     15553     15552     15555
     15554     15552     15555     15555     15558     15559     15555     15558     15560
     15555     15558     15561     15556     15555     15557     15556     15555     15558
     15557     15555     15558     15558     15561     15562     15558     15561     15563
     15558     15561     15564     15559     15558     15560     15559     15558     15561
     15560     15558     15561     15561     15564     15565     15561     15564     15566
     15561     15564     15567     15562     15561     15563     15562     15561     15564
     15563     15561     15564     15564     15567     15568     15564     15567     15569
     15564     15567     15572     15565     15564     15566     15565     15564     15567
     15566     15564     15567     15567     15569     15570     15567     15569     15571
     15567     15569     15572     15567     15572     15569     15567     15572     15573
     15567     15572     15574     15568     15567     15569     15568     15567     15572
     15569     15567     15572     15569     15572     15573     15569     15572     15574
     15570     15569     15571     15570     15569     15572     15571     15569     15572
     15572     15574     15575     15572     15574     15576     15572     15574     15577
     15573     15572     15574     15574     15577     15578     15574     15577     15579
     15574     15577     15580     15575     15574     15576     15575     15574     15577
     15576     15574     15577     15577     15580     15581     15577     15580     15582
     15577     15580     15583     15578     15577     15579     15578     15577     15580
     15579     15577     15580     15580     15583     15584     15580     15583     15585
     15580     15583     15586     15581     15580     15582     15581     15580     15583
     15582     15580     15583     15583     15586     15587     15583     15586     15588
     15583     15586     15589     15584     15583     15585     15584     15583     15586
     15585     15583     15586     15586     15589     15590     15586     15589     15591
     15586     15589     15592     15587     15586     15588     15587     15586     15589
     15588     15586     15589     15590     15589     15591     15590     15589     15592
     15591     15589     15592     15593     15596     15597     15593     15596     15598
     15593     15596     15599     15594     15593     15595     15594     15593     15596
     15595     15593     15596     15596     15599     15600     15596     15599     15601
     15596     15599     15602     15597     15596     15598     15597     15596     15599
     15598     15596     15599     15599     15602     15603     15599     15602     15604
     15599     15602     15605     15600     15599     15601     15600     15599     15602
     15601     15599     15602     15602     15605     15606     15602     15605     15607
     15602     15605     15608     15603     15602     15604     15603     15602     15605
     15604     15602     15605     15605     15608     15609     15605     15608     15610
     15605     15608     15611     15606     15605     15607     15606     15605     15608
     15607     15605     15608     15608     15611     15612     15608     15611     15613
     15608     15611     15614     15609     15608     15610     15609     15608     15611
     15610     15608     15611     15611     15614     15615     15611     15614     15616
     15611     15614     15617     15612     15611     15613     15612     15611     15614
     15613     15611     15614     15614     15617     15618     15614     15617     15619
     15614     15617     15620     15615     15614     15616     15615     15614     15617
     15616     15614     15617     15617     15620     15621     15617     15620     15622
     15617     15620     15623     15618     15617     15619     15618     15617     15620
     15619     15617     15620     15620     15623     15624     15620     15623     15625
     15620     15623     15626     15621     15620     15622     15621     15620     15623
     15622     15620     15623     15623     15626     15627     15623     15626     15628
     15623     15626     15629     15624     15623     15625     15624     15623     15626
     15625     15623     15626     15626     15629     15630     15626     15629     15631
     15626     15629     15632     15627     15626     15628     15627     15626     15629
     15628     15626     15629     15629     15632     15633     15629     15632     15634
     15629     15632     15635     15630     15629     15631     15630     15629     15632
     15631     15629     15632     15633     15632     15634     15633     15632     15635
     15634     15632     15635     15636     15640     15641     15636     15640     15642
     15636     15640     15643     15637     15636     15638     15637     15636     15639
     15637     15636     15640     15638     15636     15639     15638     15636     15640
     15639     15636     15640     15640     15643     15644     15640     15643     15645
     15640     15643     15650     15641     15640     15642     15641     15640     15643
     15642     15640     15643     15643     15650     15646     15644     15643     15645
     15644     15643     15650     15645     15643     15650     15646     15649     15651
     15647     15646     15648     15647     15646     15649     15647     15646     15650
     15648     15646     15649     15648     15646     15650     15649     15646     15650
     15649     15651     15652     15649     15651     15653     15649     15651     15654
     15651     15654     15655     15651     15654     15656     15651     15654     15662
     15652     15651     15653     15652     15651     15654     15653     15651     15654
     15654     15656     15657     15654     15662     15663     15654     15662     15664
     15654     15662     15665     15655     15654     15656     15655     15654     15662
     15656     15654     15662     15656     15657     15658     15656     15657     15659
     15657     15659     15660     15657     15659     15661     15657     15659     15671
     15658     15657     15659     15659     15671     15672     15659     15671     15673
     15659     15671     15674     15660     15659     15661     15660     15659     15671
     15661     15659     15671     15662     15665     15666     15663     15662     15664
     15663     15662     15665     15664     15662     15665     15665     15666     15667
     15665     15666     15668     15666     15668     15669     15666     15668     15670
     15666     15668     15715     15667     15666     15668     15668     15715     15716
     15668     15715     15717     15668     15715     15718     15669     15668     15670
     15669     15668     15715     15670     15668     15715     15671     15674     15675
     15671     15674     15676     15671     15674     15677     15672     15671     15673
     15672     15671     15674     15673     15671     15674     15674     15677     15678
     15674     15677     15679     15674     15677     15680     15675     15674     15676
     15675     15674     15677     15676     15674     15677     15677     15680     15681
     15677     15680     15682     15677     15680     15683     15678     15677     15679
     15678     15677     15680     15679     15677     15680     15680     15683     15684
     15680     15683     15685     15680     15683     15686     15681     15680     15682
     15681     15680     15683     15682     15680     15683     15683     15686     15687
     15683     15686     15688     15683     15686     15689     15684     15683     15685
     15684     15683     15686     15685     15683     15686     15686     15689     15690
     15686     15689     15691     15686     15689     15694     15687     15686     15688
     15687     15686     15689     15688     15686     15689     15689     15691     15692
     15689     15691     15693     15689     15691     15694     15689     15694     15691
     15689     15694     15695     15689     15694     15696     15690     15689     15691
     15690     15689     15694     15691     15689     15694     15691     15694     15695
     15691     15694     15696     15692     15691     15693     15692     15691     15694
     15693     15691     15694     15694     15696     15697     15694     15696     15698
     15694     15696     15699     15695     15694     15696     15696     15699     15700
     15696     15699     15701     15696     15699     15702     15697     15696     15698
     15697     15696     15699     15698     15696     15699     15699     15702     15703
     15699     15702     15704     15699     15702     15705     15700     15699     15701
     15700     15699     15702     15701     15699     15702     15702     15705     15706
     15702     15705     15707     15702     15705     15708     15703     15702     15704
     15703     15702     15705     15704     15702     15705     15705     15708     15709
     15705     15708     15710     15705     15708     15711     15706     15705     15707
     15706     15705     15708     15707     15705     15708     15708     15711     15712
     15708     15711     15713     15708     15711     15714     15709     15708     15710
     15709     15708     15711     15710     15708     15711     15712     15711     15713
     15712     15711     15714     15713     15711     15714     15715     15718     15719
     15715     15718     15720     15715     15718     15721     15716     15715     15717
     15716     15715     15718     15717     15715     15718     15718     15721     15722
     15718     15721     15723     15718     15721     15724     15719     15718     15720
     15719     15718     15721     15720     15718     15721     15721     15724     15725
     15721     15724     15726     15721     15724     15727     15722     15721     15723
     15722     15721     15724     15723     15721     15724     15724     15727     15728
     15724     15727     15729     15724     15727     15730     15725     15724     15726
     15725     15724     15727     15726     15724     15727     15727     15730     15731
     15727     15730     15732     15727     15730     15733     15728     15727     15729
     15728     15727     15730     15729     15727     15730     15730     15733     15734
     15730     15733     15735     15730     15733     15736     15731     15730     15732
     15731     15730     15733     15732     15730     15733     15733     15736     15737
     15733     15736     15738     15733     15736     15739     15734     15733     15735
     15734     15733     15736     15735     15733     15736     15736     15739     15740
     15736     15739     15741     15736     15739     15742     15737     15736     15738
     15737     15736     15739     15738     15736     15739     15739     15742     15743
     15739     15742     15744     15739     15742     15745     15740     15739     15741
     15740     15739     15742     15741     15739     15742     15742     15745     15746
     15742     15745     15747     15742     15745     15748     15743     15742     15744
     15743     15742     15745     15744     15742     15745     15745     15748     15749
     15745     15748     15750     15745     15748     15751     15746     15745     15747
     15746     15745     15748     15747     15745     15748     15748     15751     15752
     15748     15751     15753     15748     15751     15754     15749     15748     15750
     15749     15748     15751     15750     15748     15751     15751     15754     15755
     15751     15754     15756     15751     15754     15757     15752     15751     15753
     15752     15751     15754     15753     15751     15754     15755     15754     15756
     15755     15754     15757     15756     15754     15757     15758     15762     15763
     15758     15762     15764     15758     15762     15765     15759     15758     15760
     15759     15758     15761     15759     15758     15762     15760     15758     15761
     15760     15758     15762     15761     15758     15762     15762     15765     15766
     15762     15765     15767     15762     15765     15772     15763     15762     15764
     15763     15762     15765     15764     15762     15765     15765     15772     15768
     15766     15765     15767     15766     15765     15772     15767     15765     15772
     15768     15771     15773     15769     15768     15770     15769     15768     15771
     15769     15768     15772     15770     15768     15771     15770     15768     15772
     15771     15768     15772     15771     15773     15774     15771     15773     15775
     15771     15773     15776     15773     15776     15777     15773     15776     15778
     15773     15776     15784     15774     15773     15775     15774     15773     15776
     15775     15773     15776     15776     15778     15779     15776     15784     15785
     15776     15784     15786     15776     15784     15787     15777     15776     15778
     15777     15776     15784     15778     15776     15784     15778     15779     15780
     15778     15779     15781     15779     15781     15782     15779     15781     15783
     15779     15781     15793     15780     15779     15781     15781     15793     15794
     15781     15793     15795     15781     15793     15796     15782     15781     15783
     15782     15781     15793     15783     15781     15793     15784     15787     15788
     15785     15784     15786     15785     15784     15787     15786     15784     15787
     15787     15788     15789     15787     15788     15790     15788     15790     15791
     15788     15790     15792     15788     15790     15837     15789     15788     15790
     15790     15837     15838     15790     15837     15839     15790     15837     15840
     15791     15790     15792     15791     15790     15837     15792     15790     15837
     15793     15796     15797     15793     15796     15798     15793     15796     15799
     15794     15793     15795     15794     15793     15796     15795     15793     15796
     15796     15799     15800     15796     15799     15801     15796     15799     15802
     15797     15796     15798     15797     15796     15799     15798     15796     15799
     15799     15802     15803     15799     15802     15804     15799     15802     15805
     15800     15799     15801     15800     15799     15802     15801     15799     15802
     15802     15805     15806     15802     15805     15807     15802     15805     15808
     15803     15802     15804     15803     15802     15805     15804     15802     15805
     15805     15808     15809     15805     15808     15810     15805     15808     15811
     15806     15805     15807     15806     15805     15808     15807     15805     15808
     15808     15811     15812     15808     15811     15813     15808     15811     15816
     15809     15808     15810     15809     15808     15811     15810     15808     15811
     15811     15813     15814     15811     15813     15815     15811     15813     15816
     15811     15816     15813     15811     15816     15817     15811     15816     15818
     15812     15811     15813     15812     15811     15816     15813     15811     15816
     15813     15816     15817     15813     15816     15818     15814     15813     15815
     15814     15813     15816     15815     15813     15816     15816     15818     15819
     15816     15818     15820     15816     15818     15821     15817     15816     15818
     15818     15821     15822     15818     15821     15823     15818     15821     15824
     15819     15818     15820     15819     15818     15821     15820     15818     15821
     15821     15824     15825     15821     15824     15826     15821     15824     15827
     15822     15821     15823     15822     15821     15824     15823     15821     15824
     15824     15827     15828     15824     15827     15829     15824     15827     15830
     15825     15824     15826     15825     15824     15827     15826     15824     15827
     15827     15830     15831     15827     15830     15832     15827     15830     15833
     15828     15827     15829     15828     15827     15830     15829     15827     15830
     15830     15833     15834     15830     15833     15835     15830     15833     15836
     15831     15830     15832     15831     15830     15833     15832     15830     15833
     15834     15833     15835     15834     15833     15836     15835     15833     15836
     15837     15840     15841     15837     15840     15842     15837     15840     15843
     15838     15837     15839     15838     15837     15840     15839     15837     15840
     15840     15843     15844     15840     15843     15845     15840     15843     15846
     15841     15840     15842     15841     15840     15843     15842     15840     15843
     15843     15846     15847     15843     15846     15848     15843     15846     15849
     15844     15843     15845     15844     15843     15846     15845     15843     15846
     15846     15849     15850     15846     15849     15851     15846     15849     15852
     15847     15846     15848     15847     15846     15849     15848     15846     15849
     15849     15852     15853     15849     15852     15854     15849     15852     15855
     15850     15849     15851     15850     15849     15852     15851     15849     15852
     15852     15855     15856     15852     15855     15857     15852     15855     15858
     15853     15852     15854     15853     15852     15855     15854     15852     15855
     15855     15858     15859     15855     15858     15860     15855     15858     15861
     15856     15855     15857     15856     15855     15858     15857     15855     15858
     15858     15861     15862     15858     15861     15863     15858     15861     15864
     15859     15858     15860     15859     15858     15861     15860     15858     15861
     15861     15864     15865     15861     15864     15866     15861     15864     15867
     15862     15861     15863     15862     15861     15864     15863     15861     15864
     15864     15867     15868     15864     15867     15869     15864     15867     15870
     15865     15864     15866     15865     15864     15867     15866     15864     15867
     15867     15870     15871     15867     15870     15872     15867     15870     15873
     15868     15867     15869     15868     15867     15870     15869     15867     15870
     15870     15873     15874     15870     15873     15875     15870     15873     15876
     15871     15870     15872     15871     15870     15873     15872     15870     15873
     15874     15873     15875     15874     15873     15876     15875     15873     15876
     15877     15880     15881     15877     15882     15883     15877     15882     15884
     15877     15882     15886     15878     15877     15879     15878     15877     15880
     15878     15877     15882     15879     15877     15880     15879     15877     15882
     15880     15877     15882     15882     15884     15885     15882     15886     15887
     15882     15886     15888     15882     15886     15893     15883     15882     15884
     15883     15882     15886     15884     15882     15886     15886     15893     15889
     15887     15886     15888     15887     15886     15893     15888     15886     15893
     15889     15892     15894     15890     15889     15891     15890     15889     15892
     15890     15889     15893     15891     15889     15892     15891     15889     15893
     15892     15889     15893     15892     15894     15895     15892     15894     15896
     15892     15894     15897     15894     15897     15898     15894     15897     15899
     15894     15897     15905     15895     15894     15896     15895     15894     15897
     15896     15894     15897     15897     15899     15900     15897     15905     15906
     15897     15905     15907     15897     15905     15908     15898     15897     15899
     15898     15897     15905     15899     15897     15905     15899     15900     15901
     15899     15900     15902     15900     15902     15903     15900     15902     15904
     15900     15902     15914     15901     15900     15902     15902     15914     15915
     15902     15914     15916     15902     15914     15917     15903     15902     15904
     15903     15902     15914     15904     15902     15914     15905     15908     15909
     15906     15905     15907     15906     15905     15908     15907     15905     15908
     15908     15909     15910     15908     15909     15911     15909     15911     15912
     15909     15911     15913     15909     15911     15955     15910     15909     15911
     15911     15955     15956     15911     15955     15957     15911     15955     15958
     15912     15911     15913     15912     15911     15955     15913     15911     15955
     15914     15917     15918     15914     15917     15919     15914     15917     15920
     15915     15914     15916     15915     15914     15917     15916     15914     15917
     15917     15920     15921     15917     15920     15922     15917     15920     15923
     15918     15917     15919     15918     15917     15920     15919     15917     15920
     15920     15923     15924     15920     15923     15925     15920     15923     15926
     15921     15920     15922     15921     15920     15923     15922     15920     15923
     15923     15926     15927     15923     15926     15928     15923     15926     15929
     15924     15923     15925     15924     15923     15926     15925     15923     15926
     15926     15929     15930     15926     15929     15931     15926     15929     15932
     15927     15926     15928     15927     15926     15929     15928     15926     15929
     15929     15932     15933     15929     15932     15934     15930     15929     15931
     15930     15929     15932     15931     15929     15932     15932     15934     15935
     15932     15934     15936     15933     15932     15934     15934     15936     15937
     15934     15936     15938     15934     15936     15939     15935     15934     15936
     15936     15939     15940     15936     15939     15941     15936     15939     15942
     15937     15936     15938     15937     15936     15939     15938     15936     15939
     15939     15942     15943     15939     15942     15944     15939     15942     15945
     15940     15939     15941     15940     15939     15942     15941     15939     15942
     15942     15945     15946     15942     15945     15947     15942     15945     15948
     15943     15942     15944     15943     15942     15945     15944     15942     15945
     15945     15948     15949     15945     15948     15950     15945     15948     15951
     15946     15945     15947     15946     15945     15948     15947     15945     15948
     15948     15951     15952     15948     15951     15953     15948     15951     15954
     15949     15948     15950     15949     15948     15951     15950     15948     15951
     15952     15951     15953     15952     15951     15954     15953     15951     15954
     15955     15958     15959     15955     15958     15960     15955     15958     15961
     15956     15955     15957     15956     15955     15958     15957     15955     15958
     15958     15961     15962     15958     15961     15963     15958     15961     15964
     15959     15958     15960     15959     15958     15961     15960     15958     15961
     15961     15964     15965     15961     15964     15966     15961     15964     15967
     15962     15961     15963     15962     15961     15964     15963     15961     15964
     15964     15967     15968     15964     15967     15969     15964     15967     15970
     15965     15964     15966     15965     15964     15967     15966     15964     15967
     15967     15970     15971     15967     15970     15972     15967     15970     15973
     15968     15967     15969     15968     15967     15970     15969     15967     15970
     15970     15973     15974     15970     15973     15975     15970     15973     15976
     15971     15970     15972     15971     15970     15973     15972     15970     15973
     15973     15976     15977     15973     15976     15978     15973     15976     15979
     15974     15973     15975     15974     15973     15976     15975     15973     15976
     15976     15979     15980     15976     15979     15981     15976     15979     15982
     15977     15976     15978     15977     15976     15979     15978     15976     15979
     15979     15982     15983     15979     15982     15984     15979     15982     15985
     15980     15979     15981     15980     15979     15982     15981     15979     15982
     15982     15985     15986     15982     15985     15987     15982     15985     15988
     15983     15982     15984     15983     15982     15985     15984     15982     15985
     15985     15988     15989     15985     15988     15990     15985     15988     15991
     15986     15985     15987     15986     15985     15988     15987     15985     15988
     15988     15991     15992     15988     15991     15993     15988     15991     15994
     15989     15988     15990     15989     15988     15991     15990     15988     15991
     15991     15994     15995     15991     15994     15996     15991     15994     15997
     15992     15991     15993     15992     15991     15994     15993     15991     15994
     15995     15994     15996     15995     15994     15997     15996     15994     15997
     15998     16001     16002     15998     16003     16004     15998     16003     16005
     15998     16003     16007     15999     15998     16000     15999     15998     16001
     15999     15998     16003     16000     15998     16001     16000     15998     16003
     16001     15998     16003     16003     16005     16006     16003     16007     16008
     16003     16007     16009     16003     16007     16014     16004     16003     16005
     16004     16003     16007     16005     16003     16007     16007     16014     16010
     16008     16007     16009     16008     16007     16014     16009     16007     16014
     16010     16013     16015     16011     16010     16012     16011     16010     16013
     16011     16010     16014     16012     16010     16013     16012     16010     16014
     16013     16010     16014     16013     16015     16016     16013     16015     16017
     16013     16015     16018     16015     16018     16019     16015     16018     16020
     16015     16018     16026     16016     16015     16017     16016     16015     16018
     16017     16015     16018     16018     16020     16021     16018     16026     16027
     16018     16026     16028     16018     16026     16029     16019     16018     16020
     16019     16018     16026     16020     16018     16026     16020     16021     16022
     16020     16021     16023     16021     16023     16024     16021     16023     16025
     16021     16023     16035     16022     16021     16023     16023     16035     16036
     16023     16035     16037     16023     16035     16038     16024     16023     16025
     16024     16023     16035     16025     16023     16035     16026     16029     16030
     16027     16026     16028     16027     16026     16029     16028     16026     16029
     16029     16030     16031     16029     16030     16032     16030     16032     16033
     16030     16032     16034     16030     16032     16076     16031     16030     16032
     16032     16076     16077     16032     16076     16078     16032     16076     16079
     16033     16032     16034     16033     16032     16076     16034     16032     16076
     16035     16038     16039     16035     16038     16040     16035     16038     16041
     16036     16035     16037     16036     16035     16038     16037     16035     16038
     16038     16041     16042     16038     16041     16043     16038     16041     16044
     16039     16038     16040     16039     16038     16041     16040     16038     16041
     16041     16044     16045     16041     16044     16046     16041     16044     16047
     16042     16041     16043     16042     16041     16044     16043     16041     16044
     16044     16047     16048     16044     16047     16049     16044     16047     16050
     16045     16044     16046     16045     16044     16047     16046     16044     16047
     16047     16050     16051     16047     16050     16052     16047     16050     16053
     16048     16047     16049     16048     16047     16050     16049     16047     16050
     16050     16053     16054     16050     16053     16055     16051     16050     16052
     16051     16050     16053     16052     16050     16053     16053     16055     16056
     16053     16055     16057     16054     16053     16055     16055     16057     16058
     16055     16057     16059     16055     16057     16060     16056     16055     16057
     16057     16060     16061     16057     16060     16062     16057     16060     16063
     16058     16057     16059     16058     16057     16060     16059     16057     16060
     16060     16063     16064     16060     16063     16065     16060     16063     16066
     16061     16060     16062     16061     16060     16063     16062     16060     16063
     16063     16066     16067     16063     16066     16068     16063     16066     16069
     16064     16063     16065     16064     16063     16066     16065     16063     16066
     16066     16069     16070     16066     16069     16071     16066     16069     16072
     16067     16066     16068     16067     16066     16069     16068     16066     16069
     16069     16072     16073     16069     16072     16074     16069     16072     16075
     16070     16069     16071     16070     16069     16072     16071     16069     16072
     16073     16072     16074     16073     16072     16075     16074     16072     16075
     16076     16079     16080     16076     16079     16081     16076     16079     16082
     16077     16076     16078     16077     16076     16079     16078     16076     16079
     16079     16082     16083     16079     16082     16084     16079     16082     16085
     16080     16079     16081     16080     16079     16082     16081     16079     16082
     16082     16085     16086     16082     16085     16087     16082     16085     16088
     16083     16082     16084     16083     16082     16085     16084     16082     16085
     16085     16088     16089     16085     16088     16090     16085     16088     16091
     16086     16085     16087     16086     16085     16088     16087     16085     16088
     16088     16091     16092     16088     16091     16093     16088     16091     16094
     16089     16088     16090     16089     16088     16091     16090     16088     16091
     16091     16094     16095     16091     16094     16096     16091     16094     16097
     16092     16091     16093     16092     16091     16094     16093     16091     16094
     16094     16097     16098     16094     16097     16099     16094     16097     16100
     16095     16094     16096     16095     16094     16097     16096     16094     16097
     16097     16100     16101     16097     16100     16102     16097     16100     16103
     16098     16097     16099     16098     16097     16100     16099     16097     16100
     16100     16103     16104     16100     16103     16105     16100     16103     16106
     16101     16100     16102     16101     16100     16103     16102     16100     16103
     16103     16106     16107     16103     16106     16108     16103     16106     16109
     16104     16103     16105     16104     16103     16106     16105     16103     16106
     16106     16109     16110     16106     16109     16111     16106     16109     16112
     16107     16106     16108     16107     16106     16109     16108     16106     16109
     16109     16112     16113     16109     16112     16114     16109     16112     16115
     16110     16109     16111     16110     16109     16112     16111     16109     16112
     16112     16115     16116     16112     16115     16117     16112     16115     16118
     16113     16112     16114     16113     16112     16115     16114     16112     16115
     16116     16115     16117     16116     16115     16118     16117     16115     16118
     16119     16123     16124     16119     16123     16125     16119     16123     16126
     16120     16119     16121     16120     16119     16122     16120     16119     16123
     16121     16119     16122     16121     16119     16123     16122     16119     16123
     16123     16126     16127     16123     16126     16128     16123     16126     16133
     16124     16123     16125     16124     16123     16126     16125     16123     16126
     16126     16133     16129     16127     16126     16128     16127     16126     16133
     16128     16126     16133     16129     16132     16134     16130     16129     16131
     16130     16129     16132     16130     16129     16133     16131     16129     16132
     16131     16129     16133     16132     16129     16133     16132     16134     16135
     16132     16134     16136     16132     16134     16137     16134     16137     16138
     16134     16137     16139     16134     16137     16145     16135     16134     16136
     16135     16134     16137     16136     16134     16137     16137     16139     16140
     16137     16145     16146     16137     16145     16147     16137     16145     16148
     16138     16137     16139     16138     16137     16145     16139     16137     16145
     16139     16140     16141     16139     16140     16142     16140     16142     16143
     16140     16142     16144     16140     16142     16154     16141     16140     16142
     16142     16154     16155     16142     16154     16156     16142     16154     16157
     16143     16142     16144     16143     16142     16154     16144     16142     16154
     16145     16148     16149     16146     16145     16147     16146     16145     16148
     16147     16145     16148     16148     16149     16150     16148     16149     16151
     16149     16151     16152     16149     16151     16153     16149     16151     16198
     16150     16149     16151     16151     16198     16199     16151     16198     16200
     16151     16198     16201     16152     16151     16153     16152     16151     16198
     16153     16151     16198     16154     16157     16158     16154     16157     16159
     16154     16157     16160     16155     16154     16156     16155     16154     16157
     16156     16154     16157     16157     16160     16161     16157     16160     16162
     16157     16160     16163     16158     16157     16159     16158     16157     16160
     16159     16157     16160     16160     16163     16164     16160     16163     16165
     16160     16163     16166     16161     16160     16162     16161     16160     16163
     16162     16160     16163     16163     16166     16167     16163     16166     16168
     16163     16166     16169     16164     16163     16165     16164     16163     16166
     16165     16163     16166     16166     16169     16170     16166     16169     16171
     16166     16169     16172     16167     16166     16168     16167     16166     16169
     16168     16166     16169     16169     16172     16173     16169     16172     16174
     16169     16172     16177     16170     16169     16171     16170     16169     16172
     16171     16169     16172     16172     16174     16175     16172     16174     16176
     16172     16174     16177     16172     16177     16174     16172     16177     16178
     16172     16177     16179     16173     16172     16174     16173     16172     16177
     16174     16172     16177     16174     16177     16178     16174     16177     16179
     16175     16174     16176     16175     16174     16177     16176     16174     16177
     16177     16179     16180     16177     16179     16181     16177     16179     16182
     16178     16177     16179     16179     16182     16183     16179     16182     16184
     16179     16182     16185     16180     16179     16181     16180     16179     16182
     16181     16179     16182     16182     16185     16186     16182     16185     16187
     16182     16185     16188     16183     16182     16184     16183     16182     16185
     16184     16182     16185     16185     16188     16189     16185     16188     16190
     16185     16188     16191     16186     16185     16187     16186     16185     16188
     16187     16185     16188     16188     16191     16192     16188     16191     16193
     16188     16191     16194     16189     16188     16190     16189     16188     16191
     16190     16188     16191     16191     16194     16195     16191     16194     16196
     16191     16194     16197     16192     16191     16193     16192     16191     16194
     16193     16191     16194     16195     16194     16196     16195     16194     16197
     16196     16194     16197     16198     16201     16202     16198     16201     16203
     16198     16201     16204     16199     16198     16200     16199     16198     16201
     16200     16198     16201     16201     16204     16205     16201     16204     16206
     16201     16204     16207     16202     16201     16203     16202     16201     16204
     16203     16201     16204     16204     16207     16208     16204     16207     16209
     16204     16207     16210     16205     16204     16206     16205     16204     16207
     16206     16204     16207     16207     16210     16211     16207     16210     16212
     16207     16210     16213     16208     16207     16209     16208     16207     16210
     16209     16207     16210     16210     16213     16214     16210     16213     16215
     16210     16213     16216     16211     16210     16212     16211     16210     16213
     16212     16210     16213     16213     16216     16217     16213     16216     16218
     16213     16216     16219     16214     16213     16215     16214     16213     16216
     16215     16213     16216     16216     16219     16220     16216     16219     16221
     16216     16219     16222     16217     16216     16218     16217     16216     16219
     16218     16216     16219     16219     16222     16223     16219     16222     16224
     16219     16222     16225     16220     16219     16221     16220     16219     16222
     16221     16219     16222     16222     16225     16226     16222     16225     16227
     16222     16225     16228     16223     16222     16224     16223     16222     16225
     16224     16222     16225     16225     16228     16229     16225     16228     16230
     16225     16228     16231     16226     16225     16227     16226     16225     16228
     16227     16225     16228     16228     16231     16232     16228     16231     16233
     16228     16231     16234     16229     16228     16230     16229     16228     16231
     16230     16228     16231     16231     16234     16235     16231     16234     16236
     16231     16234     16237     16232     16231     16233     16232     16231     16234
     16233     16231     16234     16234     16237     16238     16234     16237     16239
     16234     16237     16240     16235     16234     16236     16235     16234     16237
     16236     16234     16237     16238     16237     16239     16238     16237     16240
     16239     16237     16240     16241     16245     16246     16241     16245     16247
     16241     16245     16248     16242     16241     16243     16242     16241     16244
     16242     16241     16245     16243     16241     16244     16243     16241     16245
     16244     16241     16245     16245     16248     16249     16245     16248     16250
     16245     16248     16255     16246     16245     16247     16246     16245     16248
     16247     16245     16248     16248     16255     16251     16249     16248     16250
     16249     16248     16255     16250     16248     16255     16251     16254     16256
     16252     16251     16253     16252     16251     16254     16252     16251     16255
     16253     16251     16254     16253     16251     16255     16254     16251     16255
     16254     16256     16257     16254     16256     16258     16254     16256     16259
     16256     16259     16260     16256     16259     16261     16256     16259     16267
     16257     16256     16258     16257     16256     16259     16258     16256     16259
     16259     16261     16262     16259     16267     16268     16259     16267     16269
     16259     16267     16270     16260     16259     16261     16260     16259     16267
     16261     16259     16267     16261     16262     16263     16261     16262     16264
     16262     16264     16265     16262     16264     16266     16262     16264     16276
     16263     16262     16264     16264     16276     16277     16264     16276     16278
     16264     16276     16279     16265     16264     16266     16265     16264     16276
     16266     16264     16276     16267     16270     16271     16268     16267     16269
     16268     16267     16270     16269     16267     16270     16270     16271     16272
     16270     16271     16273     16271     16273     16274     16271     16273     16275
     16271     16273     16323     16272     16271     16273     16273     16323     16324
     16273     16323     16325     16273     16323     16326     16274     16273     16275
     16274     16273     16323     16275     16273     16323     16276     16279     16280
     16276     16279     16281     16276     16279     16282     16277     16276     16278
     16277     16276     16279     16278     16276     16279     16279     16282     16283
     16279     16282     16284     16279     16282     16285     16280     16279     16281
     16280     16279     16282     16281     16279     16282     16282     16285     16286
     16282     16285     16287     16282     16285     16288     16283     16282     16284
     16283     16282     16285     16284     16282     16285     16285     16288     16289
     16285     16288     16290     16285     16288     16291     16286     16285     16287
     16286     16285     16288     16287     16285     16288     16288     16291     16292
     16288     16291     16293     16288     16291     16294     16289     16288     16290
     16289     16288     16291     16290     16288     16291     16291     16294     16295
     16291     16294     16296     16292     16291     16293     16292     16291     16294
     16293     16291     16294     16294     16296     16297     16294     16296     16298
     16295     16294     16296     16296     16298     16299     16296     16298     16300
     16296     16298     16301     16297     16296     16298     16298     16301     16302
     16298     16301     16303     16298     16301     16304     16299     16298     16300
     16299     16298     16301     16300     16298     16301     16301     16304     16305
     16301     16304     16306     16301     16304     16307     16302     16301     16303
     16302     16301     16304     16303     16301     16304     16304     16307     16308
     16304     16307     16309     16304     16307     16310     16305     16304     16306
     16305     16304     16307     16306     16304     16307     16307     16310     16311
     16307     16310     16312     16307     16310     16313     16308     16307     16309
     16308     16307     16310     16309     16307     16310     16310     16313     16314
     16310     16313     16315     16310     16313     16316     16311     16310     16312
     16311     16310     16313     16312     16310     16313     16313     16316     16317
     16313     16316     16318     16313     16316     16319     16314     16313     16315
     16314     16313     16316     16315     16313     16316     16316     16319     16320
     16316     16319     16321     16316     16319     16322     16317     16316     16318
     16317     16316     16319     16318     16316     16319     16320     16319     16321
     16320     16319     16322     16321     16319     16322     16323     16326     16327
     16323     16326     16328     16323     16326     16329     16324     16323     16325
     16324     16323     16326     16325     16323     16326     16326     16329     16330
     16326     16329     16331     16326     16329     16332     16327     16326     16328
     16327     16326     16329     16328     16326     16329     16329     16332     16333
     16329     16332     16334     16329     16332     16335     16330     16329     16331
     16330     16329     16332     16331     16329     16332     16332     16335     16336
     16332     16335     16337     16332     16335     16338     16333     16332     16334
     16333     16332     16335     16334     16332     16335     16335     16338     16339
     16335     16338     16340     16335     16338     16341     16336     16335     16337
     16336     16335     16338     16337     16335     16338     16338     16341     16342
     16338     16341     16343     16338     16341     16344     16339     16338     16340
     16339     16338     16341     16340     16338     16341     16341     16344     16345
     16341     16344     16346     16341     16344     16347     16342     16341     16343
     16342     16341     16344     16343     16341     16344     16344     16347     16348
     16344     16347     16349     16344     16347     16350     16345     16344     16346
     16345     16344     16347     16346     16344     16347     16347     16350     16351
     16347     16350     16352     16347     16350     16353     16348     16347     16349
     16348     16347     16350     16349     16347     16350     16350     16353     16354
     16350     16353     16355     16350     16353     16356     16351     16350     16352
     16351     16350     16353     16352     16350     16353     16353     16356     16357
     16353     16356     16358     16353     16356     16359     16354     16353     16355
     16354     16353     16356     16355     16353     16356     16356     16359     16360
     16356     16359     16361     16356     16359     16362     16357     16356     16358
     16357     16356     16359     16358     16356     16359     16359     16362     16363
     16359     16362     16364     16359     16362     16365     16360     16359     16361
     16360     16359     16362     16361     16359     16362     16363     16362     16364
     16363     16362     16365     16364     16362     16365     16366     16370     16371
     16366     16370     16372     16366     16370     16373     16367     16366     16368
     16367     16366     16369     16367     16366     16370     16368     16366     16369
     16368     16366     16370     16369     16366     16370     16370     16373     16374
     16370     16373     16375     16370     16373     16380     16371     16370     16372
     16371     16370     16373     16372     16370     16373     16373     16380     16376
     16374     16373     16375     16374     16373     16380     16375     16373     16380
     16376     16379     16381     16377     16376     16378     16377     16376     16379
     16377     16376     16380     16378     16376     16379     16378     16376     16380
     16379     16376     16380     16379     16381     16382     16379     16381     16383
     16379     16381     16384     16381     16384     16385     16381     16384     16386
     16381     16384     16392     16382     16381     16383     16382     16381     16384
     16383     16381     16384     16384     16386     16387     16384     16392     16393
     16384     16392     16394     16384     16392     16395     16385     16384     16386
     16385     16384     16392     16386     16384     16392     16386     16387     16388
     16386     16387     16389     16387     16389     16390     16387     16389     16391
     16387     16389     16401     16388     16387     16389     16389     16401     16402
     16389     16401     16403     16389     16401     16404     16390     16389     16391
     16390     16389     16401     16391     16389     16401     16392     16395     16396
     16393     16392     16394     16393     16392     16395     16394     16392     16395
     16395     16396     16397     16395     16396     16398     16396     16398     16399
     16396     16398     16400     16396     16398     16448     16397     16396     16398
     16398     16448     16449     16398     16448     16450     16398     16448     16451
     16399     16398     16400     16399     16398     16448     16400     16398     16448
     16401     16404     16405     16401     16404     16406     16401     16404     16407
     16402     16401     16403     16402     16401     16404     16403     16401     16404
     16404     16407     16408     16404     16407     16409     16404     16407     16410
     16405     16404     16406     16405     16404     16407     16406     16404     16407
     16407     16410     16411     16407     16410     16412     16407     16410     16413
     16408     16407     16409     16408     16407     16410     16409     16407     16410
     16410     16413     16414     16410     16413     16415     16410     16413     16416
     16411     16410     16412     16411     16410     16413     16412     16410     16413
     16413     16416     16417     16413     16416     16418     16413     16416     16419
     16414     16413     16415     16414     16413     16416     16415     16413     16416
     16416     16419     16420     16416     16419     16421     16417     16416     16418
     16417     16416     16419     16418     16416     16419     16419     16421     16422
     16419     16421     16423     16420     16419     16421     16421     16423     16424
     16421     16423     16425     16421     16423     16426     16422     16421     16423
     16423     16426     16427     16423     16426     16428     16423     16426     16429
     16424     16423     16425     16424     16423     16426     16425     16423     16426
     16426     16429     16430     16426     16429     16431     16426     16429     16432
     16427     16426     16428     16427     16426     16429     16428     16426     16429
     16429     16432     16433     16429     16432     16434     16429     16432     16435
     16430     16429     16431     16430     16429     16432     16431     16429     16432
     16432     16435     16436     16432     16435     16437     16432     16435     16438
     16433     16432     16434     16433     16432     16435     16434     16432     16435
     16435     16438     16439     16435     16438     16440     16435     16438     16441
     16436     16435     16437     16436     16435     16438     16437     16435     16438
     16438     16441     16442     16438     16441     16443     16438     16441     16444
     16439     16438     16440     16439     16438     16441     16440     16438     16441
     16441     16444     16445     16441     16444     16446     16441     16444     16447
     16442     16441     16443     16442     16441     16444     16443     16441     16444
     16445     16444     16446     16445     16444     16447     16446     16444     16447
     16448     16451     16452     16448     16451     16453     16448     16451     16454
     16449     16448     16450     16449     16448     16451     16450     16448     16451
     16451     16454     16455     16451     16454     16456     16451     16454     16457
     16452     16451     16453     16452     16451     16454     16453     16451     16454
     16454     16457     16458     16454     16457     16459     16454     16457     16460
     16455     16454     16456     16455     16454     16457     16456     16454     16457
     16457     16460     16461     16457     16460     16462     16457     16460     16463
     16458     16457     16459     16458     16457     16460     16459     16457     16460
     16460     16463     16464     16460     16463     16465     16460     16463     16466
     16461     16460     16462     16461     16460     16463     16462     16460     16463
     16463     16466     16467     16463     16466     16468     16463     16466     16469
     16464     16463     16465     16464     16463     16466     16465     16463     16466
     16466     16469     16470     16466     16469     16471     16466     16469     16472
     16467     16466     16468     16467     16466     16469     16468     16466     16469
     16469     16472     16473     16469     16472     16474     16469     16472     16475
     16470     16469     16471     16470     16469     16472     16471     16469     16472
     16472     16475     16476     16472     16475     16477     16472     16475     16478
     16473     16472     16474     16473     16472     16475     16474     16472     16475
     16475     16478     16479     16475     16478     16480     16475     16478     16481
     16476     16475     16477     16476     16475     16478     16477     16475     16478
     16478     16481     16482     16478     16481     16483     16478     16481     16484
     16479     16478     16480     16479     16478     16481     16480     16478     16481
     16481     16484     16485     16481     16484     16486     16481     16484     16487
     16482     16481     16483     16482     16481     16484     16483     16481     16484
     16484     16487     16488     16484     16487     16489     16484     16487     16490
     16485     16484     16486     16485     16484     16487     16486     16484     16487
     16488     16487     16489     16488     16487     16490     16489     16487     16490
     16491     16495     16496     16491     16495     16497     16491     16495     16498
     16492     16491     16493     16492     16491     16494     16492     16491     16495
     16493     16491     16494     16493     16491     16495     16494     16491     16495
     16495     16498     16499     16495     16498     16500     16495     16498     16505
     16496     16495     16497     16496     16495     16498     16497     16495     16498
     16498     16505     16501     16499     16498     16500     16499     16498     16505
     16500     16498     16505     16501     16504     16506     16502     16501     16503
     16502     16501     16504     16502     16501     16505     16503     16501     16504
     16503     16501     16505     16504     16501     16505     16504     16506     16507
     16504     16506     16508     16504     16506     16509     16506     16509     16510
     16506     16509     16511     16506     16509     16517     16507     16506     16508
     16507     16506     16509     16508     16506     16509     16509     16511     16512
     16509     16517     16518     16509     16517     16519     16509     16517     16520
     16510     16509     16511     16510     16509     16517     16511     16509     16517
     16511     16512     16513     16511     16512     16514     16512     16514     16515
     16512     16514     16516     16512     16514     16526     16513     16512     16514
     16514     16526     16527     16514     16526     16528     16514     16526     16529
     16515     16514     16516     16515     16514     16526     16516     16514     16526
     16517     16520     16521     16518     16517     16519     16518     16517     16520
     16519     16517     16520     16520     16521     16522     16520     16521     16523
     16521     16523     16524     16521     16523     16525     16521     16523     16567
     16522     16521     16523     16523     16567     16568     16523     16567     16569
     16523     16567     16570     16524     16523     16525     16524     16523     16567
     16525     16523     16567     16526     16529     16530     16526     16529     16531
     16526     16529     16532     16527     16526     16528     16527     16526     16529
     16528     16526     16529     16529     16532     16533     16529     16532     16534
     16529     16532     16535     16530     16529     16531     16530     16529     16532
     16531     16529     16532     16532     16535     16536     16532     16535     16537
     16532     16535     16538     16533     16532     16534     16533     16532     16535
     16534     16532     16535     16535     16538     16539     16535     16538     16540
     16535     16538     16541     16536     16535     16537     16536     16535     16538
     16537     16535     16538     16538     16541     16542     16538     16541     16543
     16538     16541     16544     16539     16538     16540     16539     16538     16541
     16540     16538     16541     16541     16544     16545     16541     16544     16546
     16542     16541     16543     16542     16541     16544     16543     16541     16544
     16544     16546     16547     16544     16546     16548     16545     16544     16546
     16546     16548     16549     16546     16548     16550     16546     16548     16551
     16547     16546     16548     16548     16551     16552     16548     16551     16553
     16548     16551     16554     16549     16548     16550     16549     16548     16551
     16550     16548     16551     16551     16554     16555     16551     16554     16556
     16551     16554     16557     16552     16551     16553     16552     16551     16554
     16553     16551     16554     16554     16557     16558     16554     16557     16559
     16554     16557     16560     16555     16554     16556     16555     16554     16557
     16556     16554     16557     16557     16560     16561     16557     16560     16562
     16557     16560     16563     16558     16557     16559     16558     16557     16560
     16559     16557     16560     16560     16563     16564     16560     16563     16565
     16560     16563     16566     16561     16560     16562     16561     16560     16563
     16562     16560     16563     16564     16563     16565     16564     16563     16566
     16565     16563     16566     16567     16570     16571     16567     16570     16572
     16567     16570     16573     16568     16567     16569     16568     16567     16570
     16569     16567     16570     16570     16573     16574     16570     16573     16575
     16570     16573     16576     16571     16570     16572     16571     16570     16573
     16572     16570     16573     16573     16576     16577     16573     16576     16578
     16573     16576     16579     16574     16573     16575     16574     16573     16576
     16575     16573     16576     16576     16579     16580     16576     16579     16581
     16576     16579     16582     16577     16576     16578     16577     16576     16579
     16578     16576     16579     16579     16582     16583     16579     16582     16584
     16579     16582     16585     16580     16579     16581     16580     16579     16582
     16581     16579     16582     16582     16585     16586     16582     16585     16587
     16583     16582     16584     16583     16582     16585     16584     16582     16585
     16585     16587     16588     16585     16587     16589     16586     16585     16587
     16587     16589     16590     16587     16589     16591     16587     16589     16592
     16588     16587     16589     16589     16592     16593     16589     16592     16594
     16589     16592     16595     16590     16589     16591     16590     16589     16592
     16591     16589     16592     16592     16595     16596     16592     16595     16597
     16592     16595     16598     16593     16592     16594     16593     16592     16595
     16594     16592     16595     16595     16598     16599     16595     16598     16600
     16595     16598     16601     16596     16595     16597     16596     16595     16598
     16597     16595     16598     16598     16601     16602     16598     16601     16603
     16598     16601     16604     16599     16598     16600     16599     16598     16601
     16600     16598     16601     16601     16604     16605     16601     16604     16606
     16601     16604     16607     16602     16601     16603     16602     16601     16604
     16603     16601     16604     16604     16607     16608     16604     16607     16609
     16604     16607     16610     16605     16604     16606     16605     16604     16607
     16606     16604     16607     16607     16610     16611     16607     16610     16612
     16607     16610     16613     16608     16607     16609     16608     16607     16610
     16609     16607     16610     16611     16610     16612     16611     16610     16613
     16612     16610     16613     16614     16618     16619     16614     16618     16620
     16614     16618     16621     16615     16614     16616     16615     16614     16617
     16615     16614     16618     16616     16614     16617     16616     16614     16618
     16617     16614     16618     16618     16621     16622     16618     16621     16623
     16618     16621     16628     16619     16618     16620     16619     16618     16621
     16620     16618     16621     16621     16628     16624     16622     16621     16623
     16622     16621     16628     16623     16621     16628     16624     16627     16629
     16625     16624     16626     16625     16624     16627     16625     16624     16628
     16626     16624     16627     16626     16624     16628     16627     16624     16628
     16627     16629     16630     16627     16629     16631     16627     16629     16632
     16629     16632     16633     16629     16632     16634     16629     16632     16640
     16630     16629     16631     16630     16629     16632     16631     16629     16632
     16632     16634     16635     16632     16640     16641     16632     16640     16642
     16632     16640     16643     16633     16632     16634     16633     16632     16640
     16634     16632     16640     16634     16635     16636     16634     16635     16637
     16635     16637     16638     16635     16637     16639     16635     16637     16649
     16636     16635     16637     16637     16649     16650     16637     16649     16651
     16637     16649     16652     16638     16637     16639     16638     16637     16649
     16639     16637     16649     16640     16643     16644     16641     16640     16642
     16641     16640     16643     16642     16640     16643     16643     16644     16645
     16643     16644     16646     16644     16646     16647     16644     16646     16648
     16644     16646     16693     16645     16644     16646     16646     16693     16694
     16646     16693     16695     16646     16693     16696     16647     16646     16648
     16647     16646     16693     16648     16646     16693     16649     16652     16653
     16649     16652     16654     16649     16652     16655     16650     16649     16651
     16650     16649     16652     16651     16649     16652     16652     16655     16656
     16652     16655     16657     16652     16655     16658     16653     16652     16654
     16653     16652     16655     16654     16652     16655     16655     16658     16659
     16655     16658     16660     16655     16658     16661     16656     16655     16657
     16656     16655     16658     16657     16655     16658     16658     16661     16662
     16658     16661     16663     16658     16661     16664     16659     16658     16660
     16659     16658     16661     16660     16658     16661     16661     16664     16665
     16661     16664     16666     16661     16664     16667     16662     16661     16663
     16662     16661     16664     16663     16661     16664     16664     16667     16668
     16664     16667     16669     16664     16667     16672     16665     16664     16666
     16665     16664     16667     16666     16664     16667     16667     16669     16670
     16667     16669     16671     16667     16669     16672     16667     16672     16669
     16667     16672     16673     16667     16672     16674     16668     16667     16669
     16668     16667     16672     16669     16667     16672     16669     16672     16673
     16669     16672     16674     16670     16669     16671     16670     16669     16672
     16671     16669     16672     16672     16674     16675     16672     16674     16676
     16672     16674     16677     16673     16672     16674     16674     16677     16678
     16674     16677     16679     16674     16677     16680     16675     16674     16676
     16675     16674     16677     16676     16674     16677     16677     16680     16681
     16677     16680     16682     16677     16680     16683     16678     16677     16679
     16678     16677     16680     16679     16677     16680     16680     16683     16684
     16680     16683     16685     16680     16683     16686     16681     16680     16682
     16681     16680     16683     16682     16680     16683     16683     16686     16687
     16683     16686     16688     16683     16686     16689     16684     16683     16685
     16684     16683     16686     16685     16683     16686     16686     16689     16690
     16686     16689     16691     16686     16689     16692     16687     16686     16688
     16687     16686     16689     16688     16686     16689     16690     16689     16691
     16690     16689     16692     16691     16689     16692     16693     16696     16697
     16693     16696     16698     16693     16696     16699     16694     16693     16695
     16694     16693     16696     16695     16693     16696     16696     16699     16700
     16696     16699     16701     16696     16699     16702     16697     16696     16698
     16697     16696     16699     16698     16696     16699     16699     16702     16703
     16699     16702     16704     16699     16702     16705     16700     16699     16701
     16700     16699     16702     16701     16699     16702     16702     16705     16706
     16702     16705     16707     16702     16705     16708     16703     16702     16704
     16703     16702     16705     16704     16702     16705     16705     16708     16709
     16705     16708     16710     16705     16708     16711     16706     16705     16707
     16706     16705     16708     16707     16705     16708     16708     16711     16712
     16708     16711     16713     16708     16711     16714     16709     16708     16710
     16709     16708     16711     16710     16708     16711     16711     16714     16715
     16711     16714     16716     16711     16714     16717     16712     16711     16713
     16712     16711     16714     16713     16711     16714     16714     16717     16718
     16714     16717     16719     16714     16717     16720     16715     16714     16716
     16715     16714     16717     16716     16714     16717     16717     16720     16721
     16717     16720     16722     16717     16720     16723     16718     16717     16719
     16718     16717     16720     16719     16717     16720     16720     16723     16724
     16720     16723     16725     16720     16723     16726     16721     16720     16722
     16721     16720     16723     16722     16720     16723     16723     16726     16727
     16723     16726     16728     16723     16726     16729     16724     16723     16725
     16724     16723     16726     16725     16723     16726     16726     16729     16730
     16726     16729     16731     16726     16729     16732     16727     16726     16728
     16727     16726     16729     16728     16726     16729     16729     16732     16733
     16729     16732     16734     16729     16732     16735     16730     16729     16731
     16730     16729     16732     16731     16729     16732     16733     16732     16734
     16733     16732     16735     16734     16732     16735     16736     16740     16741
     16736     16740     16742     16736     16740     16743     16737     16736     16738
     16737     16736     16739     16737     16736     16740     16738     16736     16739
     16738     16736     16740     16739     16736     16740     16740     16743     16744
     16740     16743     16745     16740     16743     16750     16741     16740     16742
     16741     16740     16743     16742     16740     16743     16743     16750     16746
     16744     16743     16745     16744     16743     16750     16745     16743     16750
     16746     16749     16751     16747     16746     16748     16747     16746     16749
     16747     16746     16750     16748     16746     16749     16748     16746     16750
     16749     16746     16750     16749     16751     16752     16749     16751     16753
     16749     16751     16754     16751     16754     16755     16751     16754     16756
     16751     16754     16762     16752     16751     16753     16752     16751     16754
     16753     16751     16754     16754     16756     16757     16754     16762     16763
     16754     16762     16764     16754     16762     16765     16755     16754     16756
     16755     16754     16762     16756     16754     16762     16756     16757     16758
     16756     16757     16759     16757     16759     16760     16757     16759     16761
     16757     16759     16771     16758     16757     16759     16759     16771     16772
     16759     16771     16773     16759     16771     16774     16760     16759     16761
     16760     16759     16771     16761     16759     16771     16762     16765     16766
     16763     16762     16764     16763     16762     16765     16764     16762     16765
     16765     16766     16767     16765     16766     16768     16766     16768     16769
     16766     16768     16770     16766     16768     16815     16767     16766     16768
     16768     16815     16816     16768     16815     16817     16768     16815     16818
     16769     16768     16770     16769     16768     16815     16770     16768     16815
     16771     16774     16775     16771     16774     16776     16771     16774     16777
     16772     16771     16773     16772     16771     16774     16773     16771     16774
     16774     16777     16778     16774     16777     16779     16774     16777     16780
     16775     16774     16776     16775     16774     16777     16776     16774     16777
     16777     16780     16781     16777     16780     16782     16777     16780     16783
     16778     16777     16779     16778     16777     16780     16779     16777     16780
     16780     16783     16784     16780     16783     16785     16780     16783     16786
     16781     16780     16782     16781     16780     16783     16782     16780     16783
     16783     16786     16787     16783     16786     16788     16783     16786     16789
     16784     16783     16785     16784     16783     16786     16785     16783     16786
     16786     16789     16790     16786     16789     16791     16786     16789     16794
     16787     16786     16788     16787     16786     16789     16788     16786     16789
     16789     16791     16792     16789     16791     16793     16789     16791     16794
     16789     16794     16791     16789     16794     16795     16789     16794     16796
     16790     16789     16791     16790     16789     16794     16791     16789     16794
     16791     16794     16795     16791     16794     16796     16792     16791     16793
     16792     16791     16794     16793     16791     16794     16794     16796     16797
     16794     16796     16798     16794     16796     16799     16795     16794     16796
     16796     16799     16800     16796     16799     16801     16796     16799     16802
     16797     16796     16798     16797     16796     16799     16798     16796     16799
     16799     16802     16803     16799     16802     16804     16799     16802     16805
     16800     16799     16801     16800     16799     16802     16801     16799     16802
     16802     16805     16806     16802     16805     16807     16802     16805     16808
     16803     16802     16804     16803     16802     16805     16804     16802     16805
     16805     16808     16809     16805     16808     16810     16805     16808     16811
     16806     16805     16807     16806     16805     16808     16807     16805     16808
     16808     16811     16812     16808     16811     16813     16808     16811     16814
     16809     16808     16810     16809     16808     16811     16810     16808     16811
     16812     16811     16813     16812     16811     16814     16813     16811     16814
     16815     16818     16819     16815     16818     16820     16815     16818     16821
     16816     16815     16817     16816     16815     16818     16817     16815     16818
     16818     16821     16822     16818     16821     16823     16818     16821     16824
     16819     16818     16820     16819     16818     16821     16820     16818     16821
     16821     16824     16825     16821     16824     16826     16821     16824     16827
     16822     16821     16823     16822     16821     16824     16823     16821     16824
     16824     16827     16828     16824     16827     16829     16824     16827     16830
     16825     16824     16826     16825     16824     16827     16826     16824     16827
     16827     16830     16831     16827     16830     16832     16827     16830     16833
     16828     16827     16829     16828     16827     16830     16829     16827     16830
     16830     16833     16834     16830     16833     16835     16830     16833     16836
     16831     16830     16832     16831     16830     16833     16832     16830     16833
     16833     16836     16837     16833     16836     16838     16833     16836     16839
     16834     16833     16835     16834     16833     16836     16835     16833     16836
     16836     16839     16840     16836     16839     16841     16836     16839     16842
     16837     16836     16838     16837     16836     16839     16838     16836     16839
     16839     16842     16843     16839     16842     16844     16839     16842     16845
     16840     16839     16841     16840     16839     16842     16841     16839     16842
     16842     16845     16846     16842     16845     16847     16842     16845     16848
     16843     16842     16844     16843     16842     16845     16844     16842     16845
     16845     16848     16849     16845     16848     16850     16845     16848     16851
     16846     16845     16847     16846     16845     16848     16847     16845     16848
     16848     16851     16852     16848     16851     16853     16848     16851     16854
     16849     16848     16850     16849     16848     16851     16850     16848     16851
     16851     16854     16855     16851     16854     16856     16851     16854     16857
     16852     16851     16853     16852     16851     16854     16853     16851     16854
     16855     16854     16856     16855     16854     16857     16856     16854     16857
     16858     16862     16863     16858     16862     16864     16858     16862     16865
     16859     16858     16860     16859     16858     16861     16859     16858     16862
     16860     16858     16861     16860     16858     16862     16861     16858     16862
     16862     16865     16866     16862     16865     16867     16862     16865     16872
     16863     16862     16864     16863     16862     16865     16864     16862     16865
     16865     16872     16868     16866     16865     16867     16866     16865     16872
     16867     16865     16872     16868     16871     16873     16869     16868     16870
     16869     16868     16871     16869     16868     16872     16870     16868     16871
     16870     16868     16872     16871     16868     16872     16871     16873     16874
     16871     16873     16875     16871     16873     16876     16873     16876     16877
     16873     16876     16878     16873     16876     16884     16874     16873     16875
     16874     16873     16876     16875     16873     16876     16876     16878     16879
     16876     16884     16885     16876     16884     16886     16876     16884     16887
     16877     16876     16878     16877     16876     16884     16878     16876     16884
     16878     16879     16880     16878     16879     16881     16879     16881     16882
     16879     16881     16883     16879     16881     16893     16880     16879     16881
     16881     16893     16894     16881     16893     16895     16881     16893     16896
     16882     16881     16883     16882     16881     16893     16883     16881     16893
     16884     16887     16888     16885     16884     16886     16885     16884     16887
     16886     16884     16887     16887     16888     16889     16887     16888     16890
     16888     16890     16891     16888     16890     16892     16888     16890     16937
     16889     16888     16890     16890     16937     16938     16890     16937     16939
     16890     16937     16940     16891     16890     16892     16891     16890     16937
     16892     16890     16937     16893     16896     16897     16893     16896     16898
     16893     16896     16899     16894     16893     16895     16894     16893     16896
     16895     16893     16896     16896     16899     16900     16896     16899     16901
     16896     16899     16902     16897     16896     16898     16897     16896     16899
     16898     16896     16899     16899     16902     16903     16899     16902     16904
     16899     16902     16905     16900     16899     16901     16900     16899     16902
     16901     16899     16902     16902     16905     16906     16902     16905     16907
     16902     16905     16908     16903     16902     16904     16903     16902     16905
     16904     16902     16905     16905     16908     16909     16905     16908     16910
     16905     16908     16911     16906     16905     16907     16906     16905     16908
     16907     16905     16908     16908     16911     16912     16908     16911     16913
     16908     16911     16916     16909     16908     16910     16909     16908     16911
     16910     16908     16911     16911     16913     16914     16911     16913     16915
     16911     16913     16916     16911     16916     16913     16911     16916     16917
     16911     16916     16918     16912     16911     16913     16912     16911     16916
     16913     16911     16916     16913     16916     16917     16913     16916     16918
     16914     16913     16915     16914     16913     16916     16915     16913     16916
     16916     16918     16919     16916     16918     16920     16916     16918     16921
     16917     16916     16918     16918     16921     16922     16918     16921     16923
     16918     16921     16924     16919     16918     16920     16919     16918     16921
     16920     16918     16921     16921     16924     16925     16921     16924     16926
     16921     16924     16927     16922     16921     16923     16922     16921     16924
     16923     16921     16924     16924     16927     16928     16924     16927     16929
     16924     16927     16930     16925     16924     16926     16925     16924     16927
     16926     16924     16927     16927     16930     16931     16927     16930     16932
     16927     16930     16933     16928     16927     16929     16928     16927     16930
     16929     16927     16930     16930     16933     16934     16930     16933     16935
     16930     16933     16936     16931     16930     16932     16931     16930     16933
     16932     16930     16933     16934     16933     16935     16934     16933     16936
     16935     16933     16936     16937     16940     16941     16937     16940     16942
     16937     16940     16943     16938     16937     16939     16938     16937     16940
     16939     16937     16940     16940     16943     16944     16940     16943     16945
     16940     16943     16946     16941     16940     16942     16941     16940     16943
     16942     16940     16943     16943     16946     16947     16943     16946     16948
     16943     16946     16949     16944     16943     16945     16944     16943     16946
     16945     16943     16946     16946     16949     16950     16946     16949     16951
     16946     16949     16952     16947     16946     16948     16947     16946     16949
     16948     16946     16949     16949     16952     16953     16949     16952     16954
     16949     16952     16955     16950     16949     16951     16950     16949     16952
     16951     16949     16952     16952     16955     16956     16952     16955     16957
     16952     16955     16958     16953     16952     16954     16953     16952     16955
     16954     16952     16955     16955     16958     16959     16955     16958     16960
     16955     16958     16961     16956     16955     16957     16956     16955     16958
     16957     16955     16958     16958     16961     16962     16958     16961     16963
     16958     16961     16964     16959     16958     16960     16959     16958     16961
     16960     16958     16961     16961     16964     16965     16961     16964     16966
     16961     16964     16967     16962     16961     16963     16962     16961     16964
     16963     16961     16964     16964     16967     16968     16964     16967     16969
     16964     16967     16970     16965     16964     16966     16965     16964     16967
     16966     16964     16967     16967     16970     16971     16967     16970     16972
     16967     16970     16973     16968     16967     16969     16968     16967     16970
     16969     16967     16970     16970     16973     16974     16970     16973     16975
     16970     16973     16976     16971     16970     16972     16971     16970     16973
     16972     16970     16973     16974     16973     16975     16974     16973     16976
     16975     16973     16976     16977     16980     16981     16977     16982     16983
     16977     16982     16984     16977     16982     16986     16978     16977     16979
     16978     16977     16980     16978     16977     16982     16979     16977     16980
     16979     16977     16982     16980     16977     16982     16982     16984     16985
     16982     16986     16987     16982     16986     16988     16982     16986     16993
     16983     16982     16984     16983     16982     16986     16984     16982     16986
     16986     16993     16989     16987     16986     16988     16987     16986     16993
     16988     16986     16993     16989     16992     16994     16990     16989     16991
     16990     16989     16992     16990     16989     16993     16991     16989     16992
     16991     16989     16993     16992     16989     16993     16992     16994     16995
     16992     16994     16996     16992     16994     16997     16994     16997     16998
     16994     16997     16999     16994     16997     17005     16995     16994     16996
     16995     16994     16997     16996     16994     16997     16997     16999     17000
     16997     17005     17006     16997     17005     17007     16997     17005     17008
     16998     16997     16999     16998     16997     17005     16999     16997     17005
     16999     17000     17001     16999     17000     17002     17000     17002     17003
     17000     17002     17004     17000     17002     17014     17001     17000     17002
     17002     17014     17015     17002     17014     17016     17002     17014     17017
     17003     17002     17004     17003     17002     17014     17004     17002     17014
     17005     17008     17009     17006     17005     17007     17006     17005     17008
     17007     17005     17008     17008     17009     17010     17008     17009     17011
     17009     17011     17012     17009     17011     17013     17009     17011     17058
     17010     17009     17011     17011     17058     17059     17011     17058     17060
     17011     17058     17061     17012     17011     17013     17012     17011     17058
     17013     17011     17058     17014     17017     17018     17014     17017     17019
     17014     17017     17020     17015     17014     17016     17015     17014     17017
     17016     17014     17017     17017     17020     17021     17017     17020     17022
     17017     17020     17023     17018     17017     17019     17018     17017     17020
     17019     17017     17020     17020     17023     17024     17020     17023     17025
     17020     17023     17026     17021     17020     17022     17021     17020     17023
     17022     17020     17023     17023     17026     17027     17023     17026     17028
     17023     17026     17029     17024     17023     17025     17024     17023     17026
     17025     17023     17026     17026     17029     17030     17026     17029     17031
     17026     17029     17032     17027     17026     17028     17027     17026     17029
     17028     17026     17029     17029     17032     17033     17029     17032     17034
     17029     17032     17037     17030     17029     17031     17030     17029     17032
     17031     17029     17032     17032     17034     17035     17032     17034     17036
     17032     17034     17037     17032     17037     17034     17032     17037     17038
     17032     17037     17039     17033     17032     17034     17033     17032     17037
     17034     17032     17037     17034     17037     17038     17034     17037     17039
     17035     17034     17036     17035     17034     17037     17036     17034     17037
     17037     17039     17040     17037     17039     17041     17037     17039     17042
     17038     17037     17039     17039     17042     17043     17039     17042     17044
     17039     17042     17045     17040     17039     17041     17040     17039     17042
     17041     17039     17042     17042     17045     17046     17042     17045     17047
     17042     17045     17048     17043     17042     17044     17043     17042     17045
     17044     17042     17045     17045     17048     17049     17045     17048     17050
     17045     17048     17051     17046     17045     17047     17046     17045     17048
     17047     17045     17048     17048     17051     17052     17048     17051     17053
     17048     17051     17054     17049     17048     17050     17049     17048     17051
     17050     17048     17051     17051     17054     17055     17051     17054     17056
     17051     17054     17057     17052     17051     17053     17052     17051     17054
     17053     17051     17054     17055     17054     17056     17055     17054     17057
     17056     17054     17057     17058     17061     17062     17058     17061     17063
     17058     17061     17064     17059     17058     17060     17059     17058     17061
     17060     17058     17061     17061     17064     17065     17061     17064     17066
     17061     17064     17067     17062     17061     17063     17062     17061     17064
     17063     17061     17064     17064     17067     17068     17064     17067     17069
     17064     17067     17070     17065     17064     17066     17065     17064     17067
     17066     17064     17067     17067     17070     17071     17067     17070     17072
     17067     17070     17073     17068     17067     17069     17068     17067     17070
     17069     17067     17070     17070     17073     17074     17070     17073     17075
     17070     17073     17076     17071     17070     17072     17071     17070     17073
     17072     17070     17073     17073     17076     17077     17073     17076     17078
     17073     17076     17079     17074     17073     17075     17074     17073     17076
     17075     17073     17076     17076     17079     17080     17076     17079     17081
     17076     17079     17082     17077     17076     17078     17077     17076     17079
     17078     17076     17079     17079     17082     17083     17079     17082     17084
     17079     17082     17085     17080     17079     17081     17080     17079     17082
     17081     17079     17082     17082     17085     17086     17082     17085     17087
     17082     17085     17088     17083     17082     17084     17083     17082     17085
     17084     17082     17085     17085     17088     17089     17085     17088     17090
     17085     17088     17091     17086     17085     17087     17086     17085     17088
     17087     17085     17088     17088     17091     17092     17088     17091     17093
     17088     17091     17094     17089     17088     17090     17089     17088     17091
     17090     17088     17091     17091     17094     17095     17091     17094     17096
     17091     17094     17097     17092     17091     17093     17092     17091     17094
     17093     17091     17094     17094     17097     17098     17094     17097     17099
     17094     17097     17100     17095     17094     17096     17095     17094     17097
     17096     17094     17097     17098     17097     17099     17098     17097     17100
     17099     17097     17100     17101     17105     17106     17101     17105     17107
     17101     17105     17108     17102     17101     17103     17102     17101     17104
     17102     17101     17105     17103     17101     17104     17103     17101     17105
     17104     17101     17105     17105     17108     17109     17105     17108     17110
     17105     17108     17115     17106     17105     17107     17106     17105     17108
     17107     17105     17108     17108     17115     17111     17109     17108     17110
     17109     17108     17115     17110     17108     17115     17111     17114     17116
     17112     17111     17113     17112     17111     17114     17112     17111     17115
     17113     17111     17114     17113     17111     17115     17114     17111     17115
     17114     17116     17117     17114     17116     17118     17114     17116     17119
     17116     17119     17120     17116     17119     17121     17116     17119     17127
     17117     17116     17118     17117     17116     17119     17118     17116     17119
     17119     17121     17122     17119     17127     17128     17119     17127     17129
     17119     17127     17130     17120     17119     17121     17120     17119     17127
     17121     17119     17127     17121     17122     17123     17121     17122     17124
     17122     17124     17125     17122     17124     17126     17122     17124     17136
     17123     17122     17124     17124     17136     17137     17124     17136     17138
     17124     17136     17139     17125     17124     17126     17125     17124     17136
     17126     17124     17136     17127     17130     17131     17128     17127     17129
     17128     17127     17130     17129     17127     17130     17130     17131     17132
     17130     17131     17133     17131     17133     17134     17131     17133     17135
     17131     17133     17183     17132     17131     17133     17133     17183     17184
     17133     17183     17185     17133     17183     17186     17134     17133     17135
     17134     17133     17183     17135     17133     17183     17136     17139     17140
     17136     17139     17141     17136     17139     17142     17137     17136     17138
     17137     17136     17139     17138     17136     17139     17139     17142     17143
     17139     17142     17144     17139     17142     17145     17140     17139     17141
     17140     17139     17142     17141     17139     17142     17142     17145     17146
     17142     17145     17147     17142     17145     17148     17143     17142     17144
     17143     17142     17145     17144     17142     17145     17145     17148     17149
     17145     17148     17150     17145     17148     17151     17146     17145     17147
     17146     17145     17148     17147     17145     17148     17148     17151     17152
     17148     17151     17153     17148     17151     17154     17149     17148     17150
     17149     17148     17151     17150     17148     17151     17151     17154     17155
     17151     17154     17156     17152     17151     17153     17152     17151     17154
     17153     17151     17154     17154     17156     17157     17154     17156     17158
     17155     17154     17156     17156     17158     17159     17156     17158     17160
     17156     17158     17161     17157     17156     17158     17158     17161     17162
     17158     17161     17163     17158     17161     17164     17159     17158     17160
     17159     17158     17161     17160     17158     17161     17161     17164     17165
     17161     17164     17166     17161     17164     17167     17162     17161     17163
     17162     17161     17164     17163     17161     17164     17164     17167     17168
     17164     17167     17169     17164     17167     17170     17165     17164     17166
     17165     17164     17167     17166     17164     17167     17167     17170     17171
     17167     17170     17172     17167     17170     17173     17168     17167     17169
     17168     17167     17170     17169     17167     17170     17170     17173     17174
     17170     17173     17175     17170     17173     17176     17171     17170     17172
     17171     17170     17173     17172     17170     17173     17173     17176     17177
     17173     17176     17178     17173     17176     17179     17174     17173     17175
     17174     17173     17176     17175     17173     17176     17176     17179     17180
     17176     17179     17181     17176     17179     17182     17177     17176     17178
     17177     17176     17179     17178     17176     17179     17180     17179     17181
     17180     17179     17182     17181     17179     17182     17183     17186     17187
     17183     17186     17188     17183     17186     17189     17184     17183     17185
     17184     17183     17186     17185     17183     17186     17186     17189     17190
     17186     17189     17191     17186     17189     17192     17187     17186     17188
     17187     17186     17189     17188     17186     17189     17189     17192     17193
     17189     17192     17194     17189     17192     17195     17190     17189     17191
     17190     17189     17192     17191     17189     17192     17192     17195     17196
     17192     17195     17197     17192     17195     17198     17193     17192     17194
     17193     17192     17195     17194     17192     17195     17195     17198     17199
     17195     17198     17200     17195     17198     17201     17196     17195     17197
     17196     17195     17198     17197     17195     17198     17198     17201     17202
     17198     17201     17203     17198     17201     17204     17199     17198     17200
     17199     17198     17201     17200     17198     17201     17201     17204     17205
     17201     17204     17206     17201     17204     17207     17202     17201     17203
     17202     17201     17204     17203     17201     17204     17204     17207     17208
     17204     17207     17209     17204     17207     17210     17205     17204     17206
     17205     17204     17207     17206     17204     17207     17207     17210     17211
     17207     17210     17212     17207     17210     17213     17208     17207     17209
     17208     17207     17210     17209     17207     17210     17210     17213     17214
     17210     17213     17215     17210     17213     17216     17211     17210     17212
     17211     17210     17213     17212     17210     17213     17213     17216     17217
     17213     17216     17218     17213     17216     17219     17214     17213     17215
     17214     17213     17216     17215     17213     17216     17216     17219     17220
     17216     17219     17221     17216     17219     17222     17217     17216     17218
     17217     17216     17219     17218     17216     17219     17219     17222     17223
     17219     17222     17224     17219     17222     17225     17220     17219     17221
     17220     17219     17222     17221     17219     17222     17223     17222     17224
     17223     17222     17225     17224     17222     17225     17226     17229     17230
     17226     17231     17232     17226     17231     17233     17226     17231     17235
     17227     17226     17228     17227     17226     17229     17227     17226     17231
     17228     17226     17229     17228     17226     17231     17229     17226     17231
     17231     17233     17234     17231     17235     17236     17231     17235     17237
     17231     17235     17242     17232     17231     17233     17232     17231     17235
     17233     17231     17235     17235     17242     17238     17236     17235     17237
     17236     17235     17242     17237     17235     17242     17238     17241     17243
     17239     17238     17240     17239     17238     17241     17239     17238     17242
     17240     17238     17241     17240     17238     17242     17241     17238     17242
     17241     17243     17244     17241     17243     17245     17241     17243     17246
     17243     17246     17247     17243     17246     17248     17243     17246     17254
     17244     17243     17245     17244     17243     17246     17245     17243     17246
     17246     17248     17249     17246     17254     17255     17246     17254     17256
     17246     17254     17257     17247     17246     17248     17247     17246     17254
     17248     17246     17254     17248     17249     17250     17248     17249     17251
     17249     17251     17252     17249     17251     17253     17249     17251     17263
     17250     17249     17251     17251     17263     17264     17251     17263     17265
     17251     17263     17266     17252     17251     17253     17252     17251     17263
     17253     17251     17263     17254     17257     17258     17255     17254     17256
     17255     17254     17257     17256     17254     17257     17257     17258     17259
     17257     17258     17260     17258     17260     17261     17258     17260     17262
     17258     17260     17304     17259     17258     17260     17260     17304     17305
     17260     17304     17306     17260     17304     17307     17261     17260     17262
     17261     17260     17304     17262     17260     17304     17263     17266     17267
     17263     17266     17268     17263     17266     17269     17264     17263     17265
     17264     17263     17266     17265     17263     17266     17266     17269     17270
     17266     17269     17271     17266     17269     17272     17267     17266     17268
     17267     17266     17269     17268     17266     17269     17269     17272     17273
     17269     17272     17274     17269     17272     17275     17270     17269     17271
     17270     17269     17272     17271     17269     17272     17272     17275     17276
     17272     17275     17277     17272     17275     17278     17273     17272     17274
     17273     17272     17275     17274     17272     17275     17275     17278     17279
     17275     17278     17280     17275     17278     17281     17276     17275     17277
     17276     17275     17278     17277     17275     17278     17278     17281     17282
     17278     17281     17283     17279     17278     17280     17279     17278     17281
     17280     17278     17281     17281     17283     17284     17281     17283     17285
     17282     17281     17283     17283     17285     17286     17283     17285     17287
     17283     17285     17288     17284     17283     17285     17285     17288     17289
     17285     17288     17290     17285     17288     17291     17286     17285     17287
     17286     17285     17288     17287     17285     17288     17288     17291     17292
     17288     17291     17293     17288     17291     17294     17289     17288     17290
     17289     17288     17291     17290     17288     17291     17291     17294     17295
     17291     17294     17296     17291     17294     17297     17292     17291     17293
     17292     17291     17294     17293     17291     17294     17294     17297     17298
     17294     17297     17299     17294     17297     17300     17295     17294     17296
     17295     17294     17297     17296     17294     17297     17297     17300     17301
     17297     17300     17302     17297     17300     17303     17298     17297     17299
     17298     17297     17300     17299     17297     17300     17301     17300     17302
     17301     17300     17303     17302     17300     17303     17304     17307     17308
     17304     17307     17309     17304     17307     17310     17305     17304     17306
     17305     17304     17307     17306     17304     17307     17307     17310     17311
     17307     17310     17312     17307     17310     17313     17308     17307     17309
     17308     17307     17310     17309     17307     17310     17310     17313     17314
     17310     17313     17315     17310     17313     17316     17311     17310     17312
     17311     17310     17313     17312     17310     17313     17313     17316     17317
     17313     17316     17318     17313     17316     17319     17314     17313     17315
     17314     17313     17316     17315     17313     17316     17316     17319     17320
     17316     17319     17321     17316     17319     17322     17317     17316     17318
     17317     17316     17319     17318     17316     17319     17319     17322     17323
     17319     17322     17324     17319     17322     17325     17320     17319     17321
     17320     17319     17322     17321     17319     17322     17322     17325     17326
     17322     17325     17327     17322     17325     17328     17323     17322     17324
     17323     17322     17325     17324     17322     17325     17325     17328     17329
     17325     17328     17330     17325     17328     17331     17326     17325     17327
     17326     17325     17328     17327     17325     17328     17328     17331     17332
     17328     17331     17333     17328     17331     17334     17329     17328     17330
     17329     17328     17331     17330     17328     17331     17331     17334     17335
     17331     17334     17336     17331     17334     17337     17332     17331     17333
     17332     17331     17334     17333     17331     17334     17334     17337     17338
     17334     17337     17339     17334     17337     17340     17335     17334     17336
     17335     17334     17337     17336     17334     17337     17337     17340     17341
     17337     17340     17342     17337     17340     17343     17338     17337     17339
     17338     17337     17340     17339     17337     17340     17340     17343     17344
     17340     17343     17345     17340     17343     17346     17341     17340     17342
     17341     17340     17343     17342     17340     17343     17344     17343     17345
     17344     17343     17346     17345     17343     17346     17347     17351     17352
     17347     17351     17353     17347     17351     17354     17348     17347     17349
     17348     17347     17350     17348     17347     17351     17349     17347     17350
     17349     17347     17351     17350     17347     17351     17351     17354     17355
     17351     17354     17356     17351     17354     17361     17352     17351     17353
     17352     17351     17354     17353     17351     17354     17354     17361     17357
     17355     17354     17356     17355     17354     17361     17356     17354     17361
     17357     17360     17362     17358     17357     17359     17358     17357     17360
     17358     17357     17361     17359     17357     17360     17359     17357     17361
     17360     17357     17361     17360     17362     17363     17360     17362     17364
     17360     17362     17365     17362     17365     17366     17362     17365     17367
     17362     17365     17373     17363     17362     17364     17363     17362     17365
     17364     17362     17365     17365     17367     17368     17365     17373     17374
     17365     17373     17375     17365     17373     17376     17366     17365     17367
     17366     17365     17373     17367     17365     17373     17367     17368     17369
     17367     17368     17370     17368     17370     17371     17368     17370     17372
     17368     17370     17382     17369     17368     17370     17370     17382     17383
     17370     17382     17384     17370     17382     17385     17371     17370     17372
     17371     17370     17382     17372     17370     17382     17373     17376     17377
     17374     17373     17375     17374     17373     17376     17375     17373     17376
     17376     17377     17378     17376     17377     17379     17377     17379     17380
     17377     17379     17381     17377     17379     17426     17378     17377     17379
     17379     17426     17427     17379     17426     17428     17379     17426     17429
     17380     17379     17381     17380     17379     17426     17381     17379     17426
     17382     17385     17386     17382     17385     17387     17382     17385     17388
     17383     17382     17384     17383     17382     17385     17384     17382     17385
     17385     17388     17389     17385     17388     17390     17385     17388     17391
     17386     17385     17387     17386     17385     17388     17387     17385     17388
     17388     17391     17392     17388     17391     17393     17388     17391     17394
     17389     17388     17390     17389     17388     17391     17390     17388     17391
     17391     17394     17395     17391     17394     17396     17391     17394     17397
     17392     17391     17393     17392     17391     17394     17393     17391     17394
     17394     17397     17398     17394     17397     17399     17394     17397     17400
     17395     17394     17396     17395     17394     17397     17396     17394     17397
     17397     17400     17401     17397     17400     17402     17397     17400     17405
     17398     17397     17399     17398     17397     17400     17399     17397     17400
     17400     17402     17403     17400     17402     17404     17400     17402     17405
     17400     17405     17402     17400     17405     17406     17400     17405     17407
     17401     17400     17402     17401     17400     17405     17402     17400     17405
     17402     17405     17406     17402     17405     17407     17403     17402     17404
     17403     17402     17405     17404     17402     17405     17405     17407     17408
     17405     17407     17409     17405     17407     17410     17406     17405     17407
     17407     17410     17411     17407     17410     17412     17407     17410     17413
     17408     17407     17409     17408     17407     17410     17409     17407     17410
     17410     17413     17414     17410     17413     17415     17410     17413     17416
     17411     17410     17412     17411     17410     17413     17412     17410     17413
     17413     17416     17417     17413     17416     17418     17413     17416     17419
     17414     17413     17415     17414     17413     17416     17415     17413     17416
     17416     17419     17420     17416     17419     17421     17416     17419     17422
     17417     17416     17418     17417     17416     17419     17418     17416     17419
     17419     17422     17423     17419     17422     17424     17419     17422     17425
     17420     17419     17421     17420     17419     17422     17421     17419     17422
     17423     17422     17424     17423     17422     17425     17424     17422     17425
     17426     17429     17430     17426     17429     17431     17426     17429     17432
     17427     17426     17428     17427     17426     17429     17428     17426     17429
     17429     17432     17433     17429     17432     17434     17429     17432     17435
     17430     17429     17431     17430     17429     17432     17431     17429     17432
     17432     17435     17436     17432     17435     17437     17432     17435     17438
     17433     17432     17434     17433     17432     17435     17434     17432     17435
     17435     17438     17439     17435     17438     17440     17435     17438     17441
     17436     17435     17437     17436     17435     17438     17437     17435     17438
     17438     17441     17442     17438     17441     17443     17438     17441     17444
     17439     17438     17440     17439     17438     17441     17440     17438     17441
     17441     17444     17445     17441     17444     17446     17441     17444     17447
     17442     17441     17443     17442     17441     17444     17443     17441     17444
     17444     17447     17448     17444     17447     17449     17444     17447     17450
     17445     17444     17446     17445     17444     17447     17446     17444     17447
     17447     17450     17451     17447     17450     17452     17447     17450     17453
     17448     17447     17449     17448     17447     17450     17449     17447     17450
     17450     17453     17454     17450     17453     17455     17450     17453     17456
     17451     17450     17452     17451     17450     17453     17452     17450     17453
     17453     17456     17457     17453     17456     17458     17453     17456     17459
     17454     17453     17455     17454     17453     17456     17455     17453     17456
     17456     17459     17460     17456     17459     17461     17456     17459     17462
     17457     17456     17458     17457     17456     17459     17458     17456     17459
     17459     17462     17463     17459     17462     17464     17459     17462     17465
     17460     17459     17461     17460     17459     17462     17461     17459     17462
     17463     17462     17464     17463     17462     17465     17464     17462     17465
     17466     17470     17471     17466     17470     17472     17466     17470     17473
     17467     17466     17468     17467     17466     17469     17467     17466     17470
     17468     17466     17469     17468     17466     17470     17469     17466     17470
     17470     17473     17474     17470     17473     17475     17470     17473     17480
     17471     17470     17472     17471     17470     17473     17472     17470     17473
     17473     17480     17476     17474     17473     17475     17474     17473     17480
     17475     17473     17480     17476     17479     17481     17477     17476     17478
     17477     17476     17479     17477     17476     17480     17478     17476     17479
     17478     17476     17480     17479     17476     17480     17479     17481     17482
     17479     17481     17483     17479     17481     17484     17481     17484     17485
     17481     17484     17486     17481     17484     17492     17482     17481     17483
     17482     17481     17484     17483     17481     17484     17484     17486     17487
     17484     17492     17493     17484     17492     17494     17484     17492     17495
     17485     17484     17486     17485     17484     17492     17486     17484     17492
     17486     17487     17488     17486     17487     17489     17487     17489     17490
     17487     17489     17491     17487     17489     17501     17488     17487     17489
     17489     17501     17502     17489     17501     17503     17489     17501     17504
     17490     17489     17491     17490     17489     17501     17491     17489     17501
     17492     17495     17496     17493     17492     17494     17493     17492     17495
     17494     17492     17495     17495     17496     17497     17495     17496     17498
     17496     17498     17499     17496     17498     17500     17496     17498     17542
     17497     17496     17498     17498     17542     17543     17498     17542     17544
     17498     17542     17545     17499     17498     17500     17499     17498     17542
     17500     17498     17542     17501     17504     17505     17501     17504     17506
     17501     17504     17507     17502     17501     17503     17502     17501     17504
     17503     17501     17504     17504     17507     17508     17504     17507     17509
     17504     17507     17510     17505     17504     17506     17505     17504     17507
     17506     17504     17507     17507     17510     17511     17507     17510     17512
     17507     17510     17513     17508     17507     17509     17508     17507     17510
     17509     17507     17510     17510     17513     17514     17510     17513     17515
     17510     17513     17516     17511     17510     17512     17511     17510     17513
     17512     17510     17513     17513     17516     17517     17513     17516     17518
     17513     17516     17519     17514     17513     17515     17514     17513     17516
     17515     17513     17516     17516     17519     17520     17516     17519     17521
     17517     17516     17518     17517     17516     17519     17518     17516     17519
     17519     17521     17522     17519     17521     17523     17520     17519     17521
     17521     17523     17524     17521     17523     17525     17521     17523     17526
     17522     17521     17523     17523     17526     17527     17523     17526     17528
     17523     17526     17529     17524     17523     17525     17524     17523     17526
     17525     17523     17526     17526     17529     17530     17526     17529     17531
     17526     17529     17532     17527     17526     17528     17527     17526     17529
     17528     17526     17529     17529     17532     17533     17529     17532     17534
     17529     17532     17535     17530     17529     17531     17530     17529     17532
     17531     17529     17532     17532     17535     17536     17532     17535     17537
     17532     17535     17538     17533     17532     17534     17533     17532     17535
     17534     17532     17535     17535     17538     17539     17535     17538     17540
     17535     17538     17541     17536     17535     17537     17536     17535     17538
     17537     17535     17538     17539     17538     17540     17539     17538     17541
     17540     17538     17541     17542     17545     17546     17542     17545     17547
     17542     17545     17548     17543     17542     17544     17543     17542     17545
     17544     17542     17545     17545     17548     17549     17545     17548     17550
     17545     17548     17551     17546     17545     17547     17546     17545     17548
     17547     17545     17548     17548     17551     17552     17548     17551     17553
     17548     17551     17554     17549     17548     17550     17549     17548     17551
     17550     17548     17551     17551     17554     17555     17551     17554     17556
     17551     17554     17557     17552     17551     17553     17552     17551     17554
     17553     17551     17554     17554     17557     17558     17554     17557     17559
     17554     17557     17560     17555     17554     17556     17555     17554     17557
     17556     17554     17557     17557     17560     17561     17557     17560     17562
     17558     17557     17559     17558     17557     17560     17559     17557     17560
     17560     17562     17563     17560     17562     17564     17561     17560     17562
     17562     17564     17565     17562     17564     17566     17562     17564     17567
     17563     17562     17564     17564     17567     17568     17564     17567     17569
     17564     17567     17570     17565     17564     17566     17565     17564     17567
     17566     17564     17567     17567     17570     17571     17567     17570     17572
     17567     17570     17573     17568     17567     17569     17568     17567     17570
     17569     17567     17570     17570     17573     17574     17570     17573     17575
     17570     17573     17576     17571     17570     17572     17571     17570     17573
     17572     17570     17573     17573     17576     17577     17573     17576     17578
     17573     17576     17579     17574     17573     17575     17574     17573     17576
     17575     17573     17576     17576     17579     17580     17576     17579     17581
     17576     17579     17582     17577     17576     17578     17577     17576     17579
     17578     17576     17579     17579     17582     17583     17579     17582     17584
     17579     17582     17585     17580     17579     17581     17580     17579     17582
     17581     17579     17582     17582     17585     17586     17582     17585     17587
     17582     17585     17588     17583     17582     17584     17583     17582     17585
     17584     17582     17585     17586     17585     17587     17586     17585     17588
     17587     17585     17588     17589     17593     17594     17589     17593     17595
     17589     17593     17596     17590     17589     17591     17590     17589     17592
     17590     17589     17593     17591     17589     17592     17591     17589     17593
     17592     17589     17593     17593     17596     17597     17593     17596     17598
     17593     17596     17603     17594     17593     17595     17594     17593     17596
     17595     17593     17596     17596     17603     17599     17597     17596     17598
     17597     17596     17603     17598     17596     17603     17599     17602     17604
     17600     17599     17601     17600     17599     17602     17600     17599     17603
     17601     17599     17602     17601     17599     17603     17602     17599     17603
     17602     17604     17605     17602     17604     17606     17602     17604     17607
     17604     17607     17608     17604     17607     17609     17604     17607     17615
     17605     17604     17606     17605     17604     17607     17606     17604     17607
     17607     17609     17610     17607     17615     17616     17607     17615     17617
     17607     17615     17618     17608     17607     17609     17608     17607     17615
     17609     17607     17615     17609     17610     17611     17609     17610     17612
     17610     17612     17613     17610     17612     17614     17610     17612     17624
     17611     17610     17612     17612     17624     17625     17612     17624     17626
     17612     17624     17627     17613     17612     17614     17613     17612     17624
     17614     17612     17624     17615     17618     17619     17616     17615     17617
     17616     17615     17618     17617     17615     17618     17618     17619     17620
     17618     17619     17621     17619     17621     17622     17619     17621     17623
     17619     17621     17668     17620     17619     17621     17621     17668     17669
     17621     17668     17670     17621     17668     17671     17622     17621     17623
     17622     17621     17668     17623     17621     17668     17624     17627     17628
     17624     17627     17629     17624     17627     17630     17625     17624     17626
     17625     17624     17627     17626     17624     17627     17627     17630     17631
     17627     17630     17632     17627     17630     17633     17628     17627     17629
     17628     17627     17630     17629     17627     17630     17630     17633     17634
     17630     17633     17635     17630     17633     17636     17631     17630     17632
     17631     17630     17633     17632     17630     17633     17633     17636     17637
     17633     17636     17638     17633     17636     17639     17634     17633     17635
     17634     17633     17636     17635     17633     17636     17636     17639     17640
     17636     17639     17641     17636     17639     17642     17637     17636     17638
     17637     17636     17639     17638     17636     17639     17639     17642     17643
     17639     17642     17644     17639     17642     17647     17640     17639     17641
     17640     17639     17642     17641     17639     17642     17642     17644     17645
     17642     17644     17646     17642     17644     17647     17642     17647     17644
     17642     17647     17648     17642     17647     17649     17643     17642     17644
     17643     17642     17647     17644     17642     17647     17644     17647     17648
     17644     17647     17649     17645     17644     17646     17645     17644     17647
     17646     17644     17647     17647     17649     17650     17647     17649     17651
     17647     17649     17652     17648     17647     17649     17649     17652     17653
     17649     17652     17654     17649     17652     17655     17650     17649     17651
     17650     17649     17652     17651     17649     17652     17652     17655     17656
     17652     17655     17657     17652     17655     17658     17653     17652     17654
     17653     17652     17655     17654     17652     17655     17655     17658     17659
     17655     17658     17660     17655     17658     17661     17656     17655     17657
     17656     17655     17658     17657     17655     17658     17658     17661     17662
     17658     17661     17663     17658     17661     17664     17659     17658     17660
     17659     17658     17661     17660     17658     17661     17661     17664     17665
     17661     17664     17666     17661     17664     17667     17662     17661     17663
     17662     17661     17664     17663     17661     17664     17665     17664     17666
     17665     17664     17667     17666     17664     17667     17668     17671     17672
     17668     17671     17673     17668     17671     17674     17669     17668     17670
     17669     17668     17671     17670     17668     17671     17671     17674     17675
     17671     17674     17676     17671     17674     17677     17672     17671     17673
     17672     17671     17674     17673     17671     17674     17674     17677     17678
     17674     17677     17679     17674     17677     17680     17675     17674     17676
     17675     17674     17677     17676     17674     17677     17677     17680     17681
     17677     17680     17682     17677     17680     17683     17678     17677     17679
     17678     17677     17680     17679     17677     17680     17680     17683     17684
     17680     17683     17685     17680     17683     17686     17681     17680     17682
     17681     17680     17683     17682     17680     17683     17683     17686     17687
     17683     17686     17688     17683     17686     17689     17684     17683     17685
     17684     17683     17686     17685     17683     17686     17686     17689     17690
     17686     17689     17691     17686     17689     17692     17687     17686     17688
     17687     17686     17689     17688     17686     17689     17689     17692     17693
     17689     17692     17694     17689     17692     17695     17690     17689     17691
     17690     17689     17692     17691     17689     17692     17692     17695     17696
     17692     17695     17697     17692     17695     17698     17693     17692     17694
     17693     17692     17695     17694     17692     17695     17695     17698     17699
     17695     17698     17700     17695     17698     17701     17696     17695     17697
     17696     17695     17698     17697     17695     17698     17698     17701     17702
     17698     17701     17703     17698     17701     17704     17699     17698     17700
     17699     17698     17701     17700     17698     17701     17701     17704     17705
     17701     17704     17706     17701     17704     17707     17702     17701     17703
     17702     17701     17704     17703     17701     17704     17704     17707     17708
     17704     17707     17709     17704     17707     17710     17705     17704     17706
     17705     17704     17707     17706     17704     17707     17708     17707     17709
     17708     17707     17710     17709     17707     17710     17711     17715     17716
     17711     17715     17717     17711     17715     17718     17712     17711     17713
     17712     17711     17714     17712     17711     17715     17713     17711     17714
     17713     17711     17715     17714     17711     17715     17715     17718     17719
     17715     17718     17720     17715     17718     17725     17716     17715     17717
     17716     17715     17718     17717     17715     17718     17718     17725     17721
     17719     17718     17720     17719     17718     17725     17720     17718     17725
     17721     17724     17726     17722     17721     17723     17722     17721     17724
     17722     17721     17725     17723     17721     17724     17723     17721     17725
     17724     17721     17725     17724     17726     17727     17724     17726     17728
     17724     17726     17729     17726     17729     17730     17726     17729     17731
     17726     17729     17737     17727     17726     17728     17727     17726     17729
     17728     17726     17729     17729     17731     17732     17729     17737     17738
     17729     17737     17739     17729     17737     17740     17730     17729     17731
     17730     17729     17737     17731     17729     17737     17731     17732     17733
     17731     17732     17734     17732     17734     17735     17732     17734     17736
     17732     17734     17746     17733     17732     17734     17734     17746     17747
     17734     17746     17748     17734     17746     17749     17735     17734     17736
     17735     17734     17746     17736     17734     17746     17737     17740     17741
     17738     17737     17739     17738     17737     17740     17739     17737     17740
     17740     17741     17742     17740     17741     17743     17741     17743     17744
     17741     17743     17745     17741     17743     17790     17742     17741     17743
     17743     17790     17791     17743     17790     17792     17743     17790     17793
     17744     17743     17745     17744     17743     17790     17745     17743     17790
     17746     17749     17750     17746     17749     17751     17746     17749     17752
     17747     17746     17748     17747     17746     17749     17748     17746     17749
     17749     17752     17753     17749     17752     17754     17749     17752     17755
     17750     17749     17751     17750     17749     17752     17751     17749     17752
     17752     17755     17756     17752     17755     17757     17752     17755     17758
     17753     17752     17754     17753     17752     17755     17754     17752     17755
     17755     17758     17759     17755     17758     17760     17755     17758     17761
     17756     17755     17757     17756     17755     17758     17757     17755     17758
     17758     17761     17762     17758     17761     17763     17758     17761     17764
     17759     17758     17760     17759     17758     17761     17760     17758     17761
     17761     17764     17765     17761     17764     17766     17761     17764     17769
     17762     17761     17763     17762     17761     17764     17763     17761     17764
     17764     17766     17767     17764     17766     17768     17764     17766     17769
     17764     17769     17766     17764     17769     17770     17764     17769     17771
     17765     17764     17766     17765     17764     17769     17766     17764     17769
     17766     17769     17770     17766     17769     17771     17767     17766     17768
     17767     17766     17769     17768     17766     17769     17769     17771     17772
     17769     17771     17773     17769     17771     17774     17770     17769     17771
     17771     17774     17775     17771     17774     17776     17771     17774     17777
     17772     17771     17773     17772     17771     17774     17773     17771     17774
     17774     17777     17778     17774     17777     17779     17774     17777     17780
     17775     17774     17776     17775     17774     17777     17776     17774     17777
     17777     17780     17781     17777     17780     17782     17777     17780     17783
     17778     17777     17779     17778     17777     17780     17779     17777     17780
     17780     17783     17784     17780     17783     17785     17780     17783     17786
     17781     17780     17782     17781     17780     17783     17782     17780     17783
     17783     17786     17787     17783     17786     17788     17783     17786     17789
     17784     17783     17785     17784     17783     17786     17785     17783     17786
     17787     17786     17788     17787     17786     17789     17788     17786     17789
     17790     17793     17794     17790     17793     17795     17790     17793     17796
     17791     17790     17792     17791     17790     17793     17792     17790     17793
     17793     17796     17797     17793     17796     17798     17793     17796     17799
     17794     17793     17795     17794     17793     17796     17795     17793     17796
     17796     17799     17800     17796     17799     17801     17796     17799     17802
     17797     17796     17798     17797     17796     17799     17798     17796     17799
     17799     17802     17803     17799     17802     17804     17799     17802     17805
     17800     17799     17801     17800     17799     17802     17801     17799     17802
     17802     17805     17806     17802     17805     17807     17802     17805     17808
     17803     17802     17804     17803     17802     17805     17804     17802     17805
     17805     17808     17809     17805     17808     17810     17805     17808     17811
     17806     17805     17807     17806     17805     17808     17807     17805     17808
     17808     17811     17812     17808     17811     17813     17808     17811     17814
     17809     17808     17810     17809     17808     17811     17810     17808     17811
     17811     17814     17815     17811     17814     17816     17811     17814     17817
     17812     17811     17813     17812     17811     17814     17813     17811     17814
     17814     17817     17818     17814     17817     17819     17814     17817     17820
     17815     17814     17816     17815     17814     17817     17816     17814     17817
     17817     17820     17821     17817     17820     17822     17817     17820     17823
     17818     17817     17819     17818     17817     17820     17819     17817     17820
     17820     17823     17824     17820     17823     17825     17820     17823     17826
     17821     17820     17822     17821     17820     17823     17822     17820     17823
     17823     17826     17827     17823     17826     17828     17823     17826     17829
     17824     17823     17825     17824     17823     17826     17825     17823     17826
     17826     17829     17830     17826     17829     17831     17826     17829     17832
     17827     17826     17828     17827     17826     17829     17828     17826     17829
     17830     17829     17831     17830     17829     17832     17831     17829     17832
     17833     17837     17838     17833     17837     17839     17833     17837     17840
     17834     17833     17835     17834     17833     17836     17834     17833     17837
     17835     17833     17836     17835     17833     17837     17836     17833     17837
     17837     17840     17841     17837     17840     17842     17837     17840     17847
     17838     17837     17839     17838     17837     17840     17839     17837     17840
     17840     17847     17843     17841     17840     17842     17841     17840     17847
     17842     17840     17847     17843     17846     17848     17844     17843     17845
     17844     17843     17846     17844     17843     17847     17845     17843     17846
     17845     17843     17847     17846     17843     17847     17846     17848     17849
     17846     17848     17850     17846     17848     17851     17848     17851     17852
     17848     17851     17853     17848     17851     17859     17849     17848     17850
     17849     17848     17851     17850     17848     17851     17851     17853     17854
     17851     17859     17860     17851     17859     17861     17851     17859     17862
     17852     17851     17853     17852     17851     17859     17853     17851     17859
     17853     17854     17855     17853     17854     17856     17854     17856     17857
     17854     17856     17858     17854     17856     17868     17855     17854     17856
     17856     17868     17869     17856     17868     17870     17856     17868     17871
     17857     17856     17858     17857     17856     17868     17858     17856     17868
     17859     17862     17863     17860     17859     17861     17860     17859     17862
     17861     17859     17862     17862     17863     17864     17862     17863     17865
     17863     17865     17866     17863     17865     17867     17863     17865     17909
     17864     17863     17865     17865     17909     17910     17865     17909     17911
     17865     17909     17912     17866     17865     17867     17866     17865     17909
     17867     17865     17909     17868     17871     17872     17868     17871     17873
     17868     17871     17874     17869     17868     17870     17869     17868     17871
     17870     17868     17871     17871     17874     17875     17871     17874     17876
     17871     17874     17877     17872     17871     17873     17872     17871     17874
     17873     17871     17874     17874     17877     17878     17874     17877     17879
     17874     17877     17880     17875     17874     17876     17875     17874     17877
     17876     17874     17877     17877     17880     17881     17877     17880     17882
     17877     17880     17883     17878     17877     17879     17878     17877     17880
     17879     17877     17880     17880     17883     17884     17880     17883     17885
     17880     17883     17886     17881     17880     17882     17881     17880     17883
     17882     17880     17883     17883     17886     17887     17883     17886     17888
     17884     17883     17885     17884     17883     17886     17885     17883     17886
     17886     17888     17889     17886     17888     17890     17887     17886     17888
     17888     17890     17891     17888     17890     17892     17888     17890     17893
     17889     17888     17890     17890     17893     17894     17890     17893     17895
     17890     17893     17896     17891     17890     17892     17891     17890     17893
     17892     17890     17893     17893     17896     17897     17893     17896     17898
     17893     17896     17899     17894     17893     17895     17894     17893     17896
     17895     17893     17896     17896     17899     17900     17896     17899     17901
     17896     17899     17902     17897     17896     17898     17897     17896     17899
     17898     17896     17899     17899     17902     17903     17899     17902     17904
     17899     17902     17905     17900     17899     17901     17900     17899     17902
     17901     17899     17902     17902     17905     17906     17902     17905     17907
     17902     17905     17908     17903     17902     17904     17903     17902     17905
     17904     17902     17905     17906     17905     17907     17906     17905     17908
     17907     17905     17908     17909     17912     17913     17909     17912     17914
     17909     17912     17915     17910     17909     17911     17910     17909     17912
     17911     17909     17912     17912     17915     17916     17912     17915     17917
     17912     17915     17918     17913     17912     17914     17913     17912     17915
     17914     17912     17915     17915     17918     17919     17915     17918     17920
     17915     17918     17921     17916     17915     17917     17916     17915     17918
     17917     17915     17918     17918     17921     17922     17918     17921     17923
     17918     17921     17924     17919     17918     17920     17919     17918     17921
     17920     17918     17921     17921     17924     17925     17921     17924     17926
     17921     17924     17927     17922     17921     17923     17922     17921     17924
     17923     17921     17924     17924     17927     17928     17924     17927     17929
     17925     17924     17926     17925     17924     17927     17926     17924     17927
     17927     17929     17930     17927     17929     17931     17928     17927     17929
     17929     17931     17932     17929     17931     17933     17929     17931     17934
     17930     17929     17931     17931     17934     17935     17931     17934     17936
     17931     17934     17937     17932     17931     17933     17932     17931     17934
     17933     17931     17934     17934     17937     17938     17934     17937     17939
     17934     17937     17940     17935     17934     17936     17935     17934     17937
     17936     17934     17937     17937     17940     17941     17937     17940     17942
     17937     17940     17943     17938     17937     17939     17938     17937     17940
     17939     17937     17940     17940     17943     17944     17940     17943     17945
     17940     17943     17946     17941     17940     17942     17941     17940     17943
     17942     17940     17943     17943     17946     17947     17943     17946     17948
     17943     17946     17949     17944     17943     17945     17944     17943     17946
     17945     17943     17946     17946     17949     17950     17946     17949     17951
     17946     17949     17952     17947     17946     17948     17947     17946     17949
     17948     17946     17949     17949     17952     17953     17949     17952     17954
     17949     17952     17955     17950     17949     17951     17950     17949     17952
     17951     17949     17952     17953     17952     17954     17953     17952     17955
     17954     17952     17955     17956     17960     17961     17956     17960     17962
     17956     17960     17963     17957     17956     17958     17957     17956     17959
     17957     17956     17960     17958     17956     17959     17958     17956     17960
     17959     17956     17960     17960     17963     17964     17960     17963     17965
     17960     17963     17970     17961     17960     17962     17961     17960     17963
     17962     17960     17963     17963     17970     17966     17964     17963     17965
     17964     17963     17970     17965     17963     17970     17966     17969     17971
     17967     17966     17968     17967     17966     17969     17967     17966     17970
     17968     17966     17969     17968     17966     17970     17969     17966     17970
     17969     17971     17972     17969     17971     17973     17969     17971     17974
     17971     17974     17975     17971     17974     17976     17971     17974     17982
     17972     17971     17973     17972     17971     17974     17973     17971     17974
     17974     17976     17977     17974     17982     17983     17974     17982     17984
     17974     17982     17985     17975     17974     17976     17975     17974     17982
     17976     17974     17982     17976     17977     17978     17976     17977     17979
     17977     17979     17980     17977     17979     17981     17977     17979     17991
     17978     17977     17979     17979     17991     17992     17979     17991     17993
     17979     17991     17994     17980     17979     17981     17980     17979     17991
     17981     17979     17991     17982     17985     17986     17983     17982     17984
     17983     17982     17985     17984     17982     17985     17985     17986     17987
     17985     17986     17988     17986     17988     17989     17986     17988     17990
     17986     17988     18038     17987     17986     17988     17988     18038     18039
     17988     18038     18040     17988     18038     18041     17989     17988     17990
     17989     17988     18038     17990     17988     18038     17991     17994     17995
     17991     17994     17996     17991     17994     17997     17992     17991     17993
     17992     17991     17994     17993     17991     17994     17994     17997     17998
     17994     17997     17999     17994     17997     18000     17995     17994     17996
     17995     17994     17997     17996     17994     17997     17997     18000     18001
     17997     18000     18002     17997     18000     18003     17998     17997     17999
     17998     17997     18000     17999     17997     18000     18000     18003     18004
     18000     18003     18005     18000     18003     18006     18001     18000     18002
     18001     18000     18003     18002     18000     18003     18003     18006     18007
     18003     18006     18008     18003     18006     18009     18004     18003     18005
     18004     18003     18006     18005     18003     18006     18006     18009     18010
     18006     18009     18011     18007     18006     18008     18007     18006     18009
     18008     18006     18009     18009     18011     18012     18009     18011     18013
     18010     18009     18011     18011     18013     18014     18011     18013     18015
     18011     18013     18016     18012     18011     18013     18013     18016     18017
     18013     18016     18018     18013     18016     18019     18014     18013     18015
     18014     18013     18016     18015     18013     18016     18016     18019     18020
     18016     18019     18021     18016     18019     18022     18017     18016     18018
     18017     18016     18019     18018     18016     18019     18019     18022     18023
     18019     18022     18024     18019     18022     18025     18020     18019     18021
     18020     18019     18022     18021     18019     18022     18022     18025     18026
     18022     18025     18027     18022     18025     18028     18023     18022     18024
     18023     18022     18025     18024     18022     18025     18025     18028     18029
     18025     18028     18030     18025     18028     18031     18026     18025     18027
     18026     18025     18028     18027     18025     18028     18028     18031     18032
     18028     18031     18033     18028     18031     18034     18029     18028     18030
     18029     18028     18031     18030     18028     18031     18031     18034     18035
     18031     18034     18036     18031     18034     18037     18032     18031     18033
     18032     18031     18034     18033     18031     18034     18035     18034     18036
     18035     18034     18037     18036     18034     18037     18038     18041     18042
     18038     18041     18043     18038     18041     18044     18039     18038     18040
     18039     18038     18041     18040     18038     18041     18041     18044     18045
     18041     18044     18046     18041     18044     18047     18042     18041     18043
     18042     18041     18044     18043     18041     18044     18044     18047     18048
     18044     18047     18049     18044     18047     18050     18045     18044     18046
     18045     18044     18047     18046     18044     18047     18047     18050     18051
     18047     18050     18052     18047     18050     18053     18048     18047     18049
     18048     18047     18050     18049     18047     18050     18050     18053     18054
     18050     18053     18055     18050     18053     18056     18051     18050     18052
     18051     18050     18053     18052     18050     18053     18053     18056     18057
     18053     18056     18058     18053     18056     18059     18054     18053     18055
     18054     18053     18056     18055     18053     18056     18056     18059     18060
     18056     18059     18061     18056     18059     18062     18057     18056     18058
     18057     18056     18059     18058     18056     18059     18059     18062     18063
     18059     18062     18064     18059     18062     18065     18060     18059     18061
     18060     18059     18062     18061     18059     18062     18062     18065     18066
     18062     18065     18067     18062     18065     18068     18063     18062     18064
     18063     18062     18065     18064     18062     18065     18065     18068     18069
     18065     18068     18070     18065     18068     18071     18066     18065     18067
     18066     18065     18068     18067     18065     18068     18068     18071     18072
     18068     18071     18073     18068     18071     18074     18069     18068     18070
     18069     18068     18071     18070     18068     18071     18071     18074     18075
     18071     18074     18076     18071     18074     18077     18072     18071     18073
     18072     18071     18074     18073     18071     18074     18074     18077     18078
     18074     18077     18079     18074     18077     18080     18075     18074     18076
     18075     18074     18077     18076     18074     18077     18078     18077     18079
     18078     18077     18080     18079     18077     18080     18081     18084     18085
     18081     18086     18087     18081     18086     18088     18081     18086     18090
     18082     18081     18083     18082     18081     18084     18082     18081     18086
     18083     18081     18084     18083     18081     18086     18084     18081     18086
     18086     18088     18089     18086     18090     18091     18086     18090     18092
     18086     18090     18097     18087     18086     18088     18087     18086     18090
     18088     18086     18090     18090     18097     18093     18091     18090     18092
     18091     18090     18097     18092     18090     18097     18093     18096     18098
     18094     18093     18095     18094     18093     18096     18094     18093     18097
     18095     18093     18096     18095     18093     18097     18096     18093     18097
     18096     18098     18099     18096     18098     18100     18096     18098     18101
     18098     18101     18102     18098     18101     18103     18098     18101     18109
     18099     18098     18100     18099     18098     18101     18100     18098     18101
     18101     18103     18104     18101     18109     18110     18101     18109     18111
     18101     18109     18112     18102     18101     18103     18102     18101     18109
     18103     18101     18109     18103     18104     18105     18103     18104     18106
     18104     18106     18107     18104     18106     18108     18104     18106     18118
     18105     18104     18106     18106     18118     18119     18106     18118     18120
     18106     18118     18121     18107     18106     18108     18107     18106     18118
     18108     18106     18118     18109     18112     18113     18110     18109     18111
     18110     18109     18112     18111     18109     18112     18112     18113     18114
     18112     18113     18115     18113     18115     18116     18113     18115     18117
     18113     18115     18162     18114     18113     18115     18115     18162     18163
     18115     18162     18164     18115     18162     18165     18116     18115     18117
     18116     18115     18162     18117     18115     18162     18118     18121     18122
     18118     18121     18123     18118     18121     18124     18119     18118     18120
     18119     18118     18121     18120     18118     18121     18121     18124     18125
     18121     18124     18126     18121     18124     18127     18122     18121     18123
     18122     18121     18124     18123     18121     18124     18124     18127     18128
     18124     18127     18129     18124     18127     18130     18125     18124     18126
     18125     18124     18127     18126     18124     18127     18127     18130     18131
     18127     18130     18132     18127     18130     18133     18128     18127     18129
     18128     18127     18130     18129     18127     18130     18130     18133     18134
     18130     18133     18135     18130     18133     18136     18131     18130     18132
     18131     18130     18133     18132     18130     18133     18133     18136     18137
     18133     18136     18138     18133     18136     18141     18134     18133     18135
     18134     18133     18136     18135     18133     18136     18136     18138     18139
     18136     18138     18140     18136     18138     18141     18136     18141     18138
     18136     18141     18142     18136     18141     18143     18137     18136     18138
     18137     18136     18141     18138     18136     18141     18138     18141     18142
     18138     18141     18143     18139     18138     18140     18139     18138     18141
     18140     18138     18141     18141     18143     18144     18141     18143     18145
     18141     18143     18146     18142     18141     18143     18143     18146     18147
     18143     18146     18148     18143     18146     18149     18144     18143     18145
     18144     18143     18146     18145     18143     18146     18146     18149     18150
     18146     18149     18151     18146     18149     18152     18147     18146     18148
     18147     18146     18149     18148     18146     18149     18149     18152     18153
     18149     18152     18154     18149     18152     18155     18150     18149     18151
     18150     18149     18152     18151     18149     18152     18152     18155     18156
     18152     18155     18157     18152     18155     18158     18153     18152     18154
     18153     18152     18155     18154     18152     18155     18155     18158     18159
     18155     18158     18160     18155     18158     18161     18156     18155     18157
     18156     18155     18158     18157     18155     18158     18159     18158     18160
     18159     18158     18161     18160     18158     18161     18162     18165     18166
     18162     18165     18167     18162     18165     18168     18163     18162     18164
     18163     18162     18165     18164     18162     18165     18165     18168     18169
     18165     18168     18170     18165     18168     18171     18166     18165     18167
     18166     18165     18168     18167     18165     18168     18168     18171     18172
     18168     18171     18173     18168     18171     18174     18169     18168     18170
     18169     18168     18171     18170     18168     18171     18171     18174     18175
     18171     18174     18176     18171     18174     18177     18172     18171     18173
     18172     18171     18174     18173     18171     18174     18174     18177     18178
     18174     18177     18179     18174     18177     18180     18175     18174     18176
     18175     18174     18177     18176     18174     18177     18177     18180     18181
     18177     18180     18182     18177     18180     18183     18178     18177     18179
     18178     18177     18180     18179     18177     18180     18180     18183     18184
     18180     18183     18185     18180     18183     18186     18181     18180     18182
     18181     18180     18183     18182     18180     18183     18183     18186     18187
     18183     18186     18188     18183     18186     18189     18184     18183     18185
     18184     18183     18186     18185     18183     18186     18186     18189     18190
     18186     18189     18191     18186     18189     18192     18187     18186     18188
     18187     18186     18189     18188     18186     18189     18189     18192     18193
     18189     18192     18194     18189     18192     18195     18190     18189     18191
     18190     18189     18192     18191     18189     18192     18192     18195     18196
     18192     18195     18197     18192     18195     18198     18193     18192     18194
     18193     18192     18195     18194     18192     18195     18195     18198     18199
     18195     18198     18200     18195     18198     18201     18196     18195     18197
     18196     18195     18198     18197     18195     18198     18198     18201     18202
     18198     18201     18203     18198     18201     18204     18199     18198     18200
     18199     18198     18201     18200     18198     18201     18202     18201     18203
     18202     18201     18204     18203     18201     18204     18205     18209     18210
     18205     18209     18211     18205     18209     18212     18206     18205     18207
     18206     18205     18208     18206     18205     18209     18207     18205     18208
     18207     18205     18209     18208     18205     18209     18209     18212     18213
     18209     18212     18214     18209     18212     18219     18210     18209     18211
     18210     18209     18212     18211     18209     18212     18212     18219     18215
     18213     18212     18214     18213     18212     18219     18214     18212     18219
     18215     18218     18220     18216     18215     18217     18216     18215     18218
     18216     18215     18219     18217     18215     18218     18217     18215     18219
     18218     18215     18219     18218     18220     18221     18218     18220     18222
     18218     18220     18223     18220     18223     18224     18220     18223     18225
     18220     18223     18231     18221     18220     18222     18221     18220     18223
     18222     18220     18223     18223     18225     18226     18223     18231     18232
     18223     18231     18233     18223     18231     18234     18224     18223     18225
     18224     18223     18231     18225     18223     18231     18225     18226     18227
     18225     18226     18228     18226     18228     18229     18226     18228     18230
     18226     18228     18240     18227     18226     18228     18228     18240     18241
     18228     18240     18242     18228     18240     18243     18229     18228     18230
     18229     18228     18240     18230     18228     18240     18231     18234     18235
     18232     18231     18233     18232     18231     18234     18233     18231     18234
     18234     18235     18236     18234     18235     18237     18235     18237     18238
     18235     18237     18239     18235     18237     18284     18236     18235     18237
     18237     18284     18285     18237     18284     18286     18237     18284     18287
     18238     18237     18239     18238     18237     18284     18239     18237     18284
     18240     18243     18244     18240     18243     18245     18240     18243     18246
     18241     18240     18242     18241     18240     18243     18242     18240     18243
     18243     18246     18247     18243     18246     18248     18243     18246     18249
     18244     18243     18245     18244     18243     18246     18245     18243     18246
     18246     18249     18250     18246     18249     18251     18246     18249     18252
     18247     18246     18248     18247     18246     18249     18248     18246     18249
     18249     18252     18253     18249     18252     18254     18249     18252     18255
     18250     18249     18251     18250     18249     18252     18251     18249     18252
     18252     18255     18256     18252     18255     18257     18252     18255     18258
     18253     18252     18254     18253     18252     18255     18254     18252     18255
     18255     18258     18259     18255     18258     18260     18255     18258     18263
     18256     18255     18257     18256     18255     18258     18257     18255     18258
     18258     18260     18261     18258     18260     18262     18258     18260     18263
     18258     18263     18260     18258     18263     18264     18258     18263     18265
     18259     18258     18260     18259     18258     18263     18260     18258     18263
     18260     18263     18264     18260     18263     18265     18261     18260     18262
     18261     18260     18263     18262     18260     18263     18263     18265     18266
     18263     18265     18267     18263     18265     18268     18264     18263     18265
     18265     18268     18269     18265     18268     18270     18265     18268     18271
     18266     18265     18267     18266     18265     18268     18267     18265     18268
     18268     18271     18272     18268     18271     18273     18268     18271     18274
     18269     18268     18270     18269     18268     18271     18270     18268     18271
     18271     18274     18275     18271     18274     18276     18271     18274     18277
     18272     18271     18273     18272     18271     18274     18273     18271     18274
     18274     18277     18278     18274     18277     18279     18274     18277     18280
     18275     18274     18276     18275     18274     18277     18276     18274     18277
     18277     18280     18281     18277     18280     18282     18277     18280     18283
     18278     18277     18279     18278     18277     18280     18279     18277     18280
     18281     18280     18282     18281     18280     18283     18282     18280     18283
     18284     18287     18288     18284     18287     18289     18284     18287     18290
     18285     18284     18286     18285     18284     18287     18286     18284     18287
     18287     18290     18291     18287     18290     18292     18287     18290     18293
     18288     18287     18289     18288     18287     18290     18289     18287     18290
     18290     18293     18294     18290     18293     18295     18290     18293     18296
     18291     18290     18292     18291     18290     18293     18292     18290     18293
     18293     18296     18297     18293     18296     18298     18293     18296     18299
     18294     18293     18295     18294     18293     18296     18295     18293     18296
     18296     18299     18300     18296     18299     18301     18296     18299     18302
     18297     18296     18298     18297     18296     18299     18298     18296     18299
     18299     18302     18303     18299     18302     18304     18299     18302     18305
     18300     18299     18301     18300     18299     18302     18301     18299     18302
     18302     18305     18306     18302     18305     18307     18302     18305     18308
     18303     18302     18304     18303     18302     18305     18304     18302     18305
     18305     18308     18309     18305     18308     18310     18305     18308     18311
     18306     18305     18307     18306     18305     18308     18307     18305     18308
     18308     18311     18312     18308     18311     18313     18308     18311     18314
     18309     18308     18310     18309     18308     18311     18310     18308     18311
     18311     18314     18315     18311     18314     18316     18311     18314     18317
     18312     18311     18313     18312     18311     18314     18313     18311     18314
     18314     18317     18318     18314     18317     18319     18314     18317     18320
     18315     18314     18316     18315     18314     18317     18316     18314     18317
     18317     18320     18321     18317     18320     18322     18317     18320     18323
     18318     18317     18319     18318     18317     18320     18319     18317     18320
     18320     18323     18324     18320     18323     18325     18320     18323     18326
     18321     18320     18322     18321     18320     18323     18322     18320     18323
     18324     18323     18325     18324     18323     18326     18325     18323     18326
     18327     18331     18332     18327     18331     18333     18327     18331     18334
     18328     18327     18329     18328     18327     18330     18328     18327     18331
     18329     18327     18330     18329     18327     18331     18330     18327     18331
     18331     18334     18335     18331     18334     18336     18331     18334     18341
     18332     18331     18333     18332     18331     18334     18333     18331     18334
     18334     18341     18337     18335     18334     18336     18335     18334     18341
     18336     18334     18341     18337     18340     18342     18338     18337     18339
     18338     18337     18340     18338     18337     18341     18339     18337     18340
     18339     18337     18341     18340     18337     18341     18340     18342     18343
     18340     18342     18344     18340     18342     18345     18342     18345     18346
     18342     18345     18347     18342     18345     18353     18343     18342     18344
     18343     18342     18345     18344     18342     18345     18345     18347     18348
     18345     18353     18354     18345     18353     18355     18345     18353     18356
     18346     18345     18347     18346     18345     18353     18347     18345     18353
     18347     18348     18349     18347     18348     18350     18348     18350     18351
     18348     18350     18352     18348     18350     18362     18349     18348     18350
     18350     18362     18363     18350     18362     18364     18350     18362     18365
     18351     18350     18352     18351     18350     18362     18352     18350     18362
     18353     18356     18357     18354     18353     18355     18354     18353     18356
     18355     18353     18356     18356     18357     18358     18356     18357     18359
     18357     18359     18360     18357     18359     18361     18357     18359     18406
     18358     18357     18359     18359     18406     18407     18359     18406     18408
     18359     18406     18409     18360     18359     18361     18360     18359     18406
     18361     18359     18406     18362     18365     18366     18362     18365     18367
     18362     18365     18368     18363     18362     18364     18363     18362     18365
     18364     18362     18365     18365     18368     18369     18365     18368     18370
     18365     18368     18371     18366     18365     18367     18366     18365     18368
     18367     18365     18368     18368     18371     18372     18368     18371     18373
     18368     18371     18374     18369     18368     18370     18369     18368     18371
     18370     18368     18371     18371     18374     18375     18371     18374     18376
     18371     18374     18377     18372     18371     18373     18372     18371     18374
     18373     18371     18374     18374     18377     18378     18374     18377     18379
     18374     18377     18380     18375     18374     18376     18375     18374     18377
     18376     18374     18377     18377     18380     18381     18377     18380     18382
     18377     18380     18385     18378     18377     18379     18378     18377     18380
     18379     18377     18380     18380     18382     18383     18380     18382     18384
     18380     18382     18385     18380     18385     18382     18380     18385     18386
     18380     18385     18387     18381     18380     18382     18381     18380     18385
     18382     18380     18385     18382     18385     18386     18382     18385     18387
     18383     18382     18384     18383     18382     18385     18384     18382     18385
     18385     18387     18388     18385     18387     18389     18385     18387     18390
     18386     18385     18387     18387     18390     18391     18387     18390     18392
     18387     18390     18393     18388     18387     18389     18388     18387     18390
     18389     18387     18390     18390     18393     18394     18390     18393     18395
     18390     18393     18396     18391     18390     18392     18391     18390     18393
     18392     18390     18393     18393     18396     18397     18393     18396     18398
     18393     18396     18399     18394     18393     18395     18394     18393     18396
     18395     18393     18396     18396     18399     18400     18396     18399     18401
     18396     18399     18402     18397     18396     18398     18397     18396     18399
     18398     18396     18399     18399     18402     18403     18399     18402     18404
     18399     18402     18405     18400     18399     18401     18400     18399     18402
     18401     18399     18402     18403     18402     18404     18403     18402     18405
     18404     18402     18405     18406     18409     18410     18406     18409     18411
     18406     18409     18412     18407     18406     18408     18407     18406     18409
     18408     18406     18409     18409     18412     18413     18409     18412     18414
     18409     18412     18415     18410     18409     18411     18410     18409     18412
     18411     18409     18412     18412     18415     18416     18412     18415     18417
     18412     18415     18418     18413     18412     18414     18413     18412     18415
     18414     18412     18415     18415     18418     18419     18415     18418     18420
     18415     18418     18421     18416     18415     18417     18416     18415     18418
     18417     18415     18418     18418     18421     18422     18418     18421     18423
     18418     18421     18424     18419     18418     18420     18419     18418     18421
     18420     18418     18421     18421     18424     18425     18421     18424     18426
     18421     18424     18427     18422     18421     18423     18422     18421     18424
     18423     18421     18424     18424     18427     18428     18424     18427     18429
     18424     18427     18430     18425     18424     18426     18425     18424     18427
     18426     18424     18427     18427     18430     18431     18427     18430     18432
     18427     18430     18433     18428     18427     18429     18428     18427     18430
     18429     18427     18430     18430     18433     18434     18430     18433     18435
     18430     18433     18436     18431     18430     18432     18431     18430     18433
     18432     18430     18433     18433     18436     18437     18433     18436     18438
     18433     18436     18439     18434     18433     18435     18434     18433     18436
     18435     18433     18436     18436     18439     18440     18436     18439     18441
     18436     18439     18442     18437     18436     18438     18437     18436     18439
     18438     18436     18439     18439     18442     18443     18439     18442     18444
     18439     18442     18445     18440     18439     18441     18440     18439     18442
     18441     18439     18442     18442     18445     18446     18442     18445     18447
     18442     18445     18448     18443     18442     18444     18443     18442     18445
     18444     18442     18445     18446     18445     18447     18446     18445     18448
     18447     18445     18448     18449     18453     18454     18449     18453     18455
     18449     18453     18456     18450     18449     18451     18450     18449     18452
     18450     18449     18453     18451     18449     18452     18451     18449     18453
     18452     18449     18453     18453     18456     18457     18453     18456     18458
     18453     18456     18463     18454     18453     18455     18454     18453     18456
     18455     18453     18456     18456     18463     18459     18457     18456     18458
     18457     18456     18463     18458     18456     18463     18459     18462     18464
     18460     18459     18461     18460     18459     18462     18460     18459     18463
     18461     18459     18462     18461     18459     18463     18462     18459     18463
     18462     18464     18465     18462     18464     18466     18462     18464     18467
     18464     18467     18468     18464     18467     18469     18464     18467     18475
     18465     18464     18466     18465     18464     18467     18466     18464     18467
     18467     18469     18470     18467     18475     18476     18467     18475     18477
     18467     18475     18478     18468     18467     18469     18468     18467     18475
     18469     18467     18475     18469     18470     18471     18469     18470     18472
     18470     18472     18473     18470     18472     18474     18470     18472     18484
     18471     18470     18472     18472     18484     18485     18472     18484     18486
     18472     18484     18487     18473     18472     18474     18473     18472     18484
     18474     18472     18484     18475     18478     18479     18476     18475     18477
     18476     18475     18478     18477     18475     18478     18478     18479     18480
     18478     18479     18481     18479     18481     18482     18479     18481     18483
     18479     18481     18528     18480     18479     18481     18481     18528     18529
     18481     18528     18530     18481     18528     18531     18482     18481     18483
     18482     18481     18528     18483     18481     18528     18484     18487     18488
     18484     18487     18489     18484     18487     18490     18485     18484     18486
     18485     18484     18487     18486     18484     18487     18487     18490     18491
     18487     18490     18492     18487     18490     18493     18488     18487     18489
     18488     18487     18490     18489     18487     18490     18490     18493     18494
     18490     18493     18495     18490     18493     18496     18491     18490     18492
     18491     18490     18493     18492     18490     18493     18493     18496     18497
     18493     18496     18498     18493     18496     18499     18494     18493     18495
     18494     18493     18496     18495     18493     18496     18496     18499     18500
     18496     18499     18501     18496     18499     18502     18497     18496     18498
     18497     18496     18499     18498     18496     18499     18499     18502     18503
     18499     18502     18504     18499     18502     18507     18500     18499     18501
     18500     18499     18502     18501     18499     18502     18502     18504     18505
     18502     18504     18506     18502     18504     18507     18502     18507     18504
     18502     18507     18508     18502     18507     18509     18503     18502     18504
     18503     18502     18507     18504     18502     18507     18504     18507     18508
     18504     18507     18509     18505     18504     18506     18505     18504     18507
     18506     18504     18507     18507     18509     18510     18507     18509     18511
     18507     18509     18512     18508     18507     18509     18509     18512     18513
     18509     18512     18514     18509     18512     18515     18510     18509     18511
     18510     18509     18512     18511     18509     18512     18512     18515     18516
     18512     18515     18517     18512     18515     18518     18513     18512     18514
     18513     18512     18515     18514     18512     18515     18515     18518     18519
     18515     18518     18520     18515     18518     18521     18516     18515     18517
     18516     18515     18518     18517     18515     18518     18518     18521     18522
     18518     18521     18523     18518     18521     18524     18519     18518     18520
     18519     18518     18521     18520     18518     18521     18521     18524     18525
     18521     18524     18526     18521     18524     18527     18522     18521     18523
     18522     18521     18524     18523     18521     18524     18525     18524     18526
     18525     18524     18527     18526     18524     18527     18528     18531     18532
     18528     18531     18533     18528     18531     18534     18529     18528     18530
     18529     18528     18531     18530     18528     18531     18531     18534     18535
     18531     18534     18536     18531     18534     18537     18532     18531     18533
     18532     18531     18534     18533     18531     18534     18534     18537     18538
     18534     18537     18539     18534     18537     18540     18535     18534     18536
     18535     18534     18537     18536     18534     18537     18537     18540     18541
     18537     18540     18542     18537     18540     18543     18538     18537     18539
     18538     18537     18540     18539     18537     18540     18540     18543     18544
     18540     18543     18545     18540     18543     18546     18541     18540     18542
     18541     18540     18543     18542     18540     18543     18543     18546     18547
     18543     18546     18548     18543     18546     18549     18544     18543     18545
     18544     18543     18546     18545     18543     18546     18546     18549     18550
     18546     18549     18551     18546     18549     18552     18547     18546     18548
     18547     18546     18549     18548     18546     18549     18549     18552     18553
     18549     18552     18554     18549     18552     18555     18550     18549     18551
     18550     18549     18552     18551     18549     18552     18552     18555     18556
     18552     18555     18557     18552     18555     18558     18553     18552     18554
     18553     18552     18555     18554     18552     18555     18555     18558     18559
     18555     18558     18560     18555     18558     18561     18556     18555     18557
     18556     18555     18558     18557     18555     18558     18558     18561     18562
     18558     18561     18563     18558     18561     18564     18559     18558     18560
     18559     18558     18561     18560     18558     18561     18561     18564     18565
     18561     18564     18566     18561     18564     18567     18562     18561     18563
     18562     18561     18564     18563     18561     18564     18564     18567     18568
     18564     18567     18569     18564     18567     18570     18565     18564     18566
     18565     18564     18567     18566     18564     18567     18568     18567     18569
     18568     18567     18570     18569     18567     18570     18571     18575     18576
     18571     18575     18577     18571     18575     18578     18572     18571     18573
     18572     18571     18574     18572     18571     18575     18573     18571     18574
     18573     18571     18575     18574     18571     18575     18575     18578     18579
     18575     18578     18580     18575     18578     18585     18576     18575     18577
     18576     18575     18578     18577     18575     18578     18578     18585     18581
     18579     18578     18580     18579     18578     18585     18580     18578     18585
     18581     18584     18586     18582     18581     18583     18582     18581     18584
     18582     18581     18585     18583     18581     18584     18583     18581     18585
     18584     18581     18585     18584     18586     18587     18584     18586     18588
     18584     18586     18589     18586     18589     18590     18586     18589     18591
     18586     18589     18597     18587     18586     18588     18587     18586     18589
     18588     18586     18589     18589     18591     18592     18589     18597     18598
     18589     18597     18599     18589     18597     18600     18590     18589     18591
     18590     18589     18597     18591     18589     18597     18591     18592     18593
     18591     18592     18594     18592     18594     18595     18592     18594     18596
     18592     18594     18606     18593     18592     18594     18594     18606     18607
     18594     18606     18608     18594     18606     18609     18595     18594     18596
     18595     18594     18606     18596     18594     18606     18597     18600     18601
     18598     18597     18599     18598     18597     18600     18599     18597     18600
     18600     18601     18602     18600     18601     18603     18601     18603     18604
     18601     18603     18605     18601     18603     18650     18602     18601     18603
     18603     18650     18651     18603     18650     18652     18603     18650     18653
     18604     18603     18605     18604     18603     18650     18605     18603     18650
     18606     18609     18610     18606     18609     18611     18606     18609     18612
     18607     18606     18608     18607     18606     18609     18608     18606     18609
     18609     18612     18613     18609     18612     18614     18609     18612     18615
     18610     18609     18611     18610     18609     18612     18611     18609     18612
     18612     18615     18616     18612     18615     18617     18612     18615     18618
     18613     18612     18614     18613     18612     18615     18614     18612     18615
     18615     18618     18619     18615     18618     18620     18615     18618     18621
     18616     18615     18617     18616     18615     18618     18617     18615     18618
     18618     18621     18622     18618     18621     18623     18618     18621     18624
     18619     18618     18620     18619     18618     18621     18620     18618     18621
     18621     18624     18625     18621     18624     18626     18621     18624     18629
     18622     18621     18623     18622     18621     18624     18623     18621     18624
     18624     18626     18627     18624     18626     18628     18624     18626     18629
     18624     18629     18626     18624     18629     18630     18624     18629     18631
     18625     18624     18626     18625     18624     18629     18626     18624     18629
     18626     18629     18630     18626     18629     18631     18627     18626     18628
     18627     18626     18629     18628     18626     18629     18629     18631     18632
     18629     18631     18633     18629     18631     18634     18630     18629     18631
     18631     18634     18635     18631     18634     18636     18631     18634     18637
     18632     18631     18633     18632     18631     18634     18633     18631     18634
     18634     18637     18638     18634     18637     18639     18634     18637     18640
     18635     18634     18636     18635     18634     18637     18636     18634     18637
     18637     18640     18641     18637     18640     18642     18637     18640     18643
     18638     18637     18639     18638     18637     18640     18639     18637     18640
     18640     18643     18644     18640     18643     18645     18640     18643     18646
     18641     18640     18642     18641     18640     18643     18642     18640     18643
     18643     18646     18647     18643     18646     18648     18643     18646     18649
     18644     18643     18645     18644     18643     18646     18645     18643     18646
     18647     18646     18648     18647     18646     18649     18648     18646     18649
     18650     18653     18654     18650     18653     18655     18650     18653     18656
     18651     18650     18652     18651     18650     18653     18652     18650     18653
     18653     18656     18657     18653     18656     18658     18653     18656     18659
     18654     18653     18655     18654     18653     18656     18655     18653     18656
     18656     18659     18660     18656     18659     18661     18656     18659     18662
     18657     18656     18658     18657     18656     18659     18658     18656     18659
     18659     18662     18663     18659     18662     18664     18659     18662     18665
     18660     18659     18661     18660     18659     18662     18661     18659     18662
     18662     18665     18666     18662     18665     18667     18662     18665     18668
     18663     18662     18664     18663     18662     18665     18664     18662     18665
     18665     18668     18669     18665     18668     18670     18665     18668     18671
     18666     18665     18667     18666     18665     18668     18667     18665     18668
     18668     18671     18672     18668     18671     18673     18668     18671     18674
     18669     18668     18670     18669     18668     18671     18670     18668     18671
     18671     18674     18675     18671     18674     18676     18671     18674     18677
     18672     18671     18673     18672     18671     18674     18673     18671     18674
     18674     18677     18678     18674     18677     18679     18674     18677     18680
     18675     18674     18676     18675     18674     18677     18676     18674     18677
     18677     18680     18681     18677     18680     18682     18677     18680     18683
     18678     18677     18679     18678     18677     18680     18679     18677     18680
     18680     18683     18684     18680     18683     18685     18680     18683     18686
     18681     18680     18682     18681     18680     18683     18682     18680     18683
     18683     18686     18687     18683     18686     18688     18683     18686     18689
     18684     18683     18685     18684     18683     18686     18685     18683     18686
     18686     18689     18690     18686     18689     18691     18686     18689     18692
     18687     18686     18688     18687     18686     18689     18688     18686     18689
     18690     18689     18691     18690     18689     18692     18691     18689     18692
     18693     18696     18697     18693     18698     18699     18693     18698     18700
     18693     18698     18702     18694     18693     18695     18694     18693     18696
     18694     18693     18698     18695     18693     18696     18695     18693     18698
     18696     18693     18698     18698     18700     18701     18698     18702     18703
     18698     18702     18704     18698     18702     18709     18699     18698     18700
     18699     18698     18702     18700     18698     18702     18702     18709     18705
     18703     18702     18704     18703     18702     18709     18704     18702     18709
     18705     18708     18710     18706     18705     18707     18706     18705     18708
     18706     18705     18709     18707     18705     18708     18707     18705     18709
     18708     18705     18709     18708     18710     18711     18708     18710     18712
     18708     18710     18713     18710     18713     18714     18710     18713     18715
     18710     18713     18721     18711     18710     18712     18711     18710     18713
     18712     18710     18713     18713     18715     18716     18713     18721     18722
     18713     18721     18723     18713     18721     18724     18714     18713     18715
     18714     18713     18721     18715     18713     18721     18715     18716     18717
     18715     18716     18718     18716     18718     18719     18716     18718     18720
     18716     18718     18730     18717     18716     18718     18718     18730     18731
     18718     18730     18732     18718     18730     18733     18719     18718     18720
     18719     18718     18730     18720     18718     18730     18721     18724     18725
     18722     18721     18723     18722     18721     18724     18723     18721     18724
     18724     18725     18726     18724     18725     18727     18725     18727     18728
     18725     18727     18729     18725     18727     18771     18726     18725     18727
     18727     18771     18772     18727     18771     18773     18727     18771     18774
     18728     18727     18729     18728     18727     18771     18729     18727     18771
     18730     18733     18734     18730     18733     18735     18730     18733     18736
     18731     18730     18732     18731     18730     18733     18732     18730     18733
     18733     18736     18737     18733     18736     18738     18733     18736     18739
     18734     18733     18735     18734     18733     18736     18735     18733     18736
     18736     18739     18740     18736     18739     18741     18736     18739     18742
     18737     18736     18738     18737     18736     18739     18738     18736     18739
     18739     18742     18743     18739     18742     18744     18739     18742     18745
     18740     18739     18741     18740     18739     18742     18741     18739     18742
     18742     18745     18746     18742     18745     18747     18742     18745     18748
     18743     18742     18744     18743     18742     18745     18744     18742     18745
     18745     18748     18749     18745     18748     18750     18746     18745     18747
     18746     18745     18748     18747     18745     18748     18748     18750     18751
     18748     18750     18752     18749     18748     18750     18750     18752     18753
     18750     18752     18754     18750     18752     18755     18751     18750     18752
     18752     18755     18756     18752     18755     18757     18752     18755     18758
     18753     18752     18754     18753     18752     18755     18754     18752     18755
     18755     18758     18759     18755     18758     18760     18755     18758     18761
     18756     18755     18757     18756     18755     18758     18757     18755     18758
     18758     18761     18762     18758     18761     18763     18758     18761     18764
     18759     18758     18760     18759     18758     18761     18760     18758     18761
     18761     18764     18765     18761     18764     18766     18761     18764     18767
     18762     18761     18763     18762     18761     18764     18763     18761     18764
     18764     18767     18768     18764     18767     18769     18764     18767     18770
     18765     18764     18766     18765     18764     18767     18766     18764     18767
     18768     18767     18769     18768     18767     18770     18769     18767     18770
     18771     18774     18775     18771     18774     18776     18771     18774     18777
     18772     18771     18773     18772     18771     18774     18773     18771     18774
     18774     18777     18778     18774     18777     18779     18774     18777     18780
     18775     18774     18776     18775     18774     18777     18776     18774     18777
     18777     18780     18781     18777     18780     18782     18777     18780     18783
     18778     18777     18779     18778     18777     18780     18779     18777     18780
     18780     18783     18784     18780     18783     18785     18780     18783     18786
     18781     18780     18782     18781     18780     18783     18782     18780     18783
     18783     18786     18787     18783     18786     18788     18783     18786     18789
     18784     18783     18785     18784     18783     18786     18785     18783     18786
     18786     18789     18790     18786     18789     18791     18786     18789     18792
     18787     18786     18788     18787     18786     18789     18788     18786     18789
     18789     18792     18793     18789     18792     18794     18789     18792     18795
     18790     18789     18791     18790     18789     18792     18791     18789     18792
     18792     18795     18796     18792     18795     18797     18792     18795     18798
     18793     18792     18794     18793     18792     18795     18794     18792     18795
     18795     18798     18799     18795     18798     18800     18795     18798     18801
     18796     18795     18797     18796     18795     18798     18797     18795     18798
     18798     18801     18802     18798     18801     18803     18798     18801     18804
     18799     18798     18800     18799     18798     18801     18800     18798     18801
     18801     18804     18805     18801     18804     18806     18801     18804     18807
     18802     18801     18803     18802     18801     18804     18803     18801     18804
     18804     18807     18808     18804     18807     18809     18804     18807     18810
     18805     18804     18806     18805     18804     18807     18806     18804     18807
     18807     18810     18811     18807     18810     18812     18807     18810     18813
     18808     18807     18809     18808     18807     18810     18809     18807     18810
     18811     18810     18812     18811     18810     18813     18812     18810     18813
     18814     18818     18819     18814     18818     18820     18814     18818     18821
     18815     18814     18816     18815     18814     18817     18815     18814     18818
     18816     18814     18817     18816     18814     18818     18817     18814     18818
     18818     18821     18822     18818     18821     18823     18818     18821     18828
     18819     18818     18820     18819     18818     18821     18820     18818     18821
     18821     18828     18824     18822     18821     18823     18822     18821     18828
     18823     18821     18828     18824     18827     18829     18825     18824     18826
     18825     18824     18827     18825     18824     18828     18826     18824     18827
     18826     18824     18828     18827     18824     18828     18827     18829     18830
     18827     18829     18831     18827     18829     18832     18829     18832     18833
     18829     18832     18834     18829     18832     18840     18830     18829     18831
     18830     18829     18832     18831     18829     18832     18832     18834     18835
     18832     18840     18841     18832     18840     18842     18832     18840     18843
     18833     18832     18834     18833     18832     18840     18834     18832     18840
     18834     18835     18836     18834     18835     18837     18835     18837     18838
     18835     18837     18839     18835     18837     18849     18836     18835     18837
     18837     18849     18850     18837     18849     18851     18837     18849     18852
     18838     18837     18839     18838     18837     18849     18839     18837     18849
     18840     18843     18844     18841     18840     18842     18841     18840     18843
     18842     18840     18843     18843     18844     18845     18843     18844     18846
     18844     18846     18847     18844     18846     18848     18844     18846     18890
     18845     18844     18846     18846     18890     18891     18846     18890     18892
     18846     18890     18893     18847     18846     18848     18847     18846     18890
     18848     18846     18890     18849     18852     18853     18849     18852     18854
     18849     18852     18855     18850     18849     18851     18850     18849     18852
     18851     18849     18852     18852     18855     18856     18852     18855     18857
     18852     18855     18858     18853     18852     18854     18853     18852     18855
     18854     18852     18855     18855     18858     18859     18855     18858     18860
     18855     18858     18861     18856     18855     18857     18856     18855     18858
     18857     18855     18858     18858     18861     18862     18858     18861     18863
     18858     18861     18864     18859     18858     18860     18859     18858     18861
     18860     18858     18861     18861     18864     18865     18861     18864     18866
     18861     18864     18867     18862     18861     18863     18862     18861     18864
     18863     18861     18864     18864     18867     18868     18864     18867     18869
     18865     18864     18866     18865     18864     18867     18866     18864     18867
     18867     18869     18870     18867     18869     18871     18868     18867     18869
     18869     18871     18872     18869     18871     18873     18869     18871     18874
     18870     18869     18871     18871     18874     18875     18871     18874     18876
     18871     18874     18877     18872     18871     18873     18872     18871     18874
     18873     18871     18874     18874     18877     18878     18874     18877     18879
     18874     18877     18880     18875     18874     18876     18875     18874     18877
     18876     18874     18877     18877     18880     18881     18877     18880     18882
     18877     18880     18883     18878     18877     18879     18878     18877     18880
     18879     18877     18880     18880     18883     18884     18880     18883     18885
     18880     18883     18886     18881     18880     18882     18881     18880     18883
     18882     18880     18883     18883     18886     18887     18883     18886     18888
     18883     18886     18889     18884     18883     18885     18884     18883     18886
     18885     18883     18886     18887     18886     18888     18887     18886     18889
     18888     18886     18889     18890     18893     18894     18890     18893     18895
     18890     18893     18896     18891     18890     18892     18891     18890     18893
     18892     18890     18893     18893     18896     18897     18893     18896     18898
     18893     18896     18899     18894     18893     18895     18894     18893     18896
     18895     18893     18896     18896     18899     18900     18896     18899     18901
     18896     18899     18902     18897     18896     18898     18897     18896     18899
     18898     18896     18899     18899     18902     18903     18899     18902     18904
     18899     18902     18905     18900     18899     18901     18900     18899     18902
     18901     18899     18902     18902     18905     18906     18902     18905     18907
     18902     18905     18908     18903     18902     18904     18903     18902     18905
     18904     18902     18905     18905     18908     18909     18905     18908     18910
     18906     18905     18907     18906     18905     18908     18907     18905     18908
     18908     18910     18911     18908     18910     18912     18909     18908     18910
     18910     18912     18913     18910     18912     18914     18910     18912     18915
     18911     18910     18912     18912     18915     18916     18912     18915     18917
     18912     18915     18918     18913     18912     18914     18913     18912     18915
     18914     18912     18915     18915     18918     18919     18915     18918     18920
     18915     18918     18921     18916     18915     18917     18916     18915     18918
     18917     18915     18918     18918     18921     18922     18918     18921     18923
     18918     18921     18924     18919     18918     18920     18919     18918     18921
     18920     18918     18921     18921     18924     18925     18921     18924     18926
     18921     18924     18927     18922     18921     18923     18922     18921     18924
     18923     18921     18924     18924     18927     18928     18924     18927     18929
     18924     18927     18930     18925     18924     18926     18925     18924     18927
     18926     18924     18927     18927     18930     18931     18927     18930     18932
     18927     18930     18933     18928     18927     18929     18928     18927     18930
     18929     18927     18930     18930     18933     18934     18930     18933     18935
     18930     18933     18936     18931     18930     18932     18931     18930     18933
     18932     18930     18933     18934     18933     18935     18934     18933     18936
     18935     18933     18936     18937     18940     18941     18937     18942     18943
     18937     18942     18944     18937     18942     18946     18938     18937     18939
     18938     18937     18940     18938     18937     18942     18939     18937     18940
     18939     18937     18942     18940     18937     18942     18942     18944     18945
     18942     18946     18947     18942     18946     18948     18942     18946     18953
     18943     18942     18944     18943     18942     18946     18944     18942     18946
     18946     18953     18949     18947     18946     18948     18947     18946     18953
     18948     18946     18953     18949     18952     18954     18950     18949     18951
     18950     18949     18952     18950     18949     18953     18951     18949     18952
     18951     18949     18953     18952     18949     18953     18952     18954     18955
     18952     18954     18956     18952     18954     18957     18954     18957     18958
     18954     18957     18959     18954     18957     18965     18955     18954     18956
     18955     18954     18957     18956     18954     18957     18957     18959     18960
     18957     18965     18966     18957     18965     18967     18957     18965     18968
     18958     18957     18959     18958     18957     18965     18959     18957     18965
     18959     18960     18961     18959     18960     18962     18960     18962     18963
     18960     18962     18964     18960     18962     18974     18961     18960     18962
     18962     18974     18975     18962     18974     18976     18962     18974     18977
     18963     18962     18964     18963     18962     18974     18964     18962     18974
     18965     18968     18969     18966     18965     18967     18966     18965     18968
     18967     18965     18968     18968     18969     18970     18968     18969     18971
     18969     18971     18972     18969     18971     18973     18969     18971     19015
     18970     18969     18971     18971     19015     19016     18971     19015     19017
     18971     19015     19018     18972     18971     18973     18972     18971     19015
     18973     18971     19015     18974     18977     18978     18974     18977     18979
     18974     18977     18980     18975     18974     18976     18975     18974     18977
     18976     18974     18977     18977     18980     18981     18977     18980     18982
     18977     18980     18983     18978     18977     18979     18978     18977     18980
     18979     18977     18980     18980     18983     18984     18980     18983     18985
     18980     18983     18986     18981     18980     18982     18981     18980     18983
     18982     18980     18983     18983     18986     18987     18983     18986     18988
     18983     18986     18989     18984     18983     18985     18984     18983     18986
     18985     18983     18986     18986     18989     18990     18986     18989     18991
     18986     18989     18992     18987     18986     18988     18987     18986     18989
     18988     18986     18989     18989     18992     18993     18989     18992     18994
     18990     18989     18991     18990     18989     18992     18991     18989     18992
     18992     18994     18995     18992     18994     18996     18993     18992     18994
     18994     18996     18997     18994     18996     18998     18994     18996     18999
     18995     18994     18996     18996     18999     19000     18996     18999     19001
     18996     18999     19002     18997     18996     18998     18997     18996     18999
     18998     18996     18999     18999     19002     19003     18999     19002     19004
     18999     19002     19005     19000     18999     19001     19000     18999     19002
     19001     18999     19002     19002     19005     19006     19002     19005     19007
     19002     19005     19008     19003     19002     19004     19003     19002     19005
     19004     19002     19005     19005     19008     19009     19005     19008     19010
     19005     19008     19011     19006     19005     19007     19006     19005     19008
     19007     19005     19008     19008     19011     19012     19008     19011     19013
     19008     19011     19014     19009     19008     19010     19009     19008     19011
     19010     19008     19011     19012     19011     19013     19012     19011     19014
     19013     19011     19014     19015     19018     19019     19015     19018     19020
     19015     19018     19021     19016     19015     19017     19016     19015     19018
     19017     19015     19018     19018     19021     19022     19018     19021     19023
     19018     19021     19024     19019     19018     19020     19019     19018     19021
     19020     19018     19021     19021     19024     19025     19021     19024     19026
     19021     19024     19027     19022     19021     19023     19022     19021     19024
     19023     19021     19024     19024     19027     19028     19024     19027     19029
     19024     19027     19030     19025     19024     19026     19025     19024     19027
     19026     19024     19027     19027     19030     19031     19027     19030     19032
     19027     19030     19033     19028     19027     19029     19028     19027     19030
     19029     19027     19030     19030     19033     19034     19030     19033     19035
     19030     19033     19036     19031     19030     19032     19031     19030     19033
     19032     19030     19033     19033     19036     19037     19033     19036     19038
     19033     19036     19039     19034     19033     19035     19034     19033     19036
     19035     19033     19036     19036     19039     19040     19036     19039     19041
     19036     19039     19042     19037     19036     19038     19037     19036     19039
     19038     19036     19039     19039     19042     19043     19039     19042     19044
     19039     19042     19045     19040     19039     19041     19040     19039     19042
     19041     19039     19042     19042     19045     19046     19042     19045     19047
     19042     19045     19048     19043     19042     19044     19043     19042     19045
     19044     19042     19045     19045     19048     19049     19045     19048     19050
     19045     19048     19051     19046     19045     19047     19046     19045     19048
     19047     19045     19048     19048     19051     19052     19048     19051     19053
     19048     19051     19054     19049     19048     19050     19049     19048     19051
     19050     19048     19051     19051     19054     19055     19051     19054     19056
     19051     19054     19057     19052     19051     19053     19052     19051     19054
     19053     19051     19054     19055     19054     19056     19055     19054     19057
     19056     19054     19057     19058     19062     19063     19058     19062     19064
     19058     19062     19065     19059     19058     19060     19059     19058     19061
     19059     19058     19062     19060     19058     19061     19060     19058     19062
     19061     19058     19062     19062     19065     19066     19062     19065     19067
     19062     19065     19072     19063     19062     19064     19063     19062     19065
     19064     19062     19065     19065     19072     19068     19066     19065     19067
     19066     19065     19072     19067     19065     19072     19068     19071     19073
     19069     19068     19070     19069     19068     19071     19069     19068     19072
     19070     19068     19071     19070     19068     19072     19071     19068     19072
     19071     19073     19074     19071     19073     19075     19071     19073     19076
     19073     19076     19077     19073     19076     19078     19073     19076     19084
     19074     19073     19075     19074     19073     19076     19075     19073     19076
     19076     19078     19079     19076     19084     19085     19076     19084     19086
     19076     19084     19087     19077     19076     19078     19077     19076     19084
     19078     19076     19084     19078     19079     19080     19078     19079     19081
     19079     19081     19082     19079     19081     19083     19079     19081     19093
     19080     19079     19081     19081     19093     19094     19081     19093     19095
     19081     19093     19096     19082     19081     19083     19082     19081     19093
     19083     19081     19093     19084     19087     19088     19085     19084     19086
     19085     19084     19087     19086     19084     19087     19087     19088     19089
     19087     19088     19090     19088     19090     19091     19088     19090     19092
     19088     19090     19137     19089     19088     19090     19090     19137     19138
     19090     19137     19139     19090     19137     19140     19091     19090     19092
     19091     19090     19137     19092     19090     19137     19093     19096     19097
     19093     19096     19098     19093     19096     19099     19094     19093     19095
     19094     19093     19096     19095     19093     19096     19096     19099     19100
     19096     19099     19101     19096     19099     19102     19097     19096     19098
     19097     19096     19099     19098     19096     19099     19099     19102     19103
     19099     19102     19104     19099     19102     19105     19100     19099     19101
     19100     19099     19102     19101     19099     19102     19102     19105     19106
     19102     19105     19107     19102     19105     19108     19103     19102     19104
     19103     19102     19105     19104     19102     19105     19105     19108     19109
     19105     19108     19110     19105     19108     19111     19106     19105     19107
     19106     19105     19108     19107     19105     19108     19108     19111     19112
     19108     19111     19113     19108     19111     19116     19109     19108     19110
     19109     19108     19111     19110     19108     19111     19111     19113     19114
     19111     19113     19115     19111     19113     19116     19111     19116     19113
     19111     19116     19117     19111     19116     19118     19112     19111     19113
     19112     19111     19116     19113     19111     19116     19113     19116     19117
     19113     19116     19118     19114     19113     19115     19114     19113     19116
     19115     19113     19116     19116     19118     19119     19116     19118     19120
     19116     19118     19121     19117     19116     19118     19118     19121     19122
     19118     19121     19123     19118     19121     19124     19119     19118     19120
     19119     19118     19121     19120     19118     19121     19121     19124     19125
     19121     19124     19126     19121     19124     19127     19122     19121     19123
     19122     19121     19124     19123     19121     19124     19124     19127     19128
     19124     19127     19129     19124     19127     19130     19125     19124     19126
     19125     19124     19127     19126     19124     19127     19127     19130     19131
     19127     19130     19132     19127     19130     19133     19128     19127     19129
     19128     19127     19130     19129     19127     19130     19130     19133     19134
     19130     19133     19135     19130     19133     19136     19131     19130     19132
     19131     19130     19133     19132     19130     19133     19134     19133     19135
     19134     19133     19136     19135     19133     19136     19137     19140     19141
     19137     19140     19142     19137     19140     19143     19138     19137     19139
     19138     19137     19140     19139     19137     19140     19140     19143     19144
     19140     19143     19145     19140     19143     19146     19141     19140     19142
     19141     19140     19143     19142     19140     19143     19143     19146     19147
     19143     19146     19148     19143     19146     19149     19144     19143     19145
     19144     19143     19146     19145     19143     19146     19146     19149     19150
     19146     19149     19151     19146     19149     19152     19147     19146     19148
     19147     19146     19149     19148     19146     19149     19149     19152     19153
     19149     19152     19154     19149     19152     19155     19150     19149     19151
     19150     19149     19152     19151     19149     19152     19152     19155     19156
     19152     19155     19157     19152     19155     19158     19153     19152     19154
     19153     19152     19155     19154     19152     19155     19155     19158     19159
     19155     19158     19160     19155     19158     19161     19156     19155     19157
     19156     19155     19158     19157     19155     19158     19158     19161     19162
     19158     19161     19163     19158     19161     19164     19159     19158     19160
     19159     19158     19161     19160     19158     19161     19161     19164     19165
     19161     19164     19166     19161     19164     19167     19162     19161     19163
     19162     19161     19164     19163     19161     19164     19164     19167     19168
     19164     19167     19169     19164     19167     19170     19165     19164     19166
     19165     19164     19167     19166     19164     19167     19167     19170     19171
     19167     19170     19172     19167     19170     19173     19168     19167     19169
     19168     19167     19170     19169     19167     19170     19170     19173     19174
     19170     19173     19175     19170     19173     19176     19171     19170     19172
     19171     19170     19173     19172     19170     19173     19173     19176     19177
     19173     19176     19178     19173     19176     19179     19174     19173     19175
     19174     19173     19176     19175     19173     19176     19177     19176     19178
     19177     19176     19179     19178     19176     19179     19180     19184     19185
     19180     19184     19186     19180     19184     19187     19181     19180     19182
     19181     19180     19183     19181     19180     19184     19182     19180     19183
     19182     19180     19184     19183     19180     19184     19184     19187     19188
     19184     19187     19189     19184     19187     19194     19185     19184     19186
     19185     19184     19187     19186     19184     19187     19187     19194     19190
     19188     19187     19189     19188     19187     19194     19189     19187     19194
     19190     19193     19195     19191     19190     19192     19191     19190     19193
     19191     19190     19194     19192     19190     19193     19192     19190     19194
     19193     19190     19194     19193     19195     19196     19193     19195     19197
     19193     19195     19198     19195     19198     19199     19195     19198     19200
     19195     19198     19206     19196     19195     19197     19196     19195     19198
     19197     19195     19198     19198     19200     19201     19198     19206     19207
     19198     19206     19208     19198     19206     19209     19199     19198     19200
     19199     19198     19206     19200     19198     19206     19200     19201     19202
     19200     19201     19203     19201     19203     19204     19201     19203     19205
     19201     19203     19215     19202     19201     19203     19203     19215     19216
     19203     19215     19217     19203     19215     19218     19204     19203     19205
     19204     19203     19215     19205     19203     19215     19206     19209     19210
     19207     19206     19208     19207     19206     19209     19208     19206     19209
     19209     19210     19211     19209     19210     19212     19210     19212     19213
     19210     19212     19214     19210     19212     19256     19211     19210     19212
     19212     19256     19257     19212     19256     19258     19212     19256     19259
     19213     19212     19214     19213     19212     19256     19214     19212     19256
     19215     19218     19219     19215     19218     19220     19215     19218     19221
     19216     19215     19217     19216     19215     19218     19217     19215     19218
     19218     19221     19222     19218     19221     19223     19218     19221     19224
     19219     19218     19220     19219     19218     19221     19220     19218     19221
     19221     19224     19225     19221     19224     19226     19221     19224     19227
     19222     19221     19223     19222     19221     19224     19223     19221     19224
     19224     19227     19228     19224     19227     19229     19224     19227     19230
     19225     19224     19226     19225     19224     19227     19226     19224     19227
     19227     19230     19231     19227     19230     19232     19227     19230     19233
     19228     19227     19229     19228     19227     19230     19229     19227     19230
     19230     19233     19234     19230     19233     19235     19231     19230     19232
     19231     19230     19233     19232     19230     19233     19233     19235     19236
     19233     19235     19237     19234     19233     19235     19235     19237     19238
     19235     19237     19239     19235     19237     19240     19236     19235     19237
     19237     19240     19241     19237     19240     19242     19237     19240     19243
     19238     19237     19239     19238     19237     19240     19239     19237     19240
     19240     19243     19244     19240     19243     19245     19240     19243     19246
     19241     19240     19242     19241     19240     19243     19242     19240     19243
     19243     19246     19247     19243     19246     19248     19243     19246     19249
     19244     19243     19245     19244     19243     19246     19245     19243     19246
     19246     19249     19250     19246     19249     19251     19246     19249     19252
     19247     19246     19248     19247     19246     19249     19248     19246     19249
     19249     19252     19253     19249     19252     19254     19249     19252     19255
     19250     19249     19251     19250     19249     19252     19251     19249     19252
     19253     19252     19254     19253     19252     19255     19254     19252     19255
     19256     19259     19260     19256     19259     19261     19256     19259     19262
     19257     19256     19258     19257     19256     19259     19258     19256     19259
     19259     19262     19263     19259     19262     19264     19259     19262     19265
     19260     19259     19261     19260     19259     19262     19261     19259     19262
     19262     19265     19266     19262     19265     19267     19262     19265     19268
     19263     19262     19264     19263     19262     19265     19264     19262     19265
     19265     19268     19269     19265     19268     19270     19265     19268     19271
     19266     19265     19267     19266     19265     19268     19267     19265     19268
     19268     19271     19272     19268     19271     19273     19268     19271     19274
     19269     19268     19270     19269     19268     19271     19270     19268     19271
     19271     19274     19275     19271     19274     19276     19272     19271     19273
     19272     19271     19274     19273     19271     19274     19274     19276     19277
     19274     19276     19278     19275     19274     19276     19276     19278     19279
     19276     19278     19280     19276     19278     19281     19277     19276     19278
     19278     19281     19282     19278     19281     19283     19278     19281     19284
     19279     19278     19280     19279     19278     19281     19280     19278     19281
     19281     19284     19285     19281     19284     19286     19281     19284     19287
     19282     19281     19283     19282     19281     19284     19283     19281     19284
     19284     19287     19288     19284     19287     19289     19284     19287     19290
     19285     19284     19286     19285     19284     19287     19286     19284     19287
     19287     19290     19291     19287     19290     19292     19287     19290     19293
     19288     19287     19289     19288     19287     19290     19289     19287     19290
     19290     19293     19294     19290     19293     19295     19290     19293     19296
     19291     19290     19292     19291     19290     19293     19292     19290     19293
     19293     19296     19297     19293     19296     19298     19293     19296     19299
     19294     19293     19295     19294     19293     19296     19295     19293     19296
     19296     19299     19300     19296     19299     19301     19296     19299     19302
     19297     19296     19298     19297     19296     19299     19298     19296     19299
     19300     19299     19301     19300     19299     19302     19301     19299     19302
     19303     19307     19308     19303     19307     19309     19303     19307     19310
     19304     19303     19305     19304     19303     19306     19304     19303     19307
     19305     19303     19306     19305     19303     19307     19306     19303     19307
     19307     19310     19311     19307     19310     19312     19307     19310     19317
     19308     19307     19309     19308     19307     19310     19309     19307     19310
     19310     19317     19313     19311     19310     19312     19311     19310     19317
     19312     19310     19317     19313     19316     19318     19314     19313     19315
     19314     19313     19316     19314     19313     19317     19315     19313     19316
     19315     19313     19317     19316     19313     19317     19316     19318     19319
     19316     19318     19320     19316     19318     19321     19318     19321     19322
     19318     19321     19323     19318     19321     19329     19319     19318     19320
     19319     19318     19321     19320     19318     19321     19321     19323     19324
     19321     19329     19330     19321     19329     19331     19321     19329     19332
     19322     19321     19323     19322     19321     19329     19323     19321     19329
     19323     19324     19325     19323     19324     19326     19324     19326     19327
     19324     19326     19328     19324     19326     19338     19325     19324     19326
     19326     19338     19339     19326     19338     19340     19326     19338     19341
     19327     19326     19328     19327     19326     19338     19328     19326     19338
     19329     19332     19333     19330     19329     19331     19330     19329     19332
     19331     19329     19332     19332     19333     19334     19332     19333     19335
     19333     19335     19336     19333     19335     19337     19333     19335     19382
     19334     19333     19335     19335     19382     19383     19335     19382     19384
     19335     19382     19385     19336     19335     19337     19336     19335     19382
     19337     19335     19382     19338     19341     19342     19338     19341     19343
     19338     19341     19344     19339     19338     19340     19339     19338     19341
     19340     19338     19341     19341     19344     19345     19341     19344     19346
     19341     19344     19347     19342     19341     19343     19342     19341     19344
     19343     19341     19344     19344     19347     19348     19344     19347     19349
     19344     19347     19350     19345     19344     19346     19345     19344     19347
     19346     19344     19347     19347     19350     19351     19347     19350     19352
     19347     19350     19353     19348     19347     19349     19348     19347     19350
     19349     19347     19350     19350     19353     19354     19350     19353     19355
     19350     19353     19356     19351     19350     19352     19351     19350     19353
     19352     19350     19353     19353     19356     19357     19353     19356     19358
     19353     19356     19361     19354     19353     19355     19354     19353     19356
     19355     19353     19356     19356     19358     19359     19356     19358     19360
     19356     19358     19361     19356     19361     19358     19356     19361     19362
     19356     19361     19363     19357     19356     19358     19357     19356     19361
     19358     19356     19361     19358     19361     19362     19358     19361     19363
     19359     19358     19360     19359     19358     19361     19360     19358     19361
     19361     19363     19364     19361     19363     19365     19361     19363     19366
     19362     19361     19363     19363     19366     19367     19363     19366     19368
     19363     19366     19369     19364     19363     19365     19364     19363     19366
     19365     19363     19366     19366     19369     19370     19366     19369     19371
     19366     19369     19372     19367     19366     19368     19367     19366     19369
     19368     19366     19369     19369     19372     19373     19369     19372     19374
     19369     19372     19375     19370     19369     19371     19370     19369     19372
     19371     19369     19372     19372     19375     19376     19372     19375     19377
     19372     19375     19378     19373     19372     19374     19373     19372     19375
     19374     19372     19375     19375     19378     19379     19375     19378     19380
     19375     19378     19381     19376     19375     19377     19376     19375     19378
     19377     19375     19378     19379     19378     19380     19379     19378     19381
     19380     19378     19381     19382     19385     19386     19382     19385     19387
     19382     19385     19388     19383     19382     19384     19383     19382     19385
     19384     19382     19385     19385     19388     19389     19385     19388     19390
     19385     19388     19391     19386     19385     19387     19386     19385     19388
     19387     19385     19388     19388     19391     19392     19388     19391     19393
     19388     19391     19394     19389     19388     19390     19389     19388     19391
     19390     19388     19391     19391     19394     19395     19391     19394     19396
     19391     19394     19397     19392     19391     19393     19392     19391     19394
     19393     19391     19394     19394     19397     19398     19394     19397     19399
     19394     19397     19400     19395     19394     19396     19395     19394     19397
     19396     19394     19397     19397     19400     19401     19397     19400     19402
     19397     19400     19403     19398     19397     19399     19398     19397     19400
     19399     19397     19400     19400     19403     19404     19400     19403     19405
     19400     19403     19406     19401     19400     19402     19401     19400     19403
     19402     19400     19403     19403     19406     19407     19403     19406     19408
     19403     19406     19409     19404     19403     19405     19404     19403     19406
     19405     19403     19406     19406     19409     19410     19406     19409     19411
     19406     19409     19412     19407     19406     19408     19407     19406     19409
     19408     19406     19409     19409     19412     19413     19409     19412     19414
     19409     19412     19415     19410     19409     19411     19410     19409     19412
     19411     19409     19412     19412     19415     19416     19412     19415     19417
     19412     19415     19418     19413     19412     19414     19413     19412     19415
     19414     19412     19415     19415     19418     19419     19415     19418     19420
     19415     19418     19421     19416     19415     19417     19416     19415     19418
     19417     19415     19418     19419     19418     19420     19419     19418     19421
     19420     19418     19421     19422     19426     19427     19422     19426     19428
     19422     19426     19429     19423     19422     19424     19423     19422     19425
     19423     19422     19426     19424     19422     19425     19424     19422     19426
     19425     19422     19426     19426     19429     19430     19426     19429     19431
     19426     19429     19436     19427     19426     19428     19427     19426     19429
     19428     19426     19429     19429     19436     19432     19430     19429     19431
     19430     19429     19436     19431     19429     19436     19432     19435     19437
     19433     19432     19434     19433     19432     19435     19433     19432     19436
     19434     19432     19435     19434     19432     19436     19435     19432     19436
     19435     19437     19438     19435     19437     19439     19435     19437     19440
     19437     19440     19441     19437     19440     19442     19437     19440     19448
     19438     19437     19439     19438     19437     19440     19439     19437     19440
     19440     19442     19443     19440     19448     19449     19440     19448     19450
     19440     19448     19451     19441     19440     19442     19441     19440     19448
     19442     19440     19448     19442     19443     19444     19442     19443     19445
     19443     19445     19446     19443     19445     19447     19443     19445     19457
     19444     19443     19445     19445     19457     19458     19445     19457     19459
     19445     19457     19460     19446     19445     19447     19446     19445     19457
     19447     19445     19457     19448     19451     19452     19449     19448     19450
     19449     19448     19451     19450     19448     19451     19451     19452     19453
     19451     19452     19454     19452     19454     19455     19452     19454     19456
     19452     19454     19501     19453     19452     19454     19454     19501     19502
     19454     19501     19503     19454     19501     19504     19455     19454     19456
     19455     19454     19501     19456     19454     19501     19457     19460     19461
     19457     19460     19462     19457     19460     19463     19458     19457     19459
     19458     19457     19460     19459     19457     19460     19460     19463     19464
     19460     19463     19465     19460     19463     19466     19461     19460     19462
     19461     19460     19463     19462     19460     19463     19463     19466     19467
     19463     19466     19468     19463     19466     19469     19464     19463     19465
     19464     19463     19466     19465     19463     19466     19466     19469     19470
     19466     19469     19471     19466     19469     19472     19467     19466     19468
     19467     19466     19469     19468     19466     19469     19469     19472     19473
     19469     19472     19474     19469     19472     19475     19470     19469     19471
     19470     19469     19472     19471     19469     19472     19472     19475     19476
     19472     19475     19477     19472     19475     19480     19473     19472     19474
     19473     19472     19475     19474     19472     19475     19475     19477     19478
     19475     19477     19479     19475     19477     19480     19475     19480     19477
     19475     19480     19481     19475     19480     19482     19476     19475     19477
     19476     19475     19480     19477     19475     19480     19477     19480     19481
     19477     19480     19482     19478     19477     19479     19478     19477     19480
     19479     19477     19480     19480     19482     19483     19480     19482     19484
     19480     19482     19485     19481     19480     19482     19482     19485     19486
     19482     19485     19487     19482     19485     19488     19483     19482     19484
     19483     19482     19485     19484     19482     19485     19485     19488     19489
     19485     19488     19490     19485     19488     19491     19486     19485     19487
     19486     19485     19488     19487     19485     19488     19488     19491     19492
     19488     19491     19493     19488     19491     19494     19489     19488     19490
     19489     19488     19491     19490     19488     19491     19491     19494     19495
     19491     19494     19496     19491     19494     19497     19492     19491     19493
     19492     19491     19494     19493     19491     19494     19494     19497     19498
     19494     19497     19499     19494     19497     19500     19495     19494     19496
     19495     19494     19497     19496     19494     19497     19498     19497     19499
     19498     19497     19500     19499     19497     19500     19501     19504     19505
     19501     19504     19506     19501     19504     19507     19502     19501     19503
     19502     19501     19504     19503     19501     19504     19504     19507     19508
     19504     19507     19509     19504     19507     19510     19505     19504     19506
     19505     19504     19507     19506     19504     19507     19507     19510     19511
     19507     19510     19512     19507     19510     19513     19508     19507     19509
     19508     19507     19510     19509     19507     19510     19510     19513     19514
     19510     19513     19515     19510     19513     19516     19511     19510     19512
     19511     19510     19513     19512     19510     19513     19513     19516     19517
     19513     19516     19518     19513     19516     19519     19514     19513     19515
     19514     19513     19516     19515     19513     19516     19516     19519     19520
     19516     19519     19521     19516     19519     19522     19517     19516     19518
     19517     19516     19519     19518     19516     19519     19519     19522     19523
     19519     19522     19524     19519     19522     19525     19520     19519     19521
     19520     19519     19522     19521     19519     19522     19522     19525     19526
     19522     19525     19527     19522     19525     19528     19523     19522     19524
     19523     19522     19525     19524     19522     19525     19525     19528     19529
     19525     19528     19530     19525     19528     19531     19526     19525     19527
     19526     19525     19528     19527     19525     19528     19528     19531     19532
     19528     19531     19533     19528     19531     19534     19529     19528     19530
     19529     19528     19531     19530     19528     19531     19531     19534     19535
     19531     19534     19536     19531     19534     19537     19532     19531     19533
     19532     19531     19534     19533     19531     19534     19534     19537     19538
     19534     19537     19539     19534     19537     19540     19535     19534     19536
     19535     19534     19537     19536     19534     19537     19537     19540     19541
     19537     19540     19542     19537     19540     19543     19538     19537     19539
     19538     19537     19540     19539     19537     19540     19541     19540     19542
     19541     19540     19543     19542     19540     19543     19544     19548     19549
     19544     19548     19550     19544     19548     19551     19545     19544     19546
     19545     19544     19547     19545     19544     19548     19546     19544     19547
     19546     19544     19548     19547     19544     19548     19548     19551     19552
     19548     19551     19553     19548     19551     19558     19549     19548     19550
     19549     19548     19551     19550     19548     19551     19551     19558     19554
     19552     19551     19553     19552     19551     19558     19553     19551     19558
     19554     19557     19559     19555     19554     19556     19555     19554     19557
     19555     19554     19558     19556     19554     19557     19556     19554     19558
     19557     19554     19558     19557     19559     19560     19557     19559     19561
     19557     19559     19562     19559     19562     19563     19559     19562     19564
     19559     19562     19570     19560     19559     19561     19560     19559     19562
     19561     19559     19562     19562     19564     19565     19562     19570     19571
     19562     19570     19572     19562     19570     19573     19563     19562     19564
     19563     19562     19570     19564     19562     19570     19564     19565     19566
     19564     19565     19567     19565     19567     19568     19565     19567     19569
     19565     19567     19579     19566     19565     19567     19567     19579     19580
     19567     19579     19581     19567     19579     19582     19568     19567     19569
     19568     19567     19579     19569     19567     19579     19570     19573     19574
     19571     19570     19572     19571     19570     19573     19572     19570     19573
     19573     19574     19575     19573     19574     19576     19574     19576     19577
     19574     19576     19578     19574     19576     19623     19575     19574     19576
     19576     19623     19624     19576     19623     19625     19576     19623     19626
     19577     19576     19578     19577     19576     19623     19578     19576     19623
     19579     19582     19583     19579     19582     19584     19579     19582     19585
     19580     19579     19581     19580     19579     19582     19581     19579     19582
     19582     19585     19586     19582     19585     19587     19582     19585     19588
     19583     19582     19584     19583     19582     19585     19584     19582     19585
     19585     19588     19589     19585     19588     19590     19585     19588     19591
     19586     19585     19587     19586     19585     19588     19587     19585     19588
     19588     19591     19592     19588     19591     19593     19588     19591     19594
     19589     19588     19590     19589     19588     19591     19590     19588     19591
     19591     19594     19595     19591     19594     19596     19591     19594     19597
     19592     19591     19593     19592     19591     19594     19593     19591     19594
     19594     19597     19598     19594     19597     19599     19594     19597     19602
     19595     19594     19596     19595     19594     19597     19596     19594     19597
     19597     19599     19600     19597     19599     19601     19597     19599     19602
     19597     19602     19599     19597     19602     19603     19597     19602     19604
     19598     19597     19599     19598     19597     19602     19599     19597     19602
     19599     19602     19603     19599     19602     19604     19600     19599     19601
     19600     19599     19602     19601     19599     19602     19602     19604     19605
     19602     19604     19606     19602     19604     19607     19603     19602     19604
     19604     19607     19608     19604     19607     19609     19604     19607     19610
     19605     19604     19606     19605     19604     19607     19606     19604     19607
     19607     19610     19611     19607     19610     19612     19607     19610     19613
     19608     19607     19609     19608     19607     19610     19609     19607     19610
     19610     19613     19614     19610     19613     19615     19610     19613     19616
     19611     19610     19612     19611     19610     19613     19612     19610     19613
     19613     19616     19617     19613     19616     19618     19613     19616     19619
     19614     19613     19615     19614     19613     19616     19615     19613     19616
     19616     19619     19620     19616     19619     19621     19616     19619     19622
     19617     19616     19618     19617     19616     19619     19618     19616     19619
     19620     19619     19621     19620     19619     19622     19621     19619     19622
     19623     19626     19627     19623     19626     19628     19623     19626     19629
     19624     19623     19625     19624     19623     19626     19625     19623     19626
     19626     19629     19630     19626     19629     19631     19626     19629     19632
     19627     19626     19628     19627     19626     19629     19628     19626     19629
     19629     19632     19633     19629     19632     19634     19629     19632     19635
     19630     19629     19631     19630     19629     19632     19631     19629     19632
     19632     19635     19636     19632     19635     19637     19632     19635     19638
     19633     19632     19634     19633     19632     19635     19634     19632     19635
     19635     19638     19639     19635     19638     19640     19635     19638     19641
     19636     19635     19637     19636     19635     19638     19637     19635     19638
     19638     19641     19642     19638     19641     19643     19638     19641     19644
     19639     19638     19640     19639     19638     19641     19640     19638     19641
     19641     19644     19645     19641     19644     19646     19641     19644     19647
     19642     19641     19643     19642     19641     19644     19643     19641     19644
     19644     19647     19648     19644     19647     19649     19644     19647     19650
     19645     19644     19646     19645     19644     19647     19646     19644     19647
     19647     19650     19651     19647     19650     19652     19647     19650     19653
     19648     19647     19649     19648     19647     19650     19649     19647     19650
     19650     19653     19654     19650     19653     19655     19650     19653     19656
     19651     19650     19652     19651     19650     19653     19652     19650     19653
     19653     19656     19657     19653     19656     19658     19653     19656     19659
     19654     19653     19655     19654     19653     19656     19655     19653     19656
     19656     19659     19660     19656     19659     19661     19656     19659     19662
     19657     19656     19658     19657     19656     19659     19658     19656     19659
     19659     19662     19663     19659     19662     19664     19659     19662     19665
     19660     19659     19661     19660     19659     19662     19661     19659     19662
     19663     19662     19664     19663     19662     19665     19664     19662     19665
     19666     19670     19671     19666     19670     19672     19666     19670     19673
     19667     19666     19668     19667     19666     19669     19667     19666     19670
     19668     19666     19669     19668     19666     19670     19669     19666     19670
     19670     19673     19674     19670     19673     19675     19670     19673     19680
     19671     19670     19672     19671     19670     19673     19672     19670     19673
     19673     19680     19676     19674     19673     19675     19674     19673     19680
     19675     19673     19680     19676     19679     19681     19677     19676     19678
     19677     19676     19679     19677     19676     19680     19678     19676     19679
     19678     19676     19680     19679     19676     19680     19679     19681     19682
     19679     19681     19683     19679     19681     19684     19681     19684     19685
     19681     19684     19686     19681     19684     19692     19682     19681     19683
     19682     19681     19684     19683     19681     19684     19684     19686     19687
     19684     19692     19693     19684     19692     19694     19684     19692     19695
     19685     19684     19686     19685     19684     19692     19686     19684     19692
     19686     19687     19688     19686     19687     19689     19687     19689     19690
     19687     19689     19691     19687     19689     19701     19688     19687     19689
     19689     19701     19702     19689     19701     19703     19689     19701     19704
     19690     19689     19691     19690     19689     19701     19691     19689     19701
     19692     19695     19696     19693     19692     19694     19693     19692     19695
     19694     19692     19695     19695     19696     19697     19695     19696     19698
     19696     19698     19699     19696     19698     19700     19696     19698     19745
     19697     19696     19698     19698     19745     19746     19698     19745     19747
     19698     19745     19748     19699     19698     19700     19699     19698     19745
     19700     19698     19745     19701     19704     19705     19701     19704     19706
     19701     19704     19707     19702     19701     19703     19702     19701     19704
     19703     19701     19704     19704     19707     19708     19704     19707     19709
     19704     19707     19710     19705     19704     19706     19705     19704     19707
     19706     19704     19707     19707     19710     19711     19707     19710     19712
     19707     19710     19713     19708     19707     19709     19708     19707     19710
     19709     19707     19710     19710     19713     19714     19710     19713     19715
     19710     19713     19716     19711     19710     19712     19711     19710     19713
     19712     19710     19713     19713     19716     19717     19713     19716     19718
     19713     19716     19719     19714     19713     19715     19714     19713     19716
     19715     19713     19716     19716     19719     19720     19716     19719     19721
     19716     19719     19724     19717     19716     19718     19717     19716     19719
     19718     19716     19719     19719     19721     19722     19719     19721     19723
     19719     19721     19724     19719     19724     19721     19719     19724     19725
     19719     19724     19726     19720     19719     19721     19720     19719     19724
     19721     19719     19724     19721     19724     19725     19721     19724     19726
     19722     19721     19723     19722     19721     19724     19723     19721     19724
     19724     19726     19727     19724     19726     19728     19724     19726     19729
     19725     19724     19726     19726     19729     19730     19726     19729     19731
     19726     19729     19732     19727     19726     19728     19727     19726     19729
     19728     19726     19729     19729     19732     19733     19729     19732     19734
     19729     19732     19735     19730     19729     19731     19730     19729     19732
     19731     19729     19732     19732     19735     19736     19732     19735     19737
     19732     19735     19738     19733     19732     19734     19733     19732     19735
     19734     19732     19735     19735     19738     19739     19735     19738     19740
     19735     19738     19741     19736     19735     19737     19736     19735     19738
     19737     19735     19738     19738     19741     19742     19738     19741     19743
     19738     19741     19744     19739     19738     19740     19739     19738     19741
     19740     19738     19741     19742     19741     19743     19742     19741     19744
     19743     19741     19744     19745     19748     19749     19745     19748     19750
     19745     19748     19751     19746     19745     19747     19746     19745     19748
     19747     19745     19748     19748     19751     19752     19748     19751     19753
     19748     19751     19754     19749     19748     19750     19749     19748     19751
     19750     19748     19751     19751     19754     19755     19751     19754     19756
     19751     19754     19757     19752     19751     19753     19752     19751     19754
     19753     19751     19754     19754     19757     19758     19754     19757     19759
     19754     19757     19760     19755     19754     19756     19755     19754     19757
     19756     19754     19757     19757     19760     19761     19757     19760     19762
     19757     19760     19763     19758     19757     19759     19758     19757     19760
     19759     19757     19760     19760     19763     19764     19760     19763     19765
     19760     19763     19766     19761     19760     19762     19761     19760     19763
     19762     19760     19763     19763     19766     19767     19763     19766     19768
     19763     19766     19769     19764     19763     19765     19764     19763     19766
     19765     19763     19766     19766     19769     19770     19766     19769     19771
     19766     19769     19772     19767     19766     19768     19767     19766     19769
     19768     19766     19769     19769     19772     19773     19769     19772     19774
     19769     19772     19775     19770     19769     19771     19770     19769     19772
     19771     19769     19772     19772     19775     19776     19772     19775     19777
     19772     19775     19778     19773     19772     19774     19773     19772     19775
     19774     19772     19775     19775     19778     19779     19775     19778     19780
     19775     19778     19781     19776     19775     19777     19776     19775     19778
     19777     19775     19778     19778     19781     19782     19778     19781     19783
     19778     19781     19784     19779     19778     19780     19779     19778     19781
     19780     19778     19781     19782     19781     19783     19782     19781     19784
     19783     19781     19784     19785     19789     19790     19785     19789     19791
     19785     19789     19792     19786     19785     19787     19786     19785     19788
     19786     19785     19789     19787     19785     19788     19787     19785     19789
     19788     19785     19789     19789     19792     19793     19789     19792     19794
     19789     19792     19799     19790     19789     19791     19790     19789     19792
     19791     19789     19792     19792     19799     19795     19793     19792     19794
     19793     19792     19799     19794     19792     19799     19795     19798     19800
     19796     19795     19797     19796     19795     19798     19796     19795     19799
     19797     19795     19798     19797     19795     19799     19798     19795     19799
     19798     19800     19801     19798     19800     19802     19798     19800     19803
     19800     19803     19804     19800     19803     19805     19800     19803     19811
     19801     19800     19802     19801     19800     19803     19802     19800     19803
     19803     19805     19806     19803     19811     19812     19803     19811     19813
     19803     19811     19814     19804     19803     19805     19804     19803     19811
     19805     19803     19811     19805     19806     19807     19805     19806     19808
     19806     19808     19809     19806     19808     19810     19806     19808     19820
     19807     19806     19808     19808     19820     19821     19808     19820     19822
     19808     19820     19823     19809     19808     19810     19809     19808     19820
     19810     19808     19820     19811     19814     19815     19812     19811     19813
     19812     19811     19814     19813     19811     19814     19814     19815     19816
     19814     19815     19817     19815     19817     19818     19815     19817     19819
     19815     19817     19864     19816     19815     19817     19817     19864     19865
     19817     19864     19866     19817     19864     19867     19818     19817     19819
     19818     19817     19864     19819     19817     19864     19820     19823     19824
     19820     19823     19825     19820     19823     19826     19821     19820     19822
     19821     19820     19823     19822     19820     19823     19823     19826     19827
     19823     19826     19828     19823     19826     19829     19824     19823     19825
     19824     19823     19826     19825     19823     19826     19826     19829     19830
     19826     19829     19831     19826     19829     19832     19827     19826     19828
     19827     19826     19829     19828     19826     19829     19829     19832     19833
     19829     19832     19834     19829     19832     19835     19830     19829     19831
     19830     19829     19832     19831     19829     19832     19832     19835     19836
     19832     19835     19837     19832     19835     19838     19833     19832     19834
     19833     19832     19835     19834     19832     19835     19835     19838     19839
     19835     19838     19840     19835     19838     19843     19836     19835     19837
     19836     19835     19838     19837     19835     19838     19838     19840     19841
     19838     19840     19842     19838     19840     19843     19838     19843     19840
     19838     19843     19844     19838     19843     19845     19839     19838     19840
     19839     19838     19843     19840     19838     19843     19840     19843     19844
     19840     19843     19845     19841     19840     19842     19841     19840     19843
     19842     19840     19843     19843     19845     19846     19843     19845     19847
     19843     19845     19848     19844     19843     19845     19845     19848     19849
     19845     19848     19850     19845     19848     19851     19846     19845     19847
     19846     19845     19848     19847     19845     19848     19848     19851     19852
     19848     19851     19853     19848     19851     19854     19849     19848     19850
     19849     19848     19851     19850     19848     19851     19851     19854     19855
     19851     19854     19856     19851     19854     19857     19852     19851     19853
     19852     19851     19854     19853     19851     19854     19854     19857     19858
     19854     19857     19859     19854     19857     19860     19855     19854     19856
     19855     19854     19857     19856     19854     19857     19857     19860     19861
     19857     19860     19862     19857     19860     19863     19858     19857     19859
     19858     19857     19860     19859     19857     19860     19861     19860     19862
     19861     19860     19863     19862     19860     19863     19864     19867     19868
     19864     19867     19869     19864     19867     19870     19865     19864     19866
     19865     19864     19867     19866     19864     19867     19867     19870     19871
     19867     19870     19872     19867     19870     19873     19868     19867     19869
     19868     19867     19870     19869     19867     19870     19870     19873     19874
     19870     19873     19875     19870     19873     19876     19871     19870     19872
     19871     19870     19873     19872     19870     19873     19873     19876     19877
     19873     19876     19878     19873     19876     19879     19874     19873     19875
     19874     19873     19876     19875     19873     19876     19876     19879     19880
     19876     19879     19881     19876     19879     19882     19877     19876     19878
     19877     19876     19879     19878     19876     19879     19879     19882     19883
     19879     19882     19884     19879     19882     19885     19880     19879     19881
     19880     19879     19882     19881     19879     19882     19882     19885     19886
     19882     19885     19887     19882     19885     19888     19883     19882     19884
     19883     19882     19885     19884     19882     19885     19885     19888     19889
     19885     19888     19890     19885     19888     19891     19886     19885     19887
     19886     19885     19888     19887     19885     19888     19888     19891     19892
     19888     19891     19893     19888     19891     19894     19889     19888     19890
     19889     19888     19891     19890     19888     19891     19891     19894     19895
     19891     19894     19896     19891     19894     19897     19892     19891     19893
     19892     19891     19894     19893     19891     19894     19894     19897     19898
     19894     19897     19899     19894     19897     19900     19895     19894     19896
     19895     19894     19897     19896     19894     19897     19897     19900     19901
     19897     19900     19902     19897     19900     19903     19898     19897     19899
     19898     19897     19900     19899     19897     19900     19900     19903     19904
     19900     19903     19905     19900     19903     19906     19901     19900     19902
     19901     19900     19903     19902     19900     19903     19904     19903     19905
     19904     19903     19906     19905     19903     19906     19907     19911     19912
     19907     19911     19913     19907     19911     19914     19908     19907     19909
     19908     19907     19910     19908     19907     19911     19909     19907     19910
     19909     19907     19911     19910     19907     19911     19911     19914     19915
     19911     19914     19916     19911     19914     19921     19912     19911     19913
     19912     19911     19914     19913     19911     19914     19914     19921     19917
     19915     19914     19916     19915     19914     19921     19916     19914     19921
     19917     19920     19922     19918     19917     19919     19918     19917     19920
     19918     19917     19921     19919     19917     19920     19919     19917     19921
     19920     19917     19921     19920     19922     19923     19920     19922     19924
     19920     19922     19925     19922     19925     19926     19922     19925     19927
     19922     19925     19933     19923     19922     19924     19923     19922     19925
     19924     19922     19925     19925     19927     19928     19925     19933     19934
     19925     19933     19935     19925     19933     19936     19926     19925     19927
     19926     19925     19933     19927     19925     19933     19927     19928     19929
     19927     19928     19930     19928     19930     19931     19928     19930     19932
     19928     19930     19942     19929     19928     19930     19930     19942     19943
     19930     19942     19944     19930     19942     19945     19931     19930     19932
     19931     19930     19942     19932     19930     19942     19933     19936     19937
     19934     19933     19935     19934     19933     19936     19935     19933     19936
     19936     19937     19938     19936     19937     19939     19937     19939     19940
     19937     19939     19941     19937     19939     19989     19938     19937     19939
     19939     19989     19990     19939     19989     19991     19939     19989     19992
     19940     19939     19941     19940     19939     19989     19941     19939     19989
     19942     19945     19946     19942     19945     19947     19942     19945     19948
     19943     19942     19944     19943     19942     19945     19944     19942     19945
     19945     19948     19949     19945     19948     19950     19945     19948     19951
     19946     19945     19947     19946     19945     19948     19947     19945     19948
     19948     19951     19952     19948     19951     19953     19948     19951     19954
     19949     19948     19950     19949     19948     19951     19950     19948     19951
     19951     19954     19955     19951     19954     19956     19951     19954     19957
     19952     19951     19953     19952     19951     19954     19953     19951     19954
     19954     19957     19958     19954     19957     19959     19954     19957     19960
     19955     19954     19956     19955     19954     19957     19956     19954     19957
     19957     19960     19961     19957     19960     19962     19958     19957     19959
     19958     19957     19960     19959     19957     19960     19960     19962     19963
     19960     19962     19964     19961     19960     19962     19962     19964     19965
     19962     19964     19966     19962     19964     19967     19963     19962     19964
     19964     19967     19968     19964     19967     19969     19964     19967     19970
     19965     19964     19966     19965     19964     19967     19966     19964     19967
     19967     19970     19971     19967     19970     19972     19967     19970     19973
     19968     19967     19969     19968     19967     19970     19969     19967     19970
     19970     19973     19974     19970     19973     19975     19970     19973     19976
     19971     19970     19972     19971     19970     19973     19972     19970     19973
     19973     19976     19977     19973     19976     19978     19973     19976     19979
     19974     19973     19975     19974     19973     19976     19975     19973     19976
     19976     19979     19980     19976     19979     19981     19976     19979     19982
     19977     19976     19978     19977     19976     19979     19978     19976     19979
     19979     19982     19983     19979     19982     19984     19979     19982     19985
     19980     19979     19981     19980     19979     19982     19981     19979     19982
     19982     19985     19986     19982     19985     19987     19982     19985     19988
     19983     19982     19984     19983     19982     19985     19984     19982     19985
     19986     19985     19987     19986     19985     19988     19987     19985     19988
     19989     19992     19993     19989     19992     19994     19989     19992     19995
     19990     19989     19991     19990     19989     19992     19991     19989     19992
     19992     19995     19996     19992     19995     19997     19992     19995     19998
     19993     19992     19994     19993     19992     19995     19994     19992     19995
     19995     19998     19999     19995     19998     20000     19995     19998     20001
     19996     19995     19997     19996     19995     19998     19997     19995     19998
     19998     20001     20002     19998     20001     20003     19998     20001     20004
     19999     19998     20000     19999     19998     20001     20000     19998     20001
     20001     20004     20005     20001     20004     20006     20001     20004     20007
     20002     20001     20003     20002     20001     20004     20003     20001     20004
     20004     20007     20008     20004     20007     20009     20004     20007     20010
     20005     20004     20006     20005     20004     20007     20006     20004     20007
     20007     20010     20011     20007     20010     20012     20007     20010     20013
     20008     20007     20009     20008     20007     20010     20009     20007     20010
     20010     20013     20014     20010     20013     20015     20010     20013     20016
     20011     20010     20012     20011     20010     20013     20012     20010     20013
     20013     20016     20017     20013     20016     20018     20013     20016     20019
     20014     20013     20015     20014     20013     20016     20015     20013     20016
     20016     20019     20020     20016     20019     20021     20016     20019     20022
     20017     20016     20018     20017     20016     20019     20018     20016     20019
     20019     20022     20023     20019     20022     20024     20019     20022     20025
     20020     20019     20021     20020     20019     20022     20021     20019     20022
     20022     20025     20026     20022     20025     20027     20022     20025     20028
     20023     20022     20024     20023     20022     20025     20024     20022     20025
     20025     20028     20029     20025     20028     20030     20025     20028     20031
     20026     20025     20027     20026     20025     20028     20027     20025     20028
     20029     20028     20030     20029     20028     20031     20030     20028     20031
     20032     20035     20036     20032     20037     20038     20032     20037     20039
     20032     20037     20041     20033     20032     20034     20033     20032     20035
     20033     20032     20037     20034     20032     20035     20034     20032     20037
     20035     20032     20037     20037     20039     20040     20037     20041     20042
     20037     20041     20043     20037     20041     20048     20038     20037     20039
     20038     20037     20041     20039     20037     20041     20041     20048     20044
     20042     20041     20043     20042     20041     20048     20043     20041     20048
     20044     20047     20049     20045     20044     20046     20045     20044     20047
     20045     20044     20048     20046     20044     20047     20046     20044     20048
     20047     20044     20048     20047     20049     20050     20047     20049     20051
     20047     20049     20052     20049     20052     20053     20049     20052     20054
     20049     20052     20060     20050     20049     20051     20050     20049     20052
     20051     20049     20052     20052     20054     20055     20052     20060     20061
     20052     20060     20062     20052     20060     20063     20053     20052     20054
     20053     20052     20060     20054     20052     20060     20054     20055     20056
     20054     20055     20057     20055     20057     20058     20055     20057     20059
     20055     20057     20069     20056     20055     20057     20057     20069     20070
     20057     20069     20071     20057     20069     20072     20058     20057     20059
     20058     20057     20069     20059     20057     20069     20060     20063     20064
     20061     20060     20062     20061     20060     20063     20062     20060     20063
     20063     20064     20065     20063     20064     20066     20064     20066     20067
     20064     20066     20068     20064     20066     20113     20065     20064     20066
     20066     20113     20114     20066     20113     20115     20066     20113     20116
     20067     20066     20068     20067     20066     20113     20068     20066     20113
     20069     20072     20073     20069     20072     20074     20069     20072     20075
     20070     20069     20071     20070     20069     20072     20071     20069     20072
     20072     20075     20076     20072     20075     20077     20072     20075     20078
     20073     20072     20074     20073     20072     20075     20074     20072     20075
     20075     20078     20079     20075     20078     20080     20075     20078     20081
     20076     20075     20077     20076     20075     20078     20077     20075     20078
     20078     20081     20082     20078     20081     20083     20078     20081     20084
     20079     20078     20080     20079     20078     20081     20080     20078     20081
     20081     20084     20085     20081     20084     20086     20081     20084     20087
     20082     20081     20083     20082     20081     20084     20083     20081     20084
     20084     20087     20088     20084     20087     20089     20084     20087     20092
     20085     20084     20086     20085     20084     20087     20086     20084     20087
     20087     20089     20090     20087     20089     20091     20087     20089     20092
     20087     20092     20089     20087     20092     20093     20087     20092     20094
     20088     20087     20089     20088     20087     20092     20089     20087     20092
     20089     20092     20093     20089     20092     20094     20090     20089     20091
     20090     20089     20092     20091     20089     20092     20092     20094     20095
     20092     20094     20096     20092     20094     20097     20093     20092     20094
     20094     20097     20098     20094     20097     20099     20094     20097     20100
     20095     20094     20096     20095     20094     20097     20096     20094     20097
     20097     20100     20101     20097     20100     20102     20097     20100     20103
     20098     20097     20099     20098     20097     20100     20099     20097     20100
     20100     20103     20104     20100     20103     20105     20100     20103     20106
     20101     20100     20102     20101     20100     20103     20102     20100     20103
     20103     20106     20107     20103     20106     20108     20103     20106     20109
     20104     20103     20105     20104     20103     20106     20105     20103     20106
     20106     20109     20110     20106     20109     20111     20106     20109     20112
     20107     20106     20108     20107     20106     20109     20108     20106     20109
     20110     20109     20111     20110     20109     20112     20111     20109     20112
     20113     20116     20117     20113     20116     20118     20113     20116     20119
     20114     20113     20115     20114     20113     20116     20115     20113     20116
     20116     20119     20120     20116     20119     20121     20116     20119     20122
     20117     20116     20118     20117     20116     20119     20118     20116     20119
     20119     20122     20123     20119     20122     20124     20119     20122     20125
     20120     20119     20121     20120     20119     20122     20121     20119     20122
     20122     20125     20126     20122     20125     20127     20122     20125     20128
     20123     20122     20124     20123     20122     20125     20124     20122     20125
     20125     20128     20129     20125     20128     20130     20125     20128     20131
     20126     20125     20127     20126     20125     20128     20127     20125     20128
     20128     20131     20132     20128     20131     20133     20128     20131     20134
     20129     20128     20130     20129     20128     20131     20130     20128     20131
     20131     20134     20135     20131     20134     20136     20131     20134     20137
     20132     20131     20133     20132     20131     20134     20133     20131     20134
     20134     20137     20138     20134     20137     20139     20134     20137     20140
     20135     20134     20136     20135     20134     20137     20136     20134     20137
     20137     20140     20141     20137     20140     20142     20137     20140     20143
     20138     20137     20139     20138     20137     20140     20139     20137     20140
     20140     20143     20144     20140     20143     20145     20140     20143     20146
     20141     20140     20142     20141     20140     20143     20142     20140     20143
     20143     20146     20147     20143     20146     20148     20143     20146     20149
     20144     20143     20145     20144     20143     20146     20145     20143     20146
     20146     20149     20150     20146     20149     20151     20146     20149     20152
     20147     20146     20148     20147     20146     20149     20148     20146     20149
     20149     20152     20153     20149     20152     20154     20149     20152     20155
     20150     20149     20151     20150     20149     20152     20151     20149     20152
     20153     20152     20154     20153     20152     20155     20154     20152     20155
     20156     20160     20161     20156     20160     20162     20156     20160     20163
     20157     20156     20158     20157     20156     20159     20157     20156     20160
     20158     20156     20159     20158     20156     20160     20159     20156     20160
     20160     20163     20164     20160     20163     20165     20160     20163     20170
     20161     20160     20162     20161     20160     20163     20162     20160     20163
     20163     20170     20166     20164     20163     20165     20164     20163     20170
     20165     20163     20170     20166     20169     20171     20167     20166     20168
     20167     20166     20169     20167     20166     20170     20168     20166     20169
     20168     20166     20170     20169     20166     20170     20169     20171     20172
     20169     20171     20173     20169     20171     20174     20171     20174     20175
     20171     20174     20176     20171     20174     20182     20172     20171     20173
     20172     20171     20174     20173     20171     20174     20174     20176     20177
     20174     20182     20183     20174     20182     20184     20174     20182     20185
     20175     20174     20176     20175     20174     20182     20176     20174     20182
     20176     20177     20178     20176     20177     20179     20177     20179     20180
     20177     20179     20181     20177     20179     20191     20178     20177     20179
     20179     20191     20192     20179     20191     20193     20179     20191     20194
     20180     20179     20181     20180     20179     20191     20181     20179     20191
     20182     20185     20186     20183     20182     20184     20183     20182     20185
     20184     20182     20185     20185     20186     20187     20185     20186     20188
     20186     20188     20189     20186     20188     20190     20186     20188     20235
     20187     20186     20188     20188     20235     20236     20188     20235     20237
     20188     20235     20238     20189     20188     20190     20189     20188     20235
     20190     20188     20235     20191     20194     20195     20191     20194     20196
     20191     20194     20197     20192     20191     20193     20192     20191     20194
     20193     20191     20194     20194     20197     20198     20194     20197     20199
     20194     20197     20200     20195     20194     20196     20195     20194     20197
     20196     20194     20197     20197     20200     20201     20197     20200     20202
     20197     20200     20203     20198     20197     20199     20198     20197     20200
     20199     20197     20200     20200     20203     20204     20200     20203     20205
     20200     20203     20206     20201     20200     20202     20201     20200     20203
     20202     20200     20203     20203     20206     20207     20203     20206     20208
     20203     20206     20209     20204     20203     20205     20204     20203     20206
     20205     20203     20206     20206     20209     20210     20206     20209     20211
     20206     20209     20214     20207     20206     20208     20207     20206     20209
     20208     20206     20209     20209     20211     20212     20209     20211     20213
     20209     20211     20214     20209     20214     20211     20209     20214     20215
     20209     20214     20216     20210     20209     20211     20210     20209     20214
     20211     20209     20214     20211     20214     20215     20211     20214     20216
     20212     20211     20213     20212     20211     20214     20213     20211     20214
     20214     20216     20217     20214     20216     20218     20214     20216     20219
     20215     20214     20216     20216     20219     20220     20216     20219     20221
     20216     20219     20222     20217     20216     20218     20217     20216     20219
     20218     20216     20219     20219     20222     20223     20219     20222     20224
     20219     20222     20225     20220     20219     20221     20220     20219     20222
     20221     20219     20222     20222     20225     20226     20222     20225     20227
     20222     20225     20228     20223     20222     20224     20223     20222     20225
     20224     20222     20225     20225     20228     20229     20225     20228     20230
     20225     20228     20231     20226     20225     20227     20226     20225     20228
     20227     20225     20228     20228     20231     20232     20228     20231     20233
     20228     20231     20234     20229     20228     20230     20229     20228     20231
     20230     20228     20231     20232     20231     20233     20232     20231     20234
     20233     20231     20234     20235     20238     20239     20235     20238     20240
     20235     20238     20241     20236     20235     20237     20236     20235     20238
     20237     20235     20238     20238     20241     20242     20238     20241     20243
     20238     20241     20244     20239     20238     20240     20239     20238     20241
     20240     20238     20241     20241     20244     20245     20241     20244     20246
     20241     20244     20247     20242     20241     20243     20242     20241     20244
     20243     20241     20244     20244     20247     20248     20244     20247     20249
     20244     20247     20250     20245     20244     20246     20245     20244     20247
     20246     20244     20247     20247     20250     20251     20247     20250     20252
     20247     20250     20253     20248     20247     20249     20248     20247     20250
     20249     20247     20250     20250     20253     20254     20250     20253     20255
     20250     20253     20256     20251     20250     20252     20251     20250     20253
     20252     20250     20253     20253     20256     20257     20253     20256     20258
     20253     20256     20259     20254     20253     20255     20254     20253     20256
     20255     20253     20256     20256     20259     20260     20256     20259     20261
     20256     20259     20262     20257     20256     20258     20257     20256     20259
     20258     20256     20259     20259     20262     20263     20259     20262     20264
     20259     20262     20265     20260     20259     20261     20260     20259     20262
     20261     20259     20262     20262     20265     20266     20262     20265     20267
     20262     20265     20268     20263     20262     20264     20263     20262     20265
     20264     20262     20265     20265     20268     20269     20265     20268     20270
     20265     20268     20271     20266     20265     20267     20266     20265     20268
     20267     20265     20268     20268     20271     20272     20268     20271     20273
     20268     20271     20274     20269     20268     20270     20269     20268     20271
     20270     20268     20271     20272     20271     20273     20272     20271     20274
     20273     20271     20274     20275     20279     20280     20275     20279     20281
     20275     20279     20282     20276     20275     20277     20276     20275     20278
     20276     20275     20279     20277     20275     20278     20277     20275     20279
     20278     20275     20279     20279     20282     20283     20279     20282     20284
     20279     20282     20289     20280     20279     20281     20280     20279     20282
     20281     20279     20282     20282     20289     20285     20283     20282     20284
     20283     20282     20289     20284     20282     20289     20285     20288     20290
     20286     20285     20287     20286     20285     20288     20286     20285     20289
     20287     20285     20288     20287     20285     20289     20288     20285     20289
     20288     20290     20291     20288     20290     20292     20288     20290     20293
     20290     20293     20294     20290     20293     20295     20290     20293     20301
     20291     20290     20292     20291     20290     20293     20292     20290     20293
     20293     20295     20296     20293     20301     20302     20293     20301     20303
     20293     20301     20304     20294     20293     20295     20294     20293     20301
     20295     20293     20301     20295     20296     20297     20295     20296     20298
     20296     20298     20299     20296     20298     20300     20296     20298     20310
     20297     20296     20298     20298     20310     20311     20298     20310     20312
     20298     20310     20313     20299     20298     20300     20299     20298     20310
     20300     20298     20310     20301     20304     20305     20302     20301     20303
     20302     20301     20304     20303     20301     20304     20304     20305     20306
     20304     20305     20307     20305     20307     20308     20305     20307     20309
     20305     20307     20354     20306     20305     20307     20307     20354     20355
     20307     20354     20356     20307     20354     20357     20308     20307     20309
     20308     20307     20354     20309     20307     20354     20310     20313     20314
     20310     20313     20315     20310     20313     20316     20311     20310     20312
     20311     20310     20313     20312     20310     20313     20313     20316     20317
     20313     20316     20318     20313     20316     20319     20314     20313     20315
     20314     20313     20316     20315     20313     20316     20316     20319     20320
     20316     20319     20321     20316     20319     20322     20317     20316     20318
     20317     20316     20319     20318     20316     20319     20319     20322     20323
     20319     20322     20324     20319     20322     20325     20320     20319     20321
     20320     20319     20322     20321     20319     20322     20322     20325     20326
     20322     20325     20327     20322     20325     20328     20323     20322     20324
     20323     20322     20325     20324     20322     20325     20325     20328     20329
     20325     20328     20330     20325     20328     20333     20326     20325     20327
     20326     20325     20328     20327     20325     20328     20328     20330     20331
     20328     20330     20332     20328     20330     20333     20328     20333     20330
     20328     20333     20334     20328     20333     20335     20329     20328     20330
     20329     20328     20333     20330     20328     20333     20330     20333     20334
     20330     20333     20335     20331     20330     20332     20331     20330     20333
     20332     20330     20333     20333     20335     20336     20333     20335     20337
     20333     20335     20338     20334     20333     20335     20335     20338     20339
     20335     20338     20340     20335     20338     20341     20336     20335     20337
     20336     20335     20338     20337     20335     20338     20338     20341     20342
     20338     20341     20343     20338     20341     20344     20339     20338     20340
     20339     20338     20341     20340     20338     20341     20341     20344     20345
     20341     20344     20346     20341     20344     20347     20342     20341     20343
     20342     20341     20344     20343     20341     20344     20344     20347     20348
     20344     20347     20349     20344     20347     20350     20345     20344     20346
     20345     20344     20347     20346     20344     20347     20347     20350     20351
     20347     20350     20352     20347     20350     20353     20348     20347     20349
     20348     20347     20350     20349     20347     20350     20351     20350     20352
     20351     20350     20353     20352     20350     20353     20354     20357     20358
     20354     20357     20359     20354     20357     20360     20355     20354     20356
     20355     20354     20357     20356     20354     20357     20357     20360     20361
     20357     20360     20362     20357     20360     20363     20358     20357     20359
     20358     20357     20360     20359     20357     20360     20360     20363     20364
     20360     20363     20365     20360     20363     20366     20361     20360     20362
     20361     20360     20363     20362     20360     20363     20363     20366     20367
     20363     20366     20368     20363     20366     20369     20364     20363     20365
     20364     20363     20366     20365     20363     20366     20366     20369     20370
     20366     20369     20371     20366     20369     20372     20367     20366     20368
     20367     20366     20369     20368     20366     20369     20369     20372     20373
     20369     20372     20374     20369     20372     20375     20370     20369     20371
     20370     20369     20372     20371     20369     20372     20372     20375     20376
     20372     20375     20377     20372     20375     20378     20373     20372     20374
     20373     20372     20375     20374     20372     20375     20375     20378     20379
     20375     20378     20380     20375     20378     20381     20376     20375     20377
     20376     20375     20378     20377     20375     20378     20378     20381     20382
     20378     20381     20383     20378     20381     20384     20379     20378     20380
     20379     20378     20381     20380     20378     20381     20381     20384     20385
     20381     20384     20386     20381     20384     20387     20382     20381     20383
     20382     20381     20384     20383     20381     20384     20384     20387     20388
     20384     20387     20389     20384     20387     20390     20385     20384     20386
     20385     20384     20387     20386     20384     20387     20387     20390     20391
     20387     20390     20392     20387     20390     20393     20388     20387     20389
     20388     20387     20390     20389     20387     20390     20390     20393     20394
     20390     20393     20395     20390     20393     20396     20391     20390     20392
     20391     20390     20393     20392     20390     20393     20394     20393     20395
     20394     20393     20396     20395     20393     20396     20397     20401     20402
     20397     20401     20403     20397     20401     20404     20398     20397     20399
     20398     20397     20400     20398     20397     20401     20399     20397     20400
     20399     20397     20401     20400     20397     20401     20401     20404     20405
     20401     20404     20406     20401     20404     20411     20402     20401     20403
     20402     20401     20404     20403     20401     20404     20404     20411     20407
     20405     20404     20406     20405     20404     20411     20406     20404     20411
     20407     20410     20412     20408     20407     20409     20408     20407     20410
     20408     20407     20411     20409     20407     20410     20409     20407     20411
     20410     20407     20411     20410     20412     20413     20410     20412     20414
     20410     20412     20415     20412     20415     20416     20412     20415     20417
     20412     20415     20423     20413     20412     20414     20413     20412     20415
     20414     20412     20415     20415     20417     20418     20415     20423     20424
     20415     20423     20425     20415     20423     20426     20416     20415     20417
     20416     20415     20423     20417     20415     20423     20417     20418     20419
     20417     20418     20420     20418     20420     20421     20418     20420     20422
     20418     20420     20432     20419     20418     20420     20420     20432     20433
     20420     20432     20434     20420     20432     20435     20421     20420     20422
     20421     20420     20432     20422     20420     20432     20423     20426     20427
     20424     20423     20425     20424     20423     20426     20425     20423     20426
     20426     20427     20428     20426     20427     20429     20427     20429     20430
     20427     20429     20431     20427     20429     20476     20428     20427     20429
     20429     20476     20477     20429     20476     20478     20429     20476     20479
     20430     20429     20431     20430     20429     20476     20431     20429     20476
     20432     20435     20436     20432     20435     20437     20432     20435     20438
     20433     20432     20434     20433     20432     20435     20434     20432     20435
     20435     20438     20439     20435     20438     20440     20435     20438     20441
     20436     20435     20437     20436     20435     20438     20437     20435     20438
     20438     20441     20442     20438     20441     20443     20438     20441     20444
     20439     20438     20440     20439     20438     20441     20440     20438     20441
     20441     20444     20445     20441     20444     20446     20441     20444     20447
     20442     20441     20443     20442     20441     20444     20443     20441     20444
     20444     20447     20448     20444     20447     20449     20444     20447     20450
     20445     20444     20446     20445     20444     20447     20446     20444     20447
     20447     20450     20451     20447     20450     20452     20447     20450     20455
     20448     20447     20449     20448     20447     20450     20449     20447     20450
     20450     20452     20453     20450     20452     20454     20450     20452     20455
     20450     20455     20452     20450     20455     20456     20450     20455     20457
     20451     20450     20452     20451     20450     20455     20452     20450     20455
     20452     20455     20456     20452     20455     20457     20453     20452     20454
     20453     20452     20455     20454     20452     20455     20455     20457     20458
     20455     20457     20459     20455     20457     20460     20456     20455     20457
     20457     20460     20461     20457     20460     20462     20457     20460     20463
     20458     20457     20459     20458     20457     20460     20459     20457     20460
     20460     20463     20464     20460     20463     20465     20460     20463     20466
     20461     20460     20462     20461     20460     20463     20462     20460     20463
     20463     20466     20467     20463     20466     20468     20463     20466     20469
     20464     20463     20465     20464     20463     20466     20465     20463     20466
     20466     20469     20470     20466     20469     20471     20466     20469     20472
     20467     20466     20468     20467     20466     20469     20468     20466     20469
     20469     20472     20473     20469     20472     20474     20469     20472     20475
     20470     20469     20471     20470     20469     20472     20471     20469     20472
     20473     20472     20474     20473     20472     20475     20474     20472     20475
     20476     20479     20480     20476     20479     20481     20476     20479     20482
     20477     20476     20478     20477     20476     20479     20478     20476     20479
     20479     20482     20483     20479     20482     20484     20479     20482     20485
     20480     20479     20481     20480     20479     20482     20481     20479     20482
     20482     20485     20486     20482     20485     20487     20482     20485     20488
     20483     20482     20484     20483     20482     20485     20484     20482     20485
     20485     20488     20489     20485     20488     20490     20485     20488     20491
     20486     20485     20487     20486     20485     20488     20487     20485     20488
     20488     20491     20492     20488     20491     20493     20488     20491     20494
     20489     20488     20490     20489     20488     20491     20490     20488     20491
     20491     20494     20495     20491     20494     20496     20491     20494     20497
     20492     20491     20493     20492     20491     20494     20493     20491     20494
     20494     20497     20498     20494     20497     20499     20494     20497     20500
     20495     20494     20496     20495     20494     20497     20496     20494     20497
     20497     20500     20501     20497     20500     20502     20497     20500     20503
     20498     20497     20499     20498     20497     20500     20499     20497     20500
     20500     20503     20504     20500     20503     20505     20500     20503     20506
     20501     20500     20502     20501     20500     20503     20502     20500     20503
     20503     20506     20507     20503     20506     20508     20503     20506     20509
     20504     20503     20505     20504     20503     20506     20505     20503     20506
     20506     20509     20510     20506     20509     20511     20506     20509     20512
     20507     20506     20508     20507     20506     20509     20508     20506     20509
     20509     20512     20513     20509     20512     20514     20509     20512     20515
     20510     20509     20511     20510     20509     20512     20511     20509     20512
     20512     20515     20516     20512     20515     20517     20512     20515     20518
     20513     20512     20514     20513     20512     20515     20514     20512     20515
     20516     20515     20517     20516     20515     20518     20517     20515     20518
     20519     20523     20524     20519     20523     20525     20519     20523     20526
     20520     20519     20521     20520     20519     20522     20520     20519     20523
     20521     20519     20522     20521     20519     20523     20522     20519     20523
     20523     20526     20527     20523     20526     20528     20523     20526     20533
     20524     20523     20525     20524     20523     20526     20525     20523     20526
     20526     20533     20529     20527     20526     20528     20527     20526     20533
     20528     20526     20533     20529     20532     20534     20530     20529     20531
     20530     20529     20532     20530     20529     20533     20531     20529     20532
     20531     20529     20533     20532     20529     20533     20532     20534     20535
     20532     20534     20536     20532     20534     20537     20534     20537     20538
     20534     20537     20539     20534     20537     20545     20535     20534     20536
     20535     20534     20537     20536     20534     20537     20537     20539     20540
     20537     20545     20546     20537     20545     20547     20537     20545     20548
     20538     20537     20539     20538     20537     20545     20539     20537     20545
     20539     20540     20541     20539     20540     20542     20540     20542     20543
     20540     20542     20544     20540     20542     20554     20541     20540     20542
     20542     20554     20555     20542     20554     20556     20542     20554     20557
     20543     20542     20544     20543     20542     20554     20544     20542     20554
     20545     20548     20549     20546     20545     20547     20546     20545     20548
     20547     20545     20548     20548     20549     20550     20548     20549     20551
     20549     20551     20552     20549     20551     20553     20549     20551     20598
     20550     20549     20551     20551     20598     20599     20551     20598     20600
     20551     20598     20601     20552     20551     20553     20552     20551     20598
     20553     20551     20598     20554     20557     20558     20554     20557     20559
     20554     20557     20560     20555     20554     20556     20555     20554     20557
     20556     20554     20557     20557     20560     20561     20557     20560     20562
     20557     20560     20563     20558     20557     20559     20558     20557     20560
     20559     20557     20560     20560     20563     20564     20560     20563     20565
     20560     20563     20566     20561     20560     20562     20561     20560     20563
     20562     20560     20563     20563     20566     20567     20563     20566     20568
     20563     20566     20569     20564     20563     20565     20564     20563     20566
     20565     20563     20566     20566     20569     20570     20566     20569     20571
     20566     20569     20572     20567     20566     20568     20567     20566     20569
     20568     20566     20569     20569     20572     20573     20569     20572     20574
     20569     20572     20577     20570     20569     20571     20570     20569     20572
     20571     20569     20572     20572     20574     20575     20572     20574     20576
     20572     20574     20577     20572     20577     20574     20572     20577     20578
     20572     20577     20579     20573     20572     20574     20573     20572     20577
     20574     20572     20577     20574     20577     20578     20574     20577     20579
     20575     20574     20576     20575     20574     20577     20576     20574     20577
     20577     20579     20580     20577     20579     20581     20577     20579     20582
     20578     20577     20579     20579     20582     20583     20579     20582     20584
     20579     20582     20585     20580     20579     20581     20580     20579     20582
     20581     20579     20582     20582     20585     20586     20582     20585     20587
     20582     20585     20588     20583     20582     20584     20583     20582     20585
     20584     20582     20585     20585     20588     20589     20585     20588     20590
     20585     20588     20591     20586     20585     20587     20586     20585     20588
     20587     20585     20588     20588     20591     20592     20588     20591     20593
     20588     20591     20594     20589     20588     20590     20589     20588     20591
     20590     20588     20591     20591     20594     20595     20591     20594     20596
     20591     20594     20597     20592     20591     20593     20592     20591     20594
     20593     20591     20594     20595     20594     20596     20595     20594     20597
     20596     20594     20597     20598     20601     20602     20598     20601     20603
     20598     20601     20604     20599     20598     20600     20599     20598     20601
     20600     20598     20601     20601     20604     20605     20601     20604     20606
     20601     20604     20607     20602     20601     20603     20602     20601     20604
     20603     20601     20604     20604     20607     20608     20604     20607     20609
     20604     20607     20610     20605     20604     20606     20605     20604     20607
     20606     20604     20607     20607     20610     20611     20607     20610     20612
     20607     20610     20613     20608     20607     20609     20608     20607     20610
     20609     20607     20610     20610     20613     20614     20610     20613     20615
     20610     20613     20616     20611     20610     20612     20611     20610     20613
     20612     20610     20613     20613     20616     20617     20613     20616     20618
     20613     20616     20619     20614     20613     20615     20614     20613     20616
     20615     20613     20616     20616     20619     20620     20616     20619     20621
     20616     20619     20622     20617     20616     20618     20617     20616     20619
     20618     20616     20619     20619     20622     20623     20619     20622     20624
     20619     20622     20625     20620     20619     20621     20620     20619     20622
     20621     20619     20622     20622     20625     20626     20622     20625     20627
     20622     20625     20628     20623     20622     20624     20623     20622     20625
     20624     20622     20625     20625     20628     20629     20625     20628     20630
     20625     20628     20631     20626     20625     20627     20626     20625     20628
     20627     20625     20628     20628     20631     20632     20628     20631     20633
     20628     20631     20634     20629     20628     20630     20629     20628     20631
     20630     20628     20631     20631     20634     20635     20631     20634     20636
     20631     20634     20637     20632     20631     20633     20632     20631     20634
     20633     20631     20634     20634     20637     20638     20634     20637     20639
     20634     20637     20640     20635     20634     20636     20635     20634     20637
     20636     20634     20637     20638     20637     20639     20638     20637     20640
     20639     20637     20640     20641     20645     20646     20641     20645     20647
     20641     20645     20648     20642     20641     20643     20642     20641     20644
     20642     20641     20645     20643     20641     20644     20643     20641     20645
     20644     20641     20645     20645     20648     20649     20645     20648     20650
     20645     20648     20655     20646     20645     20647     20646     20645     20648
     20647     20645     20648     20648     20655     20651     20649     20648     20650
     20649     20648     20655     20650     20648     20655     20651     20654     20656
     20652     20651     20653     20652     20651     20654     20652     20651     20655
     20653     20651     20654     20653     20651     20655     20654     20651     20655
     20654     20656     20657     20654     20656     20658     20654     20656     20659
     20656     20659     20660     20656     20659     20661     20656     20659     20667
     20657     20656     20658     20657     20656     20659     20658     20656     20659
     20659     20661     20662     20659     20667     20668     20659     20667     20669
     20659     20667     20670     20660     20659     20661     20660     20659     20667
     20661     20659     20667     20661     20662     20663     20661     20662     20664
     20662     20664     20665     20662     20664     20666     20662     20664     20676
     20663     20662     20664     20664     20676     20677     20664     20676     20678
     20664     20676     20679     20665     20664     20666     20665     20664     20676
     20666     20664     20676     20667     20670     20671     20668     20667     20669
     20668     20667     20670     20669     20667     20670     20670     20671     20672
     20670     20671     20673     20671     20673     20674     20671     20673     20675
     20671     20673     20720     20672     20671     20673     20673     20720     20721
     20673     20720     20722     20673     20720     20723     20674     20673     20675
     20674     20673     20720     20675     20673     20720     20676     20679     20680
     20676     20679     20681     20676     20679     20682     20677     20676     20678
     20677     20676     20679     20678     20676     20679     20679     20682     20683
     20679     20682     20684     20679     20682     20685     20680     20679     20681
     20680     20679     20682     20681     20679     20682     20682     20685     20686
     20682     20685     20687     20682     20685     20688     20683     20682     20684
     20683     20682     20685     20684     20682     20685     20685     20688     20689
     20685     20688     20690     20685     20688     20691     20686     20685     20687
     20686     20685     20688     20687     20685     20688     20688     20691     20692
     20688     20691     20693     20688     20691     20694     20689     20688     20690
     20689     20688     20691     20690     20688     20691     20691     20694     20695
     20691     20694     20696     20691     20694     20699     20692     20691     20693
     20692     20691     20694     20693     20691     20694     20694     20696     20697
     20694     20696     20698     20694     20696     20699     20694     20699     20696
     20694     20699     20700     20694     20699     20701     20695     20694     20696
     20695     20694     20699     20696     20694     20699     20696     20699     20700
     20696     20699     20701     20697     20696     20698     20697     20696     20699
     20698     20696     20699     20699     20701     20702     20699     20701     20703
     20699     20701     20704     20700     20699     20701     20701     20704     20705
     20701     20704     20706     20701     20704     20707     20702     20701     20703
     20702     20701     20704     20703     20701     20704     20704     20707     20708
     20704     20707     20709     20704     20707     20710     20705     20704     20706
     20705     20704     20707     20706     20704     20707     20707     20710     20711
     20707     20710     20712     20707     20710     20713     20708     20707     20709
     20708     20707     20710     20709     20707     20710     20710     20713     20714
     20710     20713     20715     20710     20713     20716     20711     20710     20712
     20711     20710     20713     20712     20710     20713     20713     20716     20717
     20713     20716     20718     20713     20716     20719     20714     20713     20715
     20714     20713     20716     20715     20713     20716     20717     20716     20718
     20717     20716     20719     20718     20716     20719     20720     20723     20724
     20720     20723     20725     20720     20723     20726     20721     20720     20722
     20721     20720     20723     20722     20720     20723     20723     20726     20727
     20723     20726     20728     20723     20726     20729     20724     20723     20725
     20724     20723     20726     20725     20723     20726     20726     20729     20730
     20726     20729     20731     20726     20729     20732     20727     20726     20728
     20727     20726     20729     20728     20726     20729     20729     20732     20733
     20729     20732     20734     20729     20732     20735     20730     20729     20731
     20730     20729     20732     20731     20729     20732     20732     20735     20736
     20732     20735     20737     20732     20735     20738     20733     20732     20734
     20733     20732     20735     20734     20732     20735     20735     20738     20739
     20735     20738     20740     20735     20738     20741     20736     20735     20737
     20736     20735     20738     20737     20735     20738     20738     20741     20742
     20738     20741     20743     20738     20741     20744     20739     20738     20740
     20739     20738     20741     20740     20738     20741     20741     20744     20745
     20741     20744     20746     20741     20744     20747     20742     20741     20743
     20742     20741     20744     20743     20741     20744     20744     20747     20748
     20744     20747     20749     20744     20747     20750     20745     20744     20746
     20745     20744     20747     20746     20744     20747     20747     20750     20751
     20747     20750     20752     20747     20750     20753     20748     20747     20749
     20748     20747     20750     20749     20747     20750     20750     20753     20754
     20750     20753     20755     20750     20753     20756     20751     20750     20752
     20751     20750     20753     20752     20750     20753     20753     20756     20757
     20753     20756     20758     20753     20756     20759     20754     20753     20755
     20754     20753     20756     20755     20753     20756     20756     20759     20760
     20756     20759     20761     20756     20759     20762     20757     20756     20758
     20757     20756     20759     20758     20756     20759     20760     20759     20761
     20760     20759     20762     20761     20759     20762     20763     20767     20768
     20763     20767     20769     20763     20767     20770     20764     20763     20765
     20764     20763     20766     20764     20763     20767     20765     20763     20766
     20765     20763     20767     20766     20763     20767     20767     20770     20771
     20767     20770     20772     20767     20770     20777     20768     20767     20769
     20768     20767     20770     20769     20767     20770     20770     20777     20773
     20771     20770     20772     20771     20770     20777     20772     20770     20777
     20773     20776     20778     20774     20773     20775     20774     20773     20776
     20774     20773     20777     20775     20773     20776     20775     20773     20777
     20776     20773     20777     20776     20778     20779     20776     20778     20780
     20776     20778     20781     20778     20781     20782     20778     20781     20783
     20778     20781     20789     20779     20778     20780     20779     20778     20781
     20780     20778     20781     20781     20783     20784     20781     20789     20790
     20781     20789     20791     20781     20789     20792     20782     20781     20783
     20782     20781     20789     20783     20781     20789     20783     20784     20785
     20783     20784     20786     20784     20786     20787     20784     20786     20788
     20784     20786     20798     20785     20784     20786     20786     20798     20799
     20786     20798     20800     20786     20798     20801     20787     20786     20788
     20787     20786     20798     20788     20786     20798     20789     20792     20793
     20790     20789     20791     20790     20789     20792     20791     20789     20792
     20792     20793     20794     20792     20793     20795     20793     20795     20796
     20793     20795     20797     20793     20795     20842     20794     20793     20795
     20795     20842     20843     20795     20842     20844     20795     20842     20845
     20796     20795     20797     20796     20795     20842     20797     20795     20842
     20798     20801     20802     20798     20801     20803     20798     20801     20804
     20799     20798     20800     20799     20798     20801     20800     20798     20801
     20801     20804     20805     20801     20804     20806     20801     20804     20807
     20802     20801     20803     20802     20801     20804     20803     20801     20804
     20804     20807     20808     20804     20807     20809     20804     20807     20810
     20805     20804     20806     20805     20804     20807     20806     20804     20807
     20807     20810     20811     20807     20810     20812     20807     20810     20813
     20808     20807     20809     20808     20807     20810     20809     20807     20810
     20810     20813     20814     20810     20813     20815     20810     20813     20816
     20811     20810     20812     20811     20810     20813     20812     20810     20813
     20813     20816     20817     20813     20816     20818     20813     20816     20821
     20814     20813     20815     20814     20813     20816     20815     20813     20816
     20816     20818     20819     20816     20818     20820     20816     20818     20821
     20816     20821     20818     20816     20821     20822     20816     20821     20823
     20817     20816     20818     20817     20816     20821     20818     20816     20821
     20818     20821     20822     20818     20821     20823     20819     20818     20820
     20819     20818     20821     20820     20818     20821     20821     20823     20824
     20821     20823     20825     20821     20823     20826     20822     20821     20823
     20823     20826     20827     20823     20826     20828     20823     20826     20829
     20824     20823     20825     20824     20823     20826     20825     20823     20826
     20826     20829     20830     20826     20829     20831     20826     20829     20832
     20827     20826     20828     20827     20826     20829     20828     20826     20829
     20829     20832     20833     20829     20832     20834     20829     20832     20835
     20830     20829     20831     20830     20829     20832     20831     20829     20832
     20832     20835     20836     20832     20835     20837     20832     20835     20838
     20833     20832     20834     20833     20832     20835     20834     20832     20835
     20835     20838     20839     20835     20838     20840     20835     20838     20841
     20836     20835     20837     20836     20835     20838     20837     20835     20838
     20839     20838     20840     20839     20838     20841     20840     20838     20841
     20842     20845     20846     20842     20845     20847     20842     20845     20848
     20843     20842     20844     20843     20842     20845     20844     20842     20845
     20845     20848     20849     20845     20848     20850     20845     20848     20851
     20846     20845     20847     20846     20845     20848     20847     20845     20848
     20848     20851     20852     20848     20851     20853     20848     20851     20854
     20849     20848     20850     20849     20848     20851     20850     20848     20851
     20851     20854     20855     20851     20854     20856     20851     20854     20857
     20852     20851     20853     20852     20851     20854     20853     20851     20854
     20854     20857     20858     20854     20857     20859     20854     20857     20860
     20855     20854     20856     20855     20854     20857     20856     20854     20857
     20857     20860     20861     20857     20860     20862     20857     20860     20863
     20858     20857     20859     20858     20857     20860     20859     20857     20860
     20860     20863     20864     20860     20863     20865     20860     20863     20866
     20861     20860     20862     20861     20860     20863     20862     20860     20863
     20863     20866     20867     20863     20866     20868     20863     20866     20869
     20864     20863     20865     20864     20863     20866     20865     20863     20866
     20866     20869     20870     20866     20869     20871     20866     20869     20872
     20867     20866     20868     20867     20866     20869     20868     20866     20869
     20869     20872     20873     20869     20872     20874     20869     20872     20875
     20870     20869     20871     20870     20869     20872     20871     20869     20872
     20872     20875     20876     20872     20875     20877     20872     20875     20878
     20873     20872     20874     20873     20872     20875     20874     20872     20875
     20875     20878     20879     20875     20878     20880     20875     20878     20881
     20876     20875     20877     20876     20875     20878     20877     20875     20878
     20878     20881     20882     20878     20881     20883     20878     20881     20884
     20879     20878     20880     20879     20878     20881     20880     20878     20881
     20882     20881     20883     20882     20881     20884     20883     20881     20884
     20885     20888     20889     20885     20890     20891     20885     20890     20892
     20885     20890     20894     20886     20885     20887     20886     20885     20888
     20886     20885     20890     20887     20885     20888     20887     20885     20890
     20888     20885     20890     20890     20892     20893     20890     20894     20895
     20890     20894     20896     20890     20894     20901     20891     20890     20892
     20891     20890     20894     20892     20890     20894     20894     20901     20897
     20895     20894     20896     20895     20894     20901     20896     20894     20901
     20897     20900     20902     20898     20897     20899     20898     20897     20900
     20898     20897     20901     20899     20897     20900     20899     20897     20901
     20900     20897     20901     20900     20902     20903     20900     20902     20904
     20900     20902     20905     20902     20905     20906     20902     20905     20907
     20902     20905     20913     20903     20902     20904     20903     20902     20905
     20904     20902     20905     20905     20907     20908     20905     20913     20914
     20905     20913     20915     20905     20913     20916     20906     20905     20907
     20906     20905     20913     20907     20905     20913     20907     20908     20909
     20907     20908     20910     20908     20910     20911     20908     20910     20912
     20908     20910     20922     20909     20908     20910     20910     20922     20923
     20910     20922     20924     20910     20922     20925     20911     20910     20912
     20911     20910     20922     20912     20910     20922     20913     20916     20917
     20914     20913     20915     20914     20913     20916     20915     20913     20916
     20916     20917     20918     20916     20917     20919     20917     20919     20920
     20917     20919     20921     20917     20919     20966     20918     20917     20919
     20919     20966     20967     20919     20966     20968     20919     20966     20969
     20920     20919     20921     20920     20919     20966     20921     20919     20966
     20922     20925     20926     20922     20925     20927     20922     20925     20928
     20923     20922     20924     20923     20922     20925     20924     20922     20925
     20925     20928     20929     20925     20928     20930     20925     20928     20931
     20926     20925     20927     20926     20925     20928     20927     20925     20928
     20928     20931     20932     20928     20931     20933     20928     20931     20934
     20929     20928     20930     20929     20928     20931     20930     20928     20931
     20931     20934     20935     20931     20934     20936     20931     20934     20937
     20932     20931     20933     20932     20931     20934     20933     20931     20934
     20934     20937     20938     20934     20937     20939     20934     20937     20940
     20935     20934     20936     20935     20934     20937     20936     20934     20937
     20937     20940     20941     20937     20940     20942     20937     20940     20945
     20938     20937     20939     20938     20937     20940     20939     20937     20940
     20940     20942     20943     20940     20942     20944     20940     20942     20945
     20940     20945     20942     20940     20945     20946     20940     20945     20947
     20941     20940     20942     20941     20940     20945     20942     20940     20945
     20942     20945     20946     20942     20945     20947     20943     20942     20944
     20943     20942     20945     20944     20942     20945     20945     20947     20948
     20945     20947     20949     20945     20947     20950     20946     20945     20947
     20947     20950     20951     20947     20950     20952     20947     20950     20953
     20948     20947     20949     20948     20947     20950     20949     20947     20950
     20950     20953     20954     20950     20953     20955     20950     20953     20956
     20951     20950     20952     20951     20950     20953     20952     20950     20953
     20953     20956     20957     20953     20956     20958     20953     20956     20959
     20954     20953     20955     20954     20953     20956     20955     20953     20956
     20956     20959     20960     20956     20959     20961     20956     20959     20962
     20957     20956     20958     20957     20956     20959     20958     20956     20959
     20959     20962     20963     20959     20962     20964     20959     20962     20965
     20960     20959     20961     20960     20959     20962     20961     20959     20962
     20963     20962     20964     20963     20962     20965     20964     20962     20965
     20966     20969     20970     20966     20969     20971     20966     20969     20972
     20967     20966     20968     20967     20966     20969     20968     20966     20969
     20969     20972     20973     20969     20972     20974     20969     20972     20975
     20970     20969     20971     20970     20969     20972     20971     20969     20972
     20972     20975     20976     20972     20975     20977     20972     20975     20978
     20973     20972     20974     20973     20972     20975     20974     20972     20975
     20975     20978     20979     20975     20978     20980     20975     20978     20981
     20976     20975     20977     20976     20975     20978     20977     20975     20978
     20978     20981     20982     20978     20981     20983     20978     20981     20984
     20979     20978     20980     20979     20978     20981     20980     20978     20981
     20981     20984     20985     20981     20984     20986     20981     20984     20987
     20982     20981     20983     20982     20981     20984     20983     20981     20984
     20984     20987     20988     20984     20987     20989     20984     20987     20990
     20985     20984     20986     20985     20984     20987     20986     20984     20987
     20987     20990     20991     20987     20990     20992     20987     20990     20993
     20988     20987     20989     20988     20987     20990     20989     20987     20990
     20990     20993     20994     20990     20993     20995     20990     20993     20996
     20991     20990     20992     20991     20990     20993     20992     20990     20993
     20993     20996     20997     20993     20996     20998     20993     20996     20999
     20994     20993     20995     20994     20993     20996     20995     20993     20996
     20996     20999     21000     20996     20999     21001     20996     20999     21002
     20997     20996     20998     20997     20996     20999     20998     20996     20999
     20999     21002     21003     20999     21002     21004     20999     21002     21005
     21000     20999     21001     21000     20999     21002     21001     20999     21002
     21002     21005     21006     21002     21005     21007     21002     21005     21008
     21003     21002     21004     21003     21002     21005     21004     21002     21005
     21006     21005     21007     21006     21005     21008     21007     21005     21008
     21009     21013     21014     21009     21013     21015     21009     21013     21016
     21010     21009     21011     21010     21009     21012     21010     21009     21013
     21011     21009     21012     21011     21009     21013     21012     21009     21013
     21013     21016     21017     21013     21016     21018     21013     21016     21023
     21014     21013     21015     21014     21013     21016     21015     21013     21016
     21016     21023     21019     21017     21016     21018     21017     21016     21023
     21018     21016     21023     21019     21022     21024     21020     21019     21021
     21020     21019     21022     21020     21019     21023     21021     21019     21022
     21021     21019     21023     21022     21019     21023     21022     21024     21025
     21022     21024     21026     21022     21024     21027     21024     21027     21028
     21024     21027     21029     21024     21027     21035     21025     21024     21026
     21025     21024     21027     21026     21024     21027     21027     21029     21030
     21027     21035     21036     21027     21035     21037     21027     21035     21038
     21028     21027     21029     21028     21027     21035     21029     21027     21035
     21029     21030     21031     21029     21030     21032     21030     21032     21033
     21030     21032     21034     21030     21032     21044     21031     21030     21032
     21032     21044     21045     21032     21044     21046     21032     21044     21047
     21033     21032     21034     21033     21032     21044     21034     21032     21044
     21035     21038     21039     21036     21035     21037     21036     21035     21038
     21037     21035     21038     21038     21039     21040     21038     21039     21041
     21039     21041     21042     21039     21041     21043     21039     21041     21091
     21040     21039     21041     21041     21091     21092     21041     21091     21093
     21041     21091     21094     21042     21041     21043     21042     21041     21091
     21043     21041     21091     21044     21047     21048     21044     21047     21049
     21044     21047     21050     21045     21044     21046     21045     21044     21047
     21046     21044     21047     21047     21050     21051     21047     21050     21052
     21047     21050     21053     21048     21047     21049     21048     21047     21050
     21049     21047     21050     21050     21053     21054     21050     21053     21055
     21050     21053     21056     21051     21050     21052     21051     21050     21053
     21052     21050     21053     21053     21056     21057     21053     21056     21058
     21053     21056     21059     21054     21053     21055     21054     21053     21056
     21055     21053     21056     21056     21059     21060     21056     21059     21061
     21056     21059     21062     21057     21056     21058     21057     21056     21059
     21058     21056     21059     21059     21062     21063     21059     21062     21064
     21060     21059     21061     21060     21059     21062     21061     21059     21062
     21062     21064     21065     21062     21064     21066     21063     21062     21064
     21064     21066     21067     21064     21066     21068     21064     21066     21069
     21065     21064     21066     21066     21069     21070     21066     21069     21071
     21066     21069     21072     21067     21066     21068     21067     21066     21069
     21068     21066     21069     21069     21072     21073     21069     21072     21074
     21069     21072     21075     21070     21069     21071     21070     21069     21072
     21071     21069     21072     21072     21075     21076     21072     21075     21077
     21072     21075     21078     21073     21072     21074     21073     21072     21075
     21074     21072     21075     21075     21078     21079     21075     21078     21080
     21075     21078     21081     21076     21075     21077     21076     21075     21078
     21077     21075     21078     21078     21081     21082     21078     21081     21083
     21078     21081     21084     21079     21078     21080     21079     21078     21081
     21080     21078     21081     21081     21084     21085     21081     21084     21086
     21081     21084     21087     21082     21081     21083     21082     21081     21084
     21083     21081     21084     21084     21087     21088     21084     21087     21089
     21084     21087     21090     21085     21084     21086     21085     21084     21087
     21086     21084     21087     21088     21087     21089     21088     21087     21090
     21089     21087     21090     21091     21094     21095     21091     21094     21096
     21091     21094     21097     21092     21091     21093     21092     21091     21094
     21093     21091     21094     21094     21097     21098     21094     21097     21099
     21094     21097     21100     21095     21094     21096     21095     21094     21097
     21096     21094     21097     21097     21100     21101     21097     21100     21102
     21097     21100     21103     21098     21097     21099     21098     21097     21100
     21099     21097     21100     21100     21103     21104     21100     21103     21105
     21100     21103     21106     21101     21100     21102     21101     21100     21103
     21102     21100     21103     21103     21106     21107     21103     21106     21108
     21103     21106     21109     21104     21103     21105     21104     21103     21106
     21105     21103     21106     21106     21109     21110     21106     21109     21111
     21106     21109     21112     21107     21106     21108     21107     21106     21109
     21108     21106     21109     21109     21112     21113     21109     21112     21114
     21109     21112     21115     21110     21109     21111     21110     21109     21112
     21111     21109     21112     21112     21115     21116     21112     21115     21117
     21112     21115     21118     21113     21112     21114     21113     21112     21115
     21114     21112     21115     21115     21118     21119     21115     21118     21120
     21115     21118     21121     21116     21115     21117     21116     21115     21118
     21117     21115     21118     21118     21121     21122     21118     21121     21123
     21118     21121     21124     21119     21118     21120     21119     21118     21121
     21120     21118     21121     21121     21124     21125     21121     21124     21126
     21121     21124     21127     21122     21121     21123     21122     21121     21124
     21123     21121     21124     21124     21127     21128     21124     21127     21129
     21124     21127     21130     21125     21124     21126     21125     21124     21127
     21126     21124     21127     21127     21130     21131     21127     21130     21132
     21127     21130     21133     21128     21127     21129     21128     21127     21130
     21129     21127     21130     21131     21130     21132     21131     21130     21133
     21132     21130     21133     21134     21138     21139     21134     21138     21140
     21134     21138     21141     21135     21134     21136     21135     21134     21137
     21135     21134     21138     21136     21134     21137     21136     21134     21138
     21137     21134     21138     21138     21141     21142     21138     21141     21143
     21138     21141     21148     21139     21138     21140     21139     21138     21141
     21140     21138     21141     21141     21148     21144     21142     21141     21143
     21142     21141     21148     21143     21141     21148     21144     21147     21149
     21145     21144     21146     21145     21144     21147     21145     21144     21148
     21146     21144     21147     21146     21144     21148     21147     21144     21148
     21147     21149     21150     21147     21149     21151     21147     21149     21152
     21149     21152     21153     21149     21152     21154     21149     21152     21160
     21150     21149     21151     21150     21149     21152     21151     21149     21152
     21152     21154     21155     21152     21160     21161     21152     21160     21162
     21152     21160     21163     21153     21152     21154     21153     21152     21160
     21154     21152     21160     21154     21155     21156     21154     21155     21157
     21155     21157     21158     21155     21157     21159     21155     21157     21169
     21156     21155     21157     21157     21169     21170     21157     21169     21171
     21157     21169     21172     21158     21157     21159     21158     21157     21169
     21159     21157     21169     21160     21163     21164     21161     21160     21162
     21161     21160     21163     21162     21160     21163     21163     21164     21165
     21163     21164     21166     21164     21166     21167     21164     21166     21168
     21164     21166     21213     21165     21164     21166     21166     21213     21214
     21166     21213     21215     21166     21213     21216     21167     21166     21168
     21167     21166     21213     21168     21166     21213     21169     21172     21173
     21169     21172     21174     21169     21172     21175     21170     21169     21171
     21170     21169     21172     21171     21169     21172     21172     21175     21176
     21172     21175     21177     21172     21175     21178     21173     21172     21174
     21173     21172     21175     21174     21172     21175     21175     21178     21179
     21175     21178     21180     21175     21178     21181     21176     21175     21177
     21176     21175     21178     21177     21175     21178     21178     21181     21182
     21178     21181     21183     21178     21181     21184     21179     21178     21180
     21179     21178     21181     21180     21178     21181     21181     21184     21185
     21181     21184     21186     21181     21184     21187     21182     21181     21183
     21182     21181     21184     21183     21181     21184     21184     21187     21188
     21184     21187     21189     21184     21187     21192     21185     21184     21186
     21185     21184     21187     21186     21184     21187     21187     21189     21190
     21187     21189     21191     21187     21189     21192     21187     21192     21189
     21187     21192     21193     21187     21192     21194     21188     21187     21189
     21188     21187     21192     21189     21187     21192     21189     21192     21193
     21189     21192     21194     21190     21189     21191     21190     21189     21192
     21191     21189     21192     21192     21194     21195     21192     21194     21196
     21192     21194     21197     21193     21192     21194     21194     21197     21198
     21194     21197     21199     21194     21197     21200     21195     21194     21196
     21195     21194     21197     21196     21194     21197     21197     21200     21201
     21197     21200     21202     21197     21200     21203     21198     21197     21199
     21198     21197     21200     21199     21197     21200     21200     21203     21204
     21200     21203     21205     21200     21203     21206     21201     21200     21202
     21201     21200     21203     21202     21200     21203     21203     21206     21207
     21203     21206     21208     21203     21206     21209     21204     21203     21205
     21204     21203     21206     21205     21203     21206     21206     21209     21210
     21206     21209     21211     21206     21209     21212     21207     21206     21208
     21207     21206     21209     21208     21206     21209     21210     21209     21211
     21210     21209     21212     21211     21209     21212     21213     21216     21217
     21213     21216     21218     21213     21216     21219     21214     21213     21215
     21214     21213     21216     21215     21213     21216     21216     21219     21220
     21216     21219     21221     21216     21219     21222     21217     21216     21218
     21217     21216     21219     21218     21216     21219     21219     21222     21223
     21219     21222     21224     21219     21222     21225     21220     21219     21221
     21220     21219     21222     21221     21219     21222     21222     21225     21226
     21222     21225     21227     21222     21225     21228     21223     21222     21224
     21223     21222     21225     21224     21222     21225     21225     21228     21229
     21225     21228     21230     21225     21228     21231     21226     21225     21227
     21226     21225     21228     21227     21225     21228     21228     21231     21232
     21228     21231     21233     21228     21231     21234     21229     21228     21230
     21229     21228     21231     21230     21228     21231     21231     21234     21235
     21231     21234     21236     21231     21234     21237     21232     21231     21233
     21232     21231     21234     21233     21231     21234     21234     21237     21238
     21234     21237     21239     21234     21237     21240     21235     21234     21236
     21235     21234     21237     21236     21234     21237     21237     21240     21241
     21237     21240     21242     21237     21240     21243     21238     21237     21239
     21238     21237     21240     21239     21237     21240     21240     21243     21244
     21240     21243     21245     21240     21243     21246     21241     21240     21242
     21241     21240     21243     21242     21240     21243     21243     21246     21247
     21243     21246     21248     21243     21246     21249     21244     21243     21245
     21244     21243     21246     21245     21243     21246     21246     21249     21250
     21246     21249     21251     21246     21249     21252     21247     21246     21248
     21247     21246     21249     21248     21246     21249     21249     21252     21253
     21249     21252     21254     21249     21252     21255     21250     21249     21251
     21250     21249     21252     21251     21249     21252     21253     21252     21254
     21253     21252     21255     21254     21252     21255     21256     21259     21260
     21256     21261     21262     21256     21261     21263     21256     21261     21265
     21257     21256     21258     21257     21256     21259     21257     21256     21261
     21258     21256     21259     21258     21256     21261     21259     21256     21261
     21261     21263     21264     21261     21265     21266     21261     21265     21267
     21261     21265     21272     21262     21261     21263     21262     21261     21265
     21263     21261     21265     21265     21272     21268     21266     21265     21267
     21266     21265     21272     21267     21265     21272     21268     21271     21273
     21269     21268     21270     21269     21268     21271     21269     21268     21272
     21270     21268     21271     21270     21268     21272     21271     21268     21272
     21271     21273     21274     21271     21273     21275     21271     21273     21276
     21273     21276     21277     21273     21276     21278     21273     21276     21284
     21274     21273     21275     21274     21273     21276     21275     21273     21276
     21276     21278     21279     21276     21284     21285     21276     21284     21286
     21276     21284     21287     21277     21276     21278     21277     21276     21284
     21278     21276     21284     21278     21279     21280     21278     21279     21281
     21279     21281     21282     21279     21281     21283     21279     21281     21293
     21280     21279     21281     21281     21293     21294     21281     21293     21295
     21281     21293     21296     21282     21281     21283     21282     21281     21293
     21283     21281     21293     21284     21287     21288     21285     21284     21286
     21285     21284     21287     21286     21284     21287     21287     21288     21289
     21287     21288     21290     21288     21290     21291     21288     21290     21292
     21288     21290     21337     21289     21288     21290     21290     21337     21338
     21290     21337     21339     21290     21337     21340     21291     21290     21292
     21291     21290     21337     21292     21290     21337     21293     21296     21297
     21293     21296     21298     21293     21296     21299     21294     21293     21295
     21294     21293     21296     21295     21293     21296     21296     21299     21300
     21296     21299     21301     21296     21299     21302     21297     21296     21298
     21297     21296     21299     21298     21296     21299     21299     21302     21303
     21299     21302     21304     21299     21302     21305     21300     21299     21301
     21300     21299     21302     21301     21299     21302     21302     21305     21306
     21302     21305     21307     21302     21305     21308     21303     21302     21304
     21303     21302     21305     21304     21302     21305     21305     21308     21309
     21305     21308     21310     21305     21308     21311     21306     21305     21307
     21306     21305     21308     21307     21305     21308     21308     21311     21312
     21308     21311     21313     21308     21311     21316     21309     21308     21310
     21309     21308     21311     21310     21308     21311     21311     21313     21314
     21311     21313     21315     21311     21313     21316     21311     21316     21313
     21311     21316     21317     21311     21316     21318     21312     21311     21313
     21312     21311     21316     21313     21311     21316     21313     21316     21317
     21313     21316     21318     21314     21313     21315     21314     21313     21316
     21315     21313     21316     21316     21318     21319     21316     21318     21320
     21316     21318     21321     21317     21316     21318     21318     21321     21322
     21318     21321     21323     21318     21321     21324     21319     21318     21320
     21319     21318     21321     21320     21318     21321     21321     21324     21325
     21321     21324     21326     21321     21324     21327     21322     21321     21323
     21322     21321     21324     21323     21321     21324     21324     21327     21328
     21324     21327     21329     21324     21327     21330     21325     21324     21326
     21325     21324     21327     21326     21324     21327     21327     21330     21331
     21327     21330     21332     21327     21330     21333     21328     21327     21329
     21328     21327     21330     21329     21327     21330     21330     21333     21334
     21330     21333     21335     21330     21333     21336     21331     21330     21332
     21331     21330     21333     21332     21330     21333     21334     21333     21335
     21334     21333     21336     21335     21333     21336     21337     21340     21341
     21337     21340     21342     21337     21340     21343     21338     21337     21339
     21338     21337     21340     21339     21337     21340     21340     21343     21344
     21340     21343     21345     21340     21343     21346     21341     21340     21342
     21341     21340     21343     21342     21340     21343     21343     21346     21347
     21343     21346     21348     21343     21346     21349     21344     21343     21345
     21344     21343     21346     21345     21343     21346     21346     21349     21350
     21346     21349     21351     21346     21349     21352     21347     21346     21348
     21347     21346     21349     21348     21346     21349     21349     21352     21353
     21349     21352     21354     21349     21352     21355     21350     21349     21351
     21350     21349     21352     21351     21349     21352     21352     21355     21356
     21352     21355     21357     21352     21355     21358     21353     21352     21354
     21353     21352     21355     21354     21352     21355     21355     21358     21359
     21355     21358     21360     21355     21358     21361     21356     21355     21357
     21356     21355     21358     21357     21355     21358     21358     21361     21362
     21358     21361     21363     21358     21361     21364     21359     21358     21360
     21359     21358     21361     21360     21358     21361     21361     21364     21365
     21361     21364     21366     21361     21364     21367     21362     21361     21363
     21362     21361     21364     21363     21361     21364     21364     21367     21368
     21364     21367     21369     21364     21367     21370     21365     21364     21366
     21365     21364     21367     21366     21364     21367     21367     21370     21371
     21367     21370     21372     21367     21370     21373     21368     21367     21369
     21368     21367     21370     21369     21367     21370     21370     21373     21374
     21370     21373     21375     21370     21373     21376     21371     21370     21372
     21371     21370     21373     21372     21370     21373     21373     21376     21377
     21373     21376     21378     21373     21376     21379     21374     21373     21375
     21374     21373     21376     21375     21373     21376     21377     21376     21378
     21377     21376     21379     21378     21376     21379     21380     21384     21385
     21380     21384     21386     21380     21384     21387     21381     21380     21382
     21381     21380     21383     21381     21380     21384     21382     21380     21383
     21382     21380     21384     21383     21380     21384     21384     21387     21388
     21384     21387     21389     21384     21387     21394     21385     21384     21386
     21385     21384     21387     21386     21384     21387     21387     21394     21390
     21388     21387     21389     21388     21387     21394     21389     21387     21394
     21390     21393     21395     21391     21390     21392     21391     21390     21393
     21391     21390     21394     21392     21390     21393     21392     21390     21394
     21393     21390     21394     21393     21395     21396     21393     21395     21397
     21393     21395     21398     21395     21398     21399     21395     21398     21400
     21395     21398     21406     21396     21395     21397     21396     21395     21398
     21397     21395     21398     21398     21400     21401     21398     21406     21407
     21398     21406     21408     21398     21406     21409     21399     21398     21400
     21399     21398     21406     21400     21398     21406     21400     21401     21402
     21400     21401     21403     21401     21403     21404     21401     21403     21405
     21401     21403     21415     21402     21401     21403     21403     21415     21416
     21403     21415     21417     21403     21415     21418     21404     21403     21405
     21404     21403     21415     21405     21403     21415     21406     21409     21410
     21407     21406     21408     21407     21406     21409     21408     21406     21409
     21409     21410     21411     21409     21410     21412     21410     21412     21413
     21410     21412     21414     21410     21412     21459     21411     21410     21412
     21412     21459     21460     21412     21459     21461     21412     21459     21462
     21413     21412     21414     21413     21412     21459     21414     21412     21459
     21415     21418     21419     21415     21418     21420     21415     21418     21421
     21416     21415     21417     21416     21415     21418     21417     21415     21418
     21418     21421     21422     21418     21421     21423     21418     21421     21424
     21419     21418     21420     21419     21418     21421     21420     21418     21421
     21421     21424     21425     21421     21424     21426     21421     21424     21427
     21422     21421     21423     21422     21421     21424     21423     21421     21424
     21424     21427     21428     21424     21427     21429     21424     21427     21430
     21425     21424     21426     21425     21424     21427     21426     21424     21427
     21427     21430     21431     21427     21430     21432     21427     21430     21433
     21428     21427     21429     21428     21427     21430     21429     21427     21430
     21430     21433     21434     21430     21433     21435     21430     21433     21438
     21431     21430     21432     21431     21430     21433     21432     21430     21433
     21433     21435     21436     21433     21435     21437     21433     21435     21438
     21433     21438     21435     21433     21438     21439     21433     21438     21440
     21434     21433     21435     21434     21433     21438     21435     21433     21438
     21435     21438     21439     21435     21438     21440     21436     21435     21437
     21436     21435     21438     21437     21435     21438     21438     21440     21441
     21438     21440     21442     21438     21440     21443     21439     21438     21440
     21440     21443     21444     21440     21443     21445     21440     21443     21446
     21441     21440     21442     21441     21440     21443     21442     21440     21443
     21443     21446     21447     21443     21446     21448     21443     21446     21449
     21444     21443     21445     21444     21443     21446     21445     21443     21446
     21446     21449     21450     21446     21449     21451     21446     21449     21452
     21447     21446     21448     21447     21446     21449     21448     21446     21449
     21449     21452     21453     21449     21452     21454     21449     21452     21455
     21450     21449     21451     21450     21449     21452     21451     21449     21452
     21452     21455     21456     21452     21455     21457     21452     21455     21458
     21453     21452     21454     21453     21452     21455     21454     21452     21455
     21456     21455     21457     21456     21455     21458     21457     21455     21458
     21459     21462     21463     21459     21462     21464     21459     21462     21465
     21460     21459     21461     21460     21459     21462     21461     21459     21462
     21462     21465     21466     21462     21465     21467     21462     21465     21468
     21463     21462     21464     21463     21462     21465     21464     21462     21465
     21465     21468     21469     21465     21468     21470     21465     21468     21471
     21466     21465     21467     21466     21465     21468     21467     21465     21468
     21468     21471     21472     21468     21471     21473     21468     21471     21474
     21469     21468     21470     21469     21468     21471     21470     21468     21471
     21471     21474     21475     21471     21474     21476     21471     21474     21477
     21472     21471     21473     21472     21471     21474     21473     21471     21474
     21474     21477     21478     21474     21477     21479     21474     21477     21480
     21475     21474     21476     21475     21474     21477     21476     21474     21477
     21477     21480     21481     21477     21480     21482     21477     21480     21483
     21478     21477     21479     21478     21477     21480     21479     21477     21480
     21480     21483     21484     21480     21483     21485     21480     21483     21486
     21481     21480     21482     21481     21480     21483     21482     21480     21483
     21483     21486     21487     21483     21486     21488     21483     21486     21489
     21484     21483     21485     21484     21483     21486     21485     21483     21486
     21486     21489     21490     21486     21489     21491     21486     21489     21492
     21487     21486     21488     21487     21486     21489     21488     21486     21489
     21489     21492     21493     21489     21492     21494     21489     21492     21495
     21490     21489     21491     21490     21489     21492     21491     21489     21492
     21492     21495     21496     21492     21495     21497     21492     21495     21498
     21493     21492     21494     21493     21492     21495     21494     21492     21495
     21495     21498     21499     21495     21498     21500     21495     21498     21501
     21496     21495     21497     21496     21495     21498     21497     21495     21498
     21499     21498     21500     21499     21498     21501     21500     21498     21501
     21502     21506     21507     21502     21506     21508     21502     21506     21509
     21503     21502     21504     21503     21502     21505     21503     21502     21506
     21504     21502     21505     21504     21502     21506     21505     21502     21506
     21506     21509     21510     21506     21509     21511     21506     21509     21516
     21507     21506     21508     21507     21506     21509     21508     21506     21509
     21509     21516     21512     21510     21509     21511     21510     21509     21516
     21511     21509     21516     21512     21515     21517     21513     21512     21514
     21513     21512     21515     21513     21512     21516     21514     21512     21515
     21514     21512     21516     21515     21512     21516     21515     21517     21518
     21515     21517     21519     21515     21517     21520     21517     21520     21521
     21517     21520     21522     21517     21520     21528     21518     21517     21519
     21518     21517     21520     21519     21517     21520     21520     21522     21523
     21520     21528     21529     21520     21528     21530     21520     21528     21531
     21521     21520     21522     21521     21520     21528     21522     21520     21528
     21522     21523     21524     21522     21523     21525     21523     21525     21526
     21523     21525     21527     21523     21525     21537     21524     21523     21525
     21525     21537     21538     21525     21537     21539     21525     21537     21540
     21526     21525     21527     21526     21525     21537     21527     21525     21537
     21528     21531     21532     21529     21528     21530     21529     21528     21531
     21530     21528     21531     21531     21532     21533     21531     21532     21534
     21532     21534     21535     21532     21534     21536     21532     21534     21581
     21533     21532     21534     21534     21581     21582     21534     21581     21583
     21534     21581     21584     21535     21534     21536     21535     21534     21581
     21536     21534     21581     21537     21540     21541     21537     21540     21542
     21537     21540     21543     21538     21537     21539     21538     21537     21540
     21539     21537     21540     21540     21543     21544     21540     21543     21545
     21540     21543     21546     21541     21540     21542     21541     21540     21543
     21542     21540     21543     21543     21546     21547     21543     21546     21548
     21543     21546     21549     21544     21543     21545     21544     21543     21546
     21545     21543     21546     21546     21549     21550     21546     21549     21551
     21546     21549     21552     21547     21546     21548     21547     21546     21549
     21548     21546     21549     21549     21552     21553     21549     21552     21554
     21549     21552     21555     21550     21549     21551     21550     21549     21552
     21551     21549     21552     21552     21555     21556     21552     21555     21557
     21552     21555     21560     21553     21552     21554     21553     21552     21555
     21554     21552     21555     21555     21557     21558     21555     21557     21559
     21555     21557     21560     21555     21560     21557     21555     21560     21561
     21555     21560     21562     21556     21555     21557     21556     21555     21560
     21557     21555     21560     21557     21560     21561     21557     21560     21562
     21558     21557     21559     21558     21557     21560     21559     21557     21560
     21560     21562     21563     21560     21562     21564     21560     21562     21565
     21561     21560     21562     21562     21565     21566     21562     21565     21567
     21562     21565     21568     21563     21562     21564     21563     21562     21565
     21564     21562     21565     21565     21568     21569     21565     21568     21570
     21565     21568     21571     21566     21565     21567     21566     21565     21568
     21567     21565     21568     21568     21571     21572     21568     21571     21573
     21568     21571     21574     21569     21568     21570     21569     21568     21571
     21570     21568     21571     21571     21574     21575     21571     21574     21576
     21571     21574     21577     21572     21571     21573     21572     21571     21574
     21573     21571     21574     21574     21577     21578     21574     21577     21579
     21574     21577     21580     21575     21574     21576     21575     21574     21577
     21576     21574     21577     21578     21577     21579     21578     21577     21580
     21579     21577     21580     21581     21584     21585     21581     21584     21586
     21581     21584     21587     21582     21581     21583     21582     21581     21584
     21583     21581     21584     21584     21587     21588     21584     21587     21589
     21584     21587     21590     21585     21584     21586     21585     21584     21587
     21586     21584     21587     21587     21590     21591     21587     21590     21592
     21587     21590     21593     21588     21587     21589     21588     21587     21590
     21589     21587     21590     21590     21593     21594     21590     21593     21595
     21590     21593     21596     21591     21590     21592     21591     21590     21593
     21592     21590     21593     21593     21596     21597     21593     21596     21598
     21593     21596     21599     21594     21593     21595     21594     21593     21596
     21595     21593     21596     21596     21599     21600     21596     21599     21601
     21596     21599     21602     21597     21596     21598     21597     21596     21599
     21598     21596     21599     21599     21602     21603     21599     21602     21604
     21599     21602     21605     21600     21599     21601     21600     21599     21602
     21601     21599     21602     21602     21605     21606     21602     21605     21607
     21602     21605     21608     21603     21602     21604     21603     21602     21605
     21604     21602     21605     21605     21608     21609     21605     21608     21610
     21605     21608     21611     21606     21605     21607     21606     21605     21608
     21607     21605     21608     21608     21611     21612     21608     21611     21613
     21608     21611     21614     21609     21608     21610     21609     21608     21611
     21610     21608     21611     21611     21614     21615     21611     21614     21616
     21611     21614     21617     21612     21611     21613     21612     21611     21614
     21613     21611     21614     21614     21617     21618     21614     21617     21619
     21614     21617     21620     21615     21614     21616     21615     21614     21617
     21616     21614     21617     21617     21620     21621     21617     21620     21622
     21617     21620     21623     21618     21617     21619     21618     21617     21620
     21619     21617     21620     21621     21620     21622     21621     21620     21623
     21622     21620     21623     21624     21628     21629     21624     21628     21630
     21624     21628     21631     21625     21624     21626     21625     21624     21627
     21625     21624     21628     21626     21624     21627     21626     21624     21628
     21627     21624     21628     21628     21631     21632     21628     21631     21633
     21628     21631     21638     21629     21628     21630     21629     21628     21631
     21630     21628     21631     21631     21638     21634     21632     21631     21633
     21632     21631     21638     21633     21631     21638     21634     21637     21639
     21635     21634     21636     21635     21634     21637     21635     21634     21638
     21636     21634     21637     21636     21634     21638     21637     21634     21638
     21637     21639     21640     21637     21639     21641     21637     21639     21642
     21639     21642     21643     21639     21642     21644     21639     21642     21650
     21640     21639     21641     21640     21639     21642     21641     21639     21642
     21642     21644     21645     21642     21650     21651     21642     21650     21652
     21642     21650     21653     21643     21642     21644     21643     21642     21650
     21644     21642     21650     21644     21645     21646     21644     21645     21647
     21645     21647     21648     21645     21647     21649     21645     21647     21659
     21646     21645     21647     21647     21659     21660     21647     21659     21661
     21647     21659     21662     21648     21647     21649     21648     21647     21659
     21649     21647     21659     21650     21653     21654     21651     21650     21652
     21651     21650     21653     21652     21650     21653     21653     21654     21655
     21653     21654     21656     21654     21656     21657     21654     21656     21658
     21654     21656     21703     21655     21654     21656     21656     21703     21704
     21656     21703     21705     21656     21703     21706     21657     21656     21658
     21657     21656     21703     21658     21656     21703     21659     21662     21663
     21659     21662     21664     21659     21662     21665     21660     21659     21661
     21660     21659     21662     21661     21659     21662     21662     21665     21666
     21662     21665     21667     21662     21665     21668     21663     21662     21664
     21663     21662     21665     21664     21662     21665     21665     21668     21669
     21665     21668     21670     21665     21668     21671     21666     21665     21667
     21666     21665     21668     21667     21665     21668     21668     21671     21672
     21668     21671     21673     21668     21671     21674     21669     21668     21670
     21669     21668     21671     21670     21668     21671     21671     21674     21675
     21671     21674     21676     21671     21674     21677     21672     21671     21673
     21672     21671     21674     21673     21671     21674     21674     21677     21678
     21674     21677     21679     21674     21677     21682     21675     21674     21676
     21675     21674     21677     21676     21674     21677     21677     21679     21680
     21677     21679     21681     21677     21679     21682     21677     21682     21679
     21677     21682     21683     21677     21682     21684     21678     21677     21679
     21678     21677     21682     21679     21677     21682     21679     21682     21683
     21679     21682     21684     21680     21679     21681     21680     21679     21682
     21681     21679     21682     21682     21684     21685     21682     21684     21686
     21682     21684     21687     21683     21682     21684     21684     21687     21688
     21684     21687     21689     21684     21687     21690     21685     21684     21686
     21685     21684     21687     21686     21684     21687     21687     21690     21691
     21687     21690     21692     21687     21690     21693     21688     21687     21689
     21688     21687     21690     21689     21687     21690     21690     21693     21694
     21690     21693     21695     21690     21693     21696     21691     21690     21692
     21691     21690     21693     21692     21690     21693     21693     21696     21697
     21693     21696     21698     21693     21696     21699     21694     21693     21695
     21694     21693     21696     21695     21693     21696     21696     21699     21700
     21696     21699     21701     21696     21699     21702     21697     21696     21698
     21697     21696     21699     21698     21696     21699     21700     21699     21701
     21700     21699     21702     21701     21699     21702     21703     21706     21707
     21703     21706     21708     21703     21706     21709     21704     21703     21705
     21704     21703     21706     21705     21703     21706     21706     21709     21710
     21706     21709     21711     21706     21709     21712     21707     21706     21708
     21707     21706     21709     21708     21706     21709     21709     21712     21713
     21709     21712     21714     21709     21712     21715     21710     21709     21711
     21710     21709     21712     21711     21709     21712     21712     21715     21716
     21712     21715     21717     21712     21715     21718     21713     21712     21714
     21713     21712     21715     21714     21712     21715     21715     21718     21719
     21715     21718     21720     21715     21718     21721     21716     21715     21717
     21716     21715     21718     21717     21715     21718     21718     21721     21722
     21718     21721     21723     21718     21721     21724     21719     21718     21720
     21719     21718     21721     21720     21718     21721     21721     21724     21725
     21721     21724     21726     21721     21724     21727     21722     21721     21723
     21722     21721     21724     21723     21721     21724     21724     21727     21728
     21724     21727     21729     21724     21727     21730     21725     21724     21726
     21725     21724     21727     21726     21724     21727     21727     21730     21731
     21727     21730     21732     21727     21730     21733     21728     21727     21729
     21728     21727     21730     21729     21727     21730     21730     21733     21734
     21730     21733     21735     21730     21733     21736     21731     21730     21732
     21731     21730     21733     21732     21730     21733     21733     21736     21737
     21733     21736     21738     21733     21736     21739     21734     21733     21735
     21734     21733     21736     21735     21733     21736     21736     21739     21740
     21736     21739     21741     21736     21739     21742     21737     21736     21738
     21737     21736     21739     21738     21736     21739     21739     21742     21743
     21739     21742     21744     21739     21742     21745     21740     21739     21741
     21740     21739     21742     21741     21739     21742     21743     21742     21744
     21743     21742     21745     21744     21742     21745     21746     21749     21750
     21746     21751     21752     21746     21751     21753     21746     21751     21755
     21747     21746     21748     21747     21746     21749     21747     21746     21751
     21748     21746     21749     21748     21746     21751     21749     21746     21751
     21751     21753     21754     21751     21755     21756     21751     21755     21757
     21751     21755     21762     21752     21751     21753     21752     21751     21755
     21753     21751     21755     21755     21762     21758     21756     21755     21757
     21756     21755     21762     21757     21755     21762     21758     21761     21763
     21759     21758     21760     21759     21758     21761     21759     21758     21762
     21760     21758     21761     21760     21758     21762     21761     21758     21762
     21761     21763     21764     21761     21763     21765     21761     21763     21766
     21763     21766     21767     21763     21766     21768     21763     21766     21774
     21764     21763     21765     21764     21763     21766     21765     21763     21766
     21766     21768     21769     21766     21774     21775     21766     21774     21776
     21766     21774     21777     21767     21766     21768     21767     21766     21774
     21768     21766     21774     21768     21769     21770     21768     21769     21771
     21769     21771     21772     21769     21771     21773     21769     21771     21783
     21770     21769     21771     21771     21783     21784     21771     21783     21785
     21771     21783     21786     21772     21771     21773     21772     21771     21783
     21773     21771     21783     21774     21777     21778     21775     21774     21776
     21775     21774     21777     21776     21774     21777     21777     21778     21779
     21777     21778     21780     21778     21780     21781     21778     21780     21782
     21778     21780     21827     21779     21778     21780     21780     21827     21828
     21780     21827     21829     21780     21827     21830     21781     21780     21782
     21781     21780     21827     21782     21780     21827     21783     21786     21787
     21783     21786     21788     21783     21786     21789     21784     21783     21785
     21784     21783     21786     21785     21783     21786     21786     21789     21790
     21786     21789     21791     21786     21789     21792     21787     21786     21788
     21787     21786     21789     21788     21786     21789     21789     21792     21793
     21789     21792     21794     21789     21792     21795     21790     21789     21791
     21790     21789     21792     21791     21789     21792     21792     21795     21796
     21792     21795     21797     21792     21795     21798     21793     21792     21794
     21793     21792     21795     21794     21792     21795     21795     21798     21799
     21795     21798     21800     21795     21798     21801     21796     21795     21797
     21796     21795     21798     21797     21795     21798     21798     21801     21802
     21798     21801     21803     21798     21801     21806     21799     21798     21800
     21799     21798     21801     21800     21798     21801     21801     21803     21804
     21801     21803     21805     21801     21803     21806     21801     21806     21803
     21801     21806     21807     21801     21806     21808     21802     21801     21803
     21802     21801     21806     21803     21801     21806     21803     21806     21807
     21803     21806     21808     21804     21803     21805     21804     21803     21806
     21805     21803     21806     21806     21808     21809     21806     21808     21810
     21806     21808     21811     21807     21806     21808     21808     21811     21812
     21808     21811     21813     21808     21811     21814     21809     21808     21810
     21809     21808     21811     21810     21808     21811     21811     21814     21815
     21811     21814     21816     21811     21814     21817     21812     21811     21813
     21812     21811     21814     21813     21811     21814     21814     21817     21818
     21814     21817     21819     21814     21817     21820     21815     21814     21816
     21815     21814     21817     21816     21814     21817     21817     21820     21821
     21817     21820     21822     21817     21820     21823     21818     21817     21819
     21818     21817     21820     21819     21817     21820     21820     21823     21824
     21820     21823     21825     21820     21823     21826     21821     21820     21822
     21821     21820     21823     21822     21820     21823     21824     21823     21825
     21824     21823     21826     21825     21823     21826     21827     21830     21831
     21827     21830     21832     21827     21830     21833     21828     21827     21829
     21828     21827     21830     21829     21827     21830     21830     21833     21834
     21830     21833     21835     21830     21833     21836     21831     21830     21832
     21831     21830     21833     21832     21830     21833     21833     21836     21837
     21833     21836     21838     21833     21836     21839     21834     21833     21835
     21834     21833     21836     21835     21833     21836     21836     21839     21840
     21836     21839     21841     21836     21839     21842     21837     21836     21838
     21837     21836     21839     21838     21836     21839     21839     21842     21843
     21839     21842     21844     21839     21842     21845     21840     21839     21841
     21840     21839     21842     21841     21839     21842     21842     21845     21846
     21842     21845     21847     21842     21845     21848     21843     21842     21844
     21843     21842     21845     21844     21842     21845     21845     21848     21849
     21845     21848     21850     21845     21848     21851     21846     21845     21847
     21846     21845     21848     21847     21845     21848     21848     21851     21852
     21848     21851     21853     21848     21851     21854     21849     21848     21850
     21849     21848     21851     21850     21848     21851     21851     21854     21855
     21851     21854     21856     21851     21854     21857     21852     21851     21853
     21852     21851     21854     21853     21851     21854     21854     21857     21858
     21854     21857     21859     21854     21857     21860     21855     21854     21856
     21855     21854     21857     21856     21854     21857     21857     21860     21861
     21857     21860     21862     21857     21860     21863     21858     21857     21859
     21858     21857     21860     21859     21857     21860     21860     21863     21864
     21860     21863     21865     21860     21863     21866     21861     21860     21862
     21861     21860     21863     21862     21860     21863     21863     21866     21867
     21863     21866     21868     21863     21866     21869     21864     21863     21865
     21864     21863     21866     21865     21863     21866     21867     21866     21868
     21867     21866     21869     21868     21866     21869     21870     21874     21875
     21870     21874     21876     21870     21874     21877     21871     21870     21872
     21871     21870     21873     21871     21870     21874     21872     21870     21873
     21872     21870     21874     21873     21870     21874     21874     21877     21878
     21874     21877     21879     21874     21877     21884     21875     21874     21876
     21875     21874     21877     21876     21874     21877     21877     21884     21880
     21878     21877     21879     21878     21877     21884     21879     21877     21884
     21880     21883     21885     21881     21880     21882     21881     21880     21883
     21881     21880     21884     21882     21880     21883     21882     21880     21884
     21883     21880     21884     21883     21885     21886     21883     21885     21887
     21883     21885     21888     21885     21888     21889     21885     21888     21890
     21885     21888     21896     21886     21885     21887     21886     21885     21888
     21887     21885     21888     21888     21890     21891     21888     21896     21897
     21888     21896     21898     21888     21896     21899     21889     21888     21890
     21889     21888     21896     21890     21888     21896     21890     21891     21892
     21890     21891     21893     21891     21893     21894     21891     21893     21895
     21891     21893     21905     21892     21891     21893     21893     21905     21906
     21893     21905     21907     21893     21905     21908     21894     21893     21895
     21894     21893     21905     21895     21893     21905     21896     21899     21900
     21897     21896     21898     21897     21896     21899     21898     21896     21899
     21899     21900     21901     21899     21900     21902     21900     21902     21903
     21900     21902     21904     21900     21902     21949     21901     21900     21902
     21902     21949     21950     21902     21949     21951     21902     21949     21952
     21903     21902     21904     21903     21902     21949     21904     21902     21949
     21905     21908     21909     21905     21908     21910     21905     21908     21911
     21906     21905     21907     21906     21905     21908     21907     21905     21908
     21908     21911     21912     21908     21911     21913     21908     21911     21914
     21909     21908     21910     21909     21908     21911     21910     21908     21911
     21911     21914     21915     21911     21914     21916     21911     21914     21917
     21912     21911     21913     21912     21911     21914     21913     21911     21914
     21914     21917     21918     21914     21917     21919     21914     21917     21920
     21915     21914     21916     21915     21914     21917     21916     21914     21917
     21917     21920     21921     21917     21920     21922     21917     21920     21923
     21918     21917     21919     21918     21917     21920     21919     21917     21920
     21920     21923     21924     21920     21923     21925     21920     21923     21928
     21921     21920     21922     21921     21920     21923     21922     21920     21923
     21923     21925     21926     21923     21925     21927     21923     21925     21928
     21923     21928     21925     21923     21928     21929     21923     21928     21930
     21924     21923     21925     21924     21923     21928     21925     21923     21928
     21925     21928     21929     21925     21928     21930     21926     21925     21927
     21926     21925     21928     21927     21925     21928     21928     21930     21931
     21928     21930     21932     21928     21930     21933     21929     21928     21930
     21930     21933     21934     21930     21933     21935     21930     21933     21936
     21931     21930     21932     21931     21930     21933     21932     21930     21933
     21933     21936     21937     21933     21936     21938     21933     21936     21939
     21934     21933     21935     21934     21933     21936     21935     21933     21936
     21936     21939     21940     21936     21939     21941     21936     21939     21942
     21937     21936     21938     21937     21936     21939     21938     21936     21939
     21939     21942     21943     21939     21942     21944     21939     21942     21945
     21940     21939     21941     21940     21939     21942     21941     21939     21942
     21942     21945     21946     21942     21945     21947     21942     21945     21948
     21943     21942     21944     21943     21942     21945     21944     21942     21945
     21946     21945     21947     21946     21945     21948     21947     21945     21948
     21949     21952     21953     21949     21952     21954     21949     21952     21955
     21950     21949     21951     21950     21949     21952     21951     21949     21952
     21952     21955     21956     21952     21955     21957     21952     21955     21958
     21953     21952     21954     21953     21952     21955     21954     21952     21955
     21955     21958     21959     21955     21958     21960     21955     21958     21961
     21956     21955     21957     21956     21955     21958     21957     21955     21958
     21958     21961     21962     21958     21961     21963     21958     21961     21964
     21959     21958     21960     21959     21958     21961     21960     21958     21961
     21961     21964     21965     21961     21964     21966     21961     21964     21967
     21962     21961     21963     21962     21961     21964     21963     21961     21964
     21964     21967     21968     21964     21967     21969     21964     21967     21970
     21965     21964     21966     21965     21964     21967     21966     21964     21967
     21967     21970     21971     21967     21970     21972     21967     21970     21973
     21968     21967     21969     21968     21967     21970     21969     21967     21970
     21970     21973     21974     21970     21973     21975     21970     21973     21976
     21971     21970     21972     21971     21970     21973     21972     21970     21973
     21973     21976     21977     21973     21976     21978     21973     21976     21979
     21974     21973     21975     21974     21973     21976     21975     21973     21976
     21976     21979     21980     21976     21979     21981     21976     21979     21982
     21977     21976     21978     21977     21976     21979     21978     21976     21979
     21979     21982     21983     21979     21982     21984     21979     21982     21985
     21980     21979     21981     21980     21979     21982     21981     21979     21982
     21982     21985     21986     21982     21985     21987     21982     21985     21988
     21983     21982     21984     21983     21982     21985     21984     21982     21985
     21986     21985     21987     21986     21985     21988     21987     21985     21988
     21989     21993     21994     21989     21993     21995     21989     21993     21996
     21990     21989     21991     21990     21989     21992     21990     21989     21993
     21991     21989     21992     21991     21989     21993     21992     21989     21993
     21993     21996     21997     21993     21996     21998     21993     21996     22003
     21994     21993     21995     21994     21993     21996     21995     21993     21996
     21996     22003     21999     21997     21996     21998     21997     21996     22003
     21998     21996     22003     21999     22002     22004     22000     21999     22001
     22000     21999     22002     22000     21999     22003     22001     21999     22002
     22001     21999     22003     22002     21999     22003     22002     22004     22005
     22002     22004     22006     22002     22004     22007     22004     22007     22008
     22004     22007     22009     22004     22007     22015     22005     22004     22006
     22005     22004     22007     22006     22004     22007     22007     22009     22010
     22007     22015     22016     22007     22015     22017     22007     22015     22018
     22008     22007     22009     22008     22007     22015     22009     22007     22015
     22009     22010     22011     22009     22010     22012     22010     22012     22013
     22010     22012     22014     22010     22012     22024     22011     22010     22012
     22012     22024     22025     22012     22024     22026     22012     22024     22027
     22013     22012     22014     22013     22012     22024     22014     22012     22024
     22015     22018     22019     22016     22015     22017     22016     22015     22018
     22017     22015     22018     22018     22019     22020     22018     22019     22021
     22019     22021     22022     22019     22021     22023     22019     22021     22068
     22020     22019     22021     22021     22068     22069     22021     22068     22070
     22021     22068     22071     22022     22021     22023     22022     22021     22068
     22023     22021     22068     22024     22027     22028     22024     22027     22029
     22024     22027     22030     22025     22024     22026     22025     22024     22027
     22026     22024     22027     22027     22030     22031     22027     22030     22032
     22027     22030     22033     22028     22027     22029     22028     22027     22030
     22029     22027     22030     22030     22033     22034     22030     22033     22035
     22030     22033     22036     22031     22030     22032     22031     22030     22033
     22032     22030     22033     22033     22036     22037     22033     22036     22038
     22033     22036     22039     22034     22033     22035     22034     22033     22036
     22035     22033     22036     22036     22039     22040     22036     22039     22041
     22036     22039     22042     22037     22036     22038     22037     22036     22039
     22038     22036     22039     22039     22042     22043     22039     22042     22044
     22039     22042     22047     22040     22039     22041     22040     22039     22042
     22041     22039     22042     22042     22044     22045     22042     22044     22046
     22042     22044     22047     22042     22047     22044     22042     22047     22048
     22042     22047     22049     22043     22042     22044     22043     22042     22047
     22044     22042     22047     22044     22047     22048     22044     22047     22049
     22045     22044     22046     22045     22044     22047     22046     22044     22047
     22047     22049     22050     22047     22049     22051     22047     22049     22052
     22048     22047     22049     22049     22052     22053     22049     22052     22054
     22049     22052     22055     22050     22049     22051     22050     22049     22052
     22051     22049     22052     22052     22055     22056     22052     22055     22057
     22052     22055     22058     22053     22052     22054     22053     22052     22055
     22054     22052     22055     22055     22058     22059     22055     22058     22060
     22055     22058     22061     22056     22055     22057     22056     22055     22058
     22057     22055     22058     22058     22061     22062     22058     22061     22063
     22058     22061     22064     22059     22058     22060     22059     22058     22061
     22060     22058     22061     22061     22064     22065     22061     22064     22066
     22061     22064     22067     22062     22061     22063     22062     22061     22064
     22063     22061     22064     22065     22064     22066     22065     22064     22067
     22066     22064     22067     22068     22071     22072     22068     22071     22073
     22068     22071     22074     22069     22068     22070     22069     22068     22071
     22070     22068     22071     22071     22074     22075     22071     22074     22076
     22071     22074     22077     22072     22071     22073     22072     22071     22074
     22073     22071     22074     22074     22077     22078     22074     22077     22079
     22074     22077     22080     22075     22074     22076     22075     22074     22077
     22076     22074     22077     22077     22080     22081     22077     22080     22082
     22077     22080     22083     22078     22077     22079     22078     22077     22080
     22079     22077     22080     22080     22083     22084     22080     22083     22085
     22080     22083     22086     22081     22080     22082     22081     22080     22083
     22082     22080     22083     22083     22086     22087     22083     22086     22088
     22083     22086     22089     22084     22083     22085     22084     22083     22086
     22085     22083     22086     22086     22089     22090     22086     22089     22091
     22086     22089     22092     22087     22086     22088     22087     22086     22089
     22088     22086     22089     22089     22092     22093     22089     22092     22094
     22089     22092     22095     22090     22089     22091     22090     22089     22092
     22091     22089     22092     22092     22095     22096     22092     22095     22097
     22092     22095     22098     22093     22092     22094     22093     22092     22095
     22094     22092     22095     22095     22098     22099     22095     22098     22100
     22095     22098     22101     22096     22095     22097     22096     22095     22098
     22097     22095     22098     22098     22101     22102     22098     22101     22103
     22098     22101     22104     22099     22098     22100     22099     22098     22101
     22100     22098     22101     22101     22104     22105     22101     22104     22106
     22101     22104     22107     22102     22101     22103     22102     22101     22104
     22103     22101     22104     22104     22107     22108     22104     22107     22109
     22104     22107     22110     22105     22104     22106     22105     22104     22107
     22106     22104     22107     22108     22107     22109     22108     22107     22110
     22109     22107     22110     22111     22115     22116     22111     22115     22117
     22111     22115     22118     22112     22111     22113     22112     22111     22114
     22112     22111     22115     22113     22111     22114     22113     22111     22115
     22114     22111     22115     22115     22118     22119     22115     22118     22120
     22115     22118     22125     22116     22115     22117     22116     22115     22118
     22117     22115     22118     22118     22125     22121     22119     22118     22120
     22119     22118     22125     22120     22118     22125     22121     22124     22126
     22122     22121     22123     22122     22121     22124     22122     22121     22125
     22123     22121     22124     22123     22121     22125     22124     22121     22125
     22124     22126     22127     22124     22126     22128     22124     22126     22129
     22126     22129     22130     22126     22129     22131     22126     22129     22137
     22127     22126     22128     22127     22126     22129     22128     22126     22129
     22129     22131     22132     22129     22137     22138     22129     22137     22139
     22129     22137     22140     22130     22129     22131     22130     22129     22137
     22131     22129     22137     22131     22132     22133     22131     22132     22134
     22132     22134     22135     22132     22134     22136     22132     22134     22146
     22133     22132     22134     22134     22146     22147     22134     22146     22148
     22134     22146     22149     22135     22134     22136     22135     22134     22146
     22136     22134     22146     22137     22140     22141     22138     22137     22139
     22138     22137     22140     22139     22137     22140     22140     22141     22142
     22140     22141     22143     22141     22143     22144     22141     22143     22145
     22141     22143     22187     22142     22141     22143     22143     22187     22188
     22143     22187     22189     22143     22187     22190     22144     22143     22145
     22144     22143     22187     22145     22143     22187     22146     22149     22150
     22146     22149     22151     22146     22149     22152     22147     22146     22148
     22147     22146     22149     22148     22146     22149     22149     22152     22153
     22149     22152     22154     22149     22152     22155     22150     22149     22151
     22150     22149     22152     22151     22149     22152     22152     22155     22156
     22152     22155     22157     22152     22155     22158     22153     22152     22154
     22153     22152     22155     22154     22152     22155     22155     22158     22159
     22155     22158     22160     22155     22158     22161     22156     22155     22157
     22156     22155     22158     22157     22155     22158     22158     22161     22162
     22158     22161     22163     22158     22161     22164     22159     22158     22160
     22159     22158     22161     22160     22158     22161     22161     22164     22165
     22161     22164     22166     22162     22161     22163     22162     22161     22164
     22163     22161     22164     22164     22166     22167     22164     22166     22168
     22165     22164     22166     22166     22168     22169     22166     22168     22170
     22166     22168     22171     22167     22166     22168     22168     22171     22172
     22168     22171     22173     22168     22171     22174     22169     22168     22170
     22169     22168     22171     22170     22168     22171     22171     22174     22175
     22171     22174     22176     22171     22174     22177     22172     22171     22173
     22172     22171     22174     22173     22171     22174     22174     22177     22178
     22174     22177     22179     22174     22177     22180     22175     22174     22176
     22175     22174     22177     22176     22174     22177     22177     22180     22181
     22177     22180     22182     22177     22180     22183     22178     22177     22179
     22178     22177     22180     22179     22177     22180     22180     22183     22184
     22180     22183     22185     22180     22183     22186     22181     22180     22182
     22181     22180     22183     22182     22180     22183     22184     22183     22185
     22184     22183     22186     22185     22183     22186     22187     22190     22191
     22187     22190     22192     22187     22190     22193     22188     22187     22189
     22188     22187     22190     22189     22187     22190     22190     22193     22194
     22190     22193     22195     22190     22193     22196     22191     22190     22192
     22191     22190     22193     22192     22190     22193     22193     22196     22197
     22193     22196     22198     22193     22196     22199     22194     22193     22195
     22194     22193     22196     22195     22193     22196     22196     22199     22200
     22196     22199     22201     22196     22199     22202     22197     22196     22198
     22197     22196     22199     22198     22196     22199     22199     22202     22203
     22199     22202     22204     22199     22202     22205     22200     22199     22201
     22200     22199     22202     22201     22199     22202     22202     22205     22206
     22202     22205     22207     22203     22202     22204     22203     22202     22205
     22204     22202     22205     22205     22207     22208     22205     22207     22209
     22206     22205     22207     22207     22209     22210     22207     22209     22211
     22207     22209     22212     22208     22207     22209     22209     22212     22213
     22209     22212     22214     22209     22212     22215     22210     22209     22211
     22210     22209     22212     22211     22209     22212     22212     22215     22216
     22212     22215     22217     22212     22215     22218     22213     22212     22214
     22213     22212     22215     22214     22212     22215     22215     22218     22219
     22215     22218     22220     22215     22218     22221     22216     22215     22217
     22216     22215     22218     22217     22215     22218     22218     22221     22222
     22218     22221     22223     22218     22221     22224     22219     22218     22220
     22219     22218     22221     22220     22218     22221     22221     22224     22225
     22221     22224     22226     22221     22224     22227     22222     22221     22223
     22222     22221     22224     22223     22221     22224     22224     22227     22228
     22224     22227     22229     22224     22227     22230     22225     22224     22226
     22225     22224     22227     22226     22224     22227     22227     22230     22231
     22227     22230     22232     22227     22230     22233     22228     22227     22229
     22228     22227     22230     22229     22227     22230     22231     22230     22232
     22231     22230     22233     22232     22230     22233     22234     22238     22239
     22234     22238     22240     22234     22238     22241     22235     22234     22236
     22235     22234     22237     22235     22234     22238     22236     22234     22237
     22236     22234     22238     22237     22234     22238     22238     22241     22242
     22238     22241     22243     22238     22241     22248     22239     22238     22240
     22239     22238     22241     22240     22238     22241     22241     22248     22244
     22242     22241     22243     22242     22241     22248     22243     22241     22248
     22244     22247     22249     22245     22244     22246     22245     22244     22247
     22245     22244     22248     22246     22244     22247     22246     22244     22248
     22247     22244     22248     22247     22249     22250     22247     22249     22251
     22247     22249     22252     22249     22252     22253     22249     22252     22254
     22249     22252     22260     22250     22249     22251     22250     22249     22252
     22251     22249     22252     22252     22254     22255     22252     22260     22261
     22252     22260     22262     22252     22260     22263     22253     22252     22254
     22253     22252     22260     22254     22252     22260     22254     22255     22256
     22254     22255     22257     22255     22257     22258     22255     22257     22259
     22255     22257     22269     22256     22255     22257     22257     22269     22270
     22257     22269     22271     22257     22269     22272     22258     22257     22259
     22258     22257     22269     22259     22257     22269     22260     22263     22264
     22261     22260     22262     22261     22260     22263     22262     22260     22263
     22263     22264     22265     22263     22264     22266     22264     22266     22267
     22264     22266     22268     22264     22266     22313     22265     22264     22266
     22266     22313     22314     22266     22313     22315     22266     22313     22316
     22267     22266     22268     22267     22266     22313     22268     22266     22313
     22269     22272     22273     22269     22272     22274     22269     22272     22275
     22270     22269     22271     22270     22269     22272     22271     22269     22272
     22272     22275     22276     22272     22275     22277     22272     22275     22278
     22273     22272     22274     22273     22272     22275     22274     22272     22275
     22275     22278     22279     22275     22278     22280     22275     22278     22281
     22276     22275     22277     22276     22275     22278     22277     22275     22278
     22278     22281     22282     22278     22281     22283     22278     22281     22284
     22279     22278     22280     22279     22278     22281     22280     22278     22281
     22281     22284     22285     22281     22284     22286     22281     22284     22287
     22282     22281     22283     22282     22281     22284     22283     22281     22284
     22284     22287     22288     22284     22287     22289     22284     22287     22292
     22285     22284     22286     22285     22284     22287     22286     22284     22287
     22287     22289     22290     22287     22289     22291     22287     22289     22292
     22287     22292     22289     22287     22292     22293     22287     22292     22294
     22288     22287     22289     22288     22287     22292     22289     22287     22292
     22289     22292     22293     22289     22292     22294     22290     22289     22291
     22290     22289     22292     22291     22289     22292     22292     22294     22295
     22292     22294     22296     22292     22294     22297     22293     22292     22294
     22294     22297     22298     22294     22297     22299     22294     22297     22300
     22295     22294     22296     22295     22294     22297     22296     22294     22297
     22297     22300     22301     22297     22300     22302     22297     22300     22303
     22298     22297     22299     22298     22297     22300     22299     22297     22300
     22300     22303     22304     22300     22303     22305     22300     22303     22306
     22301     22300     22302     22301     22300     22303     22302     22300     22303
     22303     22306     22307     22303     22306     22308     22303     22306     22309
     22304     22303     22305     22304     22303     22306     22305     22303     22306
     22306     22309     22310     22306     22309     22311     22306     22309     22312
     22307     22306     22308     22307     22306     22309     22308     22306     22309
     22310     22309     22311     22310     22309     22312     22311     22309     22312
     22313     22316     22317     22313     22316     22318     22313     22316     22319
     22314     22313     22315     22314     22313     22316     22315     22313     22316
     22316     22319     22320     22316     22319     22321     22316     22319     22322
     22317     22316     22318     22317     22316     22319     22318     22316     22319
     22319     22322     22323     22319     22322     22324     22319     22322     22325
     22320     22319     22321     22320     22319     22322     22321     22319     22322
     22322     22325     22326     22322     22325     22327     22322     22325     22328
     22323     22322     22324     22323     22322     22325     22324     22322     22325
     22325     22328     22329     22325     22328     22330     22325     22328     22331
     22326     22325     22327     22326     22325     22328     22327     22325     22328
     22328     22331     22332     22328     22331     22333     22328     22331     22334
     22329     22328     22330     22329     22328     22331     22330     22328     22331
     22331     22334     22335     22331     22334     22336     22331     22334     22337
     22332     22331     22333     22332     22331     22334     22333     22331     22334
     22334     22337     22338     22334     22337     22339     22334     22337     22340
     22335     22334     22336     22335     22334     22337     22336     22334     22337
     22337     22340     22341     22337     22340     22342     22337     22340     22343
     22338     22337     22339     22338     22337     22340     22339     22337     22340
     22340     22343     22344     22340     22343     22345     22340     22343     22346
     22341     22340     22342     22341     22340     22343     22342     22340     22343
     22343     22346     22347     22343     22346     22348     22343     22346     22349
     22344     22343     22345     22344     22343     22346     22345     22343     22346
     22346     22349     22350     22346     22349     22351     22346     22349     22352
     22347     22346     22348     22347     22346     22349     22348     22346     22349
     22350     22349     22351     22350     22349     22352     22351     22349     22352
     22353     22357     22358     22353     22357     22359     22353     22357     22360
     22354     22353     22355     22354     22353     22356     22354     22353     22357
     22355     22353     22356     22355     22353     22357     22356     22353     22357
     22357     22360     22361     22357     22360     22362     22357     22360     22367
     22358     22357     22359     22358     22357     22360     22359     22357     22360
     22360     22367     22363     22361     22360     22362     22361     22360     22367
     22362     22360     22367     22363     22366     22368     22364     22363     22365
     22364     22363     22366     22364     22363     22367     22365     22363     22366
     22365     22363     22367     22366     22363     22367     22366     22368     22369
     22366     22368     22370     22366     22368     22371     22368     22371     22372
     22368     22371     22373     22368     22371     22379     22369     22368     22370
     22369     22368     22371     22370     22368     22371     22371     22373     22374
     22371     22379     22380     22371     22379     22381     22371     22379     22382
     22372     22371     22373     22372     22371     22379     22373     22371     22379
     22373     22374     22375     22373     22374     22376     22374     22376     22377
     22374     22376     22378     22374     22376     22388     22375     22374     22376
     22376     22388     22389     22376     22388     22390     22376     22388     22391
     22377     22376     22378     22377     22376     22388     22378     22376     22388
     22379     22382     22383     22380     22379     22381     22380     22379     22382
     22381     22379     22382     22382     22383     22384     22382     22383     22385
     22383     22385     22386     22383     22385     22387     22383     22385     22432
     22384     22383     22385     22385     22432     22433     22385     22432     22434
     22385     22432     22435     22386     22385     22387     22386     22385     22432
     22387     22385     22432     22388     22391     22392     22388     22391     22393
     22388     22391     22394     22389     22388     22390     22389     22388     22391
     22390     22388     22391     22391     22394     22395     22391     22394     22396
     22391     22394     22397     22392     22391     22393     22392     22391     22394
     22393     22391     22394     22394     22397     22398     22394     22397     22399
     22394     22397     22400     22395     22394     22396     22395     22394     22397
     22396     22394     22397     22397     22400     22401     22397     22400     22402
     22397     22400     22403     22398     22397     22399     22398     22397     22400
     22399     22397     22400     22400     22403     22404     22400     22403     22405
     22400     22403     22406     22401     22400     22402     22401     22400     22403
     22402     22400     22403     22403     22406     22407     22403     22406     22408
     22403     22406     22411     22404     22403     22405     22404     22403     22406
     22405     22403     22406     22406     22408     22409     22406     22408     22410
     22406     22408     22411     22406     22411     22408     22406     22411     22412
     22406     22411     22413     22407     22406     22408     22407     22406     22411
     22408     22406     22411     22408     22411     22412     22408     22411     22413
     22409     22408     22410     22409     22408     22411     22410     22408     22411
     22411     22413     22414     22411     22413     22415     22411     22413     22416
     22412     22411     22413     22413     22416     22417     22413     22416     22418
     22413     22416     22419     22414     22413     22415     22414     22413     22416
     22415     22413     22416     22416     22419     22420     22416     22419     22421
     22416     22419     22422     22417     22416     22418     22417     22416     22419
     22418     22416     22419     22419     22422     22423     22419     22422     22424
     22419     22422     22425     22420     22419     22421     22420     22419     22422
     22421     22419     22422     22422     22425     22426     22422     22425     22427
     22422     22425     22428     22423     22422     22424     22423     22422     22425
     22424     22422     22425     22425     22428     22429     22425     22428     22430
     22425     22428     22431     22426     22425     22427     22426     22425     22428
     22427     22425     22428     22429     22428     22430     22429     22428     22431
     22430     22428     22431     22432     22435     22436     22432     22435     22437
     22432     22435     22438     22433     22432     22434     22433     22432     22435
     22434     22432     22435     22435     22438     22439     22435     22438     22440
     22435     22438     22441     22436     22435     22437     22436     22435     22438
     22437     22435     22438     22438     22441     22442     22438     22441     22443
     22438     22441     22444     22439     22438     22440     22439     22438     22441
     22440     22438     22441     22441     22444     22445     22441     22444     22446
     22441     22444     22447     22442     22441     22443     22442     22441     22444
     22443     22441     22444     22444     22447     22448     22444     22447     22449
     22444     22447     22450     22445     22444     22446     22445     22444     22447
     22446     22444     22447     22447     22450     22451     22447     22450     22452
     22447     22450     22453     22448     22447     22449     22448     22447     22450
     22449     22447     22450     22450     22453     22454     22450     22453     22455
     22450     22453     22456     22451     22450     22452     22451     22450     22453
     22452     22450     22453     22453     22456     22457     22453     22456     22458
     22453     22456     22459     22454     22453     22455     22454     22453     22456
     22455     22453     22456     22456     22459     22460     22456     22459     22461
     22456     22459     22462     22457     22456     22458     22457     22456     22459
     22458     22456     22459     22459     22462     22463     22459     22462     22464
     22459     22462     22465     22460     22459     22461     22460     22459     22462
     22461     22459     22462     22462     22465     22466     22462     22465     22467
     22462     22465     22468     22463     22462     22464     22463     22462     22465
     22464     22462     22465     22465     22468     22469     22465     22468     22470
     22465     22468     22471     22466     22465     22467     22466     22465     22468
     22467     22465     22468     22468     22471     22472     22468     22471     22473
     22468     22471     22474     22469     22468     22470     22469     22468     22471
     22470     22468     22471     22472     22471     22473     22472     22471     22474
     22473     22471     22474     22475     22479     22480     22475     22479     22481
     22475     22479     22482     22476     22475     22477     22476     22475     22478
     22476     22475     22479     22477     22475     22478     22477     22475     22479
     22478     22475     22479     22479     22482     22483     22479     22482     22484
     22479     22482     22489     22480     22479     22481     22480     22479     22482
     22481     22479     22482     22482     22489     22485     22483     22482     22484
     22483     22482     22489     22484     22482     22489     22485     22488     22490
     22486     22485     22487     22486     22485     22488     22486     22485     22489
     22487     22485     22488     22487     22485     22489     22488     22485     22489
     22488     22490     22491     22488     22490     22492     22488     22490     22493
     22490     22493     22494     22490     22493     22495     22490     22493     22501
     22491     22490     22492     22491     22490     22493     22492     22490     22493
     22493     22495     22496     22493     22501     22502     22493     22501     22503
     22493     22501     22504     22494     22493     22495     22494     22493     22501
     22495     22493     22501     22495     22496     22497     22495     22496     22498
     22496     22498     22499     22496     22498     22500     22496     22498     22510
     22497     22496     22498     22498     22510     22511     22498     22510     22512
     22498     22510     22513     22499     22498     22500     22499     22498     22510
     22500     22498     22510     22501     22504     22505     22502     22501     22503
     22502     22501     22504     22503     22501     22504     22504     22505     22506
     22504     22505     22507     22505     22507     22508     22505     22507     22509
     22505     22507     22554     22506     22505     22507     22507     22554     22555
     22507     22554     22556     22507     22554     22557     22508     22507     22509
     22508     22507     22554     22509     22507     22554     22510     22513     22514
     22510     22513     22515     22510     22513     22516     22511     22510     22512
     22511     22510     22513     22512     22510     22513     22513     22516     22517
     22513     22516     22518     22513     22516     22519     22514     22513     22515
     22514     22513     22516     22515     22513     22516     22516     22519     22520
     22516     22519     22521     22516     22519     22522     22517     22516     22518
     22517     22516     22519     22518     22516     22519     22519     22522     22523
     22519     22522     22524     22519     22522     22525     22520     22519     22521
     22520     22519     22522     22521     22519     22522     22522     22525     22526
     22522     22525     22527     22522     22525     22528     22523     22522     22524
     22523     22522     22525     22524     22522     22525     22525     22528     22529
     22525     22528     22530     22525     22528     22533     22526     22525     22527
     22526     22525     22528     22527     22525     22528     22528     22530     22531
     22528     22530     22532     22528     22530     22533     22528     22533     22530
     22528     22533     22534     22528     22533     22535     22529     22528     22530
     22529     22528     22533     22530     22528     22533     22530     22533     22534
     22530     22533     22535     22531     22530     22532     22531     22530     22533
     22532     22530     22533     22533     22535     22536     22533     22535     22537
     22533     22535     22538     22534     22533     22535     22535     22538     22539
     22535     22538     22540     22535     22538     22541     22536     22535     22537
     22536     22535     22538     22537     22535     22538     22538     22541     22542
     22538     22541     22543     22538     22541     22544     22539     22538     22540
     22539     22538     22541     22540     22538     22541     22541     22544     22545
     22541     22544     22546     22541     22544     22547     22542     22541     22543
     22542     22541     22544     22543     22541     22544     22544     22547     22548
     22544     22547     22549     22544     22547     22550     22545     22544     22546
     22545     22544     22547     22546     22544     22547     22547     22550     22551
     22547     22550     22552     22547     22550     22553     22548     22547     22549
     22548     22547     22550     22549     22547     22550     22551     22550     22552
     22551     22550     22553     22552     22550     22553     22554     22557     22558
     22554     22557     22559     22554     22557     22560     22555     22554     22556
     22555     22554     22557     22556     22554     22557     22557     22560     22561
     22557     22560     22562     22557     22560     22563     22558     22557     22559
     22558     22557     22560     22559     22557     22560     22560     22563     22564
     22560     22563     22565     22560     22563     22566     22561     22560     22562
     22561     22560     22563     22562     22560     22563     22563     22566     22567
     22563     22566     22568     22563     22566     22569     22564     22563     22565
     22564     22563     22566     22565     22563     22566     22566     22569     22570
     22566     22569     22571     22566     22569     22572     22567     22566     22568
     22567     22566     22569     22568     22566     22569     22569     22572     22573
     22569     22572     22574     22569     22572     22575     22570     22569     22571
     22570     22569     22572     22571     22569     22572     22572     22575     22576
     22572     22575     22577     22572     22575     22578     22573     22572     22574
     22573     22572     22575     22574     22572     22575     22575     22578     22579
     22575     22578     22580     22575     22578     22581     22576     22575     22577
     22576     22575     22578     22577     22575     22578     22578     22581     22582
     22578     22581     22583     22578     22581     22584     22579     22578     22580
     22579     22578     22581     22580     22578     22581     22581     22584     22585
     22581     22584     22586     22581     22584     22587     22582     22581     22583
     22582     22581     22584     22583     22581     22584     22584     22587     22588
     22584     22587     22589     22584     22587     22590     22585     22584     22586
     22585     22584     22587     22586     22584     22587     22587     22590     22591
     22587     22590     22592     22587     22590     22593     22588     22587     22589
     22588     22587     22590     22589     22587     22590     22591     22590     22592
     22591     22590     22593     22592     22590     22593     22594     22598     22599
     22594     22598     22600     22594     22598     22601     22595     22594     22596
     22595     22594     22597     22595     22594     22598     22596     22594     22597
     22596     22594     22598     22597     22594     22598     22598     22601     22602
     22598     22601     22603     22598     22601     22608     22599     22598     22600
     22599     22598     22601     22600     22598     22601     22601     22608     22604
     22602     22601     22603     22602     22601     22608     22603     22601     22608
     22604     22607     22609     22605     22604     22606     22605     22604     22607
     22605     22604     22608     22606     22604     22607     22606     22604     22608
     22607     22604     22608     22607     22609     22610     22607     22609     22611
     22607     22609     22612     22609     22612     22613     22609     22612     22614
     22609     22612     22620     22610     22609     22611     22610     22609     22612
     22611     22609     22612     22612     22614     22615     22612     22620     22621
     22612     22620     22622     22612     22620     22623     22613     22612     22614
     22613     22612     22620     22614     22612     22620     22614     22615     22616
     22614     22615     22617     22615     22617     22618     22615     22617     22619
     22615     22617     22629     22616     22615     22617     22617     22629     22630
     22617     22629     22631     22617     22629     22632     22618     22617     22619
     22618     22617     22629     22619     22617     22629     22620     22623     22624
     22621     22620     22622     22621     22620     22623     22622     22620     22623
     22623     22624     22625     22623     22624     22626     22624     22626     22627
     22624     22626     22628     22624     22626     22673     22625     22624     22626
     22626     22673     22674     22626     22673     22675     22626     22673     22676
     22627     22626     22628     22627     22626     22673     22628     22626     22673
     22629     22632     22633     22629     22632     22634     22629     22632     22635
     22630     22629     22631     22630     22629     22632     22631     22629     22632
     22632     22635     22636     22632     22635     22637     22632     22635     22638
     22633     22632     22634     22633     22632     22635     22634     22632     22635
     22635     22638     22639     22635     22638     22640     22635     22638     22641
     22636     22635     22637     22636     22635     22638     22637     22635     22638
     22638     22641     22642     22638     22641     22643     22638     22641     22644
     22639     22638     22640     22639     22638     22641     22640     22638     22641
     22641     22644     22645     22641     22644     22646     22641     22644     22647
     22642     22641     22643     22642     22641     22644     22643     22641     22644
     22644     22647     22648     22644     22647     22649     22644     22647     22652
     22645     22644     22646     22645     22644     22647     22646     22644     22647
     22647     22649     22650     22647     22649     22651     22647     22649     22652
     22647     22652     22649     22647     22652     22653     22647     22652     22654
     22648     22647     22649     22648     22647     22652     22649     22647     22652
     22649     22652     22653     22649     22652     22654     22650     22649     22651
     22650     22649     22652     22651     22649     22652     22652     22654     22655
     22652     22654     22656     22652     22654     22657     22653     22652     22654
     22654     22657     22658     22654     22657     22659     22654     22657     22660
     22655     22654     22656     22655     22654     22657     22656     22654     22657
     22657     22660     22661     22657     22660     22662     22657     22660     22663
     22658     22657     22659     22658     22657     22660     22659     22657     22660
     22660     22663     22664     22660     22663     22665     22660     22663     22666
     22661     22660     22662     22661     22660     22663     22662     22660     22663
     22663     22666     22667     22663     22666     22668     22663     22666     22669
     22664     22663     22665     22664     22663     22666     22665     22663     22666
     22666     22669     22670     22666     22669     22671     22666     22669     22672
     22667     22666     22668     22667     22666     22669     22668     22666     22669
     22670     22669     22671     22670     22669     22672     22671     22669     22672
     22673     22676     22677     22673     22676     22678     22673     22676     22679
     22674     22673     22675     22674     22673     22676     22675     22673     22676
     22676     22679     22680     22676     22679     22681     22676     22679     22682
     22677     22676     22678     22677     22676     22679     22678     22676     22679
     22679     22682     22683     22679     22682     22684     22679     22682     22685
     22680     22679     22681     22680     22679     22682     22681     22679     22682
     22682     22685     22686     22682     22685     22687     22682     22685     22688
     22683     22682     22684     22683     22682     22685     22684     22682     22685
     22685     22688     22689     22685     22688     22690     22685     22688     22691
     22686     22685     22687     22686     22685     22688     22687     22685     22688
     22688     22691     22692     22688     22691     22693     22688     22691     22694
     22689     22688     22690     22689     22688     22691     22690     22688     22691
     22691     22694     22695     22691     22694     22696     22691     22694     22697
     22692     22691     22693     22692     22691     22694     22693     22691     22694
     22694     22697     22698     22694     22697     22699     22694     22697     22700
     22695     22694     22696     22695     22694     22697     22696     22694     22697
     22697     22700     22701     22697     22700     22702     22697     22700     22703
     22698     22697     22699     22698     22697     22700     22699     22697     22700
     22700     22703     22704     22700     22703     22705     22700     22703     22706
     22701     22700     22702     22701     22700     22703     22702     22700     22703
     22703     22706     22707     22703     22706     22708     22703     22706     22709
     22704     22703     22705     22704     22703     22706     22705     22703     22706
     22706     22709     22710     22706     22709     22711     22706     22709     22712
     22707     22706     22708     22707     22706     22709     22708     22706     22709
     22710     22709     22711     22710     22709     22712     22711     22709     22712
     22713     22717     22718     22713     22717     22719     22713     22717     22720
     22714     22713     22715     22714     22713     22716     22714     22713     22717
     22715     22713     22716     22715     22713     22717     22716     22713     22717
     22717     22720     22721     22717     22720     22722     22717     22720     22727
     22718     22717     22719     22718     22717     22720     22719     22717     22720
     22720     22727     22723     22721     22720     22722     22721     22720     22727
     22722     22720     22727     22723     22726     22728     22724     22723     22725
     22724     22723     22726     22724     22723     22727     22725     22723     22726
     22725     22723     22727     22726     22723     22727     22726     22728     22729
     22726     22728     22730     22726     22728     22731     22728     22731     22732
     22728     22731     22733     22728     22731     22739     22729     22728     22730
     22729     22728     22731     22730     22728     22731     22731     22733     22734
     22731     22739     22740     22731     22739     22741     22731     22739     22742
     22732     22731     22733     22732     22731     22739     22733     22731     22739
     22733     22734     22735     22733     22734     22736     22734     22736     22737
     22734     22736     22738     22734     22736     22748     22735     22734     22736
     22736     22748     22749     22736     22748     22750     22736     22748     22751
     22737     22736     22738     22737     22736     22748     22738     22736     22748
     22739     22742     22743     22740     22739     22741     22740     22739     22742
     22741     22739     22742     22742     22743     22744     22742     22743     22745
     22743     22745     22746     22743     22745     22747     22743     22745     22792
     22744     22743     22745     22745     22792     22793     22745     22792     22794
     22745     22792     22795     22746     22745     22747     22746     22745     22792
     22747     22745     22792     22748     22751     22752     22748     22751     22753
     22748     22751     22754     22749     22748     22750     22749     22748     22751
     22750     22748     22751     22751     22754     22755     22751     22754     22756
     22751     22754     22757     22752     22751     22753     22752     22751     22754
     22753     22751     22754     22754     22757     22758     22754     22757     22759
     22754     22757     22760     22755     22754     22756     22755     22754     22757
     22756     22754     22757     22757     22760     22761     22757     22760     22762
     22757     22760     22763     22758     22757     22759     22758     22757     22760
     22759     22757     22760     22760     22763     22764     22760     22763     22765
     22760     22763     22766     22761     22760     22762     22761     22760     22763
     22762     22760     22763     22763     22766     22767     22763     22766     22768
     22763     22766     22771     22764     22763     22765     22764     22763     22766
     22765     22763     22766     22766     22768     22769     22766     22768     22770
     22766     22768     22771     22766     22771     22768     22766     22771     22772
     22766     22771     22773     22767     22766     22768     22767     22766     22771
     22768     22766     22771     22768     22771     22772     22768     22771     22773
     22769     22768     22770     22769     22768     22771     22770     22768     22771
     22771     22773     22774     22771     22773     22775     22771     22773     22776
     22772     22771     22773     22773     22776     22777     22773     22776     22778
     22773     22776     22779     22774     22773     22775     22774     22773     22776
     22775     22773     22776     22776     22779     22780     22776     22779     22781
     22776     22779     22782     22777     22776     22778     22777     22776     22779
     22778     22776     22779     22779     22782     22783     22779     22782     22784
     22779     22782     22785     22780     22779     22781     22780     22779     22782
     22781     22779     22782     22782     22785     22786     22782     22785     22787
     22782     22785     22788     22783     22782     22784     22783     22782     22785
     22784     22782     22785     22785     22788     22789     22785     22788     22790
     22785     22788     22791     22786     22785     22787     22786     22785     22788
     22787     22785     22788     22789     22788     22790     22789     22788     22791
     22790     22788     22791     22792     22795     22796     22792     22795     22797
     22792     22795     22798     22793     22792     22794     22793     22792     22795
     22794     22792     22795     22795     22798     22799     22795     22798     22800
     22795     22798     22801     22796     22795     22797     22796     22795     22798
     22797     22795     22798     22798     22801     22802     22798     22801     22803
     22798     22801     22804     22799     22798     22800     22799     22798     22801
     22800     22798     22801     22801     22804     22805     22801     22804     22806
     22801     22804     22807     22802     22801     22803     22802     22801     22804
     22803     22801     22804     22804     22807     22808     22804     22807     22809
     22804     22807     22810     22805     22804     22806     22805     22804     22807
     22806     22804     22807     22807     22810     22811     22807     22810     22812
     22807     22810     22813     22808     22807     22809     22808     22807     22810
     22809     22807     22810     22810     22813     22814     22810     22813     22815
     22810     22813     22816     22811     22810     22812     22811     22810     22813
     22812     22810     22813     22813     22816     22817     22813     22816     22818
     22813     22816     22819     22814     22813     22815     22814     22813     22816
     22815     22813     22816     22816     22819     22820     22816     22819     22821
     22816     22819     22822     22817     22816     22818     22817     22816     22819
     22818     22816     22819     22819     22822     22823     22819     22822     22824
     22819     22822     22825     22820     22819     22821     22820     22819     22822
     22821     22819     22822     22822     22825     22826     22822     22825     22827
     22822     22825     22828     22823     22822     22824     22823     22822     22825
     22824     22822     22825     22825     22828     22829     22825     22828     22830
     22825     22828     22831     22826     22825     22827     22826     22825     22828
     22827     22825     22828     22828     22831     22832     22828     22831     22833
     22828     22831     22834     22829     22828     22830     22829     22828     22831
     22830     22828     22831     22832     22831     22833     22832     22831     22834
     22833     22831     22834     22835     22839     22840     22835     22839     22841
     22835     22839     22842     22836     22835     22837     22836     22835     22838
     22836     22835     22839     22837     22835     22838     22837     22835     22839
     22838     22835     22839     22839     22842     22843     22839     22842     22844
     22839     22842     22849     22840     22839     22841     22840     22839     22842
     22841     22839     22842     22842     22849     22845     22843     22842     22844
     22843     22842     22849     22844     22842     22849     22845     22848     22850
     22846     22845     22847     22846     22845     22848     22846     22845     22849
     22847     22845     22848     22847     22845     22849     22848     22845     22849
     22848     22850     22851     22848     22850     22852     22848     22850     22853
     22850     22853     22854     22850     22853     22855     22850     22853     22861
     22851     22850     22852     22851     22850     22853     22852     22850     22853
     22853     22855     22856     22853     22861     22862     22853     22861     22863
     22853     22861     22864     22854     22853     22855     22854     22853     22861
     22855     22853     22861     22855     22856     22857     22855     22856     22858
     22856     22858     22859     22856     22858     22860     22856     22858     22870
     22857     22856     22858     22858     22870     22871     22858     22870     22872
     22858     22870     22873     22859     22858     22860     22859     22858     22870
     22860     22858     22870     22861     22864     22865     22862     22861     22863
     22862     22861     22864     22863     22861     22864     22864     22865     22866
     22864     22865     22867     22865     22867     22868     22865     22867     22869
     22865     22867     22911     22866     22865     22867     22867     22911     22912
     22867     22911     22913     22867     22911     22914     22868     22867     22869
     22868     22867     22911     22869     22867     22911     22870     22873     22874
     22870     22873     22875     22870     22873     22876     22871     22870     22872
     22871     22870     22873     22872     22870     22873     22873     22876     22877
     22873     22876     22878     22873     22876     22879     22874     22873     22875
     22874     22873     22876     22875     22873     22876     22876     22879     22880
     22876     22879     22881     22876     22879     22882     22877     22876     22878
     22877     22876     22879     22878     22876     22879     22879     22882     22883
     22879     22882     22884     22879     22882     22885     22880     22879     22881
     22880     22879     22882     22881     22879     22882     22882     22885     22886
     22882     22885     22887     22882     22885     22888     22883     22882     22884
     22883     22882     22885     22884     22882     22885     22885     22888     22889
     22885     22888     22890     22886     22885     22887     22886     22885     22888
     22887     22885     22888     22888     22890     22891     22888     22890     22892
     22889     22888     22890     22890     22892     22893     22890     22892     22894
     22890     22892     22895     22891     22890     22892     22892     22895     22896
     22892     22895     22897     22892     22895     22898     22893     22892     22894
     22893     22892     22895     22894     22892     22895     22895     22898     22899
     22895     22898     22900     22895     22898     22901     22896     22895     22897
     22896     22895     22898     22897     22895     22898     22898     22901     22902
     22898     22901     22903     22898     22901     22904     22899     22898     22900
     22899     22898     22901     22900     22898     22901     22901     22904     22905
     22901     22904     22906     22901     22904     22907     22902     22901     22903
     22902     22901     22904     22903     22901     22904     22904     22907     22908
     22904     22907     22909     22904     22907     22910     22905     22904     22906
     22905     22904     22907     22906     22904     22907     22908     22907     22909
     22908     22907     22910     22909     22907     22910     22911     22914     22915
     22911     22914     22916     22911     22914     22917     22912     22911     22913
     22912     22911     22914     22913     22911     22914     22914     22917     22918
     22914     22917     22919     22914     22917     22920     22915     22914     22916
     22915     22914     22917     22916     22914     22917     22917     22920     22921
     22917     22920     22922     22917     22920     22923     22918     22917     22919
     22918     22917     22920     22919     22917     22920     22920     22923     22924
     22920     22923     22925     22920     22923     22926     22921     22920     22922
     22921     22920     22923     22922     22920     22923     22923     22926     22927
     22923     22926     22928     22923     22926     22929     22924     22923     22925
     22924     22923     22926     22925     22923     22926     22926     22929     22930
     22926     22929     22931     22927     22926     22928     22927     22926     22929
     22928     22926     22929     22929     22931     22932     22929     22931     22933
     22930     22929     22931     22931     22933     22934     22931     22933     22935
     22931     22933     22936     22932     22931     22933     22933     22936     22937
     22933     22936     22938     22933     22936     22939     22934     22933     22935
     22934     22933     22936     22935     22933     22936     22936     22939     22940
     22936     22939     22941     22936     22939     22942     22937     22936     22938
     22937     22936     22939     22938     22936     22939     22939     22942     22943
     22939     22942     22944     22939     22942     22945     22940     22939     22941
     22940     22939     22942     22941     22939     22942     22942     22945     22946
     22942     22945     22947     22942     22945     22948     22943     22942     22944
     22943     22942     22945     22944     22942     22945     22945     22948     22949
     22945     22948     22950     22945     22948     22951     22946     22945     22947
     22946     22945     22948     22947     22945     22948     22948     22951     22952
     22948     22951     22953     22948     22951     22954     22949     22948     22950
     22949     22948     22951     22950     22948     22951     22951     22954     22955
     22951     22954     22956     22951     22954     22957     22952     22951     22953
     22952     22951     22954     22953     22951     22954     22955     22954     22956
     22955     22954     22957     22956     22954     22957     22958     22962     22963
     22958     22962     22964     22958     22962     22965     22959     22958     22960
     22959     22958     22961     22959     22958     22962     22960     22958     22961
     22960     22958     22962     22961     22958     22962     22962     22965     22966
     22962     22965     22967     22962     22965     22972     22963     22962     22964
     22963     22962     22965     22964     22962     22965     22965     22972     22968
     22966     22965     22967     22966     22965     22972     22967     22965     22972
     22968     22971     22973     22969     22968     22970     22969     22968     22971
     22969     22968     22972     22970     22968     22971     22970     22968     22972
     22971     22968     22972     22971     22973     22974     22971     22973     22975
     22971     22973     22976     22973     22976     22977     22973     22976     22978
     22973     22976     22984     22974     22973     22975     22974     22973     22976
     22975     22973     22976     22976     22978     22979     22976     22984     22985
     22976     22984     22986     22976     22984     22987     22977     22976     22978
     22977     22976     22984     22978     22976     22984     22978     22979     22980
     22978     22979     22981     22979     22981     22982     22979     22981     22983
     22979     22981     22993     22980     22979     22981     22981     22993     22994
     22981     22993     22995     22981     22993     22996     22982     22981     22983
     22982     22981     22993     22983     22981     22993     22984     22987     22988
     22985     22984     22986     22985     22984     22987     22986     22984     22987
     22987     22988     22989     22987     22988     22990     22988     22990     22991
     22988     22990     22992     22988     22990     23037     22989     22988     22990
     22990     23037     23038     22990     23037     23039     22990     23037     23040
     22991     22990     22992     22991     22990     23037     22992     22990     23037
     22993     22996     22997     22993     22996     22998     22993     22996     22999
     22994     22993     22995     22994     22993     22996     22995     22993     22996
     22996     22999     23000     22996     22999     23001     22996     22999     23002
     22997     22996     22998     22997     22996     22999     22998     22996     22999
     22999     23002     23003     22999     23002     23004     22999     23002     23005
     23000     22999     23001     23000     22999     23002     23001     22999     23002
     23002     23005     23006     23002     23005     23007     23002     23005     23008
     23003     23002     23004     23003     23002     23005     23004     23002     23005
     23005     23008     23009     23005     23008     23010     23005     23008     23011
     23006     23005     23007     23006     23005     23008     23007     23005     23008
     23008     23011     23012     23008     23011     23013     23008     23011     23016
     23009     23008     23010     23009     23008     23011     23010     23008     23011
     23011     23013     23014     23011     23013     23015     23011     23013     23016
     23011     23016     23013     23011     23016     23017     23011     23016     23018
     23012     23011     23013     23012     23011     23016     23013     23011     23016
     23013     23016     23017     23013     23016     23018     23014     23013     23015
     23014     23013     23016     23015     23013     23016     23016     23018     23019
     23016     23018     23020     23016     23018     23021     23017     23016     23018
     23018     23021     23022     23018     23021     23023     23018     23021     23024
     23019     23018     23020     23019     23018     23021     23020     23018     23021
     23021     23024     23025     23021     23024     23026     23021     23024     23027
     23022     23021     23023     23022     23021     23024     23023     23021     23024
     23024     23027     23028     23024     23027     23029     23024     23027     23030
     23025     23024     23026     23025     23024     23027     23026     23024     23027
     23027     23030     23031     23027     23030     23032     23027     23030     23033
     23028     23027     23029     23028     23027     23030     23029     23027     23030
     23030     23033     23034     23030     23033     23035     23030     23033     23036
     23031     23030     23032     23031     23030     23033     23032     23030     23033
     23034     23033     23035     23034     23033     23036     23035     23033     23036
     23037     23040     23041     23037     23040     23042     23037     23040     23043
     23038     23037     23039     23038     23037     23040     23039     23037     23040
     23040     23043     23044     23040     23043     23045     23040     23043     23046
     23041     23040     23042     23041     23040     23043     23042     23040     23043
     23043     23046     23047     23043     23046     23048     23043     23046     23049
     23044     23043     23045     23044     23043     23046     23045     23043     23046
     23046     23049     23050     23046     23049     23051     23046     23049     23052
     23047     23046     23048     23047     23046     23049     23048     23046     23049
     23049     23052     23053     23049     23052     23054     23049     23052     23055
     23050     23049     23051     23050     23049     23052     23051     23049     23052
     23052     23055     23056     23052     23055     23057     23052     23055     23058
     23053     23052     23054     23053     23052     23055     23054     23052     23055
     23055     23058     23059     23055     23058     23060     23055     23058     23061
     23056     23055     23057     23056     23055     23058     23057     23055     23058
     23058     23061     23062     23058     23061     23063     23058     23061     23064
     23059     23058     23060     23059     23058     23061     23060     23058     23061
     23061     23064     23065     23061     23064     23066     23061     23064     23067
     23062     23061     23063     23062     23061     23064     23063     23061     23064
     23064     23067     23068     23064     23067     23069     23064     23067     23070
     23065     23064     23066     23065     23064     23067     23066     23064     23067
     23067     23070     23071     23067     23070     23072     23067     23070     23073
     23068     23067     23069     23068     23067     23070     23069     23067     23070
     23070     23073     23074     23070     23073     23075     23070     23073     23076
     23071     23070     23072     23071     23070     23073     23072     23070     23073
     23073     23076     23077     23073     23076     23078     23073     23076     23079
     23074     23073     23075     23074     23073     23076     23075     23073     23076
     23077     23076     23078     23077     23076     23079     23078     23076     23079
     23080     23084     23085     23080     23084     23086     23080     23084     23087
     23081     23080     23082     23081     23080     23083     23081     23080     23084
     23082     23080     23083     23082     23080     23084     23083     23080     23084
     23084     23087     23088     23084     23087     23089     23084     23087     23094
     23085     23084     23086     23085     23084     23087     23086     23084     23087
     23087     23094     23090     23088     23087     23089     23088     23087     23094
     23089     23087     23094     23090     23093     23095     23091     23090     23092
     23091     23090     23093     23091     23090     23094     23092     23090     23093
     23092     23090     23094     23093     23090     23094     23093     23095     23096
     23093     23095     23097     23093     23095     23098     23095     23098     23099
     23095     23098     23100     23095     23098     23106     23096     23095     23097
     23096     23095     23098     23097     23095     23098     23098     23100     23101
     23098     23106     23107     23098     23106     23108     23098     23106     23109
     23099     23098     23100     23099     23098     23106     23100     23098     23106
     23100     23101     23102     23100     23101     23103     23101     23103     23104
     23101     23103     23105     23101     23103     23115     23102     23101     23103
     23103     23115     23116     23103     23115     23117     23103     23115     23118
     23104     23103     23105     23104     23103     23115     23105     23103     23115
     23106     23109     23110     23107     23106     23108     23107     23106     23109
     23108     23106     23109     23109     23110     23111     23109     23110     23112
     23110     23112     23113     23110     23112     23114     23110     23112     23159
     23111     23110     23112     23112     23159     23160     23112     23159     23161
     23112     23159     23162     23113     23112     23114     23113     23112     23159
     23114     23112     23159     23115     23118     23119     23115     23118     23120
     23115     23118     23121     23116     23115     23117     23116     23115     23118
     23117     23115     23118     23118     23121     23122     23118     23121     23123
     23118     23121     23124     23119     23118     23120     23119     23118     23121
     23120     23118     23121     23121     23124     23125     23121     23124     23126
     23121     23124     23127     23122     23121     23123     23122     23121     23124
     23123     23121     23124     23124     23127     23128     23124     23127     23129
     23124     23127     23130     23125     23124     23126     23125     23124     23127
     23126     23124     23127     23127     23130     23131     23127     23130     23132
     23127     23130     23133     23128     23127     23129     23128     23127     23130
     23129     23127     23130     23130     23133     23134     23130     23133     23135
     23130     23133     23138     23131     23130     23132     23131     23130     23133
     23132     23130     23133     23133     23135     23136     23133     23135     23137
     23133     23135     23138     23133     23138     23135     23133     23138     23139
     23133     23138     23140     23134     23133     23135     23134     23133     23138
     23135     23133     23138     23135     23138     23139     23135     23138     23140
     23136     23135     23137     23136     23135     23138     23137     23135     23138
     23138     23140     23141     23138     23140     23142     23138     23140     23143
     23139     23138     23140     23140     23143     23144     23140     23143     23145
     23140     23143     23146     23141     23140     23142     23141     23140     23143
     23142     23140     23143     23143     23146     23147     23143     23146     23148
     23143     23146     23149     23144     23143     23145     23144     23143     23146
     23145     23143     23146     23146     23149     23150     23146     23149     23151
     23146     23149     23152     23147     23146     23148     23147     23146     23149
     23148     23146     23149     23149     23152     23153     23149     23152     23154
     23149     23152     23155     23150     23149     23151     23150     23149     23152
     23151     23149     23152     23152     23155     23156     23152     23155     23157
     23152     23155     23158     23153     23152     23154     23153     23152     23155
     23154     23152     23155     23156     23155     23157     23156     23155     23158
     23157     23155     23158     23159     23162     23163     23159     23162     23164
     23159     23162     23165     23160     23159     23161     23160     23159     23162
     23161     23159     23162     23162     23165     23166     23162     23165     23167
     23162     23165     23168     23163     23162     23164     23163     23162     23165
     23164     23162     23165     23165     23168     23169     23165     23168     23170
     23165     23168     23171     23166     23165     23167     23166     23165     23168
     23167     23165     23168     23168     23171     23172     23168     23171     23173
     23168     23171     23174     23169     23168     23170     23169     23168     23171
     23170     23168     23171     23171     23174     23175     23171     23174     23176
     23171     23174     23177     23172     23171     23173     23172     23171     23174
     23173     23171     23174     23174     23177     23178     23174     23177     23179
     23174     23177     23180     23175     23174     23176     23175     23174     23177
     23176     23174     23177     23177     23180     23181     23177     23180     23182
     23177     23180     23183     23178     23177     23179     23178     23177     23180
     23179     23177     23180     23180     23183     23184     23180     23183     23185
     23180     23183     23186     23181     23180     23182     23181     23180     23183
     23182     23180     23183     23183     23186     23187     23183     23186     23188
     23183     23186     23189     23184     23183     23185     23184     23183     23186
     23185     23183     23186     23186     23189     23190     23186     23189     23191
     23186     23189     23192     23187     23186     23188     23187     23186     23189
     23188     23186     23189     23189     23192     23193     23189     23192     23194
     23189     23192     23195     23190     23189     23191     23190     23189     23192
     23191     23189     23192     23192     23195     23196     23192     23195     23197
     23192     23195     23198     23193     23192     23194     23193     23192     23195
     23194     23192     23195     23195     23198     23199     23195     23198     23200
     23195     23198     23201     23196     23195     23197     23196     23195     23198
     23197     23195     23198     23199     23198     23200     23199     23198     23201
     23200     23198     23201     23202     23206     23207     23202     23206     23208
     23202     23206     23209     23203     23202     23204     23203     23202     23205
     23203     23202     23206     23204     23202     23205     23204     23202     23206
     23205     23202     23206     23206     23209     23210     23206     23209     23211
     23206     23209     23216     23207     23206     23208     23207     23206     23209
     23208     23206     23209     23209     23216     23212     23210     23209     23211
     23210     23209     23216     23211     23209     23216     23212     23215     23217
     23213     23212     23214     23213     23212     23215     23213     23212     23216
     23214     23212     23215     23214     23212     23216     23215     23212     23216
     23215     23217     23218     23215     23217     23219     23215     23217     23220
     23217     23220     23221     23217     23220     23222     23217     23220     23228
     23218     23217     23219     23218     23217     23220     23219     23217     23220
     23220     23222     23223     23220     23228     23229     23220     23228     23230
     23220     23228     23231     23221     23220     23222     23221     23220     23228
     23222     23220     23228     23222     23223     23224     23222     23223     23225
     23223     23225     23226     23223     23225     23227     23223     23225     23237
     23224     23223     23225     23225     23237     23238     23225     23237     23239
     23225     23237     23240     23226     23225     23227     23226     23225     23237
     23227     23225     23237     23228     23231     23232     23229     23228     23230
     23229     23228     23231     23230     23228     23231     23231     23232     23233
     23231     23232     23234     23232     23234     23235     23232     23234     23236
     23232     23234     23278     23233     23232     23234     23234     23278     23279
     23234     23278     23280     23234     23278     23281     23235     23234     23236
     23235     23234     23278     23236     23234     23278     23237     23240     23241
     23237     23240     23242     23237     23240     23243     23238     23237     23239
     23238     23237     23240     23239     23237     23240     23240     23243     23244
     23240     23243     23245     23240     23243     23246     23241     23240     23242
     23241     23240     23243     23242     23240     23243     23243     23246     23247
     23243     23246     23248     23243     23246     23249     23244     23243     23245
     23244     23243     23246     23245     23243     23246     23246     23249     23250
     23246     23249     23251     23246     23249     23252     23247     23246     23248
     23247     23246     23249     23248     23246     23249     23249     23252     23253
     23249     23252     23254     23249     23252     23255     23250     23249     23251
     23250     23249     23252     23251     23249     23252     23252     23255     23256
     23252     23255     23257     23253     23252     23254     23253     23252     23255
     23254     23252     23255     23255     23257     23258     23255     23257     23259
     23256     23255     23257     23257     23259     23260     23257     23259     23261
     23257     23259     23262     23258     23257     23259     23259     23262     23263
     23259     23262     23264     23259     23262     23265     23260     23259     23261
     23260     23259     23262     23261     23259     23262     23262     23265     23266
     23262     23265     23267     23262     23265     23268     23263     23262     23264
     23263     23262     23265     23264     23262     23265     23265     23268     23269
     23265     23268     23270     23265     23268     23271     23266     23265     23267
     23266     23265     23268     23267     23265     23268     23268     23271     23272
     23268     23271     23273     23268     23271     23274     23269     23268     23270
     23269     23268     23271     23270     23268     23271     23271     23274     23275
     23271     23274     23276     23271     23274     23277     23272     23271     23273
     23272     23271     23274     23273     23271     23274     23275     23274     23276
     23275     23274     23277     23276     23274     23277     23278     23281     23282
     23278     23281     23283     23278     23281     23284     23279     23278     23280
     23279     23278     23281     23280     23278     23281     23281     23284     23285
     23281     23284     23286     23281     23284     23287     23282     23281     23283
     23282     23281     23284     23283     23281     23284     23284     23287     23288
     23284     23287     23289     23284     23287     23290     23285     23284     23286
     23285     23284     23287     23286     23284     23287     23287     23290     23291
     23287     23290     23292     23287     23290     23293     23288     23287     23289
     23288     23287     23290     23289     23287     23290     23290     23293     23294
     23290     23293     23295     23290     23293     23296     23291     23290     23292
     23291     23290     23293     23292     23290     23293     23293     23296     23297
     23293     23296     23298     23294     23293     23295     23294     23293     23296
     23295     23293     23296     23296     23298     23299     23296     23298     23300
     23297     23296     23298     23298     23300     23301     23298     23300     23302
     23298     23300     23303     23299     23298     23300     23300     23303     23304
     23300     23303     23305     23300     23303     23306     23301     23300     23302
     23301     23300     23303     23302     23300     23303     23303     23306     23307
     23303     23306     23308     23303     23306     23309     23304     23303     23305
     23304     23303     23306     23305     23303     23306     23306     23309     23310
     23306     23309     23311     23306     23309     23312     23307     23306     23308
     23307     23306     23309     23308     23306     23309     23309     23312     23313
     23309     23312     23314     23309     23312     23315     23310     23309     23311
     23310     23309     23312     23311     23309     23312     23312     23315     23316
     23312     23315     23317     23312     23315     23318     23313     23312     23314
     23313     23312     23315     23314     23312     23315     23315     23318     23319
     23315     23318     23320     23315     23318     23321     23316     23315     23317
     23316     23315     23318     23317     23315     23318     23318     23321     23322
     23318     23321     23323     23318     23321     23324     23319     23318     23320
     23319     23318     23321     23320     23318     23321     23322     23321     23323
     23322     23321     23324     23323     23321     23324     23325     23329     23330
     23325     23329     23331     23325     23329     23332     23326     23325     23327
     23326     23325     23328     23326     23325     23329     23327     23325     23328
     23327     23325     23329     23328     23325     23329     23329     23332     23333
     23329     23332     23334     23329     23332     23339     23330     23329     23331
     23330     23329     23332     23331     23329     23332     23332     23339     23335
     23333     23332     23334     23333     23332     23339     23334     23332     23339
     23335     23338     23340     23336     23335     23337     23336     23335     23338
     23336     23335     23339     23337     23335     23338     23337     23335     23339
     23338     23335     23339     23338     23340     23341     23338     23340     23342
     23338     23340     23343     23340     23343     23344     23340     23343     23345
     23340     23343     23351     23341     23340     23342     23341     23340     23343
     23342     23340     23343     23343     23345     23346     23343     23351     23352
     23343     23351     23353     23343     23351     23354     23344     23343     23345
     23344     23343     23351     23345     23343     23351     23345     23346     23347
     23345     23346     23348     23346     23348     23349     23346     23348     23350
     23346     23348     23360     23347     23346     23348     23348     23360     23361
     23348     23360     23362     23348     23360     23363     23349     23348     23350
     23349     23348     23360     23350     23348     23360     23351     23354     23355
     23352     23351     23353     23352     23351     23354     23353     23351     23354
     23354     23355     23356     23354     23355     23357     23355     23357     23358
     23355     23357     23359     23355     23357     23404     23356     23355     23357
     23357     23404     23405     23357     23404     23406     23357     23404     23407
     23358     23357     23359     23358     23357     23404     23359     23357     23404
     23360     23363     23364     23360     23363     23365     23360     23363     23366
     23361     23360     23362     23361     23360     23363     23362     23360     23363
     23363     23366     23367     23363     23366     23368     23363     23366     23369
     23364     23363     23365     23364     23363     23366     23365     23363     23366
     23366     23369     23370     23366     23369     23371     23366     23369     23372
     23367     23366     23368     23367     23366     23369     23368     23366     23369
     23369     23372     23373     23369     23372     23374     23369     23372     23375
     23370     23369     23371     23370     23369     23372     23371     23369     23372
     23372     23375     23376     23372     23375     23377     23372     23375     23378
     23373     23372     23374     23373     23372     23375     23374     23372     23375
     23375     23378     23379     23375     23378     23380     23375     23378     23383
     23376     23375     23377     23376     23375     23378     23377     23375     23378
     23378     23380     23381     23378     23380     23382     23378     23380     23383
     23378     23383     23380     23378     23383     23384     23378     23383     23385
     23379     23378     23380     23379     23378     23383     23380     23378     23383
     23380     23383     23384     23380     23383     23385     23381     23380     23382
     23381     23380     23383     23382     23380     23383     23383     23385     23386
     23383     23385     23387     23383     23385     23388     23384     23383     23385
     23385     23388     23389     23385     23388     23390     23385     23388     23391
     23386     23385     23387     23386     23385     23388     23387     23385     23388
     23388     23391     23392     23388     23391     23393     23388     23391     23394
     23389     23388     23390     23389     23388     23391     23390     23388     23391
     23391     23394     23395     23391     23394     23396     23391     23394     23397
     23392     23391     23393     23392     23391     23394     23393     23391     23394
     23394     23397     23398     23394     23397     23399     23394     23397     23400
     23395     23394     23396     23395     23394     23397     23396     23394     23397
     23397     23400     23401     23397     23400     23402     23397     23400     23403
     23398     23397     23399     23398     23397     23400     23399     23397     23400
     23401     23400     23402     23401     23400     23403     23402     23400     23403
     23404     23407     23408     23404     23407     23409     23404     23407     23410
     23405     23404     23406     23405     23404     23407     23406     23404     23407
     23407     23410     23411     23407     23410     23412     23407     23410     23413
     23408     23407     23409     23408     23407     23410     23409     23407     23410
     23410     23413     23414     23410     23413     23415     23410     23413     23416
     23411     23410     23412     23411     23410     23413     23412     23410     23413
     23413     23416     23417     23413     23416     23418     23413     23416     23419
     23414     23413     23415     23414     23413     23416     23415     23413     23416
     23416     23419     23420     23416     23419     23421     23416     23419     23422
     23417     23416     23418     23417     23416     23419     23418     23416     23419
     23419     23422     23423     23419     23422     23424     23419     23422     23425
     23420     23419     23421     23420     23419     23422     23421     23419     23422
     23422     23425     23426     23422     23425     23427     23422     23425     23428
     23423     23422     23424     23423     23422     23425     23424     23422     23425
     23425     23428     23429     23425     23428     23430     23425     23428     23431
     23426     23425     23427     23426     23425     23428     23427     23425     23428
     23428     23431     23432     23428     23431     23433     23428     23431     23434
     23429     23428     23430     23429     23428     23431     23430     23428     23431
     23431     23434     23435     23431     23434     23436     23431     23434     23437
     23432     23431     23433     23432     23431     23434     23433     23431     23434
     23434     23437     23438     23434     23437     23439     23434     23437     23440
     23435     23434     23436     23435     23434     23437     23436     23434     23437
     23437     23440     23441     23437     23440     23442     23437     23440     23443
     23438     23437     23439     23438     23437     23440     23439     23437     23440
     23440     23443     23444     23440     23443     23445     23440     23443     23446
     23441     23440     23442     23441     23440     23443     23442     23440     23443
     23444     23443     23445     23444     23443     23446     23445     23443     23446
     23447     23451     23452     23447     23451     23453     23447     23451     23454
     23448     23447     23449     23448     23447     23450     23448     23447     23451
     23449     23447     23450     23449     23447     23451     23450     23447     23451
     23451     23454     23455     23451     23454     23456     23451     23454     23461
     23452     23451     23453     23452     23451     23454     23453     23451     23454
     23454     23461     23457     23455     23454     23456     23455     23454     23461
     23456     23454     23461     23457     23460     23462     23458     23457     23459
     23458     23457     23460     23458     23457     23461     23459     23457     23460
     23459     23457     23461     23460     23457     23461     23460     23462     23463
     23460     23462     23464     23460     23462     23465     23462     23465     23466
     23462     23465     23467     23462     23465     23473     23463     23462     23464
     23463     23462     23465     23464     23462     23465     23465     23467     23468
     23465     23473     23474     23465     23473     23475     23465     23473     23476
     23466     23465     23467     23466     23465     23473     23467     23465     23473
     23467     23468     23469     23467     23468     23470     23468     23470     23471
     23468     23470     23472     23468     23470     23482     23469     23468     23470
     23470     23482     23483     23470     23482     23484     23470     23482     23485
     23471     23470     23472     23471     23470     23482     23472     23470     23482
     23473     23476     23477     23474     23473     23475     23474     23473     23476
     23475     23473     23476     23476     23477     23478     23476     23477     23479
     23477     23479     23480     23477     23479     23481     23477     23479     23526
     23478     23477     23479     23479     23526     23527     23479     23526     23528
     23479     23526     23529     23480     23479     23481     23480     23479     23526
     23481     23479     23526     23482     23485     23486     23482     23485     23487
     23482     23485     23488     23483     23482     23484     23483     23482     23485
     23484     23482     23485     23485     23488     23489     23485     23488     23490
     23485     23488     23491     23486     23485     23487     23486     23485     23488
     23487     23485     23488     23488     23491     23492     23488     23491     23493
     23488     23491     23494     23489     23488     23490     23489     23488     23491
     23490     23488     23491     23491     23494     23495     23491     23494     23496
     23491     23494     23497     23492     23491     23493     23492     23491     23494
     23493     23491     23494     23494     23497     23498     23494     23497     23499
     23494     23497     23500     23495     23494     23496     23495     23494     23497
     23496     23494     23497     23497     23500     23501     23497     23500     23502
     23497     23500     23505     23498     23497     23499     23498     23497     23500
     23499     23497     23500     23500     23502     23503     23500     23502     23504
     23500     23502     23505     23500     23505     23502     23500     23505     23506
     23500     23505     23507     23501     23500     23502     23501     23500     23505
     23502     23500     23505     23502     23505     23506     23502     23505     23507
     23503     23502     23504     23503     23502     23505     23504     23502     23505
     23505     23507     23508     23505     23507     23509     23505     23507     23510
     23506     23505     23507     23507     23510     23511     23507     23510     23512
     23507     23510     23513     23508     23507     23509     23508     23507     23510
     23509     23507     23510     23510     23513     23514     23510     23513     23515
     23510     23513     23516     23511     23510     23512     23511     23510     23513
     23512     23510     23513     23513     23516     23517     23513     23516     23518
     23513     23516     23519     23514     23513     23515     23514     23513     23516
     23515     23513     23516     23516     23519     23520     23516     23519     23521
     23516     23519     23522     23517     23516     23518     23517     23516     23519
     23518     23516     23519     23519     23522     23523     23519     23522     23524
     23519     23522     23525     23520     23519     23521     23520     23519     23522
     23521     23519     23522     23523     23522     23524     23523     23522     23525
     23524     23522     23525     23526     23529     23530     23526     23529     23531
     23526     23529     23532     23527     23526     23528     23527     23526     23529
     23528     23526     23529     23529     23532     23533     23529     23532     23534
     23529     23532     23535     23530     23529     23531     23530     23529     23532
     23531     23529     23532     23532     23535     23536     23532     23535     23537
     23532     23535     23538     23533     23532     23534     23533     23532     23535
     23534     23532     23535     23535     23538     23539     23535     23538     23540
     23535     23538     23541     23536     23535     23537     23536     23535     23538
     23537     23535     23538     23538     23541     23542     23538     23541     23543
     23538     23541     23544     23539     23538     23540     23539     23538     23541
     23540     23538     23541     23541     23544     23545     23541     23544     23546
     23541     23544     23547     23542     23541     23543     23542     23541     23544
     23543     23541     23544     23544     23547     23548     23544     23547     23549
     23544     23547     23550     23545     23544     23546     23545     23544     23547
     23546     23544     23547     23547     23550     23551     23547     23550     23552
     23547     23550     23553     23548     23547     23549     23548     23547     23550
     23549     23547     23550     23550     23553     23554     23550     23553     23555
     23550     23553     23556     23551     23550     23552     23551     23550     23553
     23552     23550     23553     23553     23556     23557     23553     23556     23558
     23553     23556     23559     23554     23553     23555     23554     23553     23556
     23555     23553     23556     23556     23559     23560     23556     23559     23561
     23556     23559     23562     23557     23556     23558     23557     23556     23559
     23558     23556     23559     23559     23562     23563     23559     23562     23564
     23559     23562     23565     23560     23559     23561     23560     23559     23562
     23561     23559     23562     23562     23565     23566     23562     23565     23567
     23562     23565     23568     23563     23562     23564     23563     23562     23565
     23564     23562     23565     23566     23565     23567     23566     23565     23568
     23567     23565     23568     23569     23573     23574     23569     23573     23575
     23569     23573     23576     23570     23569     23571     23570     23569     23572
     23570     23569     23573     23571     23569     23572     23571     23569     23573
     23572     23569     23573     23573     23576     23577     23573     23576     23578
     23573     23576     23583     23574     23573     23575     23574     23573     23576
     23575     23573     23576     23576     23583     23579     23577     23576     23578
     23577     23576     23583     23578     23576     23583     23579     23582     23584
     23580     23579     23581     23580     23579     23582     23580     23579     23583
     23581     23579     23582     23581     23579     23583     23582     23579     23583
     23582     23584     23585     23582     23584     23586     23582     23584     23587
     23584     23587     23588     23584     23587     23589     23584     23587     23595
     23585     23584     23586     23585     23584     23587     23586     23584     23587
     23587     23589     23590     23587     23595     23596     23587     23595     23597
     23587     23595     23598     23588     23587     23589     23588     23587     23595
     23589     23587     23595     23589     23590     23591     23589     23590     23592
     23590     23592     23593     23590     23592     23594     23590     23592     23604
     23591     23590     23592     23592     23604     23605     23592     23604     23606
     23592     23604     23607     23593     23592     23594     23593     23592     23604
     23594     23592     23604     23595     23598     23599     23596     23595     23597
     23596     23595     23598     23597     23595     23598     23598     23599     23600
     23598     23599     23601     23599     23601     23602     23599     23601     23603
     23599     23601     23648     23600     23599     23601     23601     23648     23649
     23601     23648     23650     23601     23648     23651     23602     23601     23603
     23602     23601     23648     23603     23601     23648     23604     23607     23608
     23604     23607     23609     23604     23607     23610     23605     23604     23606
     23605     23604     23607     23606     23604     23607     23607     23610     23611
     23607     23610     23612     23607     23610     23613     23608     23607     23609
     23608     23607     23610     23609     23607     23610     23610     23613     23614
     23610     23613     23615     23610     23613     23616     23611     23610     23612
     23611     23610     23613     23612     23610     23613     23613     23616     23617
     23613     23616     23618     23613     23616     23619     23614     23613     23615
     23614     23613     23616     23615     23613     23616     23616     23619     23620
     23616     23619     23621     23616     23619     23622     23617     23616     23618
     23617     23616     23619     23618     23616     23619     23619     23622     23623
     23619     23622     23624     23619     23622     23627     23620     23619     23621
     23620     23619     23622     23621     23619     23622     23622     23624     23625
     23622     23624     23626     23622     23624     23627     23622     23627     23624
     23622     23627     23628     23622     23627     23629     23623     23622     23624
     23623     23622     23627     23624     23622     23627     23624     23627     23628
     23624     23627     23629     23625     23624     23626     23625     23624     23627
     23626     23624     23627     23627     23629     23630     23627     23629     23631
     23627     23629     23632     23628     23627     23629     23629     23632     23633
     23629     23632     23634     23629     23632     23635     23630     23629     23631
     23630     23629     23632     23631     23629     23632     23632     23635     23636
     23632     23635     23637     23632     23635     23638     23633     23632     23634
     23633     23632     23635     23634     23632     23635     23635     23638     23639
     23635     23638     23640     23635     23638     23641     23636     23635     23637
     23636     23635     23638     23637     23635     23638     23638     23641     23642
     23638     23641     23643     23638     23641     23644     23639     23638     23640
     23639     23638     23641     23640     23638     23641     23641     23644     23645
     23641     23644     23646     23641     23644     23647     23642     23641     23643
     23642     23641     23644     23643     23641     23644     23645     23644     23646
     23645     23644     23647     23646     23644     23647     23648     23651     23652
     23648     23651     23653     23648     23651     23654     23649     23648     23650
     23649     23648     23651     23650     23648     23651     23651     23654     23655
     23651     23654     23656     23651     23654     23657     23652     23651     23653
     23652     23651     23654     23653     23651     23654     23654     23657     23658
     23654     23657     23659     23654     23657     23660     23655     23654     23656
     23655     23654     23657     23656     23654     23657     23657     23660     23661
     23657     23660     23662     23657     23660     23663     23658     23657     23659
     23658     23657     23660     23659     23657     23660     23660     23663     23664
     23660     23663     23665     23660     23663     23666     23661     23660     23662
     23661     23660     23663     23662     23660     23663     23663     23666     23667
     23663     23666     23668     23663     23666     23669     23664     23663     23665
     23664     23663     23666     23665     23663     23666     23666     23669     23670
     23666     23669     23671     23666     23669     23672     23667     23666     23668
     23667     23666     23669     23668     23666     23669     23669     23672     23673
     23669     23672     23674     23669     23672     23675     23670     23669     23671
     23670     23669     23672     23671     23669     23672     23672     23675     23676
     23672     23675     23677     23672     23675     23678     23673     23672     23674
     23673     23672     23675     23674     23672     23675     23675     23678     23679
     23675     23678     23680     23675     23678     23681     23676     23675     23677
     23676     23675     23678     23677     23675     23678     23678     23681     23682
     23678     23681     23683     23678     23681     23684     23679     23678     23680
     23679     23678     23681     23680     23678     23681     23681     23684     23685
     23681     23684     23686     23681     23684     23687     23682     23681     23683
     23682     23681     23684     23683     23681     23684     23684     23687     23688
     23684     23687     23689     23684     23687     23690     23685     23684     23686
     23685     23684     23687     23686     23684     23687     23688     23687     23689
     23688     23687     23690     23689     23687     23690     23691     23695     23696
     23691     23695     23697     23691     23695     23698     23692     23691     23693
     23692     23691     23694     23692     23691     23695     23693     23691     23694
     23693     23691     23695     23694     23691     23695     23695     23698     23699
     23695     23698     23700     23695     23698     23705     23696     23695     23697
     23696     23695     23698     23697     23695     23698     23698     23705     23701
     23699     23698     23700     23699     23698     23705     23700     23698     23705
     23701     23704     23706     23702     23701     23703     23702     23701     23704
     23702     23701     23705     23703     23701     23704     23703     23701     23705
     23704     23701     23705     23704     23706     23707     23704     23706     23708
     23704     23706     23709     23706     23709     23710     23706     23709     23711
     23706     23709     23717     23707     23706     23708     23707     23706     23709
     23708     23706     23709     23709     23711     23712     23709     23717     23718
     23709     23717     23719     23709     23717     23720     23710     23709     23711
     23710     23709     23717     23711     23709     23717     23711     23712     23713
     23711     23712     23714     23712     23714     23715     23712     23714     23716
     23712     23714     23726     23713     23712     23714     23714     23726     23727
     23714     23726     23728     23714     23726     23729     23715     23714     23716
     23715     23714     23726     23716     23714     23726     23717     23720     23721
     23718     23717     23719     23718     23717     23720     23719     23717     23720
     23720     23721     23722     23720     23721     23723     23721     23723     23724
     23721     23723     23725     23721     23723     23770     23722     23721     23723
     23723     23770     23771     23723     23770     23772     23723     23770     23773
     23724     23723     23725     23724     23723     23770     23725     23723     23770
     23726     23729     23730     23726     23729     23731     23726     23729     23732
     23727     23726     23728     23727     23726     23729     23728     23726     23729
     23729     23732     23733     23729     23732     23734     23729     23732     23735
     23730     23729     23731     23730     23729     23732     23731     23729     23732
     23732     23735     23736     23732     23735     23737     23732     23735     23738
     23733     23732     23734     23733     23732     23735     23734     23732     23735
     23735     23738     23739     23735     23738     23740     23735     23738     23741
     23736     23735     23737     23736     23735     23738     23737     23735     23738
     23738     23741     23742     23738     23741     23743     23738     23741     23744
     23739     23738     23740     23739     23738     23741     23740     23738     23741
     23741     23744     23745     23741     23744     23746     23741     23744     23749
     23742     23741     23743     23742     23741     23744     23743     23741     23744
     23744     23746     23747     23744     23746     23748     23744     23746     23749
     23744     23749     23746     23744     23749     23750     23744     23749     23751
     23745     23744     23746     23745     23744     23749     23746     23744     23749
     23746     23749     23750     23746     23749     23751     23747     23746     23748
     23747     23746     23749     23748     23746     23749     23749     23751     23752
     23749     23751     23753     23749     23751     23754     23750     23749     23751
     23751     23754     23755     23751     23754     23756     23751     23754     23757
     23752     23751     23753     23752     23751     23754     23753     23751     23754
     23754     23757     23758     23754     23757     23759     23754     23757     23760
     23755     23754     23756     23755     23754     23757     23756     23754     23757
     23757     23760     23761     23757     23760     23762     23757     23760     23763
     23758     23757     23759     23758     23757     23760     23759     23757     23760
     23760     23763     23764     23760     23763     23765     23760     23763     23766
     23761     23760     23762     23761     23760     23763     23762     23760     23763
     23763     23766     23767     23763     23766     23768     23763     23766     23769
     23764     23763     23765     23764     23763     23766     23765     23763     23766
     23767     23766     23768     23767     23766     23769     23768     23766     23769
     23770     23773     23774     23770     23773     23775     23770     23773     23776
     23771     23770     23772     23771     23770     23773     23772     23770     23773
     23773     23776     23777     23773     23776     23778     23773     23776     23779
     23774     23773     23775     23774     23773     23776     23775     23773     23776
     23776     23779     23780     23776     23779     23781     23776     23779     23782
     23777     23776     23778     23777     23776     23779     23778     23776     23779
     23779     23782     23783     23779     23782     23784     23779     23782     23785
     23780     23779     23781     23780     23779     23782     23781     23779     23782
     23782     23785     23786     23782     23785     23787     23782     23785     23788
     23783     23782     23784     23783     23782     23785     23784     23782     23785
     23785     23788     23789     23785     23788     23790     23785     23788     23791
     23786     23785     23787     23786     23785     23788     23787     23785     23788
     23788     23791     23792     23788     23791     23793     23788     23791     23794
     23789     23788     23790     23789     23788     23791     23790     23788     23791
     23791     23794     23795     23791     23794     23796     23791     23794     23797
     23792     23791     23793     23792     23791     23794     23793     23791     23794
     23794     23797     23798     23794     23797     23799     23794     23797     23800
     23795     23794     23796     23795     23794     23797     23796     23794     23797
     23797     23800     23801     23797     23800     23802     23797     23800     23803
     23798     23797     23799     23798     23797     23800     23799     23797     23800
     23800     23803     23804     23800     23803     23805     23800     23803     23806
     23801     23800     23802     23801     23800     23803     23802     23800     23803
     23803     23806     23807     23803     23806     23808     23803     23806     23809
     23804     23803     23805     23804     23803     23806     23805     23803     23806
     23806     23809     23810     23806     23809     23811     23806     23809     23812
     23807     23806     23808     23807     23806     23809     23808     23806     23809
     23810     23809     23811     23810     23809     23812     23811     23809     23812
     23813     23817     23818     23813     23817     23819     23813     23817     23820
     23814     23813     23815     23814     23813     23816     23814     23813     23817
     23815     23813     23816     23815     23813     23817     23816     23813     23817
     23817     23820     23821     23817     23820     23822     23817     23820     23827
     23818     23817     23819     23818     23817     23820     23819     23817     23820
     23820     23827     23823     23821     23820     23822     23821     23820     23827
     23822     23820     23827     23823     23826     23828     23824     23823     23825
     23824     23823     23826     23824     23823     23827     23825     23823     23826
     23825     23823     23827     23826     23823     23827     23826     23828     23829
     23826     23828     23830     23826     23828     23831     23828     23831     23832
     23828     23831     23833     23828     23831     23839     23829     23828     23830
     23829     23828     23831     23830     23828     23831     23831     23833     23834
     23831     23839     23840     23831     23839     23841     23831     23839     23842
     23832     23831     23833     23832     23831     23839     23833     23831     23839
     23833     23834     23835     23833     23834     23836     23834     23836     23837
     23834     23836     23838     23834     23836     23848     23835     23834     23836
     23836     23848     23849     23836     23848     23850     23836     23848     23851
     23837     23836     23838     23837     23836     23848     23838     23836     23848
     23839     23842     23843     23840     23839     23841     23840     23839     23842
     23841     23839     23842     23842     23843     23844     23842     23843     23845
     23843     23845     23846     23843     23845     23847     23843     23845     23892
     23844     23843     23845     23845     23892     23893     23845     23892     23894
     23845     23892     23895     23846     23845     23847     23846     23845     23892
     23847     23845     23892     23848     23851     23852     23848     23851     23853
     23848     23851     23854     23849     23848     23850     23849     23848     23851
     23850     23848     23851     23851     23854     23855     23851     23854     23856
     23851     23854     23857     23852     23851     23853     23852     23851     23854
     23853     23851     23854     23854     23857     23858     23854     23857     23859
     23854     23857     23860     23855     23854     23856     23855     23854     23857
     23856     23854     23857     23857     23860     23861     23857     23860     23862
     23857     23860     23863     23858     23857     23859     23858     23857     23860
     23859     23857     23860     23860     23863     23864     23860     23863     23865
     23860     23863     23866     23861     23860     23862     23861     23860     23863
     23862     23860     23863     23863     23866     23867     23863     23866     23868
     23863     23866     23871     23864     23863     23865     23864     23863     23866
     23865     23863     23866     23866     23868     23869     23866     23868     23870
     23866     23868     23871     23866     23871     23868     23866     23871     23872
     23866     23871     23873     23867     23866     23868     23867     23866     23871
     23868     23866     23871     23868     23871     23872     23868     23871     23873
     23869     23868     23870     23869     23868     23871     23870     23868     23871
     23871     23873     23874     23871     23873     23875     23871     23873     23876
     23872     23871     23873     23873     23876     23877     23873     23876     23878
     23873     23876     23879     23874     23873     23875     23874     23873     23876
     23875     23873     23876     23876     23879     23880     23876     23879     23881
     23876     23879     23882     23877     23876     23878     23877     23876     23879
     23878     23876     23879     23879     23882     23883     23879     23882     23884
     23879     23882     23885     23880     23879     23881     23880     23879     23882
     23881     23879     23882     23882     23885     23886     23882     23885     23887
     23882     23885     23888     23883     23882     23884     23883     23882     23885
     23884     23882     23885     23885     23888     23889     23885     23888     23890
     23885     23888     23891     23886     23885     23887     23886     23885     23888
     23887     23885     23888     23889     23888     23890     23889     23888     23891
     23890     23888     23891     23892     23895     23896     23892     23895     23897
     23892     23895     23898     23893     23892     23894     23893     23892     23895
     23894     23892     23895     23895     23898     23899     23895     23898     23900
     23895     23898     23901     23896     23895     23897     23896     23895     23898
     23897     23895     23898     23898     23901     23902     23898     23901     23903
     23898     23901     23904     23899     23898     23900     23899     23898     23901
     23900     23898     23901     23901     23904     23905     23901     23904     23906
     23901     23904     23907     23902     23901     23903     23902     23901     23904
     23903     23901     23904     23904     23907     23908     23904     23907     23909
     23904     23907     23910     23905     23904     23906     23905     23904     23907
     23906     23904     23907     23907     23910     23911     23907     23910     23912
     23907     23910     23913     23908     23907     23909     23908     23907     23910
     23909     23907     23910     23910     23913     23914     23910     23913     23915
     23910     23913     23916     23911     23910     23912     23911     23910     23913
     23912     23910     23913     23913     23916     23917     23913     23916     23918
     23913     23916     23919     23914     23913     23915     23914     23913     23916
     23915     23913     23916     23916     23919     23920     23916     23919     23921
     23916     23919     23922     23917     23916     23918     23917     23916     23919
     23918     23916     23919     23919     23922     23923     23919     23922     23924
     23919     23922     23925     23920     23919     23921     23920     23919     23922
     23921     23919     23922     23922     23925     23926     23922     23925     23927
     23922     23925     23928     23923     23922     23924     23923     23922     23925
     23924     23922     23925     23925     23928     23929     23925     23928     23930
     23925     23928     23931     23926     23925     23927     23926     23925     23928
     23927     23925     23928     23928     23931     23932     23928     23931     23933
     23928     23931     23934     23929     23928     23930     23929     23928     23931
     23930     23928     23931     23932     23931     23933     23932     23931     23934
     23933     23931     23934     23935     23939     23940     23935     23939     23941
     23935     23939     23942     23936     23935     23937     23936     23935     23938
     23936     23935     23939     23937     23935     23938     23937     23935     23939
     23938     23935     23939     23939     23942     23943     23939     23942     23944
     23939     23942     23949     23940     23939     23941     23940     23939     23942
     23941     23939     23942     23942     23949     23945     23943     23942     23944
     23943     23942     23949     23944     23942     23949     23945     23948     23950
     23946     23945     23947     23946     23945     23948     23946     23945     23949
     23947     23945     23948     23947     23945     23949     23948     23945     23949
     23948     23950     23951     23948     23950     23952     23948     23950     23953
     23950     23953     23954     23950     23953     23955     23950     23953     23961
     23951     23950     23952     23951     23950     23953     23952     23950     23953
     23953     23955     23956     23953     23961     23962     23953     23961     23963
     23953     23961     23964     23954     23953     23955     23954     23953     23961
     23955     23953     23961     23955     23956     23957     23955     23956     23958
     23956     23958     23959     23956     23958     23960     23956     23958     23970
     23957     23956     23958     23958     23970     23971     23958     23970     23972
     23958     23970     23973     23959     23958     23960     23959     23958     23970
     23960     23958     23970     23961     23964     23965     23962     23961     23963
     23962     23961     23964     23963     23961     23964     23964     23965     23966
     23964     23965     23967     23965     23967     23968     23965     23967     23969
     23965     23967     24014     23966     23965     23967     23967     24014     24015
     23967     24014     24016     23967     24014     24017     23968     23967     23969
     23968     23967     24014     23969     23967     24014     23970     23973     23974
     23970     23973     23975     23970     23973     23976     23971     23970     23972
     23971     23970     23973     23972     23970     23973     23973     23976     23977
     23973     23976     23978     23973     23976     23979     23974     23973     23975
     23974     23973     23976     23975     23973     23976     23976     23979     23980
     23976     23979     23981     23976     23979     23982     23977     23976     23978
     23977     23976     23979     23978     23976     23979     23979     23982     23983
     23979     23982     23984     23979     23982     23985     23980     23979     23981
     23980     23979     23982     23981     23979     23982     23982     23985     23986
     23982     23985     23987     23982     23985     23988     23983     23982     23984
     23983     23982     23985     23984     23982     23985     23985     23988     23989
     23985     23988     23990     23985     23988     23993     23986     23985     23987
     23986     23985     23988     23987     23985     23988     23988     23990     23991
     23988     23990     23992     23988     23990     23993     23988     23993     23990
     23988     23993     23994     23988     23993     23995     23989     23988     23990
     23989     23988     23993     23990     23988     23993     23990     23993     23994
     23990     23993     23995     23991     23990     23992     23991     23990     23993
     23992     23990     23993     23993     23995     23996     23993     23995     23997
     23993     23995     23998     23994     23993     23995     23995     23998     23999
     23995     23998     24000     23995     23998     24001     23996     23995     23997
     23996     23995     23998     23997     23995     23998     23998     24001     24002
     23998     24001     24003     23998     24001     24004     23999     23998     24000
     23999     23998     24001     24000     23998     24001     24001     24004     24005
     24001     24004     24006     24001     24004     24007     24002     24001     24003
     24002     24001     24004     24003     24001     24004     24004     24007     24008
     24004     24007     24009     24004     24007     24010     24005     24004     24006
     24005     24004     24007     24006     24004     24007     24007     24010     24011
     24007     24010     24012     24007     24010     24013     24008     24007     24009
     24008     24007     24010     24009     24007     24010     24011     24010     24012
     24011     24010     24013     24012     24010     24013     24014     24017     24018
     24014     24017     24019     24014     24017     24020     24015     24014     24016
     24015     24014     24017     24016     24014     24017     24017     24020     24021
     24017     24020     24022     24017     24020     24023     24018     24017     24019
     24018     24017     24020     24019     24017     24020     24020     24023     24024
     24020     24023     24025     24020     24023     24026     24021     24020     24022
     24021     24020     24023     24022     24020     24023     24023     24026     24027
     24023     24026     24028     24023     24026     24029     24024     24023     24025
     24024     24023     24026     24025     24023     24026     24026     24029     24030
     24026     24029     24031     24026     24029     24032     24027     24026     24028
     24027     24026     24029     24028     24026     24029     24029     24032     24033
     24029     24032     24034     24029     24032     24035     24030     24029     24031
     24030     24029     24032     24031     24029     24032     24032     24035     24036
     24032     24035     24037     24032     24035     24038     24033     24032     24034
     24033     24032     24035     24034     24032     24035     24035     24038     24039
     24035     24038     24040     24035     24038     24041     24036     24035     24037
     24036     24035     24038     24037     24035     24038     24038     24041     24042
     24038     24041     24043     24038     24041     24044     24039     24038     24040
     24039     24038     24041     24040     24038     24041     24041     24044     24045
     24041     24044     24046     24041     24044     24047     24042     24041     24043
     24042     24041     24044     24043     24041     24044     24044     24047     24048
     24044     24047     24049     24044     24047     24050     24045     24044     24046
     24045     24044     24047     24046     24044     24047     24047     24050     24051
     24047     24050     24052     24047     24050     24053     24048     24047     24049
     24048     24047     24050     24049     24047     24050     24051     24050     24052
     24051     24050     24053     24052     24050     24053     24054     24058     24059
     24054     24058     24060     24054     24058     24061     24055     24054     24056
     24055     24054     24057     24055     24054     24058     24056     24054     24057
     24056     24054     24058     24057     24054     24058     24058     24061     24062
     24058     24061     24063     24058     24061     24068     24059     24058     24060
     24059     24058     24061     24060     24058     24061     24061     24068     24064
     24062     24061     24063     24062     24061     24068     24063     24061     24068
     24064     24067     24069     24065     24064     24066     24065     24064     24067
     24065     24064     24068     24066     24064     24067     24066     24064     24068
     24067     24064     24068     24067     24069     24070     24067     24069     24071
     24067     24069     24072     24069     24072     24073     24069     24072     24074
     24069     24072     24080     24070     24069     24071     24070     24069     24072
     24071     24069     24072     24072     24074     24075     24072     24080     24081
     24072     24080     24082     24072     24080     24083     24073     24072     24074
     24073     24072     24080     24074     24072     24080     24074     24075     24076
     24074     24075     24077     24075     24077     24078     24075     24077     24079
     24075     24077     24089     24076     24075     24077     24077     24089     24090
     24077     24089     24091     24077     24089     24092     24078     24077     24079
     24078     24077     24089     24079     24077     24089     24080     24083     24084
     24081     24080     24082     24081     24080     24083     24082     24080     24083
     24083     24084     24085     24083     24084     24086     24084     24086     24087
     24084     24086     24088     24084     24086     24133     24085     24084     24086
     24086     24133     24134     24086     24133     24135     24086     24133     24136
     24087     24086     24088     24087     24086     24133     24088     24086     24133
     24089     24092     24093     24089     24092     24094     24089     24092     24095
     24090     24089     24091     24090     24089     24092     24091     24089     24092
     24092     24095     24096     24092     24095     24097     24092     24095     24098
     24093     24092     24094     24093     24092     24095     24094     24092     24095
     24095     24098     24099     24095     24098     24100     24095     24098     24101
     24096     24095     24097     24096     24095     24098     24097     24095     24098
     24098     24101     24102     24098     24101     24103     24098     24101     24104
     24099     24098     24100     24099     24098     24101     24100     24098     24101
     24101     24104     24105     24101     24104     24106     24101     24104     24107
     24102     24101     24103     24102     24101     24104     24103     24101     24104
     24104     24107     24108     24104     24107     24109     24104     24107     24112
     24105     24104     24106     24105     24104     24107     24106     24104     24107
     24107     24109     24110     24107     24109     24111     24107     24109     24112
     24107     24112     24109     24107     24112     24113     24107     24112     24114
     24108     24107     24109     24108     24107     24112     24109     24107     24112
     24109     24112     24113     24109     24112     24114     24110     24109     24111
     24110     24109     24112     24111     24109     24112     24112     24114     24115
     24112     24114     24116     24112     24114     24117     24113     24112     24114
     24114     24117     24118     24114     24117     24119     24114     24117     24120
     24115     24114     24116     24115     24114     24117     24116     24114     24117
     24117     24120     24121     24117     24120     24122     24117     24120     24123
     24118     24117     24119     24118     24117     24120     24119     24117     24120
     24120     24123     24124     24120     24123     24125     24120     24123     24126
     24121     24120     24122     24121     24120     24123     24122     24120     24123
     24123     24126     24127     24123     24126     24128     24123     24126     24129
     24124     24123     24125     24124     24123     24126     24125     24123     24126
     24126     24129     24130     24126     24129     24131     24126     24129     24132
     24127     24126     24128     24127     24126     24129     24128     24126     24129
     24130     24129     24131     24130     24129     24132     24131     24129     24132
     24133     24136     24137     24133     24136     24138     24133     24136     24139
     24134     24133     24135     24134     24133     24136     24135     24133     24136
     24136     24139     24140     24136     24139     24141     24136     24139     24142
     24137     24136     24138     24137     24136     24139     24138     24136     24139
     24139     24142     24143     24139     24142     24144     24139     24142     24145
     24140     24139     24141     24140     24139     24142     24141     24139     24142
     24142     24145     24146     24142     24145     24147     24142     24145     24148
     24143     24142     24144     24143     24142     24145     24144     24142     24145
     24145     24148     24149     24145     24148     24150     24145     24148     24151
     24146     24145     24147     24146     24145     24148     24147     24145     24148
     24148     24151     24152     24148     24151     24153     24148     24151     24154
     24149     24148     24150     24149     24148     24151     24150     24148     24151
     24151     24154     24155     24151     24154     24156     24151     24154     24157
     24152     24151     24153     24152     24151     24154     24153     24151     24154
     24154     24157     24158     24154     24157     24159     24154     24157     24160
     24155     24154     24156     24155     24154     24157     24156     24154     24157
     24157     24160     24161     24157     24160     24162     24157     24160     24163
     24158     24157     24159     24158     24157     24160     24159     24157     24160
     24160     24163     24164     24160     24163     24165     24160     24163     24166
     24161     24160     24162     24161     24160     24163     24162     24160     24163
     24163     24166     24167     24163     24166     24168     24163     24166     24169
     24164     24163     24165     24164     24163     24166     24165     24163     24166
     24166     24169     24170     24166     24169     24171     24166     24169     24172
     24167     24166     24168     24167     24166     24169     24168     24166     24169
     24169     24172     24173     24169     24172     24174     24169     24172     24175
     24170     24169     24171     24170     24169     24172     24171     24169     24172
     24173     24172     24174     24173     24172     24175     24174     24172     24175
     24176     24180     24181     24176     24180     24182     24176     24180     24183
     24177     24176     24178     24177     24176     24179     24177     24176     24180
     24178     24176     24179     24178     24176     24180     24179     24176     24180
     24180     24183     24184     24180     24183     24185     24180     24183     24190
     24181     24180     24182     24181     24180     24183     24182     24180     24183
     24183     24190     24186     24184     24183     24185     24184     24183     24190
     24185     24183     24190     24186     24189     24191     24187     24186     24188
     24187     24186     24189     24187     24186     24190     24188     24186     24189
     24188     24186     24190     24189     24186     24190     24189     24191     24192
     24189     24191     24193     24189     24191     24194     24191     24194     24195
     24191     24194     24196     24191     24194     24202     24192     24191     24193
     24192     24191     24194     24193     24191     24194     24194     24196     24197
     24194     24202     24203     24194     24202     24204     24194     24202     24205
     24195     24194     24196     24195     24194     24202     24196     24194     24202
     24196     24197     24198     24196     24197     24199     24197     24199     24200
     24197     24199     24201     24197     24199     24211     24198     24197     24199
     24199     24211     24212     24199     24211     24213     24199     24211     24214
     24200     24199     24201     24200     24199     24211     24201     24199     24211
     24202     24205     24206     24203     24202     24204     24203     24202     24205
     24204     24202     24205     24205     24206     24207     24205     24206     24208
     24206     24208     24209     24206     24208     24210     24206     24208     24258
     24207     24206     24208     24208     24258     24259     24208     24258     24260
     24208     24258     24261     24209     24208     24210     24209     24208     24258
     24210     24208     24258     24211     24214     24215     24211     24214     24216
     24211     24214     24217     24212     24211     24213     24212     24211     24214
     24213     24211     24214     24214     24217     24218     24214     24217     24219
     24214     24217     24220     24215     24214     24216     24215     24214     24217
     24216     24214     24217     24217     24220     24221     24217     24220     24222
     24217     24220     24223     24218     24217     24219     24218     24217     24220
     24219     24217     24220     24220     24223     24224     24220     24223     24225
     24220     24223     24226     24221     24220     24222     24221     24220     24223
     24222     24220     24223     24223     24226     24227     24223     24226     24228
     24223     24226     24229     24224     24223     24225     24224     24223     24226
     24225     24223     24226     24226     24229     24230     24226     24229     24231
     24227     24226     24228     24227     24226     24229     24228     24226     24229
     24229     24231     24232     24229     24231     24233     24230     24229     24231
     24231     24233     24234     24231     24233     24235     24231     24233     24236
     24232     24231     24233     24233     24236     24237     24233     24236     24238
     24233     24236     24239     24234     24233     24235     24234     24233     24236
     24235     24233     24236     24236     24239     24240     24236     24239     24241
     24236     24239     24242     24237     24236     24238     24237     24236     24239
     24238     24236     24239     24239     24242     24243     24239     24242     24244
     24239     24242     24245     24240     24239     24241     24240     24239     24242
     24241     24239     24242     24242     24245     24246     24242     24245     24247
     24242     24245     24248     24243     24242     24244     24243     24242     24245
     24244     24242     24245     24245     24248     24249     24245     24248     24250
     24245     24248     24251     24246     24245     24247     24246     24245     24248
     24247     24245     24248     24248     24251     24252     24248     24251     24253
     24248     24251     24254     24249     24248     24250     24249     24248     24251
     24250     24248     24251     24251     24254     24255     24251     24254     24256
     24251     24254     24257     24252     24251     24253     24252     24251     24254
     24253     24251     24254     24255     24254     24256     24255     24254     24257
     24256     24254     24257     24258     24261     24262     24258     24261     24263
     24258     24261     24264     24259     24258     24260     24259     24258     24261
     24260     24258     24261     24261     24264     24265     24261     24264     24266
     24261     24264     24267     24262     24261     24263     24262     24261     24264
     24263     24261     24264     24264     24267     24268     24264     24267     24269
     24264     24267     24270     24265     24264     24266     24265     24264     24267
     24266     24264     24267     24267     24270     24271     24267     24270     24272
     24267     24270     24273     24268     24267     24269     24268     24267     24270
     24269     24267     24270     24270     24273     24274     24270     24273     24275
     24270     24273     24276     24271     24270     24272     24271     24270     24273
     24272     24270     24273     24273     24276     24277     24273     24276     24278
     24273     24276     24279     24274     24273     24275     24274     24273     24276
     24275     24273     24276     24276     24279     24280     24276     24279     24281
     24276     24279     24282     24277     24276     24278     24277     24276     24279
     24278     24276     24279     24279     24282     24283     24279     24282     24284
     24279     24282     24285     24280     24279     24281     24280     24279     24282
     24281     24279     24282     24282     24285     24286     24282     24285     24287
     24282     24285     24288     24283     24282     24284     24283     24282     24285
     24284     24282     24285     24285     24288     24289     24285     24288     24290
     24285     24288     24291     24286     24285     24287     24286     24285     24288
     24287     24285     24288     24288     24291     24292     24288     24291     24293
     24288     24291     24294     24289     24288     24290     24289     24288     24291
     24290     24288     24291     24291     24294     24295     24291     24294     24296
     24291     24294     24297     24292     24291     24293     24292     24291     24294
     24293     24291     24294     24294     24297     24298     24294     24297     24299
     24294     24297     24300     24295     24294     24296     24295     24294     24297
     24296     24294     24297     24298     24297     24299     24298     24297     24300
     24299     24297     24300     24301     24305     24306     24301     24305     24307
     24301     24305     24308     24302     24301     24303     24302     24301     24304
     24302     24301     24305     24303     24301     24304     24303     24301     24305
     24304     24301     24305     24305     24308     24309     24305     24308     24310
     24305     24308     24315     24306     24305     24307     24306     24305     24308
     24307     24305     24308     24308     24315     24311     24309     24308     24310
     24309     24308     24315     24310     24308     24315     24311     24314     24316
     24312     24311     24313     24312     24311     24314     24312     24311     24315
     24313     24311     24314     24313     24311     24315     24314     24311     24315
     24314     24316     24317     24314     24316     24318     24314     24316     24319
     24316     24319     24320     24316     24319     24321     24316     24319     24327
     24317     24316     24318     24317     24316     24319     24318     24316     24319
     24319     24321     24322     24319     24327     24328     24319     24327     24329
     24319     24327     24330     24320     24319     24321     24320     24319     24327
     24321     24319     24327     24321     24322     24323     24321     24322     24324
     24322     24324     24325     24322     24324     24326     24322     24324     24336
     24323     24322     24324     24324     24336     24337     24324     24336     24338
     24324     24336     24339     24325     24324     24326     24325     24324     24336
     24326     24324     24336     24327     24330     24331     24328     24327     24329
     24328     24327     24330     24329     24327     24330     24330     24331     24332
     24330     24331     24333     24331     24333     24334     24331     24333     24335
     24331     24333     24380     24332     24331     24333     24333     24380     24381
     24333     24380     24382     24333     24380     24383     24334     24333     24335
     24334     24333     24380     24335     24333     24380     24336     24339     24340
     24336     24339     24341     24336     24339     24342     24337     24336     24338
     24337     24336     24339     24338     24336     24339     24339     24342     24343
     24339     24342     24344     24339     24342     24345     24340     24339     24341
     24340     24339     24342     24341     24339     24342     24342     24345     24346
     24342     24345     24347     24342     24345     24348     24343     24342     24344
     24343     24342     24345     24344     24342     24345     24345     24348     24349
     24345     24348     24350     24345     24348     24351     24346     24345     24347
     24346     24345     24348     24347     24345     24348     24348     24351     24352
     24348     24351     24353     24348     24351     24354     24349     24348     24350
     24349     24348     24351     24350     24348     24351     24351     24354     24355
     24351     24354     24356     24351     24354     24359     24352     24351     24353
     24352     24351     24354     24353     24351     24354     24354     24356     24357
     24354     24356     24358     24354     24356     24359     24354     24359     24356
     24354     24359     24360     24354     24359     24361     24355     24354     24356
     24355     24354     24359     24356     24354     24359     24356     24359     24360
     24356     24359     24361     24357     24356     24358     24357     24356     24359
     24358     24356     24359     24359     24361     24362     24359     24361     24363
     24359     24361     24364     24360     24359     24361     24361     24364     24365
     24361     24364     24366     24361     24364     24367     24362     24361     24363
     24362     24361     24364     24363     24361     24364     24364     24367     24368
     24364     24367     24369     24364     24367     24370     24365     24364     24366
     24365     24364     24367     24366     24364     24367     24367     24370     24371
     24367     24370     24372     24367     24370     24373     24368     24367     24369
     24368     24367     24370     24369     24367     24370     24370     24373     24374
     24370     24373     24375     24370     24373     24376     24371     24370     24372
     24371     24370     24373     24372     24370     24373     24373     24376     24377
     24373     24376     24378     24373     24376     24379     24374     24373     24375
     24374     24373     24376     24375     24373     24376     24377     24376     24378
     24377     24376     24379     24378     24376     24379     24380     24383     24384
     24380     24383     24385     24380     24383     24386     24381     24380     24382
     24381     24380     24383     24382     24380     24383     24383     24386     24387
     24383     24386     24388     24383     24386     24389     24384     24383     24385
     24384     24383     24386     24385     24383     24386     24386     24389     24390
     24386     24389     24391     24386     24389     24392     24387     24386     24388
     24387     24386     24389     24388     24386     24389     24389     24392     24393
     24389     24392     24394     24389     24392     24395     24390     24389     24391
     24390     24389     24392     24391     24389     24392     24392     24395     24396
     24392     24395     24397     24392     24395     24398     24393     24392     24394
     24393     24392     24395     24394     24392     24395     24395     24398     24399
     24395     24398     24400     24395     24398     24401     24396     24395     24397
     24396     24395     24398     24397     24395     24398     24398     24401     24402
     24398     24401     24403     24398     24401     24404     24399     24398     24400
     24399     24398     24401     24400     24398     24401     24401     24404     24405
     24401     24404     24406     24401     24404     24407     24402     24401     24403
     24402     24401     24404     24403     24401     24404     24404     24407     24408
     24404     24407     24409     24404     24407     24410     24405     24404     24406
     24405     24404     24407     24406     24404     24407     24407     24410     24411
     24407     24410     24412     24407     24410     24413     24408     24407     24409
     24408     24407     24410     24409     24407     24410     24410     24413     24414
     24410     24413     24415     24410     24413     24416     24411     24410     24412
     24411     24410     24413     24412     24410     24413     24413     24416     24417
     24413     24416     24418     24413     24416     24419     24414     24413     24415
     24414     24413     24416     24415     24413     24416     24416     24419     24420
     24416     24419     24421     24416     24419     24422     24417     24416     24418
     24417     24416     24419     24418     24416     24419     24420     24419     24421
     24420     24419     24422     24421     24419     24422     24423     24427     24428
     24423     24427     24429     24423     24427     24430     24424     24423     24425
     24424     24423     24426     24424     24423     24427     24425     24423     24426
     24425     24423     24427     24426     24423     24427     24427     24430     24431
     24427     24430     24432     24427     24430     24437     24428     24427     24429
     24428     24427     24430     24429     24427     24430     24430     24437     24433
     24431     24430     24432     24431     24430     24437     24432     24430     24437
     24433     24436     24438     24434     24433     24435     24434     24433     24436
     24434     24433     24437     24435     24433     24436     24435     24433     24437
     24436     24433     24437     24436     24438     24439     24436     24438     24440
     24436     24438     24441     24438     24441     24442     24438     24441     24443
     24438     24441     24449     24439     24438     24440     24439     24438     24441
     24440     24438     24441     24441     24443     24444     24441     24449     24450
     24441     24449     24451     24441     24449     24452     24442     24441     24443
     24442     24441     24449     24443     24441     24449     24443     24444     24445
     24443     24444     24446     24444     24446     24447     24444     24446     24448
     24444     24446     24458     24445     24444     24446     24446     24458     24459
     24446     24458     24460     24446     24458     24461     24447     24446     24448
     24447     24446     24458     24448     24446     24458     24449     24452     24453
     24450     24449     24451     24450     24449     24452     24451     24449     24452
     24452     24453     24454     24452     24453     24455     24453     24455     24456
     24453     24455     24457     24453     24455     24505     24454     24453     24455
     24455     24505     24506     24455     24505     24507     24455     24505     24508
     24456     24455     24457     24456     24455     24505     24457     24455     24505
     24458     24461     24462     24458     24461     24463     24458     24461     24464
     24459     24458     24460     24459     24458     24461     24460     24458     24461
     24461     24464     24465     24461     24464     24466     24461     24464     24467
     24462     24461     24463     24462     24461     24464     24463     24461     24464
     24464     24467     24468     24464     24467     24469     24464     24467     24470
     24465     24464     24466     24465     24464     24467     24466     24464     24467
     24467     24470     24471     24467     24470     24472     24467     24470     24473
     24468     24467     24469     24468     24467     24470     24469     24467     24470
     24470     24473     24474     24470     24473     24475     24470     24473     24476
     24471     24470     24472     24471     24470     24473     24472     24470     24473
     24473     24476     24477     24473     24476     24478     24474     24473     24475
     24474     24473     24476     24475     24473     24476     24476     24478     24479
     24476     24478     24480     24477     24476     24478     24478     24480     24481
     24478     24480     24482     24478     24480     24483     24479     24478     24480
     24480     24483     24484     24480     24483     24485     24480     24483     24486
     24481     24480     24482     24481     24480     24483     24482     24480     24483
     24483     24486     24487     24483     24486     24488     24483     24486     24489
     24484     24483     24485     24484     24483     24486     24485     24483     24486
     24486     24489     24490     24486     24489     24491     24486     24489     24492
     24487     24486     24488     24487     24486     24489     24488     24486     24489
     24489     24492     24493     24489     24492     24494     24489     24492     24495
     24490     24489     24491     24490     24489     24492     24491     24489     24492
     24492     24495     24496     24492     24495     24497     24492     24495     24498
     24493     24492     24494     24493     24492     24495     24494     24492     24495
     24495     24498     24499     24495     24498     24500     24495     24498     24501
     24496     24495     24497     24496     24495     24498     24497     24495     24498
     24498     24501     24502     24498     24501     24503     24498     24501     24504
     24499     24498     24500     24499     24498     24501     24500     24498     24501
     24502     24501     24503     24502     24501     24504     24503     24501     24504
     24505     24508     24509     24505     24508     24510     24505     24508     24511
     24506     24505     24507     24506     24505     24508     24507     24505     24508
     24508     24511     24512     24508     24511     24513     24508     24511     24514
     24509     24508     24510     24509     24508     24511     24510     24508     24511
     24511     24514     24515     24511     24514     24516     24511     24514     24517
     24512     24511     24513     24512     24511     24514     24513     24511     24514
     24514     24517     24518     24514     24517     24519     24514     24517     24520
     24515     24514     24516     24515     24514     24517     24516     24514     24517
     24517     24520     24521     24517     24520     24522     24517     24520     24523
     24518     24517     24519     24518     24517     24520     24519     24517     24520
     24520     24523     24524     24520     24523     24525     24520     24523     24526
     24521     24520     24522     24521     24520     24523     24522     24520     24523
     24523     24526     24527     24523     24526     24528     24523     24526     24529
     24524     24523     24525     24524     24523     24526     24525     24523     24526
     24526     24529     24530     24526     24529     24531     24526     24529     24532
     24527     24526     24528     24527     24526     24529     24528     24526     24529
     24529     24532     24533     24529     24532     24534     24529     24532     24535
     24530     24529     24531     24530     24529     24532     24531     24529     24532
     24532     24535     24536     24532     24535     24537     24532     24535     24538
     24533     24532     24534     24533     24532     24535     24534     24532     24535
     24535     24538     24539     24535     24538     24540     24535     24538     24541
     24536     24535     24537     24536     24535     24538     24537     24535     24538
     24538     24541     24542     24538     24541     24543     24538     24541     24544
     24539     24538     24540     24539     24538     24541     24540     24538     24541
     24541     24544     24545     24541     24544     24546     24541     24544     24547
     24542     24541     24543     24542     24541     24544     24543     24541     24544
     24545     24544     24546     24545     24544     24547     24546     24544     24547
     24548     24552     24553     24548     24552     24554     24548     24552     24555
     24549     24548     24550     24549     24548     24551     24549     24548     24552
     24550     24548     24551     24550     24548     24552     24551     24548     24552
     24552     24555     24556     24552     24555     24557     24552     24555     24562
     24553     24552     24554     24553     24552     24555     24554     24552     24555
     24555     24562     24558     24556     24555     24557     24556     24555     24562
     24557     24555     24562     24558     24561     24563     24559     24558     24560
     24559     24558     24561     24559     24558     24562     24560     24558     24561
     24560     24558     24562     24561     24558     24562     24561     24563     24564
     24561     24563     24565     24561     24563     24566     24563     24566     24567
     24563     24566     24568     24563     24566     24574     24564     24563     24565
     24564     24563     24566     24565     24563     24566     24566     24568     24569
     24566     24574     24575     24566     24574     24576     24566     24574     24577
     24567     24566     24568     24567     24566     24574     24568     24566     24574
     24568     24569     24570     24568     24569     24571     24569     24571     24572
     24569     24571     24573     24569     24571     24583     24570     24569     24571
     24571     24583     24584     24571     24583     24585     24571     24583     24586
     24572     24571     24573     24572     24571     24583     24573     24571     24583
     24574     24577     24578     24575     24574     24576     24575     24574     24577
     24576     24574     24577     24577     24578     24579     24577     24578     24580
     24578     24580     24581     24578     24580     24582     24578     24580     24630
     24579     24578     24580     24580     24630     24631     24580     24630     24632
     24580     24630     24633     24581     24580     24582     24581     24580     24630
     24582     24580     24630     24583     24586     24587     24583     24586     24588
     24583     24586     24589     24584     24583     24585     24584     24583     24586
     24585     24583     24586     24586     24589     24590     24586     24589     24591
     24586     24589     24592     24587     24586     24588     24587     24586     24589
     24588     24586     24589     24589     24592     24593     24589     24592     24594
     24589     24592     24595     24590     24589     24591     24590     24589     24592
     24591     24589     24592     24592     24595     24596     24592     24595     24597
     24592     24595     24598     24593     24592     24594     24593     24592     24595
     24594     24592     24595     24595     24598     24599     24595     24598     24600
     24595     24598     24601     24596     24595     24597     24596     24595     24598
     24597     24595     24598     24598     24601     24602     24598     24601     24603
     24599     24598     24600     24599     24598     24601     24600     24598     24601
     24601     24603     24604     24601     24603     24605     24602     24601     24603
     24603     24605     24606     24603     24605     24607     24603     24605     24608
     24604     24603     24605     24605     24608     24609     24605     24608     24610
     24605     24608     24611     24606     24605     24607     24606     24605     24608
     24607     24605     24608     24608     24611     24612     24608     24611     24613
     24608     24611     24614     24609     24608     24610     24609     24608     24611
     24610     24608     24611     24611     24614     24615     24611     24614     24616
     24611     24614     24617     24612     24611     24613     24612     24611     24614
     24613     24611     24614     24614     24617     24618     24614     24617     24619
     24614     24617     24620     24615     24614     24616     24615     24614     24617
     24616     24614     24617     24617     24620     24621     24617     24620     24622
     24617     24620     24623     24618     24617     24619     24618     24617     24620
     24619     24617     24620     24620     24623     24624     24620     24623     24625
     24620     24623     24626     24621     24620     24622     24621     24620     24623
     24622     24620     24623     24623     24626     24627     24623     24626     24628
     24623     24626     24629     24624     24623     24625     24624     24623     24626
     24625     24623     24626     24627     24626     24628     24627     24626     24629
     24628     24626     24629     24630     24633     24634     24630     24633     24635
     24630     24633     24636     24631     24630     24632     24631     24630     24633
     24632     24630     24633     24633     24636     24637     24633     24636     24638
     24633     24636     24639     24634     24633     24635     24634     24633     24636
     24635     24633     24636     24636     24639     24640     24636     24639     24641
     24636     24639     24642     24637     24636     24638     24637     24636     24639
     24638     24636     24639     24639     24642     24643     24639     24642     24644
     24639     24642     24645     24640     24639     24641     24640     24639     24642
     24641     24639     24642     24642     24645     24646     24642     24645     24647
     24642     24645     24648     24643     24642     24644     24643     24642     24645
     24644     24642     24645     24645     24648     24649     24645     24648     24650
     24645     24648     24651     24646     24645     24647     24646     24645     24648
     24647     24645     24648     24648     24651     24652     24648     24651     24653
     24648     24651     24654     24649     24648     24650     24649     24648     24651
     24650     24648     24651     24651     24654     24655     24651     24654     24656
     24651     24654     24657     24652     24651     24653     24652     24651     24654
     24653     24651     24654     24654     24657     24658     24654     24657     24659
     24654     24657     24660     24655     24654     24656     24655     24654     24657
     24656     24654     24657     24657     24660     24661     24657     24660     24662
     24657     24660     24663     24658     24657     24659     24658     24657     24660
     24659     24657     24660     24660     24663     24664     24660     24663     24665
     24660     24663     24666     24661     24660     24662     24661     24660     24663
     24662     24660     24663     24663     24666     24667     24663     24666     24668
     24663     24666     24669     24664     24663     24665     24664     24663     24666
     24665     24663     24666     24666     24669     24670     24666     24669     24671
     24666     24669     24672     24667     24666     24668     24667     24666     24669
     24668     24666     24669     24670     24669     24671     24670     24669     24672
     24671     24669     24672     24673     24677     24678     24673     24677     24679
     24673     24677     24680     24674     24673     24675     24674     24673     24676
     24674     24673     24677     24675     24673     24676     24675     24673     24677
     24676     24673     24677     24677     24680     24681     24677     24680     24682
     24677     24680     24687     24678     24677     24679     24678     24677     24680
     24679     24677     24680     24680     24687     24683     24681     24680     24682
     24681     24680     24687     24682     24680     24687     24683     24686     24688
     24684     24683     24685     24684     24683     24686     24684     24683     24687
     24685     24683     24686     24685     24683     24687     24686     24683     24687
     24686     24688     24689     24686     24688     24690     24686     24688     24691
     24688     24691     24692     24688     24691     24693     24688     24691     24699
     24689     24688     24690     24689     24688     24691     24690     24688     24691
     24691     24693     24694     24691     24699     24700     24691     24699     24701
     24691     24699     24702     24692     24691     24693     24692     24691     24699
     24693     24691     24699     24693     24694     24695     24693     24694     24696
     24694     24696     24697     24694     24696     24698     24694     24696     24708
     24695     24694     24696     24696     24708     24709     24696     24708     24710
     24696     24708     24711     24697     24696     24698     24697     24696     24708
     24698     24696     24708     24699     24702     24703     24700     24699     24701
     24700     24699     24702     24701     24699     24702     24702     24703     24704
     24702     24703     24705     24703     24705     24706     24703     24705     24707
     24703     24705     24749     24704     24703     24705     24705     24749     24750
     24705     24749     24751     24705     24749     24752     24706     24705     24707
     24706     24705     24749     24707     24705     24749     24708     24711     24712
     24708     24711     24713     24708     24711     24714     24709     24708     24710
     24709     24708     24711     24710     24708     24711     24711     24714     24715
     24711     24714     24716     24711     24714     24717     24712     24711     24713
     24712     24711     24714     24713     24711     24714     24714     24717     24718
     24714     24717     24719     24714     24717     24720     24715     24714     24716
     24715     24714     24717     24716     24714     24717     24717     24720     24721
     24717     24720     24722     24717     24720     24723     24718     24717     24719
     24718     24717     24720     24719     24717     24720     24720     24723     24724
     24720     24723     24725     24720     24723     24726     24721     24720     24722
     24721     24720     24723     24722     24720     24723     24723     24726     24727
     24723     24726     24728     24724     24723     24725     24724     24723     24726
     24725     24723     24726     24726     24728     24729     24726     24728     24730
     24727     24726     24728     24728     24730     24731     24728     24730     24732
     24728     24730     24733     24729     24728     24730     24730     24733     24734
     24730     24733     24735     24730     24733     24736     24731     24730     24732
     24731     24730     24733     24732     24730     24733     24733     24736     24737
     24733     24736     24738     24733     24736     24739     24734     24733     24735
     24734     24733     24736     24735     24733     24736     24736     24739     24740
     24736     24739     24741     24736     24739     24742     24737     24736     24738
     24737     24736     24739     24738     24736     24739     24739     24742     24743
     24739     24742     24744     24739     24742     24745     24740     24739     24741
     24740     24739     24742     24741     24739     24742     24742     24745     24746
     24742     24745     24747     24742     24745     24748     24743     24742     24744
     24743     24742     24745     24744     24742     24745     24746     24745     24747
     24746     24745     24748     24747     24745     24748     24749     24752     24753
     24749     24752     24754     24749     24752     24755     24750     24749     24751
     24750     24749     24752     24751     24749     24752     24752     24755     24756
     24752     24755     24757     24752     24755     24758     24753     24752     24754
     24753     24752     24755     24754     24752     24755     24755     24758     24759
     24755     24758     24760     24755     24758     24761     24756     24755     24757
     24756     24755     24758     24757     24755     24758     24758     24761     24762
     24758     24761     24763     24758     24761     24764     24759     24758     24760
     24759     24758     24761     24760     24758     24761     24761     24764     24765
     24761     24764     24766     24761     24764     24767     24762     24761     24763
     24762     24761     24764     24763     24761     24764     24764     24767     24768
     24764     24767     24769     24765     24764     24766     24765     24764     24767
     24766     24764     24767     24767     24769     24770     24767     24769     24771
     24768     24767     24769     24769     24771     24772     24769     24771     24773
     24769     24771     24774     24770     24769     24771     24771     24774     24775
     24771     24774     24776     24771     24774     24777     24772     24771     24773
     24772     24771     24774     24773     24771     24774     24774     24777     24778
     24774     24777     24779     24774     24777     24780     24775     24774     24776
     24775     24774     24777     24776     24774     24777     24777     24780     24781
     24777     24780     24782     24777     24780     24783     24778     24777     24779
     24778     24777     24780     24779     24777     24780     24780     24783     24784
     24780     24783     24785     24780     24783     24786     24781     24780     24782
     24781     24780     24783     24782     24780     24783     24783     24786     24787
     24783     24786     24788     24783     24786     24789     24784     24783     24785
     24784     24783     24786     24785     24783     24786     24786     24789     24790
     24786     24789     24791     24786     24789     24792     24787     24786     24788
     24787     24786     24789     24788     24786     24789     24789     24792     24793
     24789     24792     24794     24789     24792     24795     24790     24789     24791
     24790     24789     24792     24791     24789     24792     24793     24792     24794
     24793     24792     24795     24794     24792     24795     24796     24799     24800
     24796     24801     24802     24796     24801     24803     24796     24801     24805
     24797     24796     24798     24797     24796     24799     24797     24796     24801
     24798     24796     24799     24798     24796     24801     24799     24796     24801
     24801     24803     24804     24801     24805     24806     24801     24805     24807
     24801     24805     24812     24802     24801     24803     24802     24801     24805
     24803     24801     24805     24805     24812     24808     24806     24805     24807
     24806     24805     24812     24807     24805     24812     24808     24811     24813
     24809     24808     24810     24809     24808     24811     24809     24808     24812
     24810     24808     24811     24810     24808     24812     24811     24808     24812
     24811     24813     24814     24811     24813     24815     24811     24813     24816
     24813     24816     24817     24813     24816     24818     24813     24816     24824
     24814     24813     24815     24814     24813     24816     24815     24813     24816
     24816     24818     24819     24816     24824     24825     24816     24824     24826
     24816     24824     24827     24817     24816     24818     24817     24816     24824
     24818     24816     24824     24818     24819     24820     24818     24819     24821
     24819     24821     24822     24819     24821     24823     24819     24821     24833
     24820     24819     24821     24821     24833     24834     24821     24833     24835
     24821     24833     24836     24822     24821     24823     24822     24821     24833
     24823     24821     24833     24824     24827     24828     24825     24824     24826
     24825     24824     24827     24826     24824     24827     24827     24828     24829
     24827     24828     24830     24828     24830     24831     24828     24830     24832
     24828     24830     24874     24829     24828     24830     24830     24874     24875
     24830     24874     24876     24830     24874     24877     24831     24830     24832
     24831     24830     24874     24832     24830     24874     24833     24836     24837
     24833     24836     24838     24833     24836     24839     24834     24833     24835
     24834     24833     24836     24835     24833     24836     24836     24839     24840
     24836     24839     24841     24836     24839     24842     24837     24836     24838
     24837     24836     24839     24838     24836     24839     24839     24842     24843
     24839     24842     24844     24839     24842     24845     24840     24839     24841
     24840     24839     24842     24841     24839     24842     24842     24845     24846
     24842     24845     24847     24842     24845     24848     24843     24842     24844
     24843     24842     24845     24844     24842     24845     24845     24848     24849
     24845     24848     24850     24845     24848     24851     24846     24845     24847
     24846     24845     24848     24847     24845     24848     24848     24851     24852
     24848     24851     24853     24849     24848     24850     24849     24848     24851
     24850     24848     24851     24851     24853     24854     24851     24853     24855
     24852     24851     24853     24853     24855     24856     24853     24855     24857
     24853     24855     24858     24854     24853     24855     24855     24858     24859
     24855     24858     24860     24855     24858     24861     24856     24855     24857
     24856     24855     24858     24857     24855     24858     24858     24861     24862
     24858     24861     24863     24858     24861     24864     24859     24858     24860
     24859     24858     24861     24860     24858     24861     24861     24864     24865
     24861     24864     24866     24861     24864     24867     24862     24861     24863
     24862     24861     24864     24863     24861     24864     24864     24867     24868
     24864     24867     24869     24864     24867     24870     24865     24864     24866
     24865     24864     24867     24866     24864     24867     24867     24870     24871
     24867     24870     24872     24867     24870     24873     24868     24867     24869
     24868     24867     24870     24869     24867     24870     24871     24870     24872
     24871     24870     24873     24872     24870     24873     24874     24877     24878
     24874     24877     24879     24874     24877     24880     24875     24874     24876
     24875     24874     24877     24876     24874     24877     24877     24880     24881
     24877     24880     24882     24877     24880     24883     24878     24877     24879
     24878     24877     24880     24879     24877     24880     24880     24883     24884
     24880     24883     24885     24880     24883     24886     24881     24880     24882
     24881     24880     24883     24882     24880     24883     24883     24886     24887
     24883     24886     24888     24883     24886     24889     24884     24883     24885
     24884     24883     24886     24885     24883     24886     24886     24889     24890
     24886     24889     24891     24886     24889     24892     24887     24886     24888
     24887     24886     24889     24888     24886     24889     24889     24892     24893
     24889     24892     24894     24889     24892     24895     24890     24889     24891
     24890     24889     24892     24891     24889     24892     24892     24895     24896
     24892     24895     24897     24892     24895     24898     24893     24892     24894
     24893     24892     24895     24894     24892     24895     24895     24898     24899
     24895     24898     24900     24895     24898     24901     24896     24895     24897
     24896     24895     24898     24897     24895     24898     24898     24901     24902
     24898     24901     24903     24898     24901     24904     24899     24898     24900
     24899     24898     24901     24900     24898     24901     24901     24904     24905
     24901     24904     24906     24901     24904     24907     24902     24901     24903
     24902     24901     24904     24903     24901     24904     24904     24907     24908
     24904     24907     24909     24904     24907     24910     24905     24904     24906
     24905     24904     24907     24906     24904     24907     24907     24910     24911
     24907     24910     24912     24907     24910     24913     24908     24907     24909
     24908     24907     24910     24909     24907     24910     24910     24913     24914
     24910     24913     24915     24910     24913     24916     24911     24910     24912
     24911     24910     24913     24912     24910     24913     24914     24913     24915
     24914     24913     24916     24915     24913     24916     24917     24920     24921
     24917     24922     24923     24917     24922     24924     24917     24922     24926
     24918     24917     24919     24918     24917     24920     24918     24917     24922
     24919     24917     24920     24919     24917     24922     24920     24917     24922
     24922     24924     24925     24922     24926     24927     24922     24926     24928
     24922     24926     24933     24923     24922     24924     24923     24922     24926
     24924     24922     24926     24926     24933     24929     24927     24926     24928
     24927     24926     24933     24928     24926     24933     24929     24932     24934
     24930     24929     24931     24930     24929     24932     24930     24929     24933
     24931     24929     24932     24931     24929     24933     24932     24929     24933
     24932     24934     24935     24932     24934     24936     24932     24934     24937
     24934     24937     24938     24934     24937     24939     24934     24937     24945
     24935     24934     24936     24935     24934     24937     24936     24934     24937
     24937     24939     24940     24937     24945     24946     24937     24945     24947
     24937     24945     24948     24938     24937     24939     24938     24937     24945
     24939     24937     24945     24939     24940     24941     24939     24940     24942
     24940     24942     24943     24940     24942     24944     24940     24942     24954
     24941     24940     24942     24942     24954     24955     24942     24954     24956
     24942     24954     24957     24943     24942     24944     24943     24942     24954
     24944     24942     24954     24945     24948     24949     24946     24945     24947
     24946     24945     24948     24947     24945     24948     24948     24949     24950
     24948     24949     24951     24949     24951     24952     24949     24951     24953
     24949     24951     24998     24950     24949     24951     24951     24998     24999
     24951     24998     25000     24951     24998     25001     24952     24951     24953
     24952     24951     24998     24953     24951     24998     24954     24957     24958
     24954     24957     24959     24954     24957     24960     24955     24954     24956
     24955     24954     24957     24956     24954     24957     24957     24960     24961
     24957     24960     24962     24957     24960     24963     24958     24957     24959
     24958     24957     24960     24959     24957     24960     24960     24963     24964
     24960     24963     24965     24960     24963     24966     24961     24960     24962
     24961     24960     24963     24962     24960     24963     24963     24966     24967
     24963     24966     24968     24963     24966     24969     24964     24963     24965
     24964     24963     24966     24965     24963     24966     24966     24969     24970
     24966     24969     24971     24966     24969     24972     24967     24966     24968
     24967     24966     24969     24968     24966     24969     24969     24972     24973
     24969     24972     24974     24969     24972     24977     24970     24969     24971
     24970     24969     24972     24971     24969     24972     24972     24974     24975
     24972     24974     24976     24972     24974     24977     24972     24977     24974
     24972     24977     24978     24972     24977     24979     24973     24972     24974
     24973     24972     24977     24974     24972     24977     24974     24977     24978
     24974     24977     24979     24975     24974     24976     24975     24974     24977
     24976     24974     24977     24977     24979     24980     24977     24979     24981
     24977     24979     24982     24978     24977     24979     24979     24982     24983
     24979     24982     24984     24979     24982     24985     24980     24979     24981
     24980     24979     24982     24981     24979     24982     24982     24985     24986
     24982     24985     24987     24982     24985     24988     24983     24982     24984
     24983     24982     24985     24984     24982     24985     24985     24988     24989
     24985     24988     24990     24985     24988     24991     24986     24985     24987
     24986     24985     24988     24987     24985     24988     24988     24991     24992
     24988     24991     24993     24988     24991     24994     24989     24988     24990
     24989     24988     24991     24990     24988     24991     24991     24994     24995
     24991     24994     24996     24991     24994     24997     24992     24991     24993
     24992     24991     24994     24993     24991     24994     24995     24994     24996
     24995     24994     24997     24996     24994     24997     24998     25001     25002
     24998     25001     25003     24998     25001     25004     24999     24998     25000
     24999     24998     25001     25000     24998     25001     25001     25004     25005
     25001     25004     25006     25001     25004     25007     25002     25001     25003
     25002     25001     25004     25003     25001     25004     25004     25007     25008
     25004     25007     25009     25004     25007     25010     25005     25004     25006
     25005     25004     25007     25006     25004     25007     25007     25010     25011
     25007     25010     25012     25007     25010     25013     25008     25007     25009
     25008     25007     25010     25009     25007     25010     25010     25013     25014
     25010     25013     25015     25010     25013     25016     25011     25010     25012
     25011     25010     25013     25012     25010     25013     25013     25016     25017
     25013     25016     25018     25013     25016     25019     25014     25013     25015
     25014     25013     25016     25015     25013     25016     25016     25019     25020
     25016     25019     25021     25016     25019     25022     25017     25016     25018
     25017     25016     25019     25018     25016     25019     25019     25022     25023
     25019     25022     25024     25019     25022     25025     25020     25019     25021
     25020     25019     25022     25021     25019     25022     25022     25025     25026
     25022     25025     25027     25022     25025     25028     25023     25022     25024
     25023     25022     25025     25024     25022     25025     25025     25028     25029
     25025     25028     25030     25025     25028     25031     25026     25025     25027
     25026     25025     25028     25027     25025     25028     25028     25031     25032
     25028     25031     25033     25028     25031     25034     25029     25028     25030
     25029     25028     25031     25030     25028     25031     25031     25034     25035
     25031     25034     25036     25031     25034     25037     25032     25031     25033
     25032     25031     25034     25033     25031     25034     25034     25037     25038
     25034     25037     25039     25034     25037     25040     25035     25034     25036
     25035     25034     25037     25036     25034     25037     25038     25037     25039
     25038     25037     25040     25039     25037     25040     25041     25045     25046
     25041     25045     25047     25041     25045     25048     25042     25041     25043
     25042     25041     25044     25042     25041     25045     25043     25041     25044
     25043     25041     25045     25044     25041     25045     25045     25048     25049
     25045     25048     25050     25045     25048     25055     25046     25045     25047
     25046     25045     25048     25047     25045     25048     25048     25055     25051
     25049     25048     25050     25049     25048     25055     25050     25048     25055
     25051     25054     25056     25052     25051     25053     25052     25051     25054
     25052     25051     25055     25053     25051     25054     25053     25051     25055
     25054     25051     25055     25054     25056     25057     25054     25056     25058
     25054     25056     25059     25056     25059     25060     25056     25059     25061
     25056     25059     25067     25057     25056     25058     25057     25056     25059
     25058     25056     25059     25059     25061     25062     25059     25067     25068
     25059     25067     25069     25059     25067     25070     25060     25059     25061
     25060     25059     25067     25061     25059     25067     25061     25062     25063
     25061     25062     25064     25062     25064     25065     25062     25064     25066
     25062     25064     25076     25063     25062     25064     25064     25076     25077
     25064     25076     25078     25064     25076     25079     25065     25064     25066
     25065     25064     25076     25066     25064     25076     25067     25070     25071
     25068     25067     25069     25068     25067     25070     25069     25067     25070
     25070     25071     25072     25070     25071     25073     25071     25073     25074
     25071     25073     25075     25071     25073     25117     25072     25071     25073
     25073     25117     25118     25073     25117     25119     25073     25117     25120
     25074     25073     25075     25074     25073     25117     25075     25073     25117
     25076     25079     25080     25076     25079     25081     25076     25079     25082
     25077     25076     25078     25077     25076     25079     25078     25076     25079
     25079     25082     25083     25079     25082     25084     25079     25082     25085
     25080     25079     25081     25080     25079     25082     25081     25079     25082
     25082     25085     25086     25082     25085     25087     25082     25085     25088
     25083     25082     25084     25083     25082     25085     25084     25082     25085
     25085     25088     25089     25085     25088     25090     25085     25088     25091
     25086     25085     25087     25086     25085     25088     25087     25085     25088
     25088     25091     25092     25088     25091     25093     25088     25091     25094
     25089     25088     25090     25089     25088     25091     25090     25088     25091
     25091     25094     25095     25091     25094     25096     25092     25091     25093
     25092     25091     25094     25093     25091     25094     25094     25096     25097
     25094     25096     25098     25095     25094     25096     25096     25098     25099
     25096     25098     25100     25096     25098     25101     25097     25096     25098
     25098     25101     25102     25098     25101     25103     25098     25101     25104
     25099     25098     25100     25099     25098     25101     25100     25098     25101
     25101     25104     25105     25101     25104     25106     25101     25104     25107
     25102     25101     25103     25102     25101     25104     25103     25101     25104
     25104     25107     25108     25104     25107     25109     25104     25107     25110
     25105     25104     25106     25105     25104     25107     25106     25104     25107
     25107     25110     25111     25107     25110     25112     25107     25110     25113
     25108     25107     25109     25108     25107     25110     25109     25107     25110
     25110     25113     25114     25110     25113     25115     25110     25113     25116
     25111     25110     25112     25111     25110     25113     25112     25110     25113
     25114     25113     25115     25114     25113     25116     25115     25113     25116
     25117     25120     25121     25117     25120     25122     25117     25120     25123
     25118     25117     25119     25118     25117     25120     25119     25117     25120
     25120     25123     25124     25120     25123     25125     25120     25123     25126
     25121     25120     25122     25121     25120     25123     25122     25120     25123
     25123     25126     25127     25123     25126     25128     25123     25126     25129
     25124     25123     25125     25124     25123     25126     25125     25123     25126
     25126     25129     25130     25126     25129     25131     25126     25129     25132
     25127     25126     25128     25127     25126     25129     25128     25126     25129
     25129     25132     25133     25129     25132     25134     25129     25132     25135
     25130     25129     25131     25130     25129     25132     25131     25129     25132
     25132     25135     25136     25132     25135     25137     25133     25132     25134
     25133     25132     25135     25134     25132     25135     25135     25137     25138
     25135     25137     25139     25136     25135     25137     25137     25139     25140
     25137     25139     25141     25137     25139     25142     25138     25137     25139
     25139     25142     25143     25139     25142     25144     25139     25142     25145
     25140     25139     25141     25140     25139     25142     25141     25139     25142
     25142     25145     25146     25142     25145     25147     25142     25145     25148
     25143     25142     25144     25143     25142     25145     25144     25142     25145
     25145     25148     25149     25145     25148     25150     25145     25148     25151
     25146     25145     25147     25146     25145     25148     25147     25145     25148
     25148     25151     25152     25148     25151     25153     25148     25151     25154
     25149     25148     25150     25149     25148     25151     25150     25148     25151
     25151     25154     25155     25151     25154     25156     25151     25154     25157
     25152     25151     25153     25152     25151     25154     25153     25151     25154
     25154     25157     25158     25154     25157     25159     25154     25157     25160
     25155     25154     25156     25155     25154     25157     25156     25154     25157
     25157     25160     25161     25157     25160     25162     25157     25160     25163
     25158     25157     25159     25158     25157     25160     25159     25157     25160
     25161     25160     25162     25161     25160     25163     25162     25160     25163
     25164     25168     25169     25164     25168     25170     25164     25168     25171
     25165     25164     25166     25165     25164     25167     25165     25164     25168
     25166     25164     25167     25166     25164     25168     25167     25164     25168
     25168     25171     25172     25168     25171     25173     25168     25171     25178
     25169     25168     25170     25169     25168     25171     25170     25168     25171
     25171     25178     25174     25172     25171     25173     25172     25171     25178
     25173     25171     25178     25174     25177     25179     25175     25174     25176
     25175     25174     25177     25175     25174     25178     25176     25174     25177
     25176     25174     25178     25177     25174     25178     25177     25179     25180
     25177     25179     25181     25177     25179     25182     25179     25182     25183
     25179     25182     25184     25179     25182     25190     25180     25179     25181
     25180     25179     25182     25181     25179     25182     25182     25184     25185
     25182     25190     25191     25182     25190     25192     25182     25190     25193
     25183     25182     25184     25183     25182     25190     25184     25182     25190
     25184     25185     25186     25184     25185     25187     25185     25187     25188
     25185     25187     25189     25185     25187     25199     25186     25185     25187
     25187     25199     25200     25187     25199     25201     25187     25199     25202
     25188     25187     25189     25188     25187     25199     25189     25187     25199
     25190     25193     25194     25191     25190     25192     25191     25190     25193
     25192     25190     25193     25193     25194     25195     25193     25194     25196
     25194     25196     25197     25194     25196     25198     25194     25196     25243
     25195     25194     25196     25196     25243     25244     25196     25243     25245
     25196     25243     25246     25197     25196     25198     25197     25196     25243
     25198     25196     25243     25199     25202     25203     25199     25202     25204
     25199     25202     25205     25200     25199     25201     25200     25199     25202
     25201     25199     25202     25202     25205     25206     25202     25205     25207
     25202     25205     25208     25203     25202     25204     25203     25202     25205
     25204     25202     25205     25205     25208     25209     25205     25208     25210
     25205     25208     25211     25206     25205     25207     25206     25205     25208
     25207     25205     25208     25208     25211     25212     25208     25211     25213
     25208     25211     25214     25209     25208     25210     25209     25208     25211
     25210     25208     25211     25211     25214     25215     25211     25214     25216
     25211     25214     25217     25212     25211     25213     25212     25211     25214
     25213     25211     25214     25214     25217     25218     25214     25217     25219
     25214     25217     25222     25215     25214     25216     25215     25214     25217
     25216     25214     25217     25217     25219     25220     25217     25219     25221
     25217     25219     25222     25217     25222     25219     25217     25222     25223
     25217     25222     25224     25218     25217     25219     25218     25217     25222
     25219     25217     25222     25219     25222     25223     25219     25222     25224
     25220     25219     25221     25220     25219     25222     25221     25219     25222
     25222     25224     25225     25222     25224     25226     25222     25224     25227
     25223     25222     25224     25224     25227     25228     25224     25227     25229
     25224     25227     25230     25225     25224     25226     25225     25224     25227
     25226     25224     25227     25227     25230     25231     25227     25230     25232
     25227     25230     25233     25228     25227     25229     25228     25227     25230
     25229     25227     25230     25230     25233     25234     25230     25233     25235
     25230     25233     25236     25231     25230     25232     25231     25230     25233
     25232     25230     25233     25233     25236     25237     25233     25236     25238
     25233     25236     25239     25234     25233     25235     25234     25233     25236
     25235     25233     25236     25236     25239     25240     25236     25239     25241
     25236     25239     25242     25237     25236     25238     25237     25236     25239
     25238     25236     25239     25240     25239     25241     25240     25239     25242
     25241     25239     25242     25243     25246     25247     25243     25246     25248
     25243     25246     25249     25244     25243     25245     25244     25243     25246
     25245     25243     25246     25246     25249     25250     25246     25249     25251
     25246     25249     25252     25247     25246     25248     25247     25246     25249
     25248     25246     25249     25249     25252     25253     25249     25252     25254
     25249     25252     25255     25250     25249     25251     25250     25249     25252
     25251     25249     25252     25252     25255     25256     25252     25255     25257
     25252     25255     25258     25253     25252     25254     25253     25252     25255
     25254     25252     25255     25255     25258     25259     25255     25258     25260
     25255     25258     25261     25256     25255     25257     25256     25255     25258
     25257     25255     25258     25258     25261     25262     25258     25261     25263
     25258     25261     25264     25259     25258     25260     25259     25258     25261
     25260     25258     25261     25261     25264     25265     25261     25264     25266
     25261     25264     25267     25262     25261     25263     25262     25261     25264
     25263     25261     25264     25264     25267     25268     25264     25267     25269
     25264     25267     25270     25265     25264     25266     25265     25264     25267
     25266     25264     25267     25267     25270     25271     25267     25270     25272
     25267     25270     25273     25268     25267     25269     25268     25267     25270
     25269     25267     25270     25270     25273     25274     25270     25273     25275
     25270     25273     25276     25271     25270     25272     25271     25270     25273
     25272     25270     25273     25273     25276     25277     25273     25276     25278
     25273     25276     25279     25274     25273     25275     25274     25273     25276
     25275     25273     25276     25276     25279     25280     25276     25279     25281
     25276     25279     25282     25277     25276     25278     25277     25276     25279
     25278     25276     25279     25279     25282     25283     25279     25282     25284
     25279     25282     25285     25280     25279     25281     25280     25279     25282
     25281     25279     25282     25283     25282     25284     25283     25282     25285
     25284     25282     25285     25286     25290     25291     25286     25290     25292
     25286     25290     25293     25287     25286     25288     25287     25286     25289
     25287     25286     25290     25288     25286     25289     25288     25286     25290
     25289     25286     25290     25290     25293     25294     25290     25293     25295
     25290     25293     25300     25291     25290     25292     25291     25290     25293
     25292     25290     25293     25293     25300     25296     25294     25293     25295
     25294     25293     25300     25295     25293     25300     25296     25299     25301
     25297     25296     25298     25297     25296     25299     25297     25296     25300
     25298     25296     25299     25298     25296     25300     25299     25296     25300
     25299     25301     25302     25299     25301     25303     25299     25301     25304
     25301     25304     25305     25301     25304     25306     25301     25304     25312
     25302     25301     25303     25302     25301     25304     25303     25301     25304
     25304     25306     25307     25304     25312     25313     25304     25312     25314
     25304     25312     25315     25305     25304     25306     25305     25304     25312
     25306     25304     25312     25306     25307     25308     25306     25307     25309
     25307     25309     25310     25307     25309     25311     25307     25309     25321
     25308     25307     25309     25309     25321     25322     25309     25321     25323
     25309     25321     25324     25310     25309     25311     25310     25309     25321
     25311     25309     25321     25312     25315     25316     25313     25312     25314
     25313     25312     25315     25314     25312     25315     25315     25316     25317
     25315     25316     25318     25316     25318     25319     25316     25318     25320
     25316     25318     25365     25317     25316     25318     25318     25365     25366
     25318     25365     25367     25318     25365     25368     25319     25318     25320
     25319     25318     25365     25320     25318     25365     25321     25324     25325
     25321     25324     25326     25321     25324     25327     25322     25321     25323
     25322     25321     25324     25323     25321     25324     25324     25327     25328
     25324     25327     25329     25324     25327     25330     25325     25324     25326
     25325     25324     25327     25326     25324     25327     25327     25330     25331
     25327     25330     25332     25327     25330     25333     25328     25327     25329
     25328     25327     25330     25329     25327     25330     25330     25333     25334
     25330     25333     25335     25330     25333     25336     25331     25330     25332
     25331     25330     25333     25332     25330     25333     25333     25336     25337
     25333     25336     25338     25333     25336     25339     25334     25333     25335
     25334     25333     25336     25335     25333     25336     25336     25339     25340
     25336     25339     25341     25336     25339     25344     25337     25336     25338
     25337     25336     25339     25338     25336     25339     25339     25341     25342
     25339     25341     25343     25339     25341     25344     25339     25344     25341
     25339     25344     25345     25339     25344     25346     25340     25339     25341
     25340     25339     25344     25341     25339     25344     25341     25344     25345
     25341     25344     25346     25342     25341     25343     25342     25341     25344
     25343     25341     25344     25344     25346     25347     25344     25346     25348
     25344     25346     25349     25345     25344     25346     25346     25349     25350
     25346     25349     25351     25346     25349     25352     25347     25346     25348
     25347     25346     25349     25348     25346     25349     25349     25352     25353
     25349     25352     25354     25349     25352     25355     25350     25349     25351
     25350     25349     25352     25351     25349     25352     25352     25355     25356
     25352     25355     25357     25352     25355     25358     25353     25352     25354
     25353     25352     25355     25354     25352     25355     25355     25358     25359
     25355     25358     25360     25355     25358     25361     25356     25355     25357
     25356     25355     25358     25357     25355     25358     25358     25361     25362
     25358     25361     25363     25358     25361     25364     25359     25358     25360
     25359     25358     25361     25360     25358     25361     25362     25361     25363
     25362     25361     25364     25363     25361     25364     25365     25368     25369
     25365     25368     25370     25365     25368     25371     25366     25365     25367
     25366     25365     25368     25367     25365     25368     25368     25371     25372
     25368     25371     25373     25368     25371     25374     25369     25368     25370
     25369     25368     25371     25370     25368     25371     25371     25374     25375
     25371     25374     25376     25371     25374     25377     25372     25371     25373
     25372     25371     25374     25373     25371     25374     25374     25377     25378
     25374     25377     25379     25374     25377     25380     25375     25374     25376
     25375     25374     25377     25376     25374     25377     25377     25380     25381
     25377     25380     25382     25377     25380     25383     25378     25377     25379
     25378     25377     25380     25379     25377     25380     25380     25383     25384
     25380     25383     25385     25380     25383     25386     25381     25380     25382
     25381     25380     25383     25382     25380     25383     25383     25386     25387
     25383     25386     25388     25383     25386     25389     25384     25383     25385
     25384     25383     25386     25385     25383     25386     25386     25389     25390
     25386     25389     25391     25386     25389     25392     25387     25386     25388
     25387     25386     25389     25388     25386     25389     25389     25392     25393
     25389     25392     25394     25389     25392     25395     25390     25389     25391
     25390     25389     25392     25391     25389     25392     25392     25395     25396
     25392     25395     25397     25392     25395     25398     25393     25392     25394
     25393     25392     25395     25394     25392     25395     25395     25398     25399
     25395     25398     25400     25395     25398     25401     25396     25395     25397
     25396     25395     25398     25397     25395     25398     25398     25401     25402
     25398     25401     25403     25398     25401     25404     25399     25398     25400
     25399     25398     25401     25400     25398     25401     25401     25404     25405
     25401     25404     25406     25401     25404     25407     25402     25401     25403
     25402     25401     25404     25403     25401     25404     25405     25404     25406
     25405     25404     25407     25406     25404     25407     25408     25411     25412
     25408     25413     25414     25408     25413     25415     25408     25413     25417
     25409     25408     25410     25409     25408     25411     25409     25408     25413
     25410     25408     25411     25410     25408     25413     25411     25408     25413
     25413     25415     25416     25413     25417     25418     25413     25417     25419
     25413     25417     25424     25414     25413     25415     25414     25413     25417
     25415     25413     25417     25417     25424     25420     25418     25417     25419
     25418     25417     25424     25419     25417     25424     25420     25423     25425
     25421     25420     25422     25421     25420     25423     25421     25420     25424
     25422     25420     25423     25422     25420     25424     25423     25420     25424
     25423     25425     25426     25423     25425     25427     25423     25425     25428
     25425     25428     25429     25425     25428     25430     25425     25428     25436
     25426     25425     25427     25426     25425     25428     25427     25425     25428
     25428     25430     25431     25428     25436     25437     25428     25436     25438
     25428     25436     25439     25429     25428     25430     25429     25428     25436
     25430     25428     25436     25430     25431     25432     25430     25431     25433
     25431     25433     25434     25431     25433     25435     25431     25433     25445
     25432     25431     25433     25433     25445     25446     25433     25445     25447
     25433     25445     25448     25434     25433     25435     25434     25433     25445
     25435     25433     25445     25436     25439     25440     25437     25436     25438
     25437     25436     25439     25438     25436     25439     25439     25440     25441
     25439     25440     25442     25440     25442     25443     25440     25442     25444
     25440     25442     25489     25441     25440     25442     25442     25489     25490
     25442     25489     25491     25442     25489     25492     25443     25442     25444
     25443     25442     25489     25444     25442     25489     25445     25448     25449
     25445     25448     25450     25445     25448     25451     25446     25445     25447
     25446     25445     25448     25447     25445     25448     25448     25451     25452
     25448     25451     25453     25448     25451     25454     25449     25448     25450
     25449     25448     25451     25450     25448     25451     25451     25454     25455
     25451     25454     25456     25451     25454     25457     25452     25451     25453
     25452     25451     25454     25453     25451     25454     25454     25457     25458
     25454     25457     25459     25454     25457     25460     25455     25454     25456
     25455     25454     25457     25456     25454     25457     25457     25460     25461
     25457     25460     25462     25457     25460     25463     25458     25457     25459
     25458     25457     25460     25459     25457     25460     25460     25463     25464
     25460     25463     25465     25460     25463     25468     25461     25460     25462
     25461     25460     25463     25462     25460     25463     25463     25465     25466
     25463     25465     25467     25463     25465     25468     25463     25468     25465
     25463     25468     25469     25463     25468     25470     25464     25463     25465
     25464     25463     25468     25465     25463     25468     25465     25468     25469
     25465     25468     25470     25466     25465     25467     25466     25465     25468
     25467     25465     25468     25468     25470     25471     25468     25470     25472
     25468     25470     25473     25469     25468     25470     25470     25473     25474
     25470     25473     25475     25470     25473     25476     25471     25470     25472
     25471     25470     25473     25472     25470     25473     25473     25476     25477
     25473     25476     25478     25473     25476     25479     25474     25473     25475
     25474     25473     25476     25475     25473     25476     25476     25479     25480
     25476     25479     25481     25476     25479     25482     25477     25476     25478
     25477     25476     25479     25478     25476     25479     25479     25482     25483
     25479     25482     25484     25479     25482     25485     25480     25479     25481
     25480     25479     25482     25481     25479     25482     25482     25485     25486
     25482     25485     25487     25482     25485     25488     25483     25482     25484
     25483     25482     25485     25484     25482     25485     25486     25485     25487
     25486     25485     25488     25487     25485     25488     25489     25492     25493
     25489     25492     25494     25489     25492     25495     25490     25489     25491
     25490     25489     25492     25491     25489     25492     25492     25495     25496
     25492     25495     25497     25492     25495     25498     25493     25492     25494
     25493     25492     25495     25494     25492     25495     25495     25498     25499
     25495     25498     25500     25495     25498     25501     25496     25495     25497
     25496     25495     25498     25497     25495     25498     25498     25501     25502
     25498     25501     25503     25498     25501     25504     25499     25498     25500
     25499     25498     25501     25500     25498     25501     25501     25504     25505
     25501     25504     25506     25501     25504     25507     25502     25501     25503
     25502     25501     25504     25503     25501     25504     25504     25507     25508
     25504     25507     25509     25504     25507     25510     25505     25504     25506
     25505     25504     25507     25506     25504     25507     25507     25510     25511
     25507     25510     25512     25507     25510     25513     25508     25507     25509
     25508     25507     25510     25509     25507     25510     25510     25513     25514
     25510     25513     25515     25510     25513     25516     25511     25510     25512
     25511     25510     25513     25512     25510     25513     25513     25516     25517
     25513     25516     25518     25513     25516     25519     25514     25513     25515
     25514     25513     25516     25515     25513     25516     25516     25519     25520
     25516     25519     25521     25516     25519     25522     25517     25516     25518
     25517     25516     25519     25518     25516     25519     25519     25522     25523
     25519     25522     25524     25519     25522     25525     25520     25519     25521
     25520     25519     25522     25521     25519     25522     25522     25525     25526
     25522     25525     25527     25522     25525     25528     25523     25522     25524
     25523     25522     25525     25524     25522     25525     25525     25528     25529
     25525     25528     25530     25525     25528     25531     25526     25525     25527
     25526     25525     25528     25527     25525     25528     25529     25528     25530
     25529     25528     25531     25530     25528     25531     25532     25535     25536
     25532     25537     25538     25532     25537     25539     25532     25537     25541
     25533     25532     25534     25533     25532     25535     25533     25532     25537
     25534     25532     25535     25534     25532     25537     25535     25532     25537
     25537     25539     25540     25537     25541     25542     25537     25541     25543
     25537     25541     25548     25538     25537     25539     25538     25537     25541
     25539     25537     25541     25541     25548     25544     25542     25541     25543
     25542     25541     25548     25543     25541     25548     25544     25547     25549
     25545     25544     25546     25545     25544     25547     25545     25544     25548
     25546     25544     25547     25546     25544     25548     25547     25544     25548
     25547     25549     25550     25547     25549     25551     25547     25549     25552
     25549     25552     25553     25549     25552     25554     25549     25552     25560
     25550     25549     25551     25550     25549     25552     25551     25549     25552
     25552     25554     25555     25552     25560     25561     25552     25560     25562
     25552     25560     25563     25553     25552     25554     25553     25552     25560
     25554     25552     25560     25554     25555     25556     25554     25555     25557
     25555     25557     25558     25555     25557     25559     25555     25557     25569
     25556     25555     25557     25557     25569     25570     25557     25569     25571
     25557     25569     25572     25558     25557     25559     25558     25557     25569
     25559     25557     25569     25560     25563     25564     25561     25560     25562
     25561     25560     25563     25562     25560     25563     25563     25564     25565
     25563     25564     25566     25564     25566     25567     25564     25566     25568
     25564     25566     25613     25565     25564     25566     25566     25613     25614
     25566     25613     25615     25566     25613     25616     25567     25566     25568
     25567     25566     25613     25568     25566     25613     25569     25572     25573
     25569     25572     25574     25569     25572     25575     25570     25569     25571
     25570     25569     25572     25571     25569     25572     25572     25575     25576
     25572     25575     25577     25572     25575     25578     25573     25572     25574
     25573     25572     25575     25574     25572     25575     25575     25578     25579
     25575     25578     25580     25575     25578     25581     25576     25575     25577
     25576     25575     25578     25577     25575     25578     25578     25581     25582
     25578     25581     25583     25578     25581     25584     25579     25578     25580
     25579     25578     25581     25580     25578     25581     25581     25584     25585
     25581     25584     25586     25581     25584     25587     25582     25581     25583
     25582     25581     25584     25583     25581     25584     25584     25587     25588
     25584     25587     25589     25584     25587     25592     25585     25584     25586
     25585     25584     25587     25586     25584     25587     25587     25589     25590
     25587     25589     25591     25587     25589     25592     25587     25592     25589
     25587     25592     25593     25587     25592     25594     25588     25587     25589
     25588     25587     25592     25589     25587     25592     25589     25592     25593
     25589     25592     25594     25590     25589     25591     25590     25589     25592
     25591     25589     25592     25592     25594     25595     25592     25594     25596
     25592     25594     25597     25593     25592     25594     25594     25597     25598
     25594     25597     25599     25594     25597     25600     25595     25594     25596
     25595     25594     25597     25596     25594     25597     25597     25600     25601
     25597     25600     25602     25597     25600     25603     25598     25597     25599
     25598     25597     25600     25599     25597     25600     25600     25603     25604
     25600     25603     25605     25600     25603     25606     25601     25600     25602
     25601     25600     25603     25602     25600     25603     25603     25606     25607
     25603     25606     25608     25603     25606     25609     25604     25603     25605
     25604     25603     25606     25605     25603     25606     25606     25609     25610
     25606     25609     25611     25606     25609     25612     25607     25606     25608
     25607     25606     25609     25608     25606     25609     25610     25609     25611
     25610     25609     25612     25611     25609     25612     25613     25616     25617
     25613     25616     25618     25613     25616     25619     25614     25613     25615
     25614     25613     25616     25615     25613     25616     25616     25619     25620
     25616     25619     25621     25616     25619     25622     25617     25616     25618
     25617     25616     25619     25618     25616     25619     25619     25622     25623
     25619     25622     25624     25619     25622     25625     25620     25619     25621
     25620     25619     25622     25621     25619     25622     25622     25625     25626
     25622     25625     25627     25622     25625     25628     25623     25622     25624
     25623     25622     25625     25624     25622     25625     25625     25628     25629
     25625     25628     25630     25625     25628     25631     25626     25625     25627
     25626     25625     25628     25627     25625     25628     25628     25631     25632
     25628     25631     25633     25628     25631     25634     25629     25628     25630
     25629     25628     25631     25630     25628     25631     25631     25634     25635
     25631     25634     25636     25631     25634     25637     25632     25631     25633
     25632     25631     25634     25633     25631     25634     25634     25637     25638
     25634     25637     25639     25634     25637     25640     25635     25634     25636
     25635     25634     25637     25636     25634     25637     25637     25640     25641
     25637     25640     25642     25637     25640     25643     25638     25637     25639
     25638     25637     25640     25639     25637     25640     25640     25643     25644
     25640     25643     25645     25640     25643     25646     25641     25640     25642
     25641     25640     25643     25642     25640     25643     25643     25646     25647
     25643     25646     25648     25643     25646     25649     25644     25643     25645
     25644     25643     25646     25645     25643     25646     25646     25649     25650
     25646     25649     25651     25646     25649     25652     25647     25646     25648
     25647     25646     25649     25648     25646     25649     25649     25652     25653
     25649     25652     25654     25649     25652     25655     25650     25649     25651
     25650     25649     25652     25651     25649     25652     25653     25652     25654
     25653     25652     25655     25654     25652     25655     25656     25660     25661
     25656     25660     25662     25656     25660     25663     25657     25656     25658
     25657     25656     25659     25657     25656     25660     25658     25656     25659
     25658     25656     25660     25659     25656     25660     25660     25663     25664
     25660     25663     25665     25660     25663     25670     25661     25660     25662
     25661     25660     25663     25662     25660     25663     25663     25670     25666
     25664     25663     25665     25664     25663     25670     25665     25663     25670
     25666     25669     25671     25667     25666     25668     25667     25666     25669
     25667     25666     25670     25668     25666     25669     25668     25666     25670
     25669     25666     25670     25669     25671     25672     25669     25671     25673
     25669     25671     25674     25671     25674     25675     25671     25674     25676
     25671     25674     25682     25672     25671     25673     25672     25671     25674
     25673     25671     25674     25674     25676     25677     25674     25682     25683
     25674     25682     25684     25674     25682     25685     25675     25674     25676
     25675     25674     25682     25676     25674     25682     25676     25677     25678
     25676     25677     25679     25677     25679     25680     25677     25679     25681
     25677     25679     25691     25678     25677     25679     25679     25691     25692
     25679     25691     25693     25679     25691     25694     25680     25679     25681
     25680     25679     25691     25681     25679     25691     25682     25685     25686
     25683     25682     25684     25683     25682     25685     25684     25682     25685
     25685     25686     25687     25685     25686     25688     25686     25688     25689
     25686     25688     25690     25686     25688     25735     25687     25686     25688
     25688     25735     25736     25688     25735     25737     25688     25735     25738
     25689     25688     25690     25689     25688     25735     25690     25688     25735
     25691     25694     25695     25691     25694     25696     25691     25694     25697
     25692     25691     25693     25692     25691     25694     25693     25691     25694
     25694     25697     25698     25694     25697     25699     25694     25697     25700
     25695     25694     25696     25695     25694     25697     25696     25694     25697
     25697     25700     25701     25697     25700     25702     25697     25700     25703
     25698     25697     25699     25698     25697     25700     25699     25697     25700
     25700     25703     25704     25700     25703     25705     25700     25703     25706
     25701     25700     25702     25701     25700     25703     25702     25700     25703
     25703     25706     25707     25703     25706     25708     25703     25706     25709
     25704     25703     25705     25704     25703     25706     25705     25703     25706
     25706     25709     25710     25706     25709     25711     25706     25709     25714
     25707     25706     25708     25707     25706     25709     25708     25706     25709
     25709     25711     25712     25709     25711     25713     25709     25711     25714
     25709     25714     25711     25709     25714     25715     25709     25714     25716
     25710     25709     25711     25710     25709     25714     25711     25709     25714
     25711     25714     25715     25711     25714     25716     25712     25711     25713
     25712     25711     25714     25713     25711     25714     25714     25716     25717
     25714     25716     25718     25714     25716     25719     25715     25714     25716
     25716     25719     25720     25716     25719     25721     25716     25719     25722
     25717     25716     25718     25717     25716     25719     25718     25716     25719
     25719     25722     25723     25719     25722     25724     25719     25722     25725
     25720     25719     25721     25720     25719     25722     25721     25719     25722
     25722     25725     25726     25722     25725     25727     25722     25725     25728
     25723     25722     25724     25723     25722     25725     25724     25722     25725
     25725     25728     25729     25725     25728     25730     25725     25728     25731
     25726     25725     25727     25726     25725     25728     25727     25725     25728
     25728     25731     25732     25728     25731     25733     25728     25731     25734
     25729     25728     25730     25729     25728     25731     25730     25728     25731
     25732     25731     25733     25732     25731     25734     25733     25731     25734
     25735     25738     25739     25735     25738     25740     25735     25738     25741
     25736     25735     25737     25736     25735     25738     25737     25735     25738
     25738     25741     25742     25738     25741     25743     25738     25741     25744
     25739     25738     25740     25739     25738     25741     25740     25738     25741
     25741     25744     25745     25741     25744     25746     25741     25744     25747
     25742     25741     25743     25742     25741     25744     25743     25741     25744
     25744     25747     25748     25744     25747     25749     25744     25747     25750
     25745     25744     25746     25745     25744     25747     25746     25744     25747
     25747     25750     25751     25747     25750     25752     25747     25750     25753
     25748     25747     25749     25748     25747     25750     25749     25747     25750
     25750     25753     25754     25750     25753     25755     25750     25753     25756
     25751     25750     25752     25751     25750     25753     25752     25750     25753
     25753     25756     25757     25753     25756     25758     25753     25756     25759
     25754     25753     25755     25754     25753     25756     25755     25753     25756
     25756     25759     25760     25756     25759     25761     25756     25759     25762
     25757     25756     25758     25757     25756     25759     25758     25756     25759
     25759     25762     25763     25759     25762     25764     25759     25762     25765
     25760     25759     25761     25760     25759     25762     25761     25759     25762
     25762     25765     25766     25762     25765     25767     25762     25765     25768
     25763     25762     25764     25763     25762     25765     25764     25762     25765
     25765     25768     25769     25765     25768     25770     25765     25768     25771
     25766     25765     25767     25766     25765     25768     25767     25765     25768
     25768     25771     25772     25768     25771     25773     25768     25771     25774
     25769     25768     25770     25769     25768     25771     25770     25768     25771
     25771     25774     25775     25771     25774     25776     25771     25774     25777
     25772     25771     25773     25772     25771     25774     25773     25771     25774
     25775     25774     25776     25775     25774     25777     25776     25774     25777
     25778     25781     25782     25778     25783     25784     25778     25783     25785
     25778     25783     25787     25779     25778     25780     25779     25778     25781
     25779     25778     25783     25780     25778     25781     25780     25778     25783
     25781     25778     25783     25783     25785     25786     25783     25787     25788
     25783     25787     25789     25783     25787     25794     25784     25783     25785
     25784     25783     25787     25785     25783     25787     25787     25794     25790
     25788     25787     25789     25788     25787     25794     25789     25787     25794
     25790     25793     25795     25791     25790     25792     25791     25790     25793
     25791     25790     25794     25792     25790     25793     25792     25790     25794
     25793     25790     25794     25793     25795     25796     25793     25795     25797
     25793     25795     25798     25795     25798     25799     25795     25798     25800
     25795     25798     25806     25796     25795     25797     25796     25795     25798
     25797     25795     25798     25798     25800     25801     25798     25806     25807
     25798     25806     25808     25798     25806     25809     25799     25798     25800
     25799     25798     25806     25800     25798     25806     25800     25801     25802
     25800     25801     25803     25801     25803     25804     25801     25803     25805
     25801     25803     25815     25802     25801     25803     25803     25815     25816
     25803     25815     25817     25803     25815     25818     25804     25803     25805
     25804     25803     25815     25805     25803     25815     25806     25809     25810
     25807     25806     25808     25807     25806     25809     25808     25806     25809
     25809     25810     25811     25809     25810     25812     25810     25812     25813
     25810     25812     25814     25810     25812     25856     25811     25810     25812
     25812     25856     25857     25812     25856     25858     25812     25856     25859
     25813     25812     25814     25813     25812     25856     25814     25812     25856
     25815     25818     25819     25815     25818     25820     25815     25818     25821
     25816     25815     25817     25816     25815     25818     25817     25815     25818
     25818     25821     25822     25818     25821     25823     25818     25821     25824
     25819     25818     25820     25819     25818     25821     25820     25818     25821
     25821     25824     25825     25821     25824     25826     25821     25824     25827
     25822     25821     25823     25822     25821     25824     25823     25821     25824
     25824     25827     25828     25824     25827     25829     25824     25827     25830
     25825     25824     25826     25825     25824     25827     25826     25824     25827
     25827     25830     25831     25827     25830     25832     25827     25830     25833
     25828     25827     25829     25828     25827     25830     25829     25827     25830
     25830     25833     25834     25830     25833     25835     25831     25830     25832
     25831     25830     25833     25832     25830     25833     25833     25835     25836
     25833     25835     25837     25834     25833     25835     25835     25837     25838
     25835     25837     25839     25835     25837     25840     25836     25835     25837
     25837     25840     25841     25837     25840     25842     25837     25840     25843
     25838     25837     25839     25838     25837     25840     25839     25837     25840
     25840     25843     25844     25840     25843     25845     25840     25843     25846
     25841     25840     25842     25841     25840     25843     25842     25840     25843
     25843     25846     25847     25843     25846     25848     25843     25846     25849
     25844     25843     25845     25844     25843     25846     25845     25843     25846
     25846     25849     25850     25846     25849     25851     25846     25849     25852
     25847     25846     25848     25847     25846     25849     25848     25846     25849
     25849     25852     25853     25849     25852     25854     25849     25852     25855
     25850     25849     25851     25850     25849     25852     25851     25849     25852
     25853     25852     25854     25853     25852     25855     25854     25852     25855
     25856     25859     25860     25856     25859     25861     25856     25859     25862
     25857     25856     25858     25857     25856     25859     25858     25856     25859
     25859     25862     25863     25859     25862     25864     25859     25862     25865
     25860     25859     25861     25860     25859     25862     25861     25859     25862
     25862     25865     25866     25862     25865     25867     25862     25865     25868
     25863     25862     25864     25863     25862     25865     25864     25862     25865
     25865     25868     25869     25865     25868     25870     25865     25868     25871
     25866     25865     25867     25866     25865     25868     25867     25865     25868
     25868     25871     25872     25868     25871     25873     25868     25871     25874
     25869     25868     25870     25869     25868     25871     25870     25868     25871
     25871     25874     25875     25871     25874     25876     25871     25874     25877
     25872     25871     25873     25872     25871     25874     25873     25871     25874
     25874     25877     25878     25874     25877     25879     25874     25877     25880
     25875     25874     25876     25875     25874     25877     25876     25874     25877
     25877     25880     25881     25877     25880     25882     25877     25880     25883
     25878     25877     25879     25878     25877     25880     25879     25877     25880
     25880     25883     25884     25880     25883     25885     25880     25883     25886
     25881     25880     25882     25881     25880     25883     25882     25880     25883
     25883     25886     25887     25883     25886     25888     25883     25886     25889
     25884     25883     25885     25884     25883     25886     25885     25883     25886
     25886     25889     25890     25886     25889     25891     25886     25889     25892
     25887     25886     25888     25887     25886     25889     25888     25886     25889
     25889     25892     25893     25889     25892     25894     25889     25892     25895
     25890     25889     25891     25890     25889     25892     25891     25889     25892
     25892     25895     25896     25892     25895     25897     25892     25895     25898
     25893     25892     25894     25893     25892     25895     25894     25892     25895
     25896     25895     25897     25896     25895     25898     25897     25895     25898
     25899     25903     25904     25899     25903     25905     25899     25903     25906
     25900     25899     25901     25900     25899     25902     25900     25899     25903
     25901     25899     25902     25901     25899     25903     25902     25899     25903
     25903     25906     25907     25903     25906     25908     25903     25906     25913
     25904     25903     25905     25904     25903     25906     25905     25903     25906
     25906     25913     25909     25907     25906     25908     25907     25906     25913
     25908     25906     25913     25909     25912     25914     25910     25909     25911
     25910     25909     25912     25910     25909     25913     25911     25909     25912
     25911     25909     25913     25912     25909     25913     25912     25914     25915
     25912     25914     25916     25912     25914     25917     25914     25917     25918
     25914     25917     25919     25914     25917     25925     25915     25914     25916
     25915     25914     25917     25916     25914     25917     25917     25919     25920
     25917     25925     25926     25917     25925     25927     25917     25925     25928
     25918     25917     25919     25918     25917     25925     25919     25917     25925
     25919     25920     25921     25919     25920     25922     25920     25922     25923
     25920     25922     25924     25920     25922     25934     25921     25920     25922
     25922     25934     25935     25922     25934     25936     25922     25934     25937
     25923     25922     25924     25923     25922     25934     25924     25922     25934
     25925     25928     25929     25926     25925     25927     25926     25925     25928
     25927     25925     25928     25928     25929     25930     25928     25929     25931
     25929     25931     25932     25929     25931     25933     25929     25931     25978
     25930     25929     25931     25931     25978     25979     25931     25978     25980
     25931     25978     25981     25932     25931     25933     25932     25931     25978
     25933     25931     25978     25934     25937     25938     25934     25937     25939
     25934     25937     25940     25935     25934     25936     25935     25934     25937
     25936     25934     25937     25937     25940     25941     25937     25940     25942
     25937     25940     25943     25938     25937     25939     25938     25937     25940
     25939     25937     25940     25940     25943     25944     25940     25943     25945
     25940     25943     25946     25941     25940     25942     25941     25940     25943
     25942     25940     25943     25943     25946     25947     25943     25946     25948
     25943     25946     25949     25944     25943     25945     25944     25943     25946
     25945     25943     25946     25946     25949     25950     25946     25949     25951
     25946     25949     25952     25947     25946     25948     25947     25946     25949
     25948     25946     25949     25949     25952     25953     25949     25952     25954
     25949     25952     25957     25950     25949     25951     25950     25949     25952
     25951     25949     25952     25952     25954     25955     25952     25954     25956
     25952     25954     25957     25952     25957     25954     25952     25957     25958
     25952     25957     25959     25953     25952     25954     25953     25952     25957
     25954     25952     25957     25954     25957     25958     25954     25957     25959
     25955     25954     25956     25955     25954     25957     25956     25954     25957
     25957     25959     25960     25957     25959     25961     25957     25959     25962
     25958     25957     25959     25959     25962     25963     25959     25962     25964
     25959     25962     25965     25960     25959     25961     25960     25959     25962
     25961     25959     25962     25962     25965     25966     25962     25965     25967
     25962     25965     25968     25963     25962     25964     25963     25962     25965
     25964     25962     25965     25965     25968     25969     25965     25968     25970
     25965     25968     25971     25966     25965     25967     25966     25965     25968
     25967     25965     25968     25968     25971     25972     25968     25971     25973
     25968     25971     25974     25969     25968     25970     25969     25968     25971
     25970     25968     25971     25971     25974     25975     25971     25974     25976
     25971     25974     25977     25972     25971     25973     25972     25971     25974
     25973     25971     25974     25975     25974     25976     25975     25974     25977
     25976     25974     25977     25978     25981     25982     25978     25981     25983
     25978     25981     25984     25979     25978     25980     25979     25978     25981
     25980     25978     25981     25981     25984     25985     25981     25984     25986
     25981     25984     25987     25982     25981     25983     25982     25981     25984
     25983     25981     25984     25984     25987     25988     25984     25987     25989
     25984     25987     25990     25985     25984     25986     25985     25984     25987
     25986     25984     25987     25987     25990     25991     25987     25990     25992
     25987     25990     25993     25988     25987     25989     25988     25987     25990
     25989     25987     25990     25990     25993     25994     25990     25993     25995
     25990     25993     25996     25991     25990     25992     25991     25990     25993
     25992     25990     25993     25993     25996     25997     25993     25996     25998
     25993     25996     25999     25994     25993     25995     25994     25993     25996
     25995     25993     25996     25996     25999     26000     25996     25999     26001
     25996     25999     26002     25997     25996     25998     25997     25996     25999
     25998     25996     25999     25999     26002     26003     25999     26002     26004
     25999     26002     26005     26000     25999     26001     26000     25999     26002
     26001     25999     26002     26002     26005     26006     26002     26005     26007
     26002     26005     26008     26003     26002     26004     26003     26002     26005
     26004     26002     26005     26005     26008     26009     26005     26008     26010
     26005     26008     26011     26006     26005     26007     26006     26005     26008
     26007     26005     26008     26008     26011     26012     26008     26011     26013
     26008     26011     26014     26009     26008     26010     26009     26008     26011
     26010     26008     26011     26011     26014     26015     26011     26014     26016
     26011     26014     26017     26012     26011     26013     26012     26011     26014
     26013     26011     26014     26014     26017     26018     26014     26017     26019
     26014     26017     26020     26015     26014     26016     26015     26014     26017
     26016     26014     26017     26018     26017     26019     26018     26017     26020
     26019     26017     26020     26021     26025     26026     26021     26025     26027
     26021     26025     26028     26022     26021     26023     26022     26021     26024
     26022     26021     26025     26023     26021     26024     26023     26021     26025
     26024     26021     26025     26025     26028     26029     26025     26028     26030
     26025     26028     26035     26026     26025     26027     26026     26025     26028
     26027     26025     26028     26028     26035     26031     26029     26028     26030
     26029     26028     26035     26030     26028     26035     26031     26034     26036
     26032     26031     26033     26032     26031     26034     26032     26031     26035
     26033     26031     26034     26033     26031     26035     26034     26031     26035
     26034     26036     26037     26034     26036     26038     26034     26036     26039
     26036     26039     26040     26036     26039     26041     26036     26039     26047
     26037     26036     26038     26037     26036     26039     26038     26036     26039
     26039     26041     26042     26039     26047     26048     26039     26047     26049
     26039     26047     26050     26040     26039     26041     26040     26039     26047
     26041     26039     26047     26041     26042     26043     26041     26042     26044
     26042     26044     26045     26042     26044     26046     26042     26044     26056
     26043     26042     26044     26044     26056     26057     26044     26056     26058
     26044     26056     26059     26045     26044     26046     26045     26044     26056
     26046     26044     26056     26047     26050     26051     26048     26047     26049
     26048     26047     26050     26049     26047     26050     26050     26051     26052
     26050     26051     26053     26051     26053     26054     26051     26053     26055
     26051     26053     26097     26052     26051     26053     26053     26097     26098
     26053     26097     26099     26053     26097     26100     26054     26053     26055
     26054     26053     26097     26055     26053     26097     26056     26059     26060
     26056     26059     26061     26056     26059     26062     26057     26056     26058
     26057     26056     26059     26058     26056     26059     26059     26062     26063
     26059     26062     26064     26059     26062     26065     26060     26059     26061
     26060     26059     26062     26061     26059     26062     26062     26065     26066
     26062     26065     26067     26062     26065     26068     26063     26062     26064
     26063     26062     26065     26064     26062     26065     26065     26068     26069
     26065     26068     26070     26065     26068     26071     26066     26065     26067
     26066     26065     26068     26067     26065     26068     26068     26071     26072
     26068     26071     26073     26068     26071     26074     26069     26068     26070
     26069     26068     26071     26070     26068     26071     26071     26074     26075
     26071     26074     26076     26072     26071     26073     26072     26071     26074
     26073     26071     26074     26074     26076     26077     26074     26076     26078
     26075     26074     26076     26076     26078     26079     26076     26078     26080
     26076     26078     26081     26077     26076     26078     26078     26081     26082
     26078     26081     26083     26078     26081     26084     26079     26078     26080
     26079     26078     26081     26080     26078     26081     26081     26084     26085
     26081     26084     26086     26081     26084     26087     26082     26081     26083
     26082     26081     26084     26083     26081     26084     26084     26087     26088
     26084     26087     26089     26084     26087     26090     26085     26084     26086
     26085     26084     26087     26086     26084     26087     26087     26090     26091
     26087     26090     26092     26087     26090     26093     26088     26087     26089
     26088     26087     26090     26089     26087     26090     26090     26093     26094
     26090     26093     26095     26090     26093     26096     26091     26090     26092
     26091     26090     26093     26092     26090     26093     26094     26093     26095
     26094     26093     26096     26095     26093     26096     26097     26100     26101
     26097     26100     26102     26097     26100     26103     26098     26097     26099
     26098     26097     26100     26099     26097     26100     26100     26103     26104
     26100     26103     26105     26100     26103     26106     26101     26100     26102
     26101     26100     26103     26102     26100     26103     26103     26106     26107
     26103     26106     26108     26103     26106     26109     26104     26103     26105
     26104     26103     26106     26105     26103     26106     26106     26109     26110
     26106     26109     26111     26106     26109     26112     26107     26106     26108
     26107     26106     26109     26108     26106     26109     26109     26112     26113
     26109     26112     26114     26109     26112     26115     26110     26109     26111
     26110     26109     26112     26111     26109     26112     26112     26115     26116
     26112     26115     26117     26113     26112     26114     26113     26112     26115
     26114     26112     26115     26115     26117     26118     26115     26117     26119
     26116     26115     26117     26117     26119     26120     26117     26119     26121
     26117     26119     26122     26118     26117     26119     26119     26122     26123
     26119     26122     26124     26119     26122     26125     26120     26119     26121
     26120     26119     26122     26121     26119     26122     26122     26125     26126
     26122     26125     26127     26122     26125     26128     26123     26122     26124
     26123     26122     26125     26124     26122     26125     26125     26128     26129
     26125     26128     26130     26125     26128     26131     26126     26125     26127
     26126     26125     26128     26127     26125     26128     26128     26131     26132
     26128     26131     26133     26128     26131     26134     26129     26128     26130
     26129     26128     26131     26130     26128     26131     26131     26134     26135
     26131     26134     26136     26131     26134     26137     26132     26131     26133
     26132     26131     26134     26133     26131     26134     26134     26137     26138
     26134     26137     26139     26134     26137     26140     26135     26134     26136
     26135     26134     26137     26136     26134     26137     26137     26140     26141
     26137     26140     26142     26137     26140     26143     26138     26137     26139
     26138     26137     26140     26139     26137     26140     26141     26140     26142
     26141     26140     26143     26142     26140     26143     26144     26148     26149
     26144     26148     26150     26144     26148     26151     26145     26144     26146
     26145     26144     26147     26145     26144     26148     26146     26144     26147
     26146     26144     26148     26147     26144     26148     26148     26151     26152
     26148     26151     26153     26148     26151     26158     26149     26148     26150
     26149     26148     26151     26150     26148     26151     26151     26158     26154
     26152     26151     26153     26152     26151     26158     26153     26151     26158
     26154     26157     26159     26155     26154     26156     26155     26154     26157
     26155     26154     26158     26156     26154     26157     26156     26154     26158
     26157     26154     26158     26157     26159     26160     26157     26159     26161
     26157     26159     26162     26159     26162     26163     26159     26162     26164
     26159     26162     26170     26160     26159     26161     26160     26159     26162
     26161     26159     26162     26162     26164     26165     26162     26170     26171
     26162     26170     26172     26162     26170     26173     26163     26162     26164
     26163     26162     26170     26164     26162     26170     26164     26165     26166
     26164     26165     26167     26165     26167     26168     26165     26167     26169
     26165     26167     26179     26166     26165     26167     26167     26179     26180
     26167     26179     26181     26167     26179     26182     26168     26167     26169
     26168     26167     26179     26169     26167     26179     26170     26173     26174
     26171     26170     26172     26171     26170     26173     26172     26170     26173
     26173     26174     26175     26173     26174     26176     26174     26176     26177
     26174     26176     26178     26174     26176     26223     26175     26174     26176
     26176     26223     26224     26176     26223     26225     26176     26223     26226
     26177     26176     26178     26177     26176     26223     26178     26176     26223
     26179     26182     26183     26179     26182     26184     26179     26182     26185
     26180     26179     26181     26180     26179     26182     26181     26179     26182
     26182     26185     26186     26182     26185     26187     26182     26185     26188
     26183     26182     26184     26183     26182     26185     26184     26182     26185
     26185     26188     26189     26185     26188     26190     26185     26188     26191
     26186     26185     26187     26186     26185     26188     26187     26185     26188
     26188     26191     26192     26188     26191     26193     26188     26191     26194
     26189     26188     26190     26189     26188     26191     26190     26188     26191
     26191     26194     26195     26191     26194     26196     26191     26194     26197
     26192     26191     26193     26192     26191     26194     26193     26191     26194
     26194     26197     26198     26194     26197     26199     26194     26197     26202
     26195     26194     26196     26195     26194     26197     26196     26194     26197
     26197     26199     26200     26197     26199     26201     26197     26199     26202
     26197     26202     26199     26197     26202     26203     26197     26202     26204
     26198     26197     26199     26198     26197     26202     26199     26197     26202
     26199     26202     26203     26199     26202     26204     26200     26199     26201
     26200     26199     26202     26201     26199     26202     26202     26204     26205
     26202     26204     26206     26202     26204     26207     26203     26202     26204
     26204     26207     26208     26204     26207     26209     26204     26207     26210
     26205     26204     26206     26205     26204     26207     26206     26204     26207
     26207     26210     26211     26207     26210     26212     26207     26210     26213
     26208     26207     26209     26208     26207     26210     26209     26207     26210
     26210     26213     26214     26210     26213     26215     26210     26213     26216
     26211     26210     26212     26211     26210     26213     26212     26210     26213
     26213     26216     26217     26213     26216     26218     26213     26216     26219
     26214     26213     26215     26214     26213     26216     26215     26213     26216
     26216     26219     26220     26216     26219     26221     26216     26219     26222
     26217     26216     26218     26217     26216     26219     26218     26216     26219
     26220     26219     26221     26220     26219     26222     26221     26219     26222
     26223     26226     26227     26223     26226     26228     26223     26226     26229
     26224     26223     26225     26224     26223     26226     26225     26223     26226
     26226     26229     26230     26226     26229     26231     26226     26229     26232
     26227     26226     26228     26227     26226     26229     26228     26226     26229
     26229     26232     26233     26229     26232     26234     26229     26232     26235
     26230     26229     26231     26230     26229     26232     26231     26229     26232
     26232     26235     26236     26232     26235     26237     26232     26235     26238
     26233     26232     26234     26233     26232     26235     26234     26232     26235
     26235     26238     26239     26235     26238     26240     26235     26238     26241
     26236     26235     26237     26236     26235     26238     26237     26235     26238
     26238     26241     26242     26238     26241     26243     26238     26241     26244
     26239     26238     26240     26239     26238     26241     26240     26238     26241
     26241     26244     26245     26241     26244     26246     26241     26244     26247
     26242     26241     26243     26242     26241     26244     26243     26241     26244
     26244     26247     26248     26244     26247     26249     26244     26247     26250
     26245     26244     26246     26245     26244     26247     26246     26244     26247
     26247     26250     26251     26247     26250     26252     26247     26250     26253
     26248     26247     26249     26248     26247     26250     26249     26247     26250
     26250     26253     26254     26250     26253     26255     26250     26253     26256
     26251     26250     26252     26251     26250     26253     26252     26250     26253
     26253     26256     26257     26253     26256     26258     26253     26256     26259
     26254     26253     26255     26254     26253     26256     26255     26253     26256
     26256     26259     26260     26256     26259     26261     26256     26259     26262
     26257     26256     26258     26257     26256     26259     26258     26256     26259
     26260     26259     26261     26260     26259     26262     26261     26259     26262
     26263     26266     26267     26263     26268     26269     26263     26268     26270
     26263     26268     26272     26264     26263     26265     26264     26263     26266
     26264     26263     26268     26265     26263     26266     26265     26263     26268
     26266     26263     26268     26268     26270     26271     26268     26272     26273
     26268     26272     26274     26268     26272     26279     26269     26268     26270
     26269     26268     26272     26270     26268     26272     26272     26279     26275
     26273     26272     26274     26273     26272     26279     26274     26272     26279
     26275     26278     26280     26276     26275     26277     26276     26275     26278
     26276     26275     26279     26277     26275     26278     26277     26275     26279
     26278     26275     26279     26278     26280     26281     26278     26280     26282
     26278     26280     26283     26280     26283     26284     26280     26283     26285
     26280     26283     26291     26281     26280     26282     26281     26280     26283
     26282     26280     26283     26283     26285     26286     26283     26291     26292
     26283     26291     26293     26283     26291     26294     26284     26283     26285
     26284     26283     26291     26285     26283     26291     26285     26286     26287
     26285     26286     26288     26286     26288     26289     26286     26288     26290
     26286     26288     26300     26287     26286     26288     26288     26300     26301
     26288     26300     26302     26288     26300     26303     26289     26288     26290
     26289     26288     26300     26290     26288     26300     26291     26294     26295
     26292     26291     26293     26292     26291     26294     26293     26291     26294
     26294     26295     26296     26294     26295     26297     26295     26297     26298
     26295     26297     26299     26295     26297     26344     26296     26295     26297
     26297     26344     26345     26297     26344     26346     26297     26344     26347
     26298     26297     26299     26298     26297     26344     26299     26297     26344
     26300     26303     26304     26300     26303     26305     26300     26303     26306
     26301     26300     26302     26301     26300     26303     26302     26300     26303
     26303     26306     26307     26303     26306     26308     26303     26306     26309
     26304     26303     26305     26304     26303     26306     26305     26303     26306
     26306     26309     26310     26306     26309     26311     26306     26309     26312
     26307     26306     26308     26307     26306     26309     26308     26306     26309
     26309     26312     26313     26309     26312     26314     26309     26312     26315
     26310     26309     26311     26310     26309     26312     26311     26309     26312
     26312     26315     26316     26312     26315     26317     26312     26315     26318
     26313     26312     26314     26313     26312     26315     26314     26312     26315
     26315     26318     26319     26315     26318     26320     26315     26318     26323
     26316     26315     26317     26316     26315     26318     26317     26315     26318
     26318     26320     26321     26318     26320     26322     26318     26320     26323
     26318     26323     26320     26318     26323     26324     26318     26323     26325
     26319     26318     26320     26319     26318     26323     26320     26318     26323
     26320     26323     26324     26320     26323     26325     26321     26320     26322
     26321     26320     26323     26322     26320     26323     26323     26325     26326
     26323     26325     26327     26323     26325     26328     26324     26323     26325
     26325     26328     26329     26325     26328     26330     26325     26328     26331
     26326     26325     26327     26326     26325     26328     26327     26325     26328
     26328     26331     26332     26328     26331     26333     26328     26331     26334
     26329     26328     26330     26329     26328     26331     26330     26328     26331
     26331     26334     26335     26331     26334     26336     26331     26334     26337
     26332     26331     26333     26332     26331     26334     26333     26331     26334
     26334     26337     26338     26334     26337     26339     26334     26337     26340
     26335     26334     26336     26335     26334     26337     26336     26334     26337
     26337     26340     26341     26337     26340     26342     26337     26340     26343
     26338     26337     26339     26338     26337     26340     26339     26337     26340
     26341     26340     26342     26341     26340     26343     26342     26340     26343
     26344     26347     26348     26344     26347     26349     26344     26347     26350
     26345     26344     26346     26345     26344     26347     26346     26344     26347
     26347     26350     26351     26347     26350     26352     26347     26350     26353
     26348     26347     26349     26348     26347     26350     26349     26347     26350
     26350     26353     26354     26350     26353     26355     26350     26353     26356
     26351     26350     26352     26351     26350     26353     26352     26350     26353
     26353     26356     26357     26353     26356     26358     26353     26356     26359
     26354     26353     26355     26354     26353     26356     26355     26353     26356
     26356     26359     26360     26356     26359     26361     26356     26359     26362
     26357     26356     26358     26357     26356     26359     26358     26356     26359
     26359     26362     26363     26359     26362     26364     26359     26362     26365
     26360     26359     26361     26360     26359     26362     26361     26359     26362
     26362     26365     26366     26362     26365     26367     26362     26365     26368
     26363     26362     26364     26363     26362     26365     26364     26362     26365
     26365     26368     26369     26365     26368     26370     26365     26368     26371
     26366     26365     26367     26366     26365     26368     26367     26365     26368
     26368     26371     26372     26368     26371     26373     26368     26371     26374
     26369     26368     26370     26369     26368     26371     26370     26368     26371
     26371     26374     26375     26371     26374     26376     26371     26374     26377
     26372     26371     26373     26372     26371     26374     26373     26371     26374
     26374     26377     26378     26374     26377     26379     26374     26377     26380
     26375     26374     26376     26375     26374     26377     26376     26374     26377
     26377     26380     26381     26377     26380     26382     26377     26380     26383
     26378     26377     26379     26378     26377     26380     26379     26377     26380
     26380     26383     26384     26380     26383     26385     26380     26383     26386
     26381     26380     26382     26381     26380     26383     26382     26380     26383
     26384     26383     26385     26384     26383     26386     26385     26383     26386
     26387     26391     26392     26387     26391     26393     26387     26391     26394
     26388     26387     26389     26388     26387     26390     26388     26387     26391
     26389     26387     26390     26389     26387     26391     26390     26387     26391
     26391     26394     26395     26391     26394     26396     26391     26394     26401
     26392     26391     26393     26392     26391     26394     26393     26391     26394
     26394     26401     26397     26395     26394     26396     26395     26394     26401
     26396     26394     26401     26397     26400     26402     26398     26397     26399
     26398     26397     26400     26398     26397     26401     26399     26397     26400
     26399     26397     26401     26400     26397     26401     26400     26402     26403
     26400     26402     26404     26400     26402     26405     26402     26405     26406
     26402     26405     26407     26402     26405     26413     26403     26402     26404
     26403     26402     26405     26404     26402     26405     26405     26407     26408
     26405     26413     26414     26405     26413     26415     26405     26413     26416
     26406     26405     26407     26406     26405     26413     26407     26405     26413
     26407     26408     26409     26407     26408     26410     26408     26410     26411
     26408     26410     26412     26408     26410     26422     26409     26408     26410
     26410     26422     26423     26410     26422     26424     26410     26422     26425
     26411     26410     26412     26411     26410     26422     26412     26410     26422
     26413     26416     26417     26414     26413     26415     26414     26413     26416
     26415     26413     26416     26416     26417     26418     26416     26417     26419
     26417     26419     26420     26417     26419     26421     26417     26419     26466
     26418     26417     26419     26419     26466     26467     26419     26466     26468
     26419     26466     26469     26420     26419     26421     26420     26419     26466
     26421     26419     26466     26422     26425     26426     26422     26425     26427
     26422     26425     26428     26423     26422     26424     26423     26422     26425
     26424     26422     26425     26425     26428     26429     26425     26428     26430
     26425     26428     26431     26426     26425     26427     26426     26425     26428
     26427     26425     26428     26428     26431     26432     26428     26431     26433
     26428     26431     26434     26429     26428     26430     26429     26428     26431
     26430     26428     26431     26431     26434     26435     26431     26434     26436
     26431     26434     26437     26432     26431     26433     26432     26431     26434
     26433     26431     26434     26434     26437     26438     26434     26437     26439
     26434     26437     26440     26435     26434     26436     26435     26434     26437
     26436     26434     26437     26437     26440     26441     26437     26440     26442
     26437     26440     26445     26438     26437     26439     26438     26437     26440
     26439     26437     26440     26440     26442     26443     26440     26442     26444
     26440     26442     26445     26440     26445     26442     26440     26445     26446
     26440     26445     26447     26441     26440     26442     26441     26440     26445
     26442     26440     26445     26442     26445     26446     26442     26445     26447
     26443     26442     26444     26443     26442     26445     26444     26442     26445
     26445     26447     26448     26445     26447     26449     26445     26447     26450
     26446     26445     26447     26447     26450     26451     26447     26450     26452
     26447     26450     26453     26448     26447     26449     26448     26447     26450
     26449     26447     26450     26450     26453     26454     26450     26453     26455
     26450     26453     26456     26451     26450     26452     26451     26450     26453
     26452     26450     26453     26453     26456     26457     26453     26456     26458
     26453     26456     26459     26454     26453     26455     26454     26453     26456
     26455     26453     26456     26456     26459     26460     26456     26459     26461
     26456     26459     26462     26457     26456     26458     26457     26456     26459
     26458     26456     26459     26459     26462     26463     26459     26462     26464
     26459     26462     26465     26460     26459     26461     26460     26459     26462
     26461     26459     26462     26463     26462     26464     26463     26462     26465
     26464     26462     26465     26466     26469     26470     26466     26469     26471
     26466     26469     26472     26467     26466     26468     26467     26466     26469
     26468     26466     26469     26469     26472     26473     26469     26472     26474
     26469     26472     26475     26470     26469     26471     26470     26469     26472
     26471     26469     26472     26472     26475     26476     26472     26475     26477
     26472     26475     26478     26473     26472     26474     26473     26472     26475
     26474     26472     26475     26475     26478     26479     26475     26478     26480
     26475     26478     26481     26476     26475     26477     26476     26475     26478
     26477     26475     26478     26478     26481     26482     26478     26481     26483
     26478     26481     26484     26479     26478     26480     26479     26478     26481
     26480     26478     26481     26481     26484     26485     26481     26484     26486
     26481     26484     26487     26482     26481     26483     26482     26481     26484
     26483     26481     26484     26484     26487     26488     26484     26487     26489
     26484     26487     26490     26485     26484     26486     26485     26484     26487
     26486     26484     26487     26487     26490     26491     26487     26490     26492
     26487     26490     26493     26488     26487     26489     26488     26487     26490
     26489     26487     26490     26490     26493     26494     26490     26493     26495
     26490     26493     26496     26491     26490     26492     26491     26490     26493
     26492     26490     26493     26493     26496     26497     26493     26496     26498
     26493     26496     26499     26494     26493     26495     26494     26493     26496
     26495     26493     26496     26496     26499     26500     26496     26499     26501
     26496     26499     26502     26497     26496     26498     26497     26496     26499
     26498     26496     26499     26499     26502     26503     26499     26502     26504
     26499     26502     26505     26500     26499     26501     26500     26499     26502
     26501     26499     26502     26502     26505     26506     26502     26505     26507
     26502     26505     26508     26503     26502     26504     26503     26502     26505
     26504     26502     26505     26506     26505     26507     26506     26505     26508
     26507     26505     26508     26509     26512     26513     26509     26514     26515
     26509     26514     26516     26509     26514     26518     26510     26509     26511
     26510     26509     26512     26510     26509     26514     26511     26509     26512
     26511     26509     26514     26512     26509     26514     26514     26516     26517
     26514     26518     26519     26514     26518     26520     26514     26518     26525
     26515     26514     26516     26515     26514     26518     26516     26514     26518
     26518     26525     26521     26519     26518     26520     26519     26518     26525
     26520     26518     26525     26521     26524     26526     26522     26521     26523
     26522     26521     26524     26522     26521     26525     26523     26521     26524
     26523     26521     26525     26524     26521     26525     26524     26526     26527
     26524     26526     26528     26524     26526     26529     26526     26529     26530
     26526     26529     26531     26526     26529     26537     26527     26526     26528
     26527     26526     26529     26528     26526     26529     26529     26531     26532
     26529     26537     26538     26529     26537     26539     26529     26537     26540
     26530     26529     26531     26530     26529     26537     26531     26529     26537
     26531     26532     26533     26531     26532     26534     26532     26534     26535
     26532     26534     26536     26532     26534     26546     26533     26532     26534
     26534     26546     26547     26534     26546     26548     26534     26546     26549
     26535     26534     26536     26535     26534     26546     26536     26534     26546
     26537     26540     26541     26538     26537     26539     26538     26537     26540
     26539     26537     26540     26540     26541     26542     26540     26541     26543
     26541     26543     26544     26541     26543     26545     26541     26543     26587
     26542     26541     26543     26543     26587     26588     26543     26587     26589
     26543     26587     26590     26544     26543     26545     26544     26543     26587
     26545     26543     26587     26546     26549     26550     26546     26549     26551
     26546     26549     26552     26547     26546     26548     26547     26546     26549
     26548     26546     26549     26549     26552     26553     26549     26552     26554
     26549     26552     26555     26550     26549     26551     26550     26549     26552
     26551     26549     26552     26552     26555     26556     26552     26555     26557
     26552     26555     26558     26553     26552     26554     26553     26552     26555
     26554     26552     26555     26555     26558     26559     26555     26558     26560
     26555     26558     26561     26556     26555     26557     26556     26555     26558
     26557     26555     26558     26558     26561     26562     26558     26561     26563
     26558     26561     26564     26559     26558     26560     26559     26558     26561
     26560     26558     26561     26561     26564     26565     26561     26564     26566
     26562     26561     26563     26562     26561     26564     26563     26561     26564
     26564     26566     26567     26564     26566     26568     26565     26564     26566
     26566     26568     26569     26566     26568     26570     26566     26568     26571
     26567     26566     26568     26568     26571     26572     26568     26571     26573
     26568     26571     26574     26569     26568     26570     26569     26568     26571
     26570     26568     26571     26571     26574     26575     26571     26574     26576
     26571     26574     26577     26572     26571     26573     26572     26571     26574
     26573     26571     26574     26574     26577     26578     26574     26577     26579
     26574     26577     26580     26575     26574     26576     26575     26574     26577
     26576     26574     26577     26577     26580     26581     26577     26580     26582
     26577     26580     26583     26578     26577     26579     26578     26577     26580
     26579     26577     26580     26580     26583     26584     26580     26583     26585
     26580     26583     26586     26581     26580     26582     26581     26580     26583
     26582     26580     26583     26584     26583     26585     26584     26583     26586
     26585     26583     26586     26587     26590     26591     26587     26590     26592
     26587     26590     26593     26588     26587     26589     26588     26587     26590
     26589     26587     26590     26590     26593     26594     26590     26593     26595
     26590     26593     26596     26591     26590     26592     26591     26590     26593
     26592     26590     26593     26593     26596     26597     26593     26596     26598
     26593     26596     26599     26594     26593     26595     26594     26593     26596
     26595     26593     26596     26596     26599     26600     26596     26599     26601
     26596     26599     26602     26597     26596     26598     26597     26596     26599
     26598     26596     26599     26599     26602     26603     26599     26602     26604
     26599     26602     26605     26600     26599     26601     26600     26599     26602
     26601     26599     26602     26602     26605     26606     26602     26605     26607
     26602     26605     26608     26603     26602     26604     26603     26602     26605
     26604     26602     26605     26605     26608     26609     26605     26608     26610
     26605     26608     26611     26606     26605     26607     26606     26605     26608
     26607     26605     26608     26608     26611     26612     26608     26611     26613
     26608     26611     26614     26609     26608     26610     26609     26608     26611
     26610     26608     26611     26611     26614     26615     26611     26614     26616
     26611     26614     26617     26612     26611     26613     26612     26611     26614
     26613     26611     26614     26614     26617     26618     26614     26617     26619
     26614     26617     26620     26615     26614     26616     26615     26614     26617
     26616     26614     26617     26617     26620     26621     26617     26620     26622
     26617     26620     26623     26618     26617     26619     26618     26617     26620
     26619     26617     26620     26620     26623     26624     26620     26623     26625
     26620     26623     26626     26621     26620     26622     26621     26620     26623
     26622     26620     26623     26623     26626     26627     26623     26626     26628
     26623     26626     26629     26624     26623     26625     26624     26623     26626
     26625     26623     26626     26627     26626     26628     26627     26626     26629
     26628     26626     26629     26630     26634     26635     26630     26634     26636
     26630     26634     26637     26631     26630     26632     26631     26630     26633
     26631     26630     26634     26632     26630     26633     26632     26630     26634
     26633     26630     26634     26634     26637     26638     26634     26637     26639
     26634     26637     26644     26635     26634     26636     26635     26634     26637
     26636     26634     26637     26637     26644     26640     26638     26637     26639
     26638     26637     26644     26639     26637     26644     26640     26643     26645
     26641     26640     26642     26641     26640     26643     26641     26640     26644
     26642     26640     26643     26642     26640     26644     26643     26640     26644
     26643     26645     26646     26643     26645     26647     26643     26645     26648
     26645     26648     26649     26645     26648     26650     26645     26648     26656
     26646     26645     26647     26646     26645     26648     26647     26645     26648
     26648     26650     26651     26648     26656     26657     26648     26656     26658
     26648     26656     26659     26649     26648     26650     26649     26648     26656
     26650     26648     26656     26650     26651     26652     26650     26651     26653
     26651     26653     26654     26651     26653     26655     26651     26653     26665
     26652     26651     26653     26653     26665     26666     26653     26665     26667
     26653     26665     26668     26654     26653     26655     26654     26653     26665
     26655     26653     26665     26656     26659     26660     26657     26656     26658
     26657     26656     26659     26658     26656     26659     26659     26660     26661
     26659     26660     26662     26660     26662     26663     26660     26662     26664
     26660     26662     26709     26661     26660     26662     26662     26709     26710
     26662     26709     26711     26662     26709     26712     26663     26662     26664
     26663     26662     26709     26664     26662     26709     26665     26668     26669
     26665     26668     26670     26665     26668     26671     26666     26665     26667
     26666     26665     26668     26667     26665     26668     26668     26671     26672
     26668     26671     26673     26668     26671     26674     26669     26668     26670
     26669     26668     26671     26670     26668     26671     26671     26674     26675
     26671     26674     26676     26671     26674     26677     26672     26671     26673
     26672     26671     26674     26673     26671     26674     26674     26677     26678
     26674     26677     26679     26674     26677     26680     26675     26674     26676
     26675     26674     26677     26676     26674     26677     26677     26680     26681
     26677     26680     26682     26677     26680     26683     26678     26677     26679
     26678     26677     26680     26679     26677     26680     26680     26683     26684
     26680     26683     26685     26680     26683     26688     26681     26680     26682
     26681     26680     26683     26682     26680     26683     26683     26685     26686
     26683     26685     26687     26683     26685     26688     26683     26688     26685
     26683     26688     26689     26683     26688     26690     26684     26683     26685
     26684     26683     26688     26685     26683     26688     26685     26688     26689
     26685     26688     26690     26686     26685     26687     26686     26685     26688
     26687     26685     26688     26688     26690     26691     26688     26690     26692
     26688     26690     26693     26689     26688     26690     26690     26693     26694
     26690     26693     26695     26690     26693     26696     26691     26690     26692
     26691     26690     26693     26692     26690     26693     26693     26696     26697
     26693     26696     26698     26693     26696     26699     26694     26693     26695
     26694     26693     26696     26695     26693     26696     26696     26699     26700
     26696     26699     26701     26696     26699     26702     26697     26696     26698
     26697     26696     26699     26698     26696     26699     26699     26702     26703
     26699     26702     26704     26699     26702     26705     26700     26699     26701
     26700     26699     26702     26701     26699     26702     26702     26705     26706
     26702     26705     26707     26702     26705     26708     26703     26702     26704
     26703     26702     26705     26704     26702     26705     26706     26705     26707
     26706     26705     26708     26707     26705     26708     26709     26712     26713
     26709     26712     26714     26709     26712     26715     26710     26709     26711
     26710     26709     26712     26711     26709     26712     26712     26715     26716
     26712     26715     26717     26712     26715     26718     26713     26712     26714
     26713     26712     26715     26714     26712     26715     26715     26718     26719
     26715     26718     26720     26715     26718     26721     26716     26715     26717
     26716     26715     26718     26717     26715     26718     26718     26721     26722
     26718     26721     26723     26718     26721     26724     26719     26718     26720
     26719     26718     26721     26720     26718     26721     26721     26724     26725
     26721     26724     26726     26721     26724     26727     26722     26721     26723
     26722     26721     26724     26723     26721     26724     26724     26727     26728
     26724     26727     26729     26724     26727     26730     26725     26724     26726
     26725     26724     26727     26726     26724     26727     26727     26730     26731
     26727     26730     26732     26727     26730     26733     26728     26727     26729
     26728     26727     26730     26729     26727     26730     26730     26733     26734
     26730     26733     26735     26730     26733     26736     26731     26730     26732
     26731     26730     26733     26732     26730     26733     26733     26736     26737
     26733     26736     26738     26733     26736     26739     26734     26733     26735
     26734     26733     26736     26735     26733     26736     26736     26739     26740
     26736     26739     26741     26736     26739     26742     26737     26736     26738
     26737     26736     26739     26738     26736     26739     26739     26742     26743
     26739     26742     26744     26739     26742     26745     26740     26739     26741
     26740     26739     26742     26741     26739     26742     26742     26745     26746
     26742     26745     26747     26742     26745     26748     26743     26742     26744
     26743     26742     26745     26744     26742     26745     26745     26748     26749
     26745     26748     26750     26745     26748     26751     26746     26745     26747
     26746     26745     26748     26747     26745     26748     26749     26748     26750
     26749     26748     26751     26750     26748     26751     26752     26756     26757
     26752     26756     26758     26752     26756     26759     26753     26752     26754
     26753     26752     26755     26753     26752     26756     26754     26752     26755
     26754     26752     26756     26755     26752     26756     26756     26759     26760
     26756     26759     26761     26756     26759     26766     26757     26756     26758
     26757     26756     26759     26758     26756     26759     26759     26766     26762
     26760     26759     26761     26760     26759     26766     26761     26759     26766
     26762     26765     26767     26763     26762     26764     26763     26762     26765
     26763     26762     26766     26764     26762     26765     26764     26762     26766
     26765     26762     26766     26765     26767     26768     26765     26767     26769
     26765     26767     26770     26767     26770     26771     26767     26770     26772
     26767     26770     26778     26768     26767     26769     26768     26767     26770
     26769     26767     26770     26770     26772     26773     26770     26778     26779
     26770     26778     26780     26770     26778     26781     26771     26770     26772
     26771     26770     26778     26772     26770     26778     26772     26773     26774
     26772     26773     26775     26773     26775     26776     26773     26775     26777
     26773     26775     26787     26774     26773     26775     26775     26787     26788
     26775     26787     26789     26775     26787     26790     26776     26775     26777
     26776     26775     26787     26777     26775     26787     26778     26781     26782
     26779     26778     26780     26779     26778     26781     26780     26778     26781
     26781     26782     26783     26781     26782     26784     26782     26784     26785
     26782     26784     26786     26782     26784     26831     26783     26782     26784
     26784     26831     26832     26784     26831     26833     26784     26831     26834
     26785     26784     26786     26785     26784     26831     26786     26784     26831
     26787     26790     26791     26787     26790     26792     26787     26790     26793
     26788     26787     26789     26788     26787     26790     26789     26787     26790
     26790     26793     26794     26790     26793     26795     26790     26793     26796
     26791     26790     26792     26791     26790     26793     26792     26790     26793
     26793     26796     26797     26793     26796     26798     26793     26796     26799
     26794     26793     26795     26794     26793     26796     26795     26793     26796
     26796     26799     26800     26796     26799     26801     26796     26799     26802
     26797     26796     26798     26797     26796     26799     26798     26796     26799
     26799     26802     26803     26799     26802     26804     26799     26802     26805
     26800     26799     26801     26800     26799     26802     26801     26799     26802
     26802     26805     26806     26802     26805     26807     26802     26805     26810
     26803     26802     26804     26803     26802     26805     26804     26802     26805
     26805     26807     26808     26805     26807     26809     26805     26807     26810
     26805     26810     26807     26805     26810     26811     26805     26810     26812
     26806     26805     26807     26806     26805     26810     26807     26805     26810
     26807     26810     26811     26807     26810     26812     26808     26807     26809
     26808     26807     26810     26809     26807     26810     26810     26812     26813
     26810     26812     26814     26810     26812     26815     26811     26810     26812
     26812     26815     26816     26812     26815     26817     26812     26815     26818
     26813     26812     26814     26813     26812     26815     26814     26812     26815
     26815     26818     26819     26815     26818     26820     26815     26818     26821
     26816     26815     26817     26816     26815     26818     26817     26815     26818
     26818     26821     26822     26818     26821     26823     26818     26821     26824
     26819     26818     26820     26819     26818     26821     26820     26818     26821
     26821     26824     26825     26821     26824     26826     26821     26824     26827
     26822     26821     26823     26822     26821     26824     26823     26821     26824
     26824     26827     26828     26824     26827     26829     26824     26827     26830
     26825     26824     26826     26825     26824     26827     26826     26824     26827
     26828     26827     26829     26828     26827     26830     26829     26827     26830
     26831     26834     26835     26831     26834     26836     26831     26834     26837
     26832     26831     26833     26832     26831     26834     26833     26831     26834
     26834     26837     26838     26834     26837     26839     26834     26837     26840
     26835     26834     26836     26835     26834     26837     26836     26834     26837
     26837     26840     26841     26837     26840     26842     26837     26840     26843
     26838     26837     26839     26838     26837     26840     26839     26837     26840
     26840     26843     26844     26840     26843     26845     26840     26843     26846
     26841     26840     26842     26841     26840     26843     26842     26840     26843
     26843     26846     26847     26843     26846     26848     26843     26846     26849
     26844     26843     26845     26844     26843     26846     26845     26843     26846
     26846     26849     26850     26846     26849     26851     26846     26849     26852
     26847     26846     26848     26847     26846     26849     26848     26846     26849
     26849     26852     26853     26849     26852     26854     26849     26852     26855
     26850     26849     26851     26850     26849     26852     26851     26849     26852
     26852     26855     26856     26852     26855     26857     26852     26855     26858
     26853     26852     26854     26853     26852     26855     26854     26852     26855
     26855     26858     26859     26855     26858     26860     26855     26858     26861
     26856     26855     26857     26856     26855     26858     26857     26855     26858
     26858     26861     26862     26858     26861     26863     26858     26861     26864
     26859     26858     26860     26859     26858     26861     26860     26858     26861
     26861     26864     26865     26861     26864     26866     26861     26864     26867
     26862     26861     26863     26862     26861     26864     26863     26861     26864
     26864     26867     26868     26864     26867     26869     26864     26867     26870
     26865     26864     26866     26865     26864     26867     26866     26864     26867
     26867     26870     26871     26867     26870     26872     26867     26870     26873
     26868     26867     26869     26868     26867     26870     26869     26867     26870
     26871     26870     26872     26871     26870     26873     26872     26870     26873
     26874     26878     26879     26874     26878     26880     26874     26878     26881
     26875     26874     26876     26875     26874     26877     26875     26874     26878
     26876     26874     26877     26876     26874     26878     26877     26874     26878
     26878     26881     26882     26878     26881     26883     26878     26881     26888
     26879     26878     26880     26879     26878     26881     26880     26878     26881
     26881     26888     26884     26882     26881     26883     26882     26881     26888
     26883     26881     26888     26884     26887     26889     26885     26884     26886
     26885     26884     26887     26885     26884     26888     26886     26884     26887
     26886     26884     26888     26887     26884     26888     26887     26889     26890
     26887     26889     26891     26887     26889     26892     26889     26892     26893
     26889     26892     26894     26889     26892     26900     26890     26889     26891
     26890     26889     26892     26891     26889     26892     26892     26894     26895
     26892     26900     26901     26892     26900     26902     26892     26900     26903
     26893     26892     26894     26893     26892     26900     26894     26892     26900
     26894     26895     26896     26894     26895     26897     26895     26897     26898
     26895     26897     26899     26895     26897     26909     26896     26895     26897
     26897     26909     26910     26897     26909     26911     26897     26909     26912
     26898     26897     26899     26898     26897     26909     26899     26897     26909
     26900     26903     26904     26901     26900     26902     26901     26900     26903
     26902     26900     26903     26903     26904     26905     26903     26904     26906
     26904     26906     26907     26904     26906     26908     26904     26906     26950
     26905     26904     26906     26906     26950     26951     26906     26950     26952
     26906     26950     26953     26907     26906     26908     26907     26906     26950
     26908     26906     26950     26909     26912     26913     26909     26912     26914
     26909     26912     26915     26910     26909     26911     26910     26909     26912
     26911     26909     26912     26912     26915     26916     26912     26915     26917
     26912     26915     26918     26913     26912     26914     26913     26912     26915
     26914     26912     26915     26915     26918     26919     26915     26918     26920
     26915     26918     26921     26916     26915     26917     26916     26915     26918
     26917     26915     26918     26918     26921     26922     26918     26921     26923
     26918     26921     26924     26919     26918     26920     26919     26918     26921
     26920     26918     26921     26921     26924     26925     26921     26924     26926
     26921     26924     26927     26922     26921     26923     26922     26921     26924
     26923     26921     26924     26924     26927     26928     26924     26927     26929
     26925     26924     26926     26925     26924     26927     26926     26924     26927
     26927     26929     26930     26927     26929     26931     26928     26927     26929
     26929     26931     26932     26929     26931     26933     26929     26931     26934
     26930     26929     26931     26931     26934     26935     26931     26934     26936
     26931     26934     26937     26932     26931     26933     26932     26931     26934
     26933     26931     26934     26934     26937     26938     26934     26937     26939
     26934     26937     26940     26935     26934     26936     26935     26934     26937
     26936     26934     26937     26937     26940     26941     26937     26940     26942
     26937     26940     26943     26938     26937     26939     26938     26937     26940
     26939     26937     26940     26940     26943     26944     26940     26943     26945
     26940     26943     26946     26941     26940     26942     26941     26940     26943
     26942     26940     26943     26943     26946     26947     26943     26946     26948
     26943     26946     26949     26944     26943     26945     26944     26943     26946
     26945     26943     26946     26947     26946     26948     26947     26946     26949
     26948     26946     26949     26950     26953     26954     26950     26953     26955
     26950     26953     26956     26951     26950     26952     26951     26950     26953
     26952     26950     26953     26953     26956     26957     26953     26956     26958
     26953     26956     26959     26954     26953     26955     26954     26953     26956
     26955     26953     26956     26956     26959     26960     26956     26959     26961
     26956     26959     26962     26957     26956     26958     26957     26956     26959
     26958     26956     26959     26959     26962     26963     26959     26962     26964
     26959     26962     26965     26960     26959     26961     26960     26959     26962
     26961     26959     26962     26962     26965     26966     26962     26965     26967
     26962     26965     26968     26963     26962     26964     26963     26962     26965
     26964     26962     26965     26965     26968     26969     26965     26968     26970
     26966     26965     26967     26966     26965     26968     26967     26965     26968
     26968     26970     26971     26968     26970     26972     26969     26968     26970
     26970     26972     26973     26970     26972     26974     26970     26972     26975
     26971     26970     26972     26972     26975     26976     26972     26975     26977
     26972     26975     26978     26973     26972     26974     26973     26972     26975
     26974     26972     26975     26975     26978     26979     26975     26978     26980
     26975     26978     26981     26976     26975     26977     26976     26975     26978
     26977     26975     26978     26978     26981     26982     26978     26981     26983
     26978     26981     26984     26979     26978     26980     26979     26978     26981
     26980     26978     26981     26981     26984     26985     26981     26984     26986
     26981     26984     26987     26982     26981     26983     26982     26981     26984
     26983     26981     26984     26984     26987     26988     26984     26987     26989
     26984     26987     26990     26985     26984     26986     26985     26984     26987
     26986     26984     26987     26987     26990     26991     26987     26990     26992
     26987     26990     26993     26988     26987     26989     26988     26987     26990
     26989     26987     26990     26990     26993     26994     26990     26993     26995
     26990     26993     26996     26991     26990     26992     26991     26990     26993
     26992     26990     26993     26994     26993     26995     26994     26993     26996
     26995     26993     26996     26997     27001     27002     26997     27001     27003
     26997     27001     27004     26998     26997     26999     26998     26997     27000
     26998     26997     27001     26999     26997     27000     26999     26997     27001
     27000     26997     27001     27001     27004     27005     27001     27004     27006
     27001     27004     27011     27002     27001     27003     27002     27001     27004
     27003     27001     27004     27004     27011     27007     27005     27004     27006
     27005     27004     27011     27006     27004     27011     27007     27010     27012
     27008     27007     27009     27008     27007     27010     27008     27007     27011
     27009     27007     27010     27009     27007     27011     27010     27007     27011
     27010     27012     27013     27010     27012     27014     27010     27012     27015
     27012     27015     27016     27012     27015     27017     27012     27015     27023
     27013     27012     27014     27013     27012     27015     27014     27012     27015
     27015     27017     27018     27015     27023     27024     27015     27023     27025
     27015     27023     27026     27016     27015     27017     27016     27015     27023
     27017     27015     27023     27017     27018     27019     27017     27018     27020
     27018     27020     27021     27018     27020     27022     27018     27020     27032
     27019     27018     27020     27020     27032     27033     27020     27032     27034
     27020     27032     27035     27021     27020     27022     27021     27020     27032
     27022     27020     27032     27023     27026     27027     27024     27023     27025
     27024     27023     27026     27025     27023     27026     27026     27027     27028
     27026     27027     27029     27027     27029     27030     27027     27029     27031
     27027     27029     27076     27028     27027     27029     27029     27076     27077
     27029     27076     27078     27029     27076     27079     27030     27029     27031
     27030     27029     27076     27031     27029     27076     27032     27035     27036
     27032     27035     27037     27032     27035     27038     27033     27032     27034
     27033     27032     27035     27034     27032     27035     27035     27038     27039
     27035     27038     27040     27035     27038     27041     27036     27035     27037
     27036     27035     27038     27037     27035     27038     27038     27041     27042
     27038     27041     27043     27038     27041     27044     27039     27038     27040
     27039     27038     27041     27040     27038     27041     27041     27044     27045
     27041     27044     27046     27041     27044     27047     27042     27041     27043
     27042     27041     27044     27043     27041     27044     27044     27047     27048
     27044     27047     27049     27044     27047     27050     27045     27044     27046
     27045     27044     27047     27046     27044     27047     27047     27050     27051
     27047     27050     27052     27047     27050     27055     27048     27047     27049
     27048     27047     27050     27049     27047     27050     27050     27052     27053
     27050     27052     27054     27050     27052     27055     27050     27055     27052
     27050     27055     27056     27050     27055     27057     27051     27050     27052
     27051     27050     27055     27052     27050     27055     27052     27055     27056
     27052     27055     27057     27053     27052     27054     27053     27052     27055
     27054     27052     27055     27055     27057     27058     27055     27057     27059
     27055     27057     27060     27056     27055     27057     27057     27060     27061
     27057     27060     27062     27057     27060     27063     27058     27057     27059
     27058     27057     27060     27059     27057     27060     27060     27063     27064
     27060     27063     27065     27060     27063     27066     27061     27060     27062
     27061     27060     27063     27062     27060     27063     27063     27066     27067
     27063     27066     27068     27063     27066     27069     27064     27063     27065
     27064     27063     27066     27065     27063     27066     27066     27069     27070
     27066     27069     27071     27066     27069     27072     27067     27066     27068
     27067     27066     27069     27068     27066     27069     27069     27072     27073
     27069     27072     27074     27069     27072     27075     27070     27069     27071
     27070     27069     27072     27071     27069     27072     27073     27072     27074
     27073     27072     27075     27074     27072     27075     27076     27079     27080
     27076     27079     27081     27076     27079     27082     27077     27076     27078
     27077     27076     27079     27078     27076     27079     27079     27082     27083
     27079     27082     27084     27079     27082     27085     27080     27079     27081
     27080     27079     27082     27081     27079     27082     27082     27085     27086
     27082     27085     27087     27082     27085     27088     27083     27082     27084
     27083     27082     27085     27084     27082     27085     27085     27088     27089
     27085     27088     27090     27085     27088     27091     27086     27085     27087
     27086     27085     27088     27087     27085     27088     27088     27091     27092
     27088     27091     27093     27088     27091     27094     27089     27088     27090
     27089     27088     27091     27090     27088     27091     27091     27094     27095
     27091     27094     27096     27091     27094     27097     27092     27091     27093
     27092     27091     27094     27093     27091     27094     27094     27097     27098
     27094     27097     27099     27094     27097     27100     27095     27094     27096
     27095     27094     27097     27096     27094     27097     27097     27100     27101
     27097     27100     27102     27097     27100     27103     27098     27097     27099
     27098     27097     27100     27099     27097     27100     27100     27103     27104
     27100     27103     27105     27100     27103     27106     27101     27100     27102
     27101     27100     27103     27102     27100     27103     27103     27106     27107
     27103     27106     27108     27103     27106     27109     27104     27103     27105
     27104     27103     27106     27105     27103     27106     27106     27109     27110
     27106     27109     27111     27106     27109     27112     27107     27106     27108
     27107     27106     27109     27108     27106     27109     27109     27112     27113
     27109     27112     27114     27109     27112     27115     27110     27109     27111
     27110     27109     27112     27111     27109     27112     27112     27115     27116
     27112     27115     27117     27112     27115     27118     27113     27112     27114
     27113     27112     27115     27114     27112     27115     27116     27115     27117
     27116     27115     27118     27117     27115     27118     27119     27122     27123
     27119     27124     27125     27119     27124     27126     27119     27124     27128
     27120     27119     27121     27120     27119     27122     27120     27119     27124
     27121     27119     27122     27121     27119     27124     27122     27119     27124
     27124     27126     27127     27124     27128     27129     27124     27128     27130
     27124     27128     27135     27125     27124     27126     27125     27124     27128
     27126     27124     27128     27128     27135     27131     27129     27128     27130
     27129     27128     27135     27130     27128     27135     27131     27134     27136
     27132     27131     27133     27132     27131     27134     27132     27131     27135
     27133     27131     27134     27133     27131     27135     27134     27131     27135
     27134     27136     27137     27134     27136     27138     27134     27136     27139
     27136     27139     27140     27136     27139     27141     27136     27139     27147
     27137     27136     27138     27137     27136     27139     27138     27136     27139
     27139     27141     27142     27139     27147     27148     27139     27147     27149
     27139     27147     27150     27140     27139     27141     27140     27139     27147
     27141     27139     27147     27141     27142     27143     27141     27142     27144
     27142     27144     27145     27142     27144     27146     27142     27144     27156
     27143     27142     27144     27144     27156     27157     27144     27156     27158
     27144     27156     27159     27145     27144     27146     27145     27144     27156
     27146     27144     27156     27147     27150     27151     27148     27147     27149
     27148     27147     27150     27149     27147     27150     27150     27151     27152
     27150     27151     27153     27151     27153     27154     27151     27153     27155
     27151     27153     27200     27152     27151     27153     27153     27200     27201
     27153     27200     27202     27153     27200     27203     27154     27153     27155
     27154     27153     27200     27155     27153     27200     27156     27159     27160
     27156     27159     27161     27156     27159     27162     27157     27156     27158
     27157     27156     27159     27158     27156     27159     27159     27162     27163
     27159     27162     27164     27159     27162     27165     27160     27159     27161
     27160     27159     27162     27161     27159     27162     27162     27165     27166
     27162     27165     27167     27162     27165     27168     27163     27162     27164
     27163     27162     27165     27164     27162     27165     27165     27168     27169
     27165     27168     27170     27165     27168     27171     27166     27165     27167
     27166     27165     27168     27167     27165     27168     27168     27171     27172
     27168     27171     27173     27168     27171     27174     27169     27168     27170
     27169     27168     27171     27170     27168     27171     27171     27174     27175
     27171     27174     27176     27171     27174     27179     27172     27171     27173
     27172     27171     27174     27173     27171     27174     27174     27176     27177
     27174     27176     27178     27174     27176     27179     27174     27179     27176
     27174     27179     27180     27174     27179     27181     27175     27174     27176
     27175     27174     27179     27176     27174     27179     27176     27179     27180
     27176     27179     27181     27177     27176     27178     27177     27176     27179
     27178     27176     27179     27179     27181     27182     27179     27181     27183
     27179     27181     27184     27180     27179     27181     27181     27184     27185
     27181     27184     27186     27181     27184     27187     27182     27181     27183
     27182     27181     27184     27183     27181     27184     27184     27187     27188
     27184     27187     27189     27184     27187     27190     27185     27184     27186
     27185     27184     27187     27186     27184     27187     27187     27190     27191
     27187     27190     27192     27187     27190     27193     27188     27187     27189
     27188     27187     27190     27189     27187     27190     27190     27193     27194
     27190     27193     27195     27190     27193     27196     27191     27190     27192
     27191     27190     27193     27192     27190     27193     27193     27196     27197
     27193     27196     27198     27193     27196     27199     27194     27193     27195
     27194     27193     27196     27195     27193     27196     27197     27196     27198
     27197     27196     27199     27198     27196     27199     27200     27203     27204
     27200     27203     27205     27200     27203     27206     27201     27200     27202
     27201     27200     27203     27202     27200     27203     27203     27206     27207
     27203     27206     27208     27203     27206     27209     27204     27203     27205
     27204     27203     27206     27205     27203     27206     27206     27209     27210
     27206     27209     27211     27206     27209     27212     27207     27206     27208
     27207     27206     27209     27208     27206     27209     27209     27212     27213
     27209     27212     27214     27209     27212     27215     27210     27209     27211
     27210     27209     27212     27211     27209     27212     27212     27215     27216
     27212     27215     27217     27212     27215     27218     27213     27212     27214
     27213     27212     27215     27214     27212     27215     27215     27218     27219
     27215     27218     27220     27215     27218     27221     27216     27215     27217
     27216     27215     27218     27217     27215     27218     27218     27221     27222
     27218     27221     27223     27218     27221     27224     27219     27218     27220
     27219     27218     27221     27220     27218     27221     27221     27224     27225
     27221     27224     27226     27221     27224     27227     27222     27221     27223
     27222     27221     27224     27223     27221     27224     27224     27227     27228
     27224     27227     27229     27224     27227     27230     27225     27224     27226
     27225     27224     27227     27226     27224     27227     27227     27230     27231
     27227     27230     27232     27227     27230     27233     27228     27227     27229
     27228     27227     27230     27229     27227     27230     27230     27233     27234
     27230     27233     27235     27230     27233     27236     27231     27230     27232
     27231     27230     27233     27232     27230     27233     27233     27236     27237
     27233     27236     27238     27233     27236     27239     27234     27233     27235
     27234     27233     27236     27235     27233     27236     27236     27239     27240
     27236     27239     27241     27236     27239     27242     27237     27236     27238
     27237     27236     27239     27238     27236     27239     27240     27239     27241
     27240     27239     27242     27241     27239     27242     27243     27247     27248
     27243     27247     27249     27243     27247     27250     27244     27243     27245
     27244     27243     27246     27244     27243     27247     27245     27243     27246
     27245     27243     27247     27246     27243     27247     27247     27250     27251
     27247     27250     27252     27247     27250     27257     27248     27247     27249
     27248     27247     27250     27249     27247     27250     27250     27257     27253
     27251     27250     27252     27251     27250     27257     27252     27250     27257
     27253     27256     27258     27254     27253     27255     27254     27253     27256
     27254     27253     27257     27255     27253     27256     27255     27253     27257
     27256     27253     27257     27256     27258     27259     27256     27258     27260
     27256     27258     27261     27258     27261     27262     27258     27261     27263
     27258     27261     27269     27259     27258     27260     27259     27258     27261
     27260     27258     27261     27261     27263     27264     27261     27269     27270
     27261     27269     27271     27261     27269     27272     27262     27261     27263
     27262     27261     27269     27263     27261     27269     27263     27264     27265
     27263     27264     27266     27264     27266     27267     27264     27266     27268
     27264     27266     27278     27265     27264     27266     27266     27278     27279
     27266     27278     27280     27266     27278     27281     27267     27266     27268
     27267     27266     27278     27268     27266     27278     27269     27272     27273
     27270     27269     27271     27270     27269     27272     27271     27269     27272
     27272     27273     27274     27272     27273     27275     27273     27275     27276
     27273     27275     27277     27273     27275     27322     27274     27273     27275
     27275     27322     27323     27275     27322     27324     27275     27322     27325
     27276     27275     27277     27276     27275     27322     27277     27275     27322
     27278     27281     27282     27278     27281     27283     27278     27281     27284
     27279     27278     27280     27279     27278     27281     27280     27278     27281
     27281     27284     27285     27281     27284     27286     27281     27284     27287
     27282     27281     27283     27282     27281     27284     27283     27281     27284
     27284     27287     27288     27284     27287     27289     27284     27287     27290
     27285     27284     27286     27285     27284     27287     27286     27284     27287
     27287     27290     27291     27287     27290     27292     27287     27290     27293
     27288     27287     27289     27288     27287     27290     27289     27287     27290
     27290     27293     27294     27290     27293     27295     27290     27293     27296
     27291     27290     27292     27291     27290     27293     27292     27290     27293
     27293     27296     27297     27293     27296     27298     27293     27296     27301
     27294     27293     27295     27294     27293     27296     27295     27293     27296
     27296     27298     27299     27296     27298     27300     27296     27298     27301
     27296     27301     27298     27296     27301     27302     27296     27301     27303
     27297     27296     27298     27297     27296     27301     27298     27296     27301
     27298     27301     27302     27298     27301     27303     27299     27298     27300
     27299     27298     27301     27300     27298     27301     27301     27303     27304
     27301     27303     27305     27301     27303     27306     27302     27301     27303
     27303     27306     27307     27303     27306     27308     27303     27306     27309
     27304     27303     27305     27304     27303     27306     27305     27303     27306
     27306     27309     27310     27306     27309     27311     27306     27309     27312
     27307     27306     27308     27307     27306     27309     27308     27306     27309
     27309     27312     27313     27309     27312     27314     27309     27312     27315
     27310     27309     27311     27310     27309     27312     27311     27309     27312
     27312     27315     27316     27312     27315     27317     27312     27315     27318
     27313     27312     27314     27313     27312     27315     27314     27312     27315
     27315     27318     27319     27315     27318     27320     27315     27318     27321
     27316     27315     27317     27316     27315     27318     27317     27315     27318
     27319     27318     27320     27319     27318     27321     27320     27318     27321
     27322     27325     27326     27322     27325     27327     27322     27325     27328
     27323     27322     27324     27323     27322     27325     27324     27322     27325
     27325     27328     27329     27325     27328     27330     27325     27328     27331
     27326     27325     27327     27326     27325     27328     27327     27325     27328
     27328     27331     27332     27328     27331     27333     27328     27331     27334
     27329     27328     27330     27329     27328     27331     27330     27328     27331
     27331     27334     27335     27331     27334     27336     27331     27334     27337
     27332     27331     27333     27332     27331     27334     27333     27331     27334
     27334     27337     27338     27334     27337     27339     27334     27337     27340
     27335     27334     27336     27335     27334     27337     27336     27334     27337
     27337     27340     27341     27337     27340     27342     27337     27340     27343
     27338     27337     27339     27338     27337     27340     27339     27337     27340
     27340     27343     27344     27340     27343     27345     27340     27343     27346
     27341     27340     27342     27341     27340     27343     27342     27340     27343
     27343     27346     27347     27343     27346     27348     27343     27346     27349
     27344     27343     27345     27344     27343     27346     27345     27343     27346
     27346     27349     27350     27346     27349     27351     27346     27349     27352
     27347     27346     27348     27347     27346     27349     27348     27346     27349
     27349     27352     27353     27349     27352     27354     27349     27352     27355
     27350     27349     27351     27350     27349     27352     27351     27349     27352
     27352     27355     27356     27352     27355     27357     27352     27355     27358
     27353     27352     27354     27353     27352     27355     27354     27352     27355
     27355     27358     27359     27355     27358     27360     27355     27358     27361
     27356     27355     27357     27356     27355     27358     27357     27355     27358
     27358     27361     27362     27358     27361     27363     27358     27361     27364
     27359     27358     27360     27359     27358     27361     27360     27358     27361
     27362     27361     27363     27362     27361     27364     27363     27361     27364
     27365     27369     27370     27365     27369     27371     27365     27369     27372
     27366     27365     27367     27366     27365     27368     27366     27365     27369
     27367     27365     27368     27367     27365     27369     27368     27365     27369
     27369     27372     27373     27369     27372     27374     27369     27372     27379
     27370     27369     27371     27370     27369     27372     27371     27369     27372
     27372     27379     27375     27373     27372     27374     27373     27372     27379
     27374     27372     27379     27375     27378     27380     27376     27375     27377
     27376     27375     27378     27376     27375     27379     27377     27375     27378
     27377     27375     27379     27378     27375     27379     27378     27380     27381
     27378     27380     27382     27378     27380     27383     27380     27383     27384
     27380     27383     27385     27380     27383     27391     27381     27380     27382
     27381     27380     27383     27382     27380     27383     27383     27385     27386
     27383     27391     27392     27383     27391     27393     27383     27391     27394
     27384     27383     27385     27384     27383     27391     27385     27383     27391
     27385     27386     27387     27385     27386     27388     27386     27388     27389
     27386     27388     27390     27386     27388     27400     27387     27386     27388
     27388     27400     27401     27388     27400     27402     27388     27400     27403
     27389     27388     27390     27389     27388     27400     27390     27388     27400
     27391     27394     27395     27392     27391     27393     27392     27391     27394
     27393     27391     27394     27394     27395     27396     27394     27395     27397
     27395     27397     27398     27395     27397     27399     27395     27397     27444
     27396     27395     27397     27397     27444     27445     27397     27444     27446
     27397     27444     27447     27398     27397     27399     27398     27397     27444
     27399     27397     27444     27400     27403     27404     27400     27403     27405
     27400     27403     27406     27401     27400     27402     27401     27400     27403
     27402     27400     27403     27403     27406     27407     27403     27406     27408
     27403     27406     27409     27404     27403     27405     27404     27403     27406
     27405     27403     27406     27406     27409     27410     27406     27409     27411
     27406     27409     27412     27407     27406     27408     27407     27406     27409
     27408     27406     27409     27409     27412     27413     27409     27412     27414
     27409     27412     27415     27410     27409     27411     27410     27409     27412
     27411     27409     27412     27412     27415     27416     27412     27415     27417
     27412     27415     27418     27413     27412     27414     27413     27412     27415
     27414     27412     27415     27415     27418     27419     27415     27418     27420
     27415     27418     27423     27416     27415     27417     27416     27415     27418
     27417     27415     27418     27418     27420     27421     27418     27420     27422
     27418     27420     27423     27418     27423     27420     27418     27423     27424
     27418     27423     27425     27419     27418     27420     27419     27418     27423
     27420     27418     27423     27420     27423     27424     27420     27423     27425
     27421     27420     27422     27421     27420     27423     27422     27420     27423
     27423     27425     27426     27423     27425     27427     27423     27425     27428
     27424     27423     27425     27425     27428     27429     27425     27428     27430
     27425     27428     27431     27426     27425     27427     27426     27425     27428
     27427     27425     27428     27428     27431     27432     27428     27431     27433
     27428     27431     27434     27429     27428     27430     27429     27428     27431
     27430     27428     27431     27431     27434     27435     27431     27434     27436
     27431     27434     27437     27432     27431     27433     27432     27431     27434
     27433     27431     27434     27434     27437     27438     27434     27437     27439
     27434     27437     27440     27435     27434     27436     27435     27434     27437
     27436     27434     27437     27437     27440     27441     27437     27440     27442
     27437     27440     27443     27438     27437     27439     27438     27437     27440
     27439     27437     27440     27441     27440     27442     27441     27440     27443
     27442     27440     27443     27444     27447     27448     27444     27447     27449
     27444     27447     27450     27445     27444     27446     27445     27444     27447
     27446     27444     27447     27447     27450     27451     27447     27450     27452
     27447     27450     27453     27448     27447     27449     27448     27447     27450
     27449     27447     27450     27450     27453     27454     27450     27453     27455
     27450     27453     27456     27451     27450     27452     27451     27450     27453
     27452     27450     27453     27453     27456     27457     27453     27456     27458
     27453     27456     27459     27454     27453     27455     27454     27453     27456
     27455     27453     27456     27456     27459     27460     27456     27459     27461
     27456     27459     27462     27457     27456     27458     27457     27456     27459
     27458     27456     27459     27459     27462     27463     27459     27462     27464
     27459     27462     27465     27460     27459     27461     27460     27459     27462
     27461     27459     27462     27462     27465     27466     27462     27465     27467
     27462     27465     27468     27463     27462     27464     27463     27462     27465
     27464     27462     27465     27465     27468     27469     27465     27468     27470
     27465     27468     27471     27466     27465     27467     27466     27465     27468
     27467     27465     27468     27468     27471     27472     27468     27471     27473
     27468     27471     27474     27469     27468     27470     27469     27468     27471
     27470     27468     27471     27471     27474     27475     27471     27474     27476
     27471     27474     27477     27472     27471     27473     27472     27471     27474
     27473     27471     27474     27474     27477     27478     27474     27477     27479
     27474     27477     27480     27475     27474     27476     27475     27474     27477
     27476     27474     27477     27477     27480     27481     27477     27480     27482
     27477     27480     27483     27478     27477     27479     27478     27477     27480
     27479     27477     27480     27480     27483     27484     27480     27483     27485
     27480     27483     27486     27481     27480     27482     27481     27480     27483
     27482     27480     27483     27484     27483     27485     27484     27483     27486
     27485     27483     27486     27487     27491     27492     27487     27491     27493
     27487     27491     27494     27488     27487     27489     27488     27487     27490
     27488     27487     27491     27489     27487     27490     27489     27487     27491
     27490     27487     27491     27491     27494     27495     27491     27494     27496
     27491     27494     27501     27492     27491     27493     27492     27491     27494
     27493     27491     27494     27494     27501     27497     27495     27494     27496
     27495     27494     27501     27496     27494     27501     27497     27500     27502
     27498     27497     27499     27498     27497     27500     27498     27497     27501
     27499     27497     27500     27499     27497     27501     27500     27497     27501
     27500     27502     27503     27500     27502     27504     27500     27502     27505
     27502     27505     27506     27502     27505     27507     27502     27505     27513
     27503     27502     27504     27503     27502     27505     27504     27502     27505
     27505     27507     27508     27505     27513     27514     27505     27513     27515
     27505     27513     27516     27506     27505     27507     27506     27505     27513
     27507     27505     27513     27507     27508     27509     27507     27508     27510
     27508     27510     27511     27508     27510     27512     27508     27510     27522
     27509     27508     27510     27510     27522     27523     27510     27522     27524
     27510     27522     27525     27511     27510     27512     27511     27510     27522
     27512     27510     27522     27513     27516     27517     27514     27513     27515
     27514     27513     27516     27515     27513     27516     27516     27517     27518
     27516     27517     27519     27517     27519     27520     27517     27519     27521
     27517     27519     27566     27518     27517     27519     27519     27566     27567
     27519     27566     27568     27519     27566     27569     27520     27519     27521
     27520     27519     27566     27521     27519     27566     27522     27525     27526
     27522     27525     27527     27522     27525     27528     27523     27522     27524
     27523     27522     27525     27524     27522     27525     27525     27528     27529
     27525     27528     27530     27525     27528     27531     27526     27525     27527
     27526     27525     27528     27527     27525     27528     27528     27531     27532
     27528     27531     27533     27528     27531     27534     27529     27528     27530
     27529     27528     27531     27530     27528     27531     27531     27534     27535
     27531     27534     27536     27531     27534     27537     27532     27531     27533
     27532     27531     27534     27533     27531     27534     27534     27537     27538
     27534     27537     27539     27534     27537     27540     27535     27534     27536
     27535     27534     27537     27536     27534     27537     27537     27540     27541
     27537     27540     27542     27537     27540     27545     27538     27537     27539
     27538     27537     27540     27539     27537     27540     27540     27542     27543
     27540     27542     27544     27540     27542     27545     27540     27545     27542
     27540     27545     27546     27540     27545     27547     27541     27540     27542
     27541     27540     27545     27542     27540     27545     27542     27545     27546
     27542     27545     27547     27543     27542     27544     27543     27542     27545
     27544     27542     27545     27545     27547     27548     27545     27547     27549
     27545     27547     27550     27546     27545     27547     27547     27550     27551
     27547     27550     27552     27547     27550     27553     27548     27547     27549
     27548     27547     27550     27549     27547     27550     27550     27553     27554
     27550     27553     27555     27550     27553     27556     27551     27550     27552
     27551     27550     27553     27552     27550     27553     27553     27556     27557
     27553     27556     27558     27553     27556     27559     27554     27553     27555
     27554     27553     27556     27555     27553     27556     27556     27559     27560
     27556     27559     27561     27556     27559     27562     27557     27556     27558
     27557     27556     27559     27558     27556     27559     27559     27562     27563
     27559     27562     27564     27559     27562     27565     27560     27559     27561
     27560     27559     27562     27561     27559     27562     27563     27562     27564
     27563     27562     27565     27564     27562     27565     27566     27569     27570
     27566     27569     27571     27566     27569     27572     27567     27566     27568
     27567     27566     27569     27568     27566     27569     27569     27572     27573
     27569     27572     27574     27569     27572     27575     27570     27569     27571
     27570     27569     27572     27571     27569     27572     27572     27575     27576
     27572     27575     27577     27572     27575     27578     27573     27572     27574
     27573     27572     27575     27574     27572     27575     27575     27578     27579
     27575     27578     27580     27575     27578     27581     27576     27575     27577
     27576     27575     27578     27577     27575     27578     27578     27581     27582
     27578     27581     27583     27578     27581     27584     27579     27578     27580
     27579     27578     27581     27580     27578     27581     27581     27584     27585
     27581     27584     27586     27581     27584     27587     27582     27581     27583
     27582     27581     27584     27583     27581     27584     27584     27587     27588
     27584     27587     27589     27584     27587     27590     27585     27584     27586
     27585     27584     27587     27586     27584     27587     27587     27590     27591
     27587     27590     27592     27587     27590     27593     27588     27587     27589
     27588     27587     27590     27589     27587     27590     27590     27593     27594
     27590     27593     27595     27590     27593     27596     27591     27590     27592
     27591     27590     27593     27592     27590     27593     27593     27596     27597
     27593     27596     27598     27593     27596     27599     27594     27593     27595
     27594     27593     27596     27595     27593     27596     27596     27599     27600
     27596     27599     27601     27596     27599     27602     27597     27596     27598
     27597     27596     27599     27598     27596     27599     27599     27602     27603
     27599     27602     27604     27599     27602     27605     27600     27599     27601
     27600     27599     27602     27601     27599     27602     27602     27605     27606
     27602     27605     27607     27602     27605     27608     27603     27602     27604
     27603     27602     27605     27604     27602     27605     27606     27605     27607
     27606     27605     27608     27607     27605     27608     27609     27613     27614
     27609     27613     27615     27609     27613     27616     27610     27609     27611
     27610     27609     27612     27610     27609     27613     27611     27609     27612
     27611     27609     27613     27612     27609     27613     27613     27616     27617
     27613     27616     27618     27613     27616     27623     27614     27613     27615
     27614     27613     27616     27615     27613     27616     27616     27623     27619
     27617     27616     27618     27617     27616     27623     27618     27616     27623
     27619     27622     27624     27620     27619     27621     27620     27619     27622
     27620     27619     27623     27621     27619     27622     27621     27619     27623
     27622     27619     27623     27622     27624     27625     27622     27624     27626
     27622     27624     27627     27624     27627     27628     27624     27627     27629
     27624     27627     27635     27625     27624     27626     27625     27624     27627
     27626     27624     27627     27627     27629     27630     27627     27635     27636
     27627     27635     27637     27627     27635     27638     27628     27627     27629
     27628     27627     27635     27629     27627     27635     27629     27630     27631
     27629     27630     27632     27630     27632     27633     27630     27632     27634
     27630     27632     27644     27631     27630     27632     27632     27644     27645
     27632     27644     27646     27632     27644     27647     27633     27632     27634
     27633     27632     27644     27634     27632     27644     27635     27638     27639
     27636     27635     27637     27636     27635     27638     27637     27635     27638
     27638     27639     27640     27638     27639     27641     27639     27641     27642
     27639     27641     27643     27639     27641     27688     27640     27639     27641
     27641     27688     27689     27641     27688     27690     27641     27688     27691
     27642     27641     27643     27642     27641     27688     27643     27641     27688
     27644     27647     27648     27644     27647     27649     27644     27647     27650
     27645     27644     27646     27645     27644     27647     27646     27644     27647
     27647     27650     27651     27647     27650     27652     27647     27650     27653
     27648     27647     27649     27648     27647     27650     27649     27647     27650
     27650     27653     27654     27650     27653     27655     27650     27653     27656
     27651     27650     27652     27651     27650     27653     27652     27650     27653
     27653     27656     27657     27653     27656     27658     27653     27656     27659
     27654     27653     27655     27654     27653     27656     27655     27653     27656
     27656     27659     27660     27656     27659     27661     27656     27659     27662
     27657     27656     27658     27657     27656     27659     27658     27656     27659
     27659     27662     27663     27659     27662     27664     27659     27662     27667
     27660     27659     27661     27660     27659     27662     27661     27659     27662
     27662     27664     27665     27662     27664     27666     27662     27664     27667
     27662     27667     27664     27662     27667     27668     27662     27667     27669
     27663     27662     27664     27663     27662     27667     27664     27662     27667
     27664     27667     27668     27664     27667     27669     27665     27664     27666
     27665     27664     27667     27666     27664     27667     27667     27669     27670
     27667     27669     27671     27667     27669     27672     27668     27667     27669
     27669     27672     27673     27669     27672     27674     27669     27672     27675
     27670     27669     27671     27670     27669     27672     27671     27669     27672
     27672     27675     27676     27672     27675     27677     27672     27675     27678
     27673     27672     27674     27673     27672     27675     27674     27672     27675
     27675     27678     27679     27675     27678     27680     27675     27678     27681
     27676     27675     27677     27676     27675     27678     27677     27675     27678
     27678     27681     27682     27678     27681     27683     27678     27681     27684
     27679     27678     27680     27679     27678     27681     27680     27678     27681
     27681     27684     27685     27681     27684     27686     27681     27684     27687
     27682     27681     27683     27682     27681     27684     27683     27681     27684
     27685     27684     27686     27685     27684     27687     27686     27684     27687
     27688     27691     27692     27688     27691     27693     27688     27691     27694
     27689     27688     27690     27689     27688     27691     27690     27688     27691
     27691     27694     27695     27691     27694     27696     27691     27694     27697
     27692     27691     27693     27692     27691     27694     27693     27691     27694
     27694     27697     27698     27694     27697     27699     27694     27697     27700
     27695     27694     27696     27695     27694     27697     27696     27694     27697
     27697     27700     27701     27697     27700     27702     27697     27700     27703
     27698     27697     27699     27698     27697     27700     27699     27697     27700
     27700     27703     27704     27700     27703     27705     27700     27703     27706
     27701     27700     27702     27701     27700     27703     27702     27700     27703
     27703     27706     27707     27703     27706     27708     27703     27706     27709
     27704     27703     27705     27704     27703     27706     27705     27703     27706
     27706     27709     27710     27706     27709     27711     27706     27709     27712
     27707     27706     27708     27707     27706     27709     27708     27706     27709
     27709     27712     27713     27709     27712     27714     27709     27712     27715
     27710     27709     27711     27710     27709     27712     27711     27709     27712
     27712     27715     27716     27712     27715     27717     27712     27715     27718
     27713     27712     27714     27713     27712     27715     27714     27712     27715
     27715     27718     27719     27715     27718     27720     27715     27718     27721
     27716     27715     27717     27716     27715     27718     27717     27715     27718
     27718     27721     27722     27718     27721     27723     27718     27721     27724
     27719     27718     27720     27719     27718     27721     27720     27718     27721
     27721     27724     27725     27721     27724     27726     27721     27724     27727
     27722     27721     27723     27722     27721     27724     27723     27721     27724
     27724     27727     27728     27724     27727     27729     27724     27727     27730
     27725     27724     27726     27725     27724     27727     27726     27724     27727
     27728     27727     27729     27728     27727     27730     27729     27727     27730
     27731     27735     27736     27731     27735     27737     27731     27735     27738
     27732     27731     27733     27732     27731     27734     27732     27731     27735
     27733     27731     27734     27733     27731     27735     27734     27731     27735
     27735     27738     27739     27735     27738     27740     27735     27738     27745
     27736     27735     27737     27736     27735     27738     27737     27735     27738
     27738     27745     27741     27739     27738     27740     27739     27738     27745
     27740     27738     27745     27741     27744     27746     27742     27741     27743
     27742     27741     27744     27742     27741     27745     27743     27741     27744
     27743     27741     27745     27744     27741     27745     27744     27746     27747
     27744     27746     27748     27744     27746     27749     27746     27749     27750
     27746     27749     27751     27746     27749     27757     27747     27746     27748
     27747     27746     27749     27748     27746     27749     27749     27751     27752
     27749     27757     27758     27749     27757     27759     27749     27757     27760
     27750     27749     27751     27750     27749     27757     27751     27749     27757
     27751     27752     27753     27751     27752     27754     27752     27754     27755
     27752     27754     27756     27752     27754     27766     27753     27752     27754
     27754     27766     27767     27754     27766     27768     27754     27766     27769
     27755     27754     27756     27755     27754     27766     27756     27754     27766
     27757     27760     27761     27758     27757     27759     27758     27757     27760
     27759     27757     27760     27760     27761     27762     27760     27761     27763
     27761     27763     27764     27761     27763     27765     27761     27763     27813
     27762     27761     27763     27763     27813     27814     27763     27813     27815
     27763     27813     27816     27764     27763     27765     27764     27763     27813
     27765     27763     27813     27766     27769     27770     27766     27769     27771
     27766     27769     27772     27767     27766     27768     27767     27766     27769
     27768     27766     27769     27769     27772     27773     27769     27772     27774
     27769     27772     27775     27770     27769     27771     27770     27769     27772
     27771     27769     27772     27772     27775     27776     27772     27775     27777
     27772     27775     27778     27773     27772     27774     27773     27772     27775
     27774     27772     27775     27775     27778     27779     27775     27778     27780
     27775     27778     27781     27776     27775     27777     27776     27775     27778
     27777     27775     27778     27778     27781     27782     27778     27781     27783
     27778     27781     27784     27779     27778     27780     27779     27778     27781
     27780     27778     27781     27781     27784     27785     27781     27784     27786
     27782     27781     27783     27782     27781     27784     27783     27781     27784
     27784     27786     27787     27784     27786     27788     27785     27784     27786
     27786     27788     27789     27786     27788     27790     27786     27788     27791
     27787     27786     27788     27788     27791     27792     27788     27791     27793
     27788     27791     27794     27789     27788     27790     27789     27788     27791
     27790     27788     27791     27791     27794     27795     27791     27794     27796
     27791     27794     27797     27792     27791     27793     27792     27791     27794
     27793     27791     27794     27794     27797     27798     27794     27797     27799
     27794     27797     27800     27795     27794     27796     27795     27794     27797
     27796     27794     27797     27797     27800     27801     27797     27800     27802
     27797     27800     27803     27798     27797     27799     27798     27797     27800
     27799     27797     27800     27800     27803     27804     27800     27803     27805
     27800     27803     27806     27801     27800     27802     27801     27800     27803
     27802     27800     27803     27803     27806     27807     27803     27806     27808
     27803     27806     27809     27804     27803     27805     27804     27803     27806
     27805     27803     27806     27806     27809     27810     27806     27809     27811
     27806     27809     27812     27807     27806     27808     27807     27806     27809
     27808     27806     27809     27810     27809     27811     27810     27809     27812
     27811     27809     27812     27813     27816     27817     27813     27816     27818
     27813     27816     27819     27814     27813     27815     27814     27813     27816
     27815     27813     27816     27816     27819     27820     27816     27819     27821
     27816     27819     27822     27817     27816     27818     27817     27816     27819
     27818     27816     27819     27819     27822     27823     27819     27822     27824
     27819     27822     27825     27820     27819     27821     27820     27819     27822
     27821     27819     27822     27822     27825     27826     27822     27825     27827
     27822     27825     27828     27823     27822     27824     27823     27822     27825
     27824     27822     27825     27825     27828     27829     27825     27828     27830
     27825     27828     27831     27826     27825     27827     27826     27825     27828
     27827     27825     27828     27828     27831     27832     27828     27831     27833
     27828     27831     27834     27829     27828     27830     27829     27828     27831
     27830     27828     27831     27831     27834     27835     27831     27834     27836
     27831     27834     27837     27832     27831     27833     27832     27831     27834
     27833     27831     27834     27834     27837     27838     27834     27837     27839
     27834     27837     27840     27835     27834     27836     27835     27834     27837
     27836     27834     27837     27837     27840     27841     27837     27840     27842
     27837     27840     27843     27838     27837     27839     27838     27837     27840
     27839     27837     27840     27840     27843     27844     27840     27843     27845
     27840     27843     27846     27841     27840     27842     27841     27840     27843
     27842     27840     27843     27843     27846     27847     27843     27846     27848
     27843     27846     27849     27844     27843     27845     27844     27843     27846
     27845     27843     27846     27846     27849     27850     27846     27849     27851
     27846     27849     27852     27847     27846     27848     27847     27846     27849
     27848     27846     27849     27849     27852     27853     27849     27852     27854
     27849     27852     27855     27850     27849     27851     27850     27849     27852
     27851     27849     27852     27853     27852     27854     27853     27852     27855
     27854     27852     27855     27856     27862     27859     27856     27867     27868
     27856     27867     27869     27856     27867     27871     27857     27856     27858
     27857     27856     27862     27857     27856     27867     27858     27856     27862
     27858     27856     27867     27859     27863     27864     27860     27859     27861
     27860     27859     27862     27860     27859     27863     27861     27859     27862
     27861     27859     27863     27862     27856     27867     27862     27859     27863
     27863     27864     27865     27863     27864     27866     27863     27864     27899
     27864     27899     27900     27864     27899     27901     27864     27899     27907
     27865     27864     27866     27865     27864     27899     27866     27864     27899
     27867     27869     27870     27867     27871     27872     27867     27871     27873
     27867     27871     27877     27868     27867     27869     27868     27867     27871
     27869     27867     27871     27871     27877     27874     27872     27871     27873
     27872     27871     27877     27873     27871     27877     27874     27878     27879
     27875     27874     27876     27875     27874     27877     27875     27874     27878
     27876     27874     27877     27876     27874     27878     27877     27874     27878
     27878     27879     27880     27878     27879     27881     27878     27879     27882
     27879     27882     27883     27879     27882     27884     27879     27882     27890
     27880     27879     27881     27880     27879     27882     27881     27879     27882
     27882     27884     27885     27882     27890     27891     27882     27890     27892
     27882     27890     27893     27883     27882     27884     27883     27882     27890
     27884     27882     27890     27884     27885     27886     27884     27885     27887
     27885     27887     27888     27885     27887     27889     27885     27887     27916
     27886     27885     27887     27887     27916     27917     27887     27916     27918
     27887     27916     27919     27888     27887     27889     27888     27887     27916
     27889     27887     27916     27890     27893     27894     27891     27890     27892
     27891     27890     27893     27892     27890     27893     27893     27894     27895
     27893     27894     27896     27894     27896     27897     27894     27896     27898
     27894     27896     27963     27895     27894     27896     27896     27963     27964
     27896     27963     27965     27896     27963     27966     27897     27896     27898
     27897     27896     27963     27898     27896     27963     27899     27901     27902
     27899     27907     27908     27899     27907     27909     27899     27907     27910
     27900     27899     27901     27900     27899     27907     27901     27899     27907
     27901     27902     27903     27901     27902     27904     27902     27904     27905
     27902     27904     27906     27902     27904     28006     27903     27902     27904
     27904     28006     28007     27904     28006     28008     27904     28006     28009
     27905     27904     27906     27905     27904     28006     27906     27904     28006
     27907     27910     27911     27908     27907     27909     27908     27907     27910
     27909     27907     27910     27910     27911     27912     27910     27911     27913
     27911     27913     27914     27911     27913     27915     27911     27913     28053
     27912     27911     27913     27913     28053     28054     27913     28053     28055
     27913     28053     28056     27914     27913     27915     27914     27913     28053
     27915     27913     28053     27916     27919     27920     27916     27919     27921
     27916     27919     27922     27917     27916     27918     27917     27916     27919
     27918     27916     27919     27919     27922     27923     27919     27922     27924
     27919     27922     27925     27920     27919     27921     27920     27919     27922
     27921     27919     27922     27922     27925     27926     27922     27925     27927
     27922     27925     27928     27923     27922     27924     27923     27922     27925
     27924     27922     27925     27925     27928     27929     27925     27928     27930
     27925     27928     27931     27926     27925     27927     27926     27925     27928
     27927     27925     27928     27928     27931     27932     27928     27931     27933
     27928     27931     27934     27929     27928     27930     27929     27928     27931
     27930     27928     27931     27931     27934     27935     27931     27934     27936
     27931     27934     27937     27932     27931     27933     27932     27931     27934
     27933     27931     27934     27934     27937     27938     27934     27937     27939
     27934     27937     27940     27935     27934     27936     27935     27934     27937
     27936     27934     27937     27937     27940     27941     27937     27940     27942
     27938     27937     27939     27938     27937     27940     27939     27937     27940
     27940     27942     27943     27940     27942     27944     27941     27940     27942
     27942     27944     27945     27942     27944     27946     27942     27944     27947
     27943     27942     27944     27944     27947     27948     27944     27947     27949
     27944     27947     27950     27945     27944     27946     27945     27944     27947
     27946     27944     27947     27947     27950     27951     27947     27950     27952
     27947     27950     27953     27948     27947     27949     27948     27947     27950
     27949     27947     27950     27950     27953     27954     27950     27953     27955
     27950     27953     27956     27951     27950     27952     27951     27950     27953
     27952     27950     27953     27953     27956     27957     27953     27956     27958
     27953     27956     27959     27954     27953     27955     27954     27953     27956
     27955     27953     27956     27956     27959     27960     27956     27959     27961
     27956     27959     27962     27957     27956     27958     27957     27956     27959
     27958     27956     27959     27960     27959     27961     27960     27959     27962
     27961     27959     27962     27963     27966     27967     27963     27966     27968
     27963     27966     27969     27964     27963     27965     27964     27963     27966
     27965     27963     27966     27966     27969     27970     27966     27969     27971
     27966     27969     27972     27967     27966     27968     27967     27966     27969
     27968     27966     27969     27969     27972     27973     27969     27972     27974
     27969     27972     27975     27970     27969     27971     27970     27969     27972
     27971     27969     27972     27972     27975     27976     27972     27975     27977
     27972     27975     27978     27973     27972     27974     27973     27972     27975
     27974     27972     27975     27975     27978     27979     27975     27978     27980
     27975     27978     27981     27976     27975     27977     27976     27975     27978
     27977     27975     27978     27978     27981     27982     27978     27981     27983
     27978     27981     27984     27979     27978     27980     27979     27978     27981
     27980     27978     27981     27981     27984     27985     27981     27984     27986
     27981     27984     27987     27982     27981     27983     27982     27981     27984
     27983     27981     27984     27984     27987     27988     27984     27987     27989
     27984     27987     27990     27985     27984     27986     27985     27984     27987
     27986     27984     27987     27987     27990     27991     27987     27990     27992
     27987     27990     27993     27988     27987     27989     27988     27987     27990
     27989     27987     27990     27990     27993     27994     27990     27993     27995
     27990     27993     27996     27991     27990     27992     27991     27990     27993
     27992     27990     27993     27993     27996     27997     27993     27996     27998
     27993     27996     27999     27994     27993     27995     27994     27993     27996
     27995     27993     27996     27996     27999     28000     27996     27999     28001
     27996     27999     28002     27997     27996     27998     27997     27996     27999
     27998     27996     27999     27999     28002     28003     27999     28002     28004
     27999     28002     28005     28000     27999     28001     28000     27999     28002
     28001     27999     28002     28003     28002     28004     28003     28002     28005
     28004     28002     28005     28006     28009     28010     28006     28009     28011
     28006     28009     28012     28007     28006     28008     28007     28006     28009
     28008     28006     28009     28009     28012     28013     28009     28012     28014
     28009     28012     28015     28010     28009     28011     28010     28009     28012
     28011     28009     28012     28012     28015     28016     28012     28015     28017
     28012     28015     28018     28013     28012     28014     28013     28012     28015
     28014     28012     28015     28015     28018     28019     28015     28018     28020
     28015     28018     28021     28016     28015     28017     28016     28015     28018
     28017     28015     28018     28018     28021     28022     28018     28021     28023
     28018     28021     28024     28019     28018     28020     28019     28018     28021
     28020     28018     28021     28021     28024     28025     28021     28024     28026
     28021     28024     28027     28022     28021     28023     28022     28021     28024
     28023     28021     28024     28024     28027     28028     28024     28027     28029
     28024     28027     28030     28025     28024     28026     28025     28024     28027
     28026     28024     28027     28027     28030     28031     28027     28030     28032
     28028     28027     28029     28028     28027     28030     28029     28027     28030
     28030     28032     28033     28030     28032     28034     28031     28030     28032
     28032     28034     28035     28032     28034     28036     28032     28034     28037
     28033     28032     28034     28034     28037     28038     28034     28037     28039
     28034     28037     28040     28035     28034     28036     28035     28034     28037
     28036     28034     28037     28037     28040     28041     28037     28040     28042
     28037     28040     28043     28038     28037     28039     28038     28037     28040
     28039     28037     28040     28040     28043     28044     28040     28043     28045
     28040     28043     28046     28041     28040     28042     28041     28040     28043
     28042     28040     28043     28043     28046     28047     28043     28046     28048
     28043     28046     28049     28044     28043     28045     28044     28043     28046
     28045     28043     28046     28046     28049     28050     28046     28049     28051
     28046     28049     28052     28047     28046     28048     28047     28046     28049
     28048     28046     28049     28050     28049     28051     28050     28049     28052
     28051     28049     28052     28053     28056     28057     28053     28056     28058
     28053     28056     28059     28054     28053     28055     28054     28053     28056
     28055     28053     28056     28056     28059     28060     28056     28059     28061
     28056     28059     28062     28057     28056     28058     28057     28056     28059
     28058     28056     28059     28059     28062     28063     28059     28062     28064
     28059     28062     28065     28060     28059     28061     28060     28059     28062
     28061     28059     28062     28062     28065     28066     28062     28065     28067
     28062     28065     28068     28063     28062     28064     28063     28062     28065
     28064     28062     28065     28065     28068     28069     28065     28068     28070
     28065     28068     28071     28066     28065     28067     28066     28065     28068
     28067     28065     28068     28068     28071     28072     28068     28071     28073
     28068     28071     28074     28069     28068     28070     28069     28068     28071
     28070     28068     28071     28071     28074     28075     28071     28074     28076
     28071     28074     28077     28072     28071     28073     28072     28071     28074
     28073     28071     28074     28074     28077     28078     28074     28077     28079
     28074     28077     28080     28075     28074     28076     28075     28074     28077
     28076     28074     28077     28077     28080     28081     28077     28080     28082
     28077     28080     28083     28078     28077     28079     28078     28077     28080
     28079     28077     28080     28080     28083     28084     28080     28083     28085
     28080     28083     28086     28081     28080     28082     28081     28080     28083
     28082     28080     28083     28083     28086     28087     28083     28086     28088
     28083     28086     28089     28084     28083     28085     28084     28083     28086
     28085     28083     28086     28086     28089     28090     28086     28089     28091
     28086     28089     28092     28087     28086     28088     28087     28086     28089
     28088     28086     28089     28089     28092     28093     28089     28092     28094
     28089     28092     28095     28090     28089     28091     28090     28089     28092
     28091     28089     28092     28093     28092     28094     28093     28092     28095
     28094     28092     28095     28096     28100     28101     28096     28100     28102
     28096     28100     28103     28097     28096     28098     28097     28096     28099
     28097     28096     28100     28098     28096     28099     28098     28096     28100
     28099     28096     28100     28100     28103     28104     28100     28103     28105
     28100     28103     28110     28101     28100     28102     28101     28100     28103
     28102     28100     28103     28103     28110     28106     28104     28103     28105
     28104     28103     28110     28105     28103     28110     28106     28109     28111
     28107     28106     28108     28107     28106     28109     28107     28106     28110
     28108     28106     28109     28108     28106     28110     28109     28106     28110
     28109     28111     28112     28109     28111     28113     28109     28111     28114
     28111     28114     28115     28111     28114     28116     28111     28114     28122
     28112     28111     28113     28112     28111     28114     28113     28111     28114
     28114     28116     28117     28114     28122     28123     28114     28122     28124
     28114     28122     28125     28115     28114     28116     28115     28114     28122
     28116     28114     28122     28116     28117     28118     28116     28117     28119
     28117     28119     28120     28117     28119     28121     28117     28119     28131
     28118     28117     28119     28119     28131     28132     28119     28131     28133
     28119     28131     28134     28120     28119     28121     28120     28119     28131
     28121     28119     28131     28122     28125     28126     28123     28122     28124
     28123     28122     28125     28124     28122     28125     28125     28126     28127
     28125     28126     28128     28126     28128     28129     28126     28128     28130
     28126     28128     28172     28127     28126     28128     28128     28172     28173
     28128     28172     28174     28128     28172     28175     28129     28128     28130
     28129     28128     28172     28130     28128     28172     28131     28134     28135
     28131     28134     28136     28131     28134     28137     28132     28131     28133
     28132     28131     28134     28133     28131     28134     28134     28137     28138
     28134     28137     28139     28134     28137     28140     28135     28134     28136
     28135     28134     28137     28136     28134     28137     28137     28140     28141
     28137     28140     28142     28137     28140     28143     28138     28137     28139
     28138     28137     28140     28139     28137     28140     28140     28143     28144
     28140     28143     28145     28140     28143     28146     28141     28140     28142
     28141     28140     28143     28142     28140     28143     28143     28146     28147
     28143     28146     28148     28143     28146     28149     28144     28143     28145
     28144     28143     28146     28145     28143     28146     28146     28149     28150
     28146     28149     28151     28147     28146     28148     28147     28146     28149
     28148     28146     28149     28149     28151     28152     28149     28151     28153
     28150     28149     28151     28151     28153     28154     28151     28153     28155
     28151     28153     28156     28152     28151     28153     28153     28156     28157
     28153     28156     28158     28153     28156     28159     28154     28153     28155
     28154     28153     28156     28155     28153     28156     28156     28159     28160
     28156     28159     28161     28156     28159     28162     28157     28156     28158
     28157     28156     28159     28158     28156     28159     28159     28162     28163
     28159     28162     28164     28159     28162     28165     28160     28159     28161
     28160     28159     28162     28161     28159     28162     28162     28165     28166
     28162     28165     28167     28162     28165     28168     28163     28162     28164
     28163     28162     28165     28164     28162     28165     28165     28168     28169
     28165     28168     28170     28165     28168     28171     28166     28165     28167
     28166     28165     28168     28167     28165     28168     28169     28168     28170
     28169     28168     28171     28170     28168     28171     28172     28175     28176
     28172     28175     28177     28172     28175     28178     28173     28172     28174
     28173     28172     28175     28174     28172     28175     28175     28178     28179
     28175     28178     28180     28175     28178     28181     28176     28175     28177
     28176     28175     28178     28177     28175     28178     28178     28181     28182
     28178     28181     28183     28178     28181     28184     28179     28178     28180
     28179     28178     28181     28180     28178     28181     28181     28184     28185
     28181     28184     28186     28181     28184     28187     28182     28181     28183
     28182     28181     28184     28183     28181     28184     28184     28187     28188
     28184     28187     28189     28184     28187     28190     28185     28184     28186
     28185     28184     28187     28186     28184     28187     28187     28190     28191
     28187     28190     28192     28188     28187     28189     28188     28187     28190
     28189     28187     28190     28190     28192     28193     28190     28192     28194
     28191     28190     28192     28192     28194     28195     28192     28194     28196
     28192     28194     28197     28193     28192     28194     28194     28197     28198
     28194     28197     28199     28194     28197     28200     28195     28194     28196
     28195     28194     28197     28196     28194     28197     28197     28200     28201
     28197     28200     28202     28197     28200     28203     28198     28197     28199
     28198     28197     28200     28199     28197     28200     28200     28203     28204
     28200     28203     28205     28200     28203     28206     28201     28200     28202
     28201     28200     28203     28202     28200     28203     28203     28206     28207
     28203     28206     28208     28203     28206     28209     28204     28203     28205
     28204     28203     28206     28205     28203     28206     28206     28209     28210
     28206     28209     28211     28206     28209     28212     28207     28206     28208
     28207     28206     28209     28208     28206     28209     28209     28212     28213
     28209     28212     28214     28209     28212     28215     28210     28209     28211
     28210     28209     28212     28211     28209     28212     28212     28215     28216
     28212     28215     28217     28212     28215     28218     28213     28212     28214
     28213     28212     28215     28214     28212     28215     28216     28215     28217
     28216     28215     28218     28217     28215     28218     28219     28223     28224
     28219     28223     28225     28219     28223     28226     28220     28219     28221
     28220     28219     28222     28220     28219     28223     28221     28219     28222
     28221     28219     28223     28222     28219     28223     28223     28226     28227
     28223     28226     28228     28223     28226     28233     28224     28223     28225
     28224     28223     28226     28225     28223     28226     28226     28233     28229
     28227     28226     28228     28227     28226     28233     28228     28226     28233
     28229     28232     28234     28230     28229     28231     28230     28229     28232
     28230     28229     28233     28231     28229     28232     28231     28229     28233
     28232     28229     28233     28232     28234     28235     28232     28234     28236
     28232     28234     28237     28234     28237     28238     28234     28237     28239
     28234     28237     28245     28235     28234     28236     28235     28234     28237
     28236     28234     28237     28237     28239     28240     28237     28245     28246
     28237     28245     28247     28237     28245     28248     28238     28237     28239
     28238     28237     28245     28239     28237     28245     28239     28240     28241
     28239     28240     28242     28240     28242     28243     28240     28242     28244
     28240     28242     28254     28241     28240     28242     28242     28254     28255
     28242     28254     28256     28242     28254     28257     28243     28242     28244
     28243     28242     28254     28244     28242     28254     28245     28248     28249
     28246     28245     28247     28246     28245     28248     28247     28245     28248
     28248     28249     28250     28248     28249     28251     28249     28251     28252
     28249     28251     28253     28249     28251     28298     28250     28249     28251
     28251     28298     28299     28251     28298     28300     28251     28298     28301
     28252     28251     28253     28252     28251     28298     28253     28251     28298
     28254     28257     28258     28254     28257     28259     28254     28257     28260
     28255     28254     28256     28255     28254     28257     28256     28254     28257
     28257     28260     28261     28257     28260     28262     28257     28260     28263
     28258     28257     28259     28258     28257     28260     28259     28257     28260
     28260     28263     28264     28260     28263     28265     28260     28263     28266
     28261     28260     28262     28261     28260     28263     28262     28260     28263
     28263     28266     28267     28263     28266     28268     28263     28266     28269
     28264     28263     28265     28264     28263     28266     28265     28263     28266
     28266     28269     28270     28266     28269     28271     28266     28269     28272
     28267     28266     28268     28267     28266     28269     28268     28266     28269
     28269     28272     28273     28269     28272     28274     28269     28272     28277
     28270     28269     28271     28270     28269     28272     28271     28269     28272
     28272     28274     28275     28272     28274     28276     28272     28274     28277
     28272     28277     28274     28272     28277     28278     28272     28277     28279
     28273     28272     28274     28273     28272     28277     28274     28272     28277
     28274     28277     28278     28274     28277     28279     28275     28274     28276
     28275     28274     28277     28276     28274     28277     28277     28279     28280
     28277     28279     28281     28277     28279     28282     28278     28277     28279
     28279     28282     28283     28279     28282     28284     28279     28282     28285
     28280     28279     28281     28280     28279     28282     28281     28279     28282
     28282     28285     28286     28282     28285     28287     28282     28285     28288
     28283     28282     28284     28283     28282     28285     28284     28282     28285
     28285     28288     28289     28285     28288     28290     28285     28288     28291
     28286     28285     28287     28286     28285     28288     28287     28285     28288
     28288     28291     28292     28288     28291     28293     28288     28291     28294
     28289     28288     28290     28289     28288     28291     28290     28288     28291
     28291     28294     28295     28291     28294     28296     28291     28294     28297
     28292     28291     28293     28292     28291     28294     28293     28291     28294
     28295     28294     28296     28295     28294     28297     28296     28294     28297
     28298     28301     28302     28298     28301     28303     28298     28301     28304
     28299     28298     28300     28299     28298     28301     28300     28298     28301
     28301     28304     28305     28301     28304     28306     28301     28304     28307
     28302     28301     28303     28302     28301     28304     28303     28301     28304
     28304     28307     28308     28304     28307     28309     28304     28307     28310
     28305     28304     28306     28305     28304     28307     28306     28304     28307
     28307     28310     28311     28307     28310     28312     28307     28310     28313
     28308     28307     28309     28308     28307     28310     28309     28307     28310
     28310     28313     28314     28310     28313     28315     28310     28313     28316
     28311     28310     28312     28311     28310     28313     28312     28310     28313
     28313     28316     28317     28313     28316     28318     28313     28316     28319
     28314     28313     28315     28314     28313     28316     28315     28313     28316
     28316     28319     28320     28316     28319     28321     28316     28319     28322
     28317     28316     28318     28317     28316     28319     28318     28316     28319
     28319     28322     28323     28319     28322     28324     28319     28322     28325
     28320     28319     28321     28320     28319     28322     28321     28319     28322
     28322     28325     28326     28322     28325     28327     28322     28325     28328
     28323     28322     28324     28323     28322     28325     28324     28322     28325
     28325     28328     28329     28325     28328     28330     28325     28328     28331
     28326     28325     28327     28326     28325     28328     28327     28325     28328
     28328     28331     28332     28328     28331     28333     28328     28331     28334
     28329     28328     28330     28329     28328     28331     28330     28328     28331
     28331     28334     28335     28331     28334     28336     28331     28334     28337
     28332     28331     28333     28332     28331     28334     28333     28331     28334
     28335     28334     28336     28335     28334     28337     28336     28334     28337
     28338     28342     28343     28338     28342     28344     28338     28342     28345
     28339     28338     28340     28339     28338     28341     28339     28338     28342
     28340     28338     28341     28340     28338     28342     28341     28338     28342
     28342     28345     28346     28342     28345     28347     28342     28345     28352
     28343     28342     28344     28343     28342     28345     28344     28342     28345
     28345     28352     28348     28346     28345     28347     28346     28345     28352
     28347     28345     28352     28348     28351     28353     28349     28348     28350
     28349     28348     28351     28349     28348     28352     28350     28348     28351
     28350     28348     28352     28351     28348     28352     28351     28353     28354
     28351     28353     28355     28351     28353     28356     28353     28356     28357
     28353     28356     28358     28353     28356     28364     28354     28353     28355
     28354     28353     28356     28355     28353     28356     28356     28358     28359
     28356     28364     28365     28356     28364     28366     28356     28364     28367
     28357     28356     28358     28357     28356     28364     28358     28356     28364
     28358     28359     28360     28358     28359     28361     28359     28361     28362
     28359     28361     28363     28359     28361     28373     28360     28359     28361
     28361     28373     28374     28361     28373     28375     28361     28373     28376
     28362     28361     28363     28362     28361     28373     28363     28361     28373
     28364     28367     28368     28365     28364     28366     28365     28364     28367
     28366     28364     28367     28367     28368     28369     28367     28368     28370
     28368     28370     28371     28368     28370     28372     28368     28370     28417
     28369     28368     28370     28370     28417     28418     28370     28417     28419
     28370     28417     28420     28371     28370     28372     28371     28370     28417
     28372     28370     28417     28373     28376     28377     28373     28376     28378
     28373     28376     28379     28374     28373     28375     28374     28373     28376
     28375     28373     28376     28376     28379     28380     28376     28379     28381
     28376     28379     28382     28377     28376     28378     28377     28376     28379
     28378     28376     28379     28379     28382     28383     28379     28382     28384
     28379     28382     28385     28380     28379     28381     28380     28379     28382
     28381     28379     28382     28382     28385     28386     28382     28385     28387
     28382     28385     28388     28383     28382     28384     28383     28382     28385
     28384     28382     28385     28385     28388     28389     28385     28388     28390
     28385     28388     28391     28386     28385     28387     28386     28385     28388
     28387     28385     28388     28388     28391     28392     28388     28391     28393
     28388     28391     28396     28389     28388     28390     28389     28388     28391
     28390     28388     28391     28391     28393     28394     28391     28393     28395
     28391     28393     28396     28391     28396     28393     28391     28396     28397
     28391     28396     28398     28392     28391     28393     28392     28391     28396
     28393     28391     28396     28393     28396     28397     28393     28396     28398
     28394     28393     28395     28394     28393     28396     28395     28393     28396
     28396     28398     28399     28396     28398     28400     28396     28398     28401
     28397     28396     28398     28398     28401     28402     28398     28401     28403
     28398     28401     28404     28399     28398     28400     28399     28398     28401
     28400     28398     28401     28401     28404     28405     28401     28404     28406
     28401     28404     28407     28402     28401     28403     28402     28401     28404
     28403     28401     28404     28404     28407     28408     28404     28407     28409
     28404     28407     28410     28405     28404     28406     28405     28404     28407
     28406     28404     28407     28407     28410     28411     28407     28410     28412
     28407     28410     28413     28408     28407     28409     28408     28407     28410
     28409     28407     28410     28410     28413     28414     28410     28413     28415
     28410     28413     28416     28411     28410     28412     28411     28410     28413
     28412     28410     28413     28414     28413     28415     28414     28413     28416
     28415     28413     28416     28417     28420     28421     28417     28420     28422
     28417     28420     28423     28418     28417     28419     28418     28417     28420
     28419     28417     28420     28420     28423     28424     28420     28423     28425
     28420     28423     28426     28421     28420     28422     28421     28420     28423
     28422     28420     28423     28423     28426     28427     28423     28426     28428
     28423     28426     28429     28424     28423     28425     28424     28423     28426
     28425     28423     28426     28426     28429     28430     28426     28429     28431
     28426     28429     28432     28427     28426     28428     28427     28426     28429
     28428     28426     28429     28429     28432     28433     28429     28432     28434
     28429     28432     28435     28430     28429     28431     28430     28429     28432
     28431     28429     28432     28432     28435     28436     28432     28435     28437
     28432     28435     28438     28433     28432     28434     28433     28432     28435
     28434     28432     28435     28435     28438     28439     28435     28438     28440
     28435     28438     28441     28436     28435     28437     28436     28435     28438
     28437     28435     28438     28438     28441     28442     28438     28441     28443
     28438     28441     28444     28439     28438     28440     28439     28438     28441
     28440     28438     28441     28441     28444     28445     28441     28444     28446
     28441     28444     28447     28442     28441     28443     28442     28441     28444
     28443     28441     28444     28444     28447     28448     28444     28447     28449
     28444     28447     28450     28445     28444     28446     28445     28444     28447
     28446     28444     28447     28447     28450     28451     28447     28450     28452
     28447     28450     28453     28448     28447     28449     28448     28447     28450
     28449     28447     28450     28450     28453     28454     28450     28453     28455
     28450     28453     28456     28451     28450     28452     28451     28450     28453
     28452     28450     28453     28454     28453     28455     28454     28453     28456
     28455     28453     28456     28457     28461     28462     28457     28461     28463
     28457     28461     28464     28458     28457     28459     28458     28457     28460
     28458     28457     28461     28459     28457     28460     28459     28457     28461
     28460     28457     28461     28461     28464     28465     28461     28464     28466
     28461     28464     28471     28462     28461     28463     28462     28461     28464
     28463     28461     28464     28464     28471     28467     28465     28464     28466
     28465     28464     28471     28466     28464     28471     28467     28470     28472
     28468     28467     28469     28468     28467     28470     28468     28467     28471
     28469     28467     28470     28469     28467     28471     28470     28467     28471
     28470     28472     28473     28470     28472     28474     28470     28472     28475
     28472     28475     28476     28472     28475     28477     28472     28475     28483
     28473     28472     28474     28473     28472     28475     28474     28472     28475
     28475     28477     28478     28475     28483     28484     28475     28483     28485
     28475     28483     28486     28476     28475     28477     28476     28475     28483
     28477     28475     28483     28477     28478     28479     28477     28478     28480
     28478     28480     28481     28478     28480     28482     28478     28480     28492
     28479     28478     28480     28480     28492     28493     28480     28492     28494
     28480     28492     28495     28481     28480     28482     28481     28480     28492
     28482     28480     28492     28483     28486     28487     28484     28483     28485
     28484     28483     28486     28485     28483     28486     28486     28487     28488
     28486     28487     28489     28487     28489     28490     28487     28489     28491
     28487     28489     28536     28488     28487     28489     28489     28536     28537
     28489     28536     28538     28489     28536     28539     28490     28489     28491
     28490     28489     28536     28491     28489     28536     28492     28495     28496
     28492     28495     28497     28492     28495     28498     28493     28492     28494
     28493     28492     28495     28494     28492     28495     28495     28498     28499
     28495     28498     28500     28495     28498     28501     28496     28495     28497
     28496     28495     28498     28497     28495     28498     28498     28501     28502
     28498     28501     28503     28498     28501     28504     28499     28498     28500
     28499     28498     28501     28500     28498     28501     28501     28504     28505
     28501     28504     28506     28501     28504     28507     28502     28501     28503
     28502     28501     28504     28503     28501     28504     28504     28507     28508
     28504     28507     28509     28504     28507     28510     28505     28504     28506
     28505     28504     28507     28506     28504     28507     28507     28510     28511
     28507     28510     28512     28507     28510     28515     28508     28507     28509
     28508     28507     28510     28509     28507     28510     28510     28512     28513
     28510     28512     28514     28510     28512     28515     28510     28515     28512
     28510     28515     28516     28510     28515     28517     28511     28510     28512
     28511     28510     28515     28512     28510     28515     28512     28515     28516
     28512     28515     28517     28513     28512     28514     28513     28512     28515
     28514     28512     28515     28515     28517     28518     28515     28517     28519
     28515     28517     28520     28516     28515     28517     28517     28520     28521
     28517     28520     28522     28517     28520     28523     28518     28517     28519
     28518     28517     28520     28519     28517     28520     28520     28523     28524
     28520     28523     28525     28520     28523     28526     28521     28520     28522
     28521     28520     28523     28522     28520     28523     28523     28526     28527
     28523     28526     28528     28523     28526     28529     28524     28523     28525
     28524     28523     28526     28525     28523     28526     28526     28529     28530
     28526     28529     28531     28526     28529     28532     28527     28526     28528
     28527     28526     28529     28528     28526     28529     28529     28532     28533
     28529     28532     28534     28529     28532     28535     28530     28529     28531
     28530     28529     28532     28531     28529     28532     28533     28532     28534
     28533     28532     28535     28534     28532     28535     28536     28539     28540
     28536     28539     28541     28536     28539     28542     28537     28536     28538
     28537     28536     28539     28538     28536     28539     28539     28542     28543
     28539     28542     28544     28539     28542     28545     28540     28539     28541
     28540     28539     28542     28541     28539     28542     28542     28545     28546
     28542     28545     28547     28542     28545     28548     28543     28542     28544
     28543     28542     28545     28544     28542     28545     28545     28548     28549
     28545     28548     28550     28545     28548     28551     28546     28545     28547
     28546     28545     28548     28547     28545     28548     28548     28551     28552
     28548     28551     28553     28548     28551     28554     28549     28548     28550
     28549     28548     28551     28550     28548     28551     28551     28554     28555
     28551     28554     28556     28551     28554     28557     28552     28551     28553
     28552     28551     28554     28553     28551     28554     28554     28557     28558
     28554     28557     28559     28554     28557     28560     28555     28554     28556
     28555     28554     28557     28556     28554     28557     28557     28560     28561
     28557     28560     28562     28557     28560     28563     28558     28557     28559
     28558     28557     28560     28559     28557     28560     28560     28563     28564
     28560     28563     28565     28560     28563     28566     28561     28560     28562
     28561     28560     28563     28562     28560     28563     28563     28566     28567
     28563     28566     28568     28563     28566     28569     28564     28563     28565
     28564     28563     28566     28565     28563     28566     28566     28569     28570
     28566     28569     28571     28566     28569     28572     28567     28566     28568
     28567     28566     28569     28568     28566     28569     28569     28572     28573
     28569     28572     28574     28569     28572     28575     28570     28569     28571
     28570     28569     28572     28571     28569     28572     28572     28575     28576
     28572     28575     28577     28572     28575     28578     28573     28572     28574
     28573     28572     28575     28574     28572     28575     28576     28575     28577
     28576     28575     28578     28577     28575     28578     28579     28583     28584
     28579     28583     28585     28579     28583     28586     28580     28579     28581
     28580     28579     28582     28580     28579     28583     28581     28579     28582
     28581     28579     28583     28582     28579     28583     28583     28586     28587
     28583     28586     28588     28583     28586     28593     28584     28583     28585
     28584     28583     28586     28585     28583     28586     28586     28593     28589
     28587     28586     28588     28587     28586     28593     28588     28586     28593
     28589     28592     28594     28590     28589     28591     28590     28589     28592
     28590     28589     28593     28591     28589     28592     28591     28589     28593
     28592     28589     28593     28592     28594     28595     28592     28594     28596
     28592     28594     28597     28594     28597     28598     28594     28597     28599
     28594     28597     28605     28595     28594     28596     28595     28594     28597
     28596     28594     28597     28597     28599     28600     28597     28605     28606
     28597     28605     28607     28597     28605     28608     28598     28597     28599
     28598     28597     28605     28599     28597     28605     28599     28600     28601
     28599     28600     28602     28600     28602     28603     28600     28602     28604
     28600     28602     28614     28601     28600     28602     28602     28614     28615
     28602     28614     28616     28602     28614     28617     28603     28602     28604
     28603     28602     28614     28604     28602     28614     28605     28608     28609
     28606     28605     28607     28606     28605     28608     28607     28605     28608
     28608     28609     28610     28608     28609     28611     28609     28611     28612
     28609     28611     28613     28609     28611     28658     28610     28609     28611
     28611     28658     28659     28611     28658     28660     28611     28658     28661
     28612     28611     28613     28612     28611     28658     28613     28611     28658
     28614     28617     28618     28614     28617     28619     28614     28617     28620
     28615     28614     28616     28615     28614     28617     28616     28614     28617
     28617     28620     28621     28617     28620     28622     28617     28620     28623
     28618     28617     28619     28618     28617     28620     28619     28617     28620
     28620     28623     28624     28620     28623     28625     28620     28623     28626
     28621     28620     28622     28621     28620     28623     28622     28620     28623
     28623     28626     28627     28623     28626     28628     28623     28626     28629
     28624     28623     28625     28624     28623     28626     28625     28623     28626
     28626     28629     28630     28626     28629     28631     28626     28629     28632
     28627     28626     28628     28627     28626     28629     28628     28626     28629
     28629     28632     28633     28629     28632     28634     28629     28632     28637
     28630     28629     28631     28630     28629     28632     28631     28629     28632
     28632     28634     28635     28632     28634     28636     28632     28634     28637
     28632     28637     28634     28632     28637     28638     28632     28637     28639
     28633     28632     28634     28633     28632     28637     28634     28632     28637
     28634     28637     28638     28634     28637     28639     28635     28634     28636
     28635     28634     28637     28636     28634     28637     28637     28639     28640
     28637     28639     28641     28637     28639     28642     28638     28637     28639
     28639     28642     28643     28639     28642     28644     28639     28642     28645
     28640     28639     28641     28640     28639     28642     28641     28639     28642
     28642     28645     28646     28642     28645     28647     28642     28645     28648
     28643     28642     28644     28643     28642     28645     28644     28642     28645
     28645     28648     28649     28645     28648     28650     28645     28648     28651
     28646     28645     28647     28646     28645     28648     28647     28645     28648
     28648     28651     28652     28648     28651     28653     28648     28651     28654
     28649     28648     28650     28649     28648     28651     28650     28648     28651
     28651     28654     28655     28651     28654     28656     28651     28654     28657
     28652     28651     28653     28652     28651     28654     28653     28651     28654
     28655     28654     28656     28655     28654     28657     28656     28654     28657
     28658     28661     28662     28658     28661     28663     28658     28661     28664
     28659     28658     28660     28659     28658     28661     28660     28658     28661
     28661     28664     28665     28661     28664     28666     28661     28664     28667
     28662     28661     28663     28662     28661     28664     28663     28661     28664
     28664     28667     28668     28664     28667     28669     28664     28667     28670
     28665     28664     28666     28665     28664     28667     28666     28664     28667
     28667     28670     28671     28667     28670     28672     28667     28670     28673
     28668     28667     28669     28668     28667     28670     28669     28667     28670
     28670     28673     28674     28670     28673     28675     28670     28673     28676
     28671     28670     28672     28671     28670     28673     28672     28670     28673
     28673     28676     28677     28673     28676     28678     28673     28676     28679
     28674     28673     28675     28674     28673     28676     28675     28673     28676
     28676     28679     28680     28676     28679     28681     28676     28679     28682
     28677     28676     28678     28677     28676     28679     28678     28676     28679
     28679     28682     28683     28679     28682     28684     28679     28682     28685
     28680     28679     28681     28680     28679     28682     28681     28679     28682
     28682     28685     28686     28682     28685     28687     28682     28685     28688
     28683     28682     28684     28683     28682     28685     28684     28682     28685
     28685     28688     28689     28685     28688     28690     28685     28688     28691
     28686     28685     28687     28686     28685     28688     28687     28685     28688
     28688     28691     28692     28688     28691     28693     28688     28691     28694
     28689     28688     28690     28689     28688     28691     28690     28688     28691
     28691     28694     28695     28691     28694     28696     28691     28694     28697
     28692     28691     28693     28692     28691     28694     28693     28691     28694
     28694     28697     28698     28694     28697     28699     28694     28697     28700
     28695     28694     28696     28695     28694     28697     28696     28694     28697
     28698     28697     28699     28698     28697     28700     28699     28697     28700
     28701     28704     28705     28701     28706     28707     28701     28706     28708
     28701     28706     28710     28702     28701     28703     28702     28701     28704
     28702     28701     28706     28703     28701     28704     28703     28701     28706
     28704     28701     28706     28706     28708     28709     28706     28710     28711
     28706     28710     28712     28706     28710     28717     28707     28706     28708
     28707     28706     28710     28708     28706     28710     28710     28717     28713
     28711     28710     28712     28711     28710     28717     28712     28710     28717
     28713     28716     28718     28714     28713     28715     28714     28713     28716
     28714     28713     28717     28715     28713     28716     28715     28713     28717
     28716     28713     28717     28716     28718     28719     28716     28718     28720
     28716     28718     28721     28718     28721     28722     28718     28721     28723
     28718     28721     28729     28719     28718     28720     28719     28718     28721
     28720     28718     28721     28721     28723     28724     28721     28729     28730
     28721     28729     28731     28721     28729     28732     28722     28721     28723
     28722     28721     28729     28723     28721     28729     28723     28724     28725
     28723     28724     28726     28724     28726     28727     28724     28726     28728
     28724     28726     28738     28725     28724     28726     28726     28738     28739
     28726     28738     28740     28726     28738     28741     28727     28726     28728
     28727     28726     28738     28728     28726     28738     28729     28732     28733
     28730     28729     28731     28730     28729     28732     28731     28729     28732
     28732     28733     28734     28732     28733     28735     28733     28735     28736
     28733     28735     28737     28733     28735     28782     28734     28733     28735
     28735     28782     28783     28735     28782     28784     28735     28782     28785
     28736     28735     28737     28736     28735     28782     28737     28735     28782
     28738     28741     28742     28738     28741     28743     28738     28741     28744
     28739     28738     28740     28739     28738     28741     28740     28738     28741
     28741     28744     28745     28741     28744     28746     28741     28744     28747
     28742     28741     28743     28742     28741     28744     28743     28741     28744
     28744     28747     28748     28744     28747     28749     28744     28747     28750
     28745     28744     28746     28745     28744     28747     28746     28744     28747
     28747     28750     28751     28747     28750     28752     28747     28750     28753
     28748     28747     28749     28748     28747     28750     28749     28747     28750
     28750     28753     28754     28750     28753     28755     28750     28753     28756
     28751     28750     28752     28751     28750     28753     28752     28750     28753
     28753     28756     28757     28753     28756     28758     28753     28756     28761
     28754     28753     28755     28754     28753     28756     28755     28753     28756
     28756     28758     28759     28756     28758     28760     28756     28758     28761
     28756     28761     28758     28756     28761     28762     28756     28761     28763
     28757     28756     28758     28757     28756     28761     28758     28756     28761
     28758     28761     28762     28758     28761     28763     28759     28758     28760
     28759     28758     28761     28760     28758     28761     28761     28763     28764
     28761     28763     28765     28761     28763     28766     28762     28761     28763
     28763     28766     28767     28763     28766     28768     28763     28766     28769
     28764     28763     28765     28764     28763     28766     28765     28763     28766
     28766     28769     28770     28766     28769     28771     28766     28769     28772
     28767     28766     28768     28767     28766     28769     28768     28766     28769
     28769     28772     28773     28769     28772     28774     28769     28772     28775
     28770     28769     28771     28770     28769     28772     28771     28769     28772
     28772     28775     28776     28772     28775     28777     28772     28775     28778
     28773     28772     28774     28773     28772     28775     28774     28772     28775
     28775     28778     28779     28775     28778     28780     28775     28778     28781
     28776     28775     28777     28776     28775     28778     28777     28775     28778
     28779     28778     28780     28779     28778     28781     28780     28778     28781
     28782     28785     28786     28782     28785     28787     28782     28785     28788
     28783     28782     28784     28783     28782     28785     28784     28782     28785
     28785     28788     28789     28785     28788     28790     28785     28788     28791
     28786     28785     28787     28786     28785     28788     28787     28785     28788
     28788     28791     28792     28788     28791     28793     28788     28791     28794
     28789     28788     28790     28789     28788     28791     28790     28788     28791
     28791     28794     28795     28791     28794     28796     28791     28794     28797
     28792     28791     28793     28792     28791     28794     28793     28791     28794
     28794     28797     28798     28794     28797     28799     28794     28797     28800
     28795     28794     28796     28795     28794     28797     28796     28794     28797
     28797     28800     28801     28797     28800     28802     28797     28800     28803
     28798     28797     28799     28798     28797     28800     28799     28797     28800
     28800     28803     28804     28800     28803     28805     28800     28803     28806
     28801     28800     28802     28801     28800     28803     28802     28800     28803
     28803     28806     28807     28803     28806     28808     28803     28806     28809
     28804     28803     28805     28804     28803     28806     28805     28803     28806
     28806     28809     28810     28806     28809     28811     28806     28809     28812
     28807     28806     28808     28807     28806     28809     28808     28806     28809
     28809     28812     28813     28809     28812     28814     28809     28812     28815
     28810     28809     28811     28810     28809     28812     28811     28809     28812
     28812     28815     28816     28812     28815     28817     28812     28815     28818
     28813     28812     28814     28813     28812     28815     28814     28812     28815
     28815     28818     28819     28815     28818     28820     28815     28818     28821
     28816     28815     28817     28816     28815     28818     28817     28815     28818
     28818     28821     28822     28818     28821     28823     28818     28821     28824
     28819     28818     28820     28819     28818     28821     28820     28818     28821
     28822     28821     28823     28822     28821     28824     28823     28821     28824
     28825     28829     28830     28825     28829     28831     28825     28829     28832
     28826     28825     28827     28826     28825     28828     28826     28825     28829
     28827     28825     28828     28827     28825     28829     28828     28825     28829
     28829     28832     28833     28829     28832     28834     28829     28832     28839
     28830     28829     28831     28830     28829     28832     28831     28829     28832
     28832     28839     28835     28833     28832     28834     28833     28832     28839
     28834     28832     28839     28835     28838     28840     28836     28835     28837
     28836     28835     28838     28836     28835     28839     28837     28835     28838
     28837     28835     28839     28838     28835     28839     28838     28840     28841
     28838     28840     28842     28838     28840     28843     28840     28843     28844
     28840     28843     28845     28840     28843     28851     28841     28840     28842
     28841     28840     28843     28842     28840     28843     28843     28845     28846
     28843     28851     28852     28843     28851     28853     28843     28851     28854
     28844     28843     28845     28844     28843     28851     28845     28843     28851
     28845     28846     28847     28845     28846     28848     28846     28848     28849
     28846     28848     28850     28846     28848     28860     28847     28846     28848
     28848     28860     28861     28848     28860     28862     28848     28860     28863
     28849     28848     28850     28849     28848     28860     28850     28848     28860
     28851     28854     28855     28852     28851     28853     28852     28851     28854
     28853     28851     28854     28854     28855     28856     28854     28855     28857
     28855     28857     28858     28855     28857     28859     28855     28857     28904
     28856     28855     28857     28857     28904     28905     28857     28904     28906
     28857     28904     28907     28858     28857     28859     28858     28857     28904
     28859     28857     28904     28860     28863     28864     28860     28863     28865
     28860     28863     28866     28861     28860     28862     28861     28860     28863
     28862     28860     28863     28863     28866     28867     28863     28866     28868
     28863     28866     28869     28864     28863     28865     28864     28863     28866
     28865     28863     28866     28866     28869     28870     28866     28869     28871
     28866     28869     28872     28867     28866     28868     28867     28866     28869
     28868     28866     28869     28869     28872     28873     28869     28872     28874
     28869     28872     28875     28870     28869     28871     28870     28869     28872
     28871     28869     28872     28872     28875     28876     28872     28875     28877
     28872     28875     28878     28873     28872     28874     28873     28872     28875
     28874     28872     28875     28875     28878     28879     28875     28878     28880
     28875     28878     28883     28876     28875     28877     28876     28875     28878
     28877     28875     28878     28878     28880     28881     28878     28880     28882
     28878     28880     28883     28878     28883     28880     28878     28883     28884
     28878     28883     28885     28879     28878     28880     28879     28878     28883
     28880     28878     28883     28880     28883     28884     28880     28883     28885
     28881     28880     28882     28881     28880     28883     28882     28880     28883
     28883     28885     28886     28883     28885     28887     28883     28885     28888
     28884     28883     28885     28885     28888     28889     28885     28888     28890
     28885     28888     28891     28886     28885     28887     28886     28885     28888
     28887     28885     28888     28888     28891     28892     28888     28891     28893
     28888     28891     28894     28889     28888     28890     28889     28888     28891
     28890     28888     28891     28891     28894     28895     28891     28894     28896
     28891     28894     28897     28892     28891     28893     28892     28891     28894
     28893     28891     28894     28894     28897     28898     28894     28897     28899
     28894     28897     28900     28895     28894     28896     28895     28894     28897
     28896     28894     28897     28897     28900     28901     28897     28900     28902
     28897     28900     28903     28898     28897     28899     28898     28897     28900
     28899     28897     28900     28901     28900     28902     28901     28900     28903
     28902     28900     28903     28904     28907     28908     28904     28907     28909
     28904     28907     28910     28905     28904     28906     28905     28904     28907
     28906     28904     28907     28907     28910     28911     28907     28910     28912
     28907     28910     28913     28908     28907     28909     28908     28907     28910
     28909     28907     28910     28910     28913     28914     28910     28913     28915
     28910     28913     28916     28911     28910     28912     28911     28910     28913
     28912     28910     28913     28913     28916     28917     28913     28916     28918
     28913     28916     28919     28914     28913     28915     28914     28913     28916
     28915     28913     28916     28916     28919     28920     28916     28919     28921
     28916     28919     28922     28917     28916     28918     28917     28916     28919
     28918     28916     28919     28919     28922     28923     28919     28922     28924
     28919     28922     28925     28920     28919     28921     28920     28919     28922
     28921     28919     28922     28922     28925     28926     28922     28925     28927
     28922     28925     28928     28923     28922     28924     28923     28922     28925
     28924     28922     28925     28925     28928     28929     28925     28928     28930
     28925     28928     28931     28926     28925     28927     28926     28925     28928
     28927     28925     28928     28928     28931     28932     28928     28931     28933
     28928     28931     28934     28929     28928     28930     28929     28928     28931
     28930     28928     28931     28931     28934     28935     28931     28934     28936
     28931     28934     28937     28932     28931     28933     28932     28931     28934
     28933     28931     28934     28934     28937     28938     28934     28937     28939
     28934     28937     28940     28935     28934     28936     28935     28934     28937
     28936     28934     28937     28937     28940     28941     28937     28940     28942
     28937     28940     28943     28938     28937     28939     28938     28937     28940
     28939     28937     28940     28940     28943     28944     28940     28943     28945
     28940     28943     28946     28941     28940     28942     28941     28940     28943
     28942     28940     28943     28944     28943     28945     28944     28943     28946
     28945     28943     28946     28947     28951     28952     28947     28951     28953
     28947     28951     28954     28948     28947     28949     28948     28947     28950
     28948     28947     28951     28949     28947     28950     28949     28947     28951
     28950     28947     28951     28951     28954     28955     28951     28954     28956
     28951     28954     28961     28952     28951     28953     28952     28951     28954
     28953     28951     28954     28954     28961     28957     28955     28954     28956
     28955     28954     28961     28956     28954     28961     28957     28960     28962
     28958     28957     28959     28958     28957     28960     28958     28957     28961
     28959     28957     28960     28959     28957     28961     28960     28957     28961
     28960     28962     28963     28960     28962     28964     28960     28962     28965
     28962     28965     28966     28962     28965     28967     28962     28965     28973
     28963     28962     28964     28963     28962     28965     28964     28962     28965
     28965     28967     28968     28965     28973     28974     28965     28973     28975
     28965     28973     28976     28966     28965     28967     28966     28965     28973
     28967     28965     28973     28967     28968     28969     28967     28968     28970
     28968     28970     28971     28968     28970     28972     28968     28970     28982
     28969     28968     28970     28970     28982     28983     28970     28982     28984
     28970     28982     28985     28971     28970     28972     28971     28970     28982
     28972     28970     28982     28973     28976     28977     28974     28973     28975
     28974     28973     28976     28975     28973     28976     28976     28977     28978
     28976     28977     28979     28977     28979     28980     28977     28979     28981
     28977     28979     29026     28978     28977     28979     28979     29026     29027
     28979     29026     29028     28979     29026     29029     28980     28979     28981
     28980     28979     29026     28981     28979     29026     28982     28985     28986
     28982     28985     28987     28982     28985     28988     28983     28982     28984
     28983     28982     28985     28984     28982     28985     28985     28988     28989
     28985     28988     28990     28985     28988     28991     28986     28985     28987
     28986     28985     28988     28987     28985     28988     28988     28991     28992
     28988     28991     28993     28988     28991     28994     28989     28988     28990
     28989     28988     28991     28990     28988     28991     28991     28994     28995
     28991     28994     28996     28991     28994     28997     28992     28991     28993
     28992     28991     28994     28993     28991     28994     28994     28997     28998
     28994     28997     28999     28994     28997     29000     28995     28994     28996
     28995     28994     28997     28996     28994     28997     28997     29000     29001
     28997     29000     29002     28997     29000     29005     28998     28997     28999
     28998     28997     29000     28999     28997     29000     29000     29002     29003
     29000     29002     29004     29000     29002     29005     29000     29005     29002
     29000     29005     29006     29000     29005     29007     29001     29000     29002
     29001     29000     29005     29002     29000     29005     29002     29005     29006
     29002     29005     29007     29003     29002     29004     29003     29002     29005
     29004     29002     29005     29005     29007     29008     29005     29007     29009
     29005     29007     29010     29006     29005     29007     29007     29010     29011
     29007     29010     29012     29007     29010     29013     29008     29007     29009
     29008     29007     29010     29009     29007     29010     29010     29013     29014
     29010     29013     29015     29010     29013     29016     29011     29010     29012
     29011     29010     29013     29012     29010     29013     29013     29016     29017
     29013     29016     29018     29013     29016     29019     29014     29013     29015
     29014     29013     29016     29015     29013     29016     29016     29019     29020
     29016     29019     29021     29016     29019     29022     29017     29016     29018
     29017     29016     29019     29018     29016     29019     29019     29022     29023
     29019     29022     29024     29019     29022     29025     29020     29019     29021
     29020     29019     29022     29021     29019     29022     29023     29022     29024
     29023     29022     29025     29024     29022     29025     29026     29029     29030
     29026     29029     29031     29026     29029     29032     29027     29026     29028
     29027     29026     29029     29028     29026     29029     29029     29032     29033
     29029     29032     29034     29029     29032     29035     29030     29029     29031
     29030     29029     29032     29031     29029     29032     29032     29035     29036
     29032     29035     29037     29032     29035     29038     29033     29032     29034
     29033     29032     29035     29034     29032     29035     29035     29038     29039
     29035     29038     29040     29035     29038     29041     29036     29035     29037
     29036     29035     29038     29037     29035     29038     29038     29041     29042
     29038     29041     29043     29038     29041     29044     29039     29038     29040
     29039     29038     29041     29040     29038     29041     29041     29044     29045
     29041     29044     29046     29041     29044     29047     29042     29041     29043
     29042     29041     29044     29043     29041     29044     29044     29047     29048
     29044     29047     29049     29044     29047     29050     29045     29044     29046
     29045     29044     29047     29046     29044     29047     29047     29050     29051
     29047     29050     29052     29047     29050     29053     29048     29047     29049
     29048     29047     29050     29049     29047     29050     29050     29053     29054
     29050     29053     29055     29050     29053     29056     29051     29050     29052
     29051     29050     29053     29052     29050     29053     29053     29056     29057
     29053     29056     29058     29053     29056     29059     29054     29053     29055
     29054     29053     29056     29055     29053     29056     29056     29059     29060
     29056     29059     29061     29056     29059     29062     29057     29056     29058
     29057     29056     29059     29058     29056     29059     29059     29062     29063
     29059     29062     29064     29059     29062     29065     29060     29059     29061
     29060     29059     29062     29061     29059     29062     29063     29062     29064
     29063     29062     29065     29064     29062     29065     29066     29069     29070
     29066     29071     29072     29066     29071     29073     29066     29071     29075
     29067     29066     29068     29067     29066     29069     29067     29066     29071
     29068     29066     29069     29068     29066     29071     29069     29066     29071
     29071     29073     29074     29071     29075     29076     29071     29075     29077
     29071     29075     29082     29072     29071     29073     29072     29071     29075
     29073     29071     29075     29075     29082     29078     29076     29075     29077
     29076     29075     29082     29077     29075     29082     29078     29081     29083
     29079     29078     29080     29079     29078     29081     29079     29078     29082
     29080     29078     29081     29080     29078     29082     29081     29078     29082
     29081     29083     29084     29081     29083     29085     29081     29083     29086
     29083     29086     29087     29083     29086     29088     29083     29086     29094
     29084     29083     29085     29084     29083     29086     29085     29083     29086
     29086     29088     29089     29086     29094     29095     29086     29094     29096
     29086     29094     29097     29087     29086     29088     29087     29086     29094
     29088     29086     29094     29088     29089     29090     29088     29089     29091
     29089     29091     29092     29089     29091     29093     29089     29091     29103
     29090     29089     29091     29091     29103     29104     29091     29103     29105
     29091     29103     29106     29092     29091     29093     29092     29091     29103
     29093     29091     29103     29094     29097     29098     29095     29094     29096
     29095     29094     29097     29096     29094     29097     29097     29098     29099
     29097     29098     29100     29098     29100     29101     29098     29100     29102
     29098     29100     29147     29099     29098     29100     29100     29147     29148
     29100     29147     29149     29100     29147     29150     29101     29100     29102
     29101     29100     29147     29102     29100     29147     29103     29106     29107
     29103     29106     29108     29103     29106     29109     29104     29103     29105
     29104     29103     29106     29105     29103     29106     29106     29109     29110
     29106     29109     29111     29106     29109     29112     29107     29106     29108
     29107     29106     29109     29108     29106     29109     29109     29112     29113
     29109     29112     29114     29109     29112     29115     29110     29109     29111
     29110     29109     29112     29111     29109     29112     29112     29115     29116
     29112     29115     29117     29112     29115     29118     29113     29112     29114
     29113     29112     29115     29114     29112     29115     29115     29118     29119
     29115     29118     29120     29115     29118     29121     29116     29115     29117
     29116     29115     29118     29117     29115     29118     29118     29121     29122
     29118     29121     29123     29118     29121     29126     29119     29118     29120
     29119     29118     29121     29120     29118     29121     29121     29123     29124
     29121     29123     29125     29121     29123     29126     29121     29126     29123
     29121     29126     29127     29121     29126     29128     29122     29121     29123
     29122     29121     29126     29123     29121     29126     29123     29126     29127
     29123     29126     29128     29124     29123     29125     29124     29123     29126
     29125     29123     29126     29126     29128     29129     29126     29128     29130
     29126     29128     29131     29127     29126     29128     29128     29131     29132
     29128     29131     29133     29128     29131     29134     29129     29128     29130
     29129     29128     29131     29130     29128     29131     29131     29134     29135
     29131     29134     29136     29131     29134     29137     29132     29131     29133
     29132     29131     29134     29133     29131     29134     29134     29137     29138
     29134     29137     29139     29134     29137     29140     29135     29134     29136
     29135     29134     29137     29136     29134     29137     29137     29140     29141
     29137     29140     29142     29137     29140     29143     29138     29137     29139
     29138     29137     29140     29139     29137     29140     29140     29143     29144
     29140     29143     29145     29140     29143     29146     29141     29140     29142
     29141     29140     29143     29142     29140     29143     29144     29143     29145
     29144     29143     29146     29145     29143     29146     29147     29150     29151
     29147     29150     29152     29147     29150     29153     29148     29147     29149
     29148     29147     29150     29149     29147     29150     29150     29153     29154
     29150     29153     29155     29150     29153     29156     29151     29150     29152
     29151     29150     29153     29152     29150     29153     29153     29156     29157
     29153     29156     29158     29153     29156     29159     29154     29153     29155
     29154     29153     29156     29155     29153     29156     29156     29159     29160
     29156     29159     29161     29156     29159     29162     29157     29156     29158
     29157     29156     29159     29158     29156     29159     29159     29162     29163
     29159     29162     29164     29159     29162     29165     29160     29159     29161
     29160     29159     29162     29161     29159     29162     29162     29165     29166
     29162     29165     29167     29162     29165     29168     29163     29162     29164
     29163     29162     29165     29164     29162     29165     29165     29168     29169
     29165     29168     29170     29165     29168     29171     29166     29165     29167
     29166     29165     29168     29167     29165     29168     29168     29171     29172
     29168     29171     29173     29168     29171     29174     29169     29168     29170
     29169     29168     29171     29170     29168     29171     29171     29174     29175
     29171     29174     29176     29171     29174     29177     29172     29171     29173
     29172     29171     29174     29173     29171     29174     29174     29177     29178
     29174     29177     29179     29174     29177     29180     29175     29174     29176
     29175     29174     29177     29176     29174     29177     29177     29180     29181
     29177     29180     29182     29177     29180     29183     29178     29177     29179
     29178     29177     29180     29179     29177     29180     29180     29183     29184
     29180     29183     29185     29180     29183     29186     29181     29180     29182
     29181     29180     29183     29182     29180     29183     29183     29186     29187
     29183     29186     29188     29183     29186     29189     29184     29183     29185
     29184     29183     29186     29185     29183     29186     29187     29186     29188
     29187     29186     29189     29188     29186     29189     29190     29194     29195
     29190     29194     29196     29190     29194     29197     29191     29190     29192
     29191     29190     29193     29191     29190     29194     29192     29190     29193
     29192     29190     29194     29193     29190     29194     29194     29197     29198
     29194     29197     29199     29194     29197     29204     29195     29194     29196
     29195     29194     29197     29196     29194     29197     29197     29204     29200
     29198     29197     29199     29198     29197     29204     29199     29197     29204
     29200     29203     29205     29201     29200     29202     29201     29200     29203
     29201     29200     29204     29202     29200     29203     29202     29200     29204
     29203     29200     29204     29203     29205     29206     29203     29205     29207
     29203     29205     29208     29205     29208     29209     29205     29208     29210
     29205     29208     29216     29206     29205     29207     29206     29205     29208
     29207     29205     29208     29208     29210     29211     29208     29216     29217
     29208     29216     29218     29208     29216     29219     29209     29208     29210
     29209     29208     29216     29210     29208     29216     29210     29211     29212
     29210     29211     29213     29211     29213     29214     29211     29213     29215
     29211     29213     29225     29212     29211     29213     29213     29225     29226
     29213     29225     29227     29213     29225     29228     29214     29213     29215
     29214     29213     29225     29215     29213     29225     29216     29219     29220
     29217     29216     29218     29217     29216     29219     29218     29216     29219
     29219     29220     29221     29219     29220     29222     29220     29222     29223
     29220     29222     29224     29220     29222     29269     29221     29220     29222
     29222     29269     29270     29222     29269     29271     29222     29269     29272
     29223     29222     29224     29223     29222     29269     29224     29222     29269
     29225     29228     29229     29225     29228     29230     29225     29228     29231
     29226     29225     29227     29226     29225     29228     29227     29225     29228
     29228     29231     29232     29228     29231     29233     29228     29231     29234
     29229     29228     29230     29229     29228     29231     29230     29228     29231
     29231     29234     29235     29231     29234     29236     29231     29234     29237
     29232     29231     29233     29232     29231     29234     29233     29231     29234
     29234     29237     29238     29234     29237     29239     29234     29237     29240
     29235     29234     29236     29235     29234     29237     29236     29234     29237
     29237     29240     29241     29237     29240     29242     29237     29240     29243
     29238     29237     29239     29238     29237     29240     29239     29237     29240
     29240     29243     29244     29240     29243     29245     29240     29243     29248
     29241     29240     29242     29241     29240     29243     29242     29240     29243
     29243     29245     29246     29243     29245     29247     29243     29245     29248
     29243     29248     29245     29243     29248     29249     29243     29248     29250
     29244     29243     29245     29244     29243     29248     29245     29243     29248
     29245     29248     29249     29245     29248     29250     29246     29245     29247
     29246     29245     29248     29247     29245     29248     29248     29250     29251
     29248     29250     29252     29248     29250     29253     29249     29248     29250
     29250     29253     29254     29250     29253     29255     29250     29253     29256
     29251     29250     29252     29251     29250     29253     29252     29250     29253
     29253     29256     29257     29253     29256     29258     29253     29256     29259
     29254     29253     29255     29254     29253     29256     29255     29253     29256
     29256     29259     29260     29256     29259     29261     29256     29259     29262
     29257     29256     29258     29257     29256     29259     29258     29256     29259
     29259     29262     29263     29259     29262     29264     29259     29262     29265
     29260     29259     29261     29260     29259     29262     29261     29259     29262
     29262     29265     29266     29262     29265     29267     29262     29265     29268
     29263     29262     29264     29263     29262     29265     29264     29262     29265
     29266     29265     29267     29266     29265     29268     29267     29265     29268
     29269     29272     29273     29269     29272     29274     29269     29272     29275
     29270     29269     29271     29270     29269     29272     29271     29269     29272
     29272     29275     29276     29272     29275     29277     29272     29275     29278
     29273     29272     29274     29273     29272     29275     29274     29272     29275
     29275     29278     29279     29275     29278     29280     29275     29278     29281
     29276     29275     29277     29276     29275     29278     29277     29275     29278
     29278     29281     29282     29278     29281     29283     29278     29281     29284
     29279     29278     29280     29279     29278     29281     29280     29278     29281
     29281     29284     29285     29281     29284     29286     29281     29284     29287
     29282     29281     29283     29282     29281     29284     29283     29281     29284
     29284     29287     29288     29284     29287     29289     29284     29287     29290
     29285     29284     29286     29285     29284     29287     29286     29284     29287
     29287     29290     29291     29287     29290     29292     29287     29290     29293
     29288     29287     29289     29288     29287     29290     29289     29287     29290
     29290     29293     29294     29290     29293     29295     29290     29293     29296
     29291     29290     29292     29291     29290     29293     29292     29290     29293
     29293     29296     29297     29293     29296     29298     29293     29296     29299
     29294     29293     29295     29294     29293     29296     29295     29293     29296
     29296     29299     29300     29296     29299     29301     29296     29299     29302
     29297     29296     29298     29297     29296     29299     29298     29296     29299
     29299     29302     29303     29299     29302     29304     29299     29302     29305
     29300     29299     29301     29300     29299     29302     29301     29299     29302
     29302     29305     29306     29302     29305     29307     29302     29305     29308
     29303     29302     29304     29303     29302     29305     29304     29302     29305
     29305     29308     29309     29305     29308     29310     29305     29308     29311
     29306     29305     29307     29306     29305     29308     29307     29305     29308
     29309     29308     29310     29309     29308     29311     29310     29308     29311
     29312     29316     29317     29312     29316     29318     29312     29316     29319
     29313     29312     29314     29313     29312     29315     29313     29312     29316
     29314     29312     29315     29314     29312     29316     29315     29312     29316
     29316     29319     29320     29316     29319     29321     29316     29319     29326
     29317     29316     29318     29317     29316     29319     29318     29316     29319
     29319     29326     29322     29320     29319     29321     29320     29319     29326
     29321     29319     29326     29322     29325     29327     29323     29322     29324
     29323     29322     29325     29323     29322     29326     29324     29322     29325
     29324     29322     29326     29325     29322     29326     29325     29327     29328
     29325     29327     29329     29325     29327     29330     29327     29330     29331
     29327     29330     29332     29327     29330     29338     29328     29327     29329
     29328     29327     29330     29329     29327     29330     29330     29332     29333
     29330     29338     29339     29330     29338     29340     29330     29338     29341
     29331     29330     29332     29331     29330     29338     29332     29330     29338
     29332     29333     29334     29332     29333     29335     29333     29335     29336
     29333     29335     29337     29333     29335     29347     29334     29333     29335
     29335     29347     29348     29335     29347     29349     29335     29347     29350
     29336     29335     29337     29336     29335     29347     29337     29335     29347
     29338     29341     29342     29339     29338     29340     29339     29338     29341
     29340     29338     29341     29341     29342     29343     29341     29342     29344
     29342     29344     29345     29342     29344     29346     29342     29344     29391
     29343     29342     29344     29344     29391     29392     29344     29391     29393
     29344     29391     29394     29345     29344     29346     29345     29344     29391
     29346     29344     29391     29347     29350     29351     29347     29350     29352
     29347     29350     29353     29348     29347     29349     29348     29347     29350
     29349     29347     29350     29350     29353     29354     29350     29353     29355
     29350     29353     29356     29351     29350     29352     29351     29350     29353
     29352     29350     29353     29353     29356     29357     29353     29356     29358
     29353     29356     29359     29354     29353     29355     29354     29353     29356
     29355     29353     29356     29356     29359     29360     29356     29359     29361
     29356     29359     29362     29357     29356     29358     29357     29356     29359
     29358     29356     29359     29359     29362     29363     29359     29362     29364
     29359     29362     29365     29360     29359     29361     29360     29359     29362
     29361     29359     29362     29362     29365     29366     29362     29365     29367
     29362     29365     29370     29363     29362     29364     29363     29362     29365
     29364     29362     29365     29365     29367     29368     29365     29367     29369
     29365     29367     29370     29365     29370     29367     29365     29370     29371
     29365     29370     29372     29366     29365     29367     29366     29365     29370
     29367     29365     29370     29367     29370     29371     29367     29370     29372
     29368     29367     29369     29368     29367     29370     29369     29367     29370
     29370     29372     29373     29370     29372     29374     29370     29372     29375
     29371     29370     29372     29372     29375     29376     29372     29375     29377
     29372     29375     29378     29373     29372     29374     29373     29372     29375
     29374     29372     29375     29375     29378     29379     29375     29378     29380
     29375     29378     29381     29376     29375     29377     29376     29375     29378
     29377     29375     29378     29378     29381     29382     29378     29381     29383
     29378     29381     29384     29379     29378     29380     29379     29378     29381
     29380     29378     29381     29381     29384     29385     29381     29384     29386
     29381     29384     29387     29382     29381     29383     29382     29381     29384
     29383     29381     29384     29384     29387     29388     29384     29387     29389
     29384     29387     29390     29385     29384     29386     29385     29384     29387
     29386     29384     29387     29388     29387     29389     29388     29387     29390
     29389     29387     29390     29391     29394     29395     29391     29394     29396
     29391     29394     29397     29392     29391     29393     29392     29391     29394
     29393     29391     29394     29394     29397     29398     29394     29397     29399
     29394     29397     29400     29395     29394     29396     29395     29394     29397
     29396     29394     29397     29397     29400     29401     29397     29400     29402
     29397     29400     29403     29398     29397     29399     29398     29397     29400
     29399     29397     29400     29400     29403     29404     29400     29403     29405
     29400     29403     29406     29401     29400     29402     29401     29400     29403
     29402     29400     29403     29403     29406     29407     29403     29406     29408
     29403     29406     29409     29404     29403     29405     29404     29403     29406
     29405     29403     29406     29406     29409     29410     29406     29409     29411
     29406     29409     29412     29407     29406     29408     29407     29406     29409
     29408     29406     29409     29409     29412     29413     29409     29412     29414
     29409     29412     29415     29410     29409     29411     29410     29409     29412
     29411     29409     29412     29412     29415     29416     29412     29415     29417
     29412     29415     29418     29413     29412     29414     29413     29412     29415
     29414     29412     29415     29415     29418     29419     29415     29418     29420
     29415     29418     29421     29416     29415     29417     29416     29415     29418
     29417     29415     29418     29418     29421     29422     29418     29421     29423
     29418     29421     29424     29419     29418     29420     29419     29418     29421
     29420     29418     29421     29421     29424     29425     29421     29424     29426
     29421     29424     29427     29422     29421     29423     29422     29421     29424
     29423     29421     29424     29424     29427     29428     29424     29427     29429
     29424     29427     29430     29425     29424     29426     29425     29424     29427
     29426     29424     29427     29427     29430     29431     29427     29430     29432
     29427     29430     29433     29428     29427     29429     29428     29427     29430
     29429     29427     29430     29431     29430     29432     29431     29430     29433
     29432     29430     29433     29434     29438     29439     29434     29438     29440
     29434     29438     29441     29435     29434     29436     29435     29434     29437
     29435     29434     29438     29436     29434     29437     29436     29434     29438
     29437     29434     29438     29438     29441     29442     29438     29441     29443
     29438     29441     29448     29439     29438     29440     29439     29438     29441
     29440     29438     29441     29441     29448     29444     29442     29441     29443
     29442     29441     29448     29443     29441     29448     29444     29447     29449
     29445     29444     29446     29445     29444     29447     29445     29444     29448
     29446     29444     29447     29446     29444     29448     29447     29444     29448
     29447     29449     29450     29447     29449     29451     29447     29449     29452
     29449     29452     29453     29449     29452     29454     29449     29452     29460
     29450     29449     29451     29450     29449     29452     29451     29449     29452
     29452     29454     29455     29452     29460     29461     29452     29460     29462
     29452     29460     29463     29453     29452     29454     29453     29452     29460
     29454     29452     29460     29454     29455     29456     29454     29455     29457
     29455     29457     29458     29455     29457     29459     29455     29457     29469
     29456     29455     29457     29457     29469     29470     29457     29469     29471
     29457     29469     29472     29458     29457     29459     29458     29457     29469
     29459     29457     29469     29460     29463     29464     29461     29460     29462
     29461     29460     29463     29462     29460     29463     29463     29464     29465
     29463     29464     29466     29464     29466     29467     29464     29466     29468
     29464     29466     29513     29465     29464     29466     29466     29513     29514
     29466     29513     29515     29466     29513     29516     29467     29466     29468
     29467     29466     29513     29468     29466     29513     29469     29472     29473
     29469     29472     29474     29469     29472     29475     29470     29469     29471
     29470     29469     29472     29471     29469     29472     29472     29475     29476
     29472     29475     29477     29472     29475     29478     29473     29472     29474
     29473     29472     29475     29474     29472     29475     29475     29478     29479
     29475     29478     29480     29475     29478     29481     29476     29475     29477
     29476     29475     29478     29477     29475     29478     29478     29481     29482
     29478     29481     29483     29478     29481     29484     29479     29478     29480
     29479     29478     29481     29480     29478     29481     29481     29484     29485
     29481     29484     29486     29481     29484     29487     29482     29481     29483
     29482     29481     29484     29483     29481     29484     29484     29487     29488
     29484     29487     29489     29484     29487     29492     29485     29484     29486
     29485     29484     29487     29486     29484     29487     29487     29489     29490
     29487     29489     29491     29487     29489     29492     29487     29492     29489
     29487     29492     29493     29487     29492     29494     29488     29487     29489
     29488     29487     29492     29489     29487     29492     29489     29492     29493
     29489     29492     29494     29490     29489     29491     29490     29489     29492
     29491     29489     29492     29492     29494     29495     29492     29494     29496
     29492     29494     29497     29493     29492     29494     29494     29497     29498
     29494     29497     29499     29494     29497     29500     29495     29494     29496
     29495     29494     29497     29496     29494     29497     29497     29500     29501
     29497     29500     29502     29497     29500     29503     29498     29497     29499
     29498     29497     29500     29499     29497     29500     29500     29503     29504
     29500     29503     29505     29500     29503     29506     29501     29500     29502
     29501     29500     29503     29502     29500     29503     29503     29506     29507
     29503     29506     29508     29503     29506     29509     29504     29503     29505
     29504     29503     29506     29505     29503     29506     29506     29509     29510
     29506     29509     29511     29506     29509     29512     29507     29506     29508
     29507     29506     29509     29508     29506     29509     29510     29509     29511
     29510     29509     29512     29511     29509     29512     29513     29516     29517
     29513     29516     29518     29513     29516     29519     29514     29513     29515
     29514     29513     29516     29515     29513     29516     29516     29519     29520
     29516     29519     29521     29516     29519     29522     29517     29516     29518
     29517     29516     29519     29518     29516     29519     29519     29522     29523
     29519     29522     29524     29519     29522     29525     29520     29519     29521
     29520     29519     29522     29521     29519     29522     29522     29525     29526
     29522     29525     29527     29522     29525     29528     29523     29522     29524
     29523     29522     29525     29524     29522     29525     29525     29528     29529
     29525     29528     29530     29525     29528     29531     29526     29525     29527
     29526     29525     29528     29527     29525     29528     29528     29531     29532
     29528     29531     29533     29528     29531     29534     29529     29528     29530
     29529     29528     29531     29530     29528     29531     29531     29534     29535
     29531     29534     29536     29531     29534     29537     29532     29531     29533
     29532     29531     29534     29533     29531     29534     29534     29537     29538
     29534     29537     29539     29534     29537     29540     29535     29534     29536
     29535     29534     29537     29536     29534     29537     29537     29540     29541
     29537     29540     29542     29537     29540     29543     29538     29537     29539
     29538     29537     29540     29539     29537     29540     29540     29543     29544
     29540     29543     29545     29540     29543     29546     29541     29540     29542
     29541     29540     29543     29542     29540     29543     29543     29546     29547
     29543     29546     29548     29543     29546     29549     29544     29543     29545
     29544     29543     29546     29545     29543     29546     29546     29549     29550
     29546     29549     29551     29546     29549     29552     29547     29546     29548
     29547     29546     29549     29548     29546     29549     29549     29552     29553
     29549     29552     29554     29549     29552     29555     29550     29549     29551
     29550     29549     29552     29551     29549     29552     29553     29552     29554
     29553     29552     29555     29554     29552     29555     29556     29560     29561
     29556     29560     29562     29556     29560     29563     29557     29556     29558
     29557     29556     29559     29557     29556     29560     29558     29556     29559
     29558     29556     29560     29559     29556     29560     29560     29563     29564
     29560     29563     29565     29560     29563     29570     29561     29560     29562
     29561     29560     29563     29562     29560     29563     29563     29570     29566
     29564     29563     29565     29564     29563     29570     29565     29563     29570
     29566     29569     29571     29567     29566     29568     29567     29566     29569
     29567     29566     29570     29568     29566     29569     29568     29566     29570
     29569     29566     29570     29569     29571     29572     29569     29571     29573
     29569     29571     29574     29571     29574     29575     29571     29574     29576
     29571     29574     29582     29572     29571     29573     29572     29571     29574
     29573     29571     29574     29574     29576     29577     29574     29582     29583
     29574     29582     29584     29574     29582     29585     29575     29574     29576
     29575     29574     29582     29576     29574     29582     29576     29577     29578
     29576     29577     29579     29577     29579     29580     29577     29579     29581
     29577     29579     29591     29578     29577     29579     29579     29591     29592
     29579     29591     29593     29579     29591     29594     29580     29579     29581
     29580     29579     29591     29581     29579     29591     29582     29585     29586
     29583     29582     29584     29583     29582     29585     29584     29582     29585
     29585     29586     29587     29585     29586     29588     29586     29588     29589
     29586     29588     29590     29586     29588     29635     29587     29586     29588
     29588     29635     29636     29588     29635     29637     29588     29635     29638
     29589     29588     29590     29589     29588     29635     29590     29588     29635
     29591     29594     29595     29591     29594     29596     29591     29594     29597
     29592     29591     29593     29592     29591     29594     29593     29591     29594
     29594     29597     29598     29594     29597     29599     29594     29597     29600
     29595     29594     29596     29595     29594     29597     29596     29594     29597
     29597     29600     29601     29597     29600     29602     29597     29600     29603
     29598     29597     29599     29598     29597     29600     29599     29597     29600
     29600     29603     29604     29600     29603     29605     29600     29603     29606
     29601     29600     29602     29601     29600     29603     29602     29600     29603
     29603     29606     29607     29603     29606     29608     29603     29606     29609
     29604     29603     29605     29604     29603     29606     29605     29603     29606
     29606     29609     29610     29606     29609     29611     29606     29609     29614
     29607     29606     29608     29607     29606     29609     29608     29606     29609
     29609     29611     29612     29609     29611     29613     29609     29611     29614
     29609     29614     29611     29609     29614     29615     29609     29614     29616
     29610     29609     29611     29610     29609     29614     29611     29609     29614
     29611     29614     29615     29611     29614     29616     29612     29611     29613
     29612     29611     29614     29613     29611     29614     29614     29616     29617
     29614     29616     29618     29614     29616     29619     29615     29614     29616
     29616     29619     29620     29616     29619     29621     29616     29619     29622
     29617     29616     29618     29617     29616     29619     29618     29616     29619
     29619     29622     29623     29619     29622     29624     29619     29622     29625
     29620     29619     29621     29620     29619     29622     29621     29619     29622
     29622     29625     29626     29622     29625     29627     29622     29625     29628
     29623     29622     29624     29623     29622     29625     29624     29622     29625
     29625     29628     29629     29625     29628     29630     29625     29628     29631
     29626     29625     29627     29626     29625     29628     29627     29625     29628
     29628     29631     29632     29628     29631     29633     29628     29631     29634
     29629     29628     29630     29629     29628     29631     29630     29628     29631
     29632     29631     29633     29632     29631     29634     29633     29631     29634
     29635     29638     29639     29635     29638     29640     29635     29638     29641
     29636     29635     29637     29636     29635     29638     29637     29635     29638
     29638     29641     29642     29638     29641     29643     29638     29641     29644
     29639     29638     29640     29639     29638     29641     29640     29638     29641
     29641     29644     29645     29641     29644     29646     29641     29644     29647
     29642     29641     29643     29642     29641     29644     29643     29641     29644
     29644     29647     29648     29644     29647     29649     29644     29647     29650
     29645     29644     29646     29645     29644     29647     29646     29644     29647
     29647     29650     29651     29647     29650     29652     29647     29650     29653
     29648     29647     29649     29648     29647     29650     29649     29647     29650
     29650     29653     29654     29650     29653     29655     29650     29653     29656
     29651     29650     29652     29651     29650     29653     29652     29650     29653
     29653     29656     29657     29653     29656     29658     29653     29656     29659
     29654     29653     29655     29654     29653     29656     29655     29653     29656
     29656     29659     29660     29656     29659     29661     29656     29659     29662
     29657     29656     29658     29657     29656     29659     29658     29656     29659
     29659     29662     29663     29659     29662     29664     29659     29662     29665
     29660     29659     29661     29660     29659     29662     29661     29659     29662
     29662     29665     29666     29662     29665     29667     29662     29665     29668
     29663     29662     29664     29663     29662     29665     29664     29662     29665
     29665     29668     29669     29665     29668     29670     29665     29668     29671
     29666     29665     29667     29666     29665     29668     29667     29665     29668
     29668     29671     29672     29668     29671     29673     29668     29671     29674
     29669     29668     29670     29669     29668     29671     29670     29668     29671
     29671     29674     29675     29671     29674     29676     29671     29674     29677
     29672     29671     29673     29672     29671     29674     29673     29671     29674
     29675     29674     29676     29675     29674     29677     29676     29674     29677
     29678     29681     29682     29678     29683     29684     29678     29683     29685
     29678     29683     29687     29679     29678     29680     29679     29678     29681
     29679     29678     29683     29680     29678     29681     29680     29678     29683
     29681     29678     29683     29683     29685     29686     29683     29687     29688
     29683     29687     29689     29683     29687     29694     29684     29683     29685
     29684     29683     29687     29685     29683     29687     29687     29694     29690
     29688     29687     29689     29688     29687     29694     29689     29687     29694
     29690     29693     29695     29691     29690     29692     29691     29690     29693
     29691     29690     29694     29692     29690     29693     29692     29690     29694
     29693     29690     29694     29693     29695     29696     29693     29695     29697
     29693     29695     29698     29695     29698     29699     29695     29698     29700
     29695     29698     29706     29696     29695     29697     29696     29695     29698
     29697     29695     29698     29698     29700     29701     29698     29706     29707
     29698     29706     29708     29698     29706     29709     29699     29698     29700
     29699     29698     29706     29700     29698     29706     29700     29701     29702
     29700     29701     29703     29701     29703     29704     29701     29703     29705
     29701     29703     29715     29702     29701     29703     29703     29715     29716
     29703     29715     29717     29703     29715     29718     29704     29703     29705
     29704     29703     29715     29705     29703     29715     29706     29709     29710
     29707     29706     29708     29707     29706     29709     29708     29706     29709
     29709     29710     29711     29709     29710     29712     29710     29712     29713
     29710     29712     29714     29710     29712     29759     29711     29710     29712
     29712     29759     29760     29712     29759     29761     29712     29759     29762
     29713     29712     29714     29713     29712     29759     29714     29712     29759
     29715     29718     29719     29715     29718     29720     29715     29718     29721
     29716     29715     29717     29716     29715     29718     29717     29715     29718
     29718     29721     29722     29718     29721     29723     29718     29721     29724
     29719     29718     29720     29719     29718     29721     29720     29718     29721
     29721     29724     29725     29721     29724     29726     29721     29724     29727
     29722     29721     29723     29722     29721     29724     29723     29721     29724
     29724     29727     29728     29724     29727     29729     29724     29727     29730
     29725     29724     29726     29725     29724     29727     29726     29724     29727
     29727     29730     29731     29727     29730     29732     29727     29730     29733
     29728     29727     29729     29728     29727     29730     29729     29727     29730
     29730     29733     29734     29730     29733     29735     29730     29733     29738
     29731     29730     29732     29731     29730     29733     29732     29730     29733
     29733     29735     29736     29733     29735     29737     29733     29735     29738
     29733     29738     29735     29733     29738     29739     29733     29738     29740
     29734     29733     29735     29734     29733     29738     29735     29733     29738
     29735     29738     29739     29735     29738     29740     29736     29735     29737
     29736     29735     29738     29737     29735     29738     29738     29740     29741
     29738     29740     29742     29738     29740     29743     29739     29738     29740
     29740     29743     29744     29740     29743     29745     29740     29743     29746
     29741     29740     29742     29741     29740     29743     29742     29740     29743
     29743     29746     29747     29743     29746     29748     29743     29746     29749
     29744     29743     29745     29744     29743     29746     29745     29743     29746
     29746     29749     29750     29746     29749     29751     29746     29749     29752
     29747     29746     29748     29747     29746     29749     29748     29746     29749
     29749     29752     29753     29749     29752     29754     29749     29752     29755
     29750     29749     29751     29750     29749     29752     29751     29749     29752
     29752     29755     29756     29752     29755     29757     29752     29755     29758
     29753     29752     29754     29753     29752     29755     29754     29752     29755
     29756     29755     29757     29756     29755     29758     29757     29755     29758
     29759     29762     29763     29759     29762     29764     29759     29762     29765
     29760     29759     29761     29760     29759     29762     29761     29759     29762
     29762     29765     29766     29762     29765     29767     29762     29765     29768
     29763     29762     29764     29763     29762     29765     29764     29762     29765
     29765     29768     29769     29765     29768     29770     29765     29768     29771
     29766     29765     29767     29766     29765     29768     29767     29765     29768
     29768     29771     29772     29768     29771     29773     29768     29771     29774
     29769     29768     29770     29769     29768     29771     29770     29768     29771
     29771     29774     29775     29771     29774     29776     29771     29774     29777
     29772     29771     29773     29772     29771     29774     29773     29771     29774
     29774     29777     29778     29774     29777     29779     29774     29777     29780
     29775     29774     29776     29775     29774     29777     29776     29774     29777
     29777     29780     29781     29777     29780     29782     29777     29780     29783
     29778     29777     29779     29778     29777     29780     29779     29777     29780
     29780     29783     29784     29780     29783     29785     29780     29783     29786
     29781     29780     29782     29781     29780     29783     29782     29780     29783
     29783     29786     29787     29783     29786     29788     29783     29786     29789
     29784     29783     29785     29784     29783     29786     29785     29783     29786
     29786     29789     29790     29786     29789     29791     29786     29789     29792
     29787     29786     29788     29787     29786     29789     29788     29786     29789
     29789     29792     29793     29789     29792     29794     29789     29792     29795
     29790     29789     29791     29790     29789     29792     29791     29789     29792
     29792     29795     29796     29792     29795     29797     29792     29795     29798
     29793     29792     29794     29793     29792     29795     29794     29792     29795
     29795     29798     29799     29795     29798     29800     29795     29798     29801
     29796     29795     29797     29796     29795     29798     29797     29795     29798
     29799     29798     29800     29799     29798     29801     29800     29798     29801
     29802     29806     29807     29802     29806     29808     29802     29806     29809
     29803     29802     29804     29803     29802     29805     29803     29802     29806
     29804     29802     29805     29804     29802     29806     29805     29802     29806
     29806     29809     29810     29806     29809     29811     29806     29809     29816
     29807     29806     29808     29807     29806     29809     29808     29806     29809
     29809     29816     29812     29810     29809     29811     29810     29809     29816
     29811     29809     29816     29812     29815     29817     29813     29812     29814
     29813     29812     29815     29813     29812     29816     29814     29812     29815
     29814     29812     29816     29815     29812     29816     29815     29817     29818
     29815     29817     29819     29815     29817     29820     29817     29820     29821
     29817     29820     29822     29817     29820     29828     29818     29817     29819
     29818     29817     29820     29819     29817     29820     29820     29822     29823
     29820     29828     29829     29820     29828     29830     29820     29828     29831
     29821     29820     29822     29821     29820     29828     29822     29820     29828
     29822     29823     29824     29822     29823     29825     29823     29825     29826
     29823     29825     29827     29823     29825     29837     29824     29823     29825
     29825     29837     29838     29825     29837     29839     29825     29837     29840
     29826     29825     29827     29826     29825     29837     29827     29825     29837
     29828     29831     29832     29829     29828     29830     29829     29828     29831
     29830     29828     29831     29831     29832     29833     29831     29832     29834
     29832     29834     29835     29832     29834     29836     29832     29834     29881
     29833     29832     29834     29834     29881     29882     29834     29881     29883
     29834     29881     29884     29835     29834     29836     29835     29834     29881
     29836     29834     29881     29837     29840     29841     29837     29840     29842
     29837     29840     29843     29838     29837     29839     29838     29837     29840
     29839     29837     29840     29840     29843     29844     29840     29843     29845
     29840     29843     29846     29841     29840     29842     29841     29840     29843
     29842     29840     29843     29843     29846     29847     29843     29846     29848
     29843     29846     29849     29844     29843     29845     29844     29843     29846
     29845     29843     29846     29846     29849     29850     29846     29849     29851
     29846     29849     29852     29847     29846     29848     29847     29846     29849
     29848     29846     29849     29849     29852     29853     29849     29852     29854
     29849     29852     29855     29850     29849     29851     29850     29849     29852
     29851     29849     29852     29852     29855     29856     29852     29855     29857
     29852     29855     29860     29853     29852     29854     29853     29852     29855
     29854     29852     29855     29855     29857     29858     29855     29857     29859
     29855     29857     29860     29855     29860     29857     29855     29860     29861
     29855     29860     29862     29856     29855     29857     29856     29855     29860
     29857     29855     29860     29857     29860     29861     29857     29860     29862
     29858     29857     29859     29858     29857     29860     29859     29857     29860
     29860     29862     29863     29860     29862     29864     29860     29862     29865
     29861     29860     29862     29862     29865     29866     29862     29865     29867
     29862     29865     29868     29863     29862     29864     29863     29862     29865
     29864     29862     29865     29865     29868     29869     29865     29868     29870
     29865     29868     29871     29866     29865     29867     29866     29865     29868
     29867     29865     29868     29868     29871     29872     29868     29871     29873
     29868     29871     29874     29869     29868     29870     29869     29868     29871
     29870     29868     29871     29871     29874     29875     29871     29874     29876
     29871     29874     29877     29872     29871     29873     29872     29871     29874
     29873     29871     29874     29874     29877     29878     29874     29877     29879
     29874     29877     29880     29875     29874     29876     29875     29874     29877
     29876     29874     29877     29878     29877     29879     29878     29877     29880
     29879     29877     29880     29881     29884     29885     29881     29884     29886
     29881     29884     29887     29882     29881     29883     29882     29881     29884
     29883     29881     29884     29884     29887     29888     29884     29887     29889
     29884     29887     29890     29885     29884     29886     29885     29884     29887
     29886     29884     29887     29887     29890     29891     29887     29890     29892
     29887     29890     29893     29888     29887     29889     29888     29887     29890
     29889     29887     29890     29890     29893     29894     29890     29893     29895
     29890     29893     29896     29891     29890     29892     29891     29890     29893
     29892     29890     29893     29893     29896     29897     29893     29896     29898
     29893     29896     29899     29894     29893     29895     29894     29893     29896
     29895     29893     29896     29896     29899     29900     29896     29899     29901
     29896     29899     29902     29897     29896     29898     29897     29896     29899
     29898     29896     29899     29899     29902     29903     29899     29902     29904
     29899     29902     29905     29900     29899     29901     29900     29899     29902
     29901     29899     29902     29902     29905     29906     29902     29905     29907
     29902     29905     29908     29903     29902     29904     29903     29902     29905
     29904     29902     29905     29905     29908     29909     29905     29908     29910
     29905     29908     29911     29906     29905     29907     29906     29905     29908
     29907     29905     29908     29908     29911     29912     29908     29911     29913
     29908     29911     29914     29909     29908     29910     29909     29908     29911
     29910     29908     29911     29911     29914     29915     29911     29914     29916
     29911     29914     29917     29912     29911     29913     29912     29911     29914
     29913     29911     29914     29914     29917     29918     29914     29917     29919
     29914     29917     29920     29915     29914     29916     29915     29914     29917
     29916     29914     29917     29917     29920     29921     29917     29920     29922
     29917     29920     29923     29918     29917     29919     29918     29917     29920
     29919     29917     29920     29921     29920     29922     29921     29920     29923
     29922     29920     29923     29924     29928     29929     29924     29928     29930
     29924     29928     29931     29925     29924     29926     29925     29924     29927
     29925     29924     29928     29926     29924     29927     29926     29924     29928
     29927     29924     29928     29928     29931     29932     29928     29931     29933
     29928     29931     29938     29929     29928     29930     29929     29928     29931
     29930     29928     29931     29931     29938     29934     29932     29931     29933
     29932     29931     29938     29933     29931     29938     29934     29937     29939
     29935     29934     29936     29935     29934     29937     29935     29934     29938
     29936     29934     29937     29936     29934     29938     29937     29934     29938
     29937     29939     29940     29937     29939     29941     29937     29939     29942
     29939     29942     29943     29939     29942     29944     29939     29942     29950
     29940     29939     29941     29940     29939     29942     29941     29939     29942
     29942     29944     29945     29942     29950     29951     29942     29950     29952
     29942     29950     29953     29943     29942     29944     29943     29942     29950
     29944     29942     29950     29944     29945     29946     29944     29945     29947
     29945     29947     29948     29945     29947     29949     29945     29947     29959
     29946     29945     29947     29947     29959     29960     29947     29959     29961
     29947     29959     29962     29948     29947     29949     29948     29947     29959
     29949     29947     29959     29950     29953     29954     29951     29950     29952
     29951     29950     29953     29952     29950     29953     29953     29954     29955
     29953     29954     29956     29954     29956     29957     29954     29956     29958
     29954     29956     30006     29955     29954     29956     29956     30006     30007
     29956     30006     30008     29956     30006     30009     29957     29956     29958
     29957     29956     30006     29958     29956     30006     29959     29962     29963
     29959     29962     29964     29959     29962     29965     29960     29959     29961
     29960     29959     29962     29961     29959     29962     29962     29965     29966
     29962     29965     29967     29962     29965     29968     29963     29962     29964
     29963     29962     29965     29964     29962     29965     29965     29968     29969
     29965     29968     29970     29965     29968     29971     29966     29965     29967
     29966     29965     29968     29967     29965     29968     29968     29971     29972
     29968     29971     29973     29968     29971     29974     29969     29968     29970
     29969     29968     29971     29970     29968     29971     29971     29974     29975
     29971     29974     29976     29971     29974     29977     29972     29971     29973
     29972     29971     29974     29973     29971     29974     29974     29977     29978
     29974     29977     29979     29975     29974     29976     29975     29974     29977
     29976     29974     29977     29977     29979     29980     29977     29979     29981
     29978     29977     29979     29979     29981     29982     29979     29981     29983
     29979     29981     29984     29980     29979     29981     29981     29984     29985
     29981     29984     29986     29981     29984     29987     29982     29981     29983
     29982     29981     29984     29983     29981     29984     29984     29987     29988
     29984     29987     29989     29984     29987     29990     29985     29984     29986
     29985     29984     29987     29986     29984     29987     29987     29990     29991
     29987     29990     29992     29987     29990     29993     29988     29987     29989
     29988     29987     29990     29989     29987     29990     29990     29993     29994
     29990     29993     29995     29990     29993     29996     29991     29990     29992
     29991     29990     29993     29992     29990     29993     29993     29996     29997
     29993     29996     29998     29993     29996     29999     29994     29993     29995
     29994     29993     29996     29995     29993     29996     29996     29999     30000
     29996     29999     30001     29996     29999     30002     29997     29996     29998
     29997     29996     29999     29998     29996     29999     29999     30002     30003
     29999     30002     30004     29999     30002     30005     30000     29999     30001
     30000     29999     30002     30001     29999     30002     30003     30002     30004
     30003     30002     30005     30004     30002     30005     30006     30009     30010
     30006     30009     30011     30006     30009     30012     30007     30006     30008
     30007     30006     30009     30008     30006     30009     30009     30012     30013
     30009     30012     30014     30009     30012     30015     30010     30009     30011
     30010     30009     30012     30011     30009     30012     30012     30015     30016
     30012     30015     30017     30012     30015     30018     30013     30012     30014
     30013     30012     30015     30014     30012     30015     30015     30018     30019
     30015     30018     30020     30015     30018     30021     30016     30015     30017
     30016     30015     30018     30017     30015     30018     30018     30021     30022
     30018     30021     30023     30018     30021     30024     30019     30018     30020
     30019     30018     30021     30020     30018     30021     30021     30024     30025
     30021     30024     30026     30021     30024     30027     30022     30021     30023
     30022     30021     30024     30023     30021     30024     30024     30027     30028
     30024     30027     30029     30024     30027     30030     30025     30024     30026
     30025     30024     30027     30026     30024     30027     30027     30030     30031
     30027     30030     30032     30027     30030     30033     30028     30027     30029
     30028     30027     30030     30029     30027     30030     30030     30033     30034
     30030     30033     30035     30030     30033     30036     30031     30030     30032
     30031     30030     30033     30032     30030     30033     30033     30036     30037
     30033     30036     30038     30033     30036     30039     30034     30033     30035
     30034     30033     30036     30035     30033     30036     30036     30039     30040
     30036     30039     30041     30036     30039     30042     30037     30036     30038
     30037     30036     30039     30038     30036     30039     30039     30042     30043
     30039     30042     30044     30039     30042     30045     30040     30039     30041
     30040     30039     30042     30041     30039     30042     30042     30045     30046
     30042     30045     30047     30042     30045     30048     30043     30042     30044
     30043     30042     30045     30044     30042     30045     30046     30045     30047
     30046     30045     30048     30047     30045     30048     30049     30053     30054
     30049     30053     30055     30049     30053     30056     30050     30049     30051
     30050     30049     30052     30050     30049     30053     30051     30049     30052
     30051     30049     30053     30052     30049     30053     30053     30056     30057
     30053     30056     30058     30053     30056     30063     30054     30053     30055
     30054     30053     30056     30055     30053     30056     30056     30063     30059
     30057     30056     30058     30057     30056     30063     30058     30056     30063
     30059     30062     30064     30060     30059     30061     30060     30059     30062
     30060     30059     30063     30061     30059     30062     30061     30059     30063
     30062     30059     30063     30062     30064     30065     30062     30064     30066
     30062     30064     30067     30064     30067     30068     30064     30067     30069
     30064     30067     30075     30065     30064     30066     30065     30064     30067
     30066     30064     30067     30067     30069     30070     30067     30075     30076
     30067     30075     30077     30067     30075     30078     30068     30067     30069
     30068     30067     30075     30069     30067     30075     30069     30070     30071
     30069     30070     30072     30070     30072     30073     30070     30072     30074
     30070     30072     30084     30071     30070     30072     30072     30084     30085
     30072     30084     30086     30072     30084     30087     30073     30072     30074
     30073     30072     30084     30074     30072     30084     30075     30078     30079
     30076     30075     30077     30076     30075     30078     30077     30075     30078
     30078     30079     30080     30078     30079     30081     30079     30081     30082
     30079     30081     30083     30079     30081     30131     30080     30079     30081
     30081     30131     30132     30081     30131     30133     30081     30131     30134
     30082     30081     30083     30082     30081     30131     30083     30081     30131
     30084     30087     30088     30084     30087     30089     30084     30087     30090
     30085     30084     30086     30085     30084     30087     30086     30084     30087
     30087     30090     30091     30087     30090     30092     30087     30090     30093
     30088     30087     30089     30088     30087     30090     30089     30087     30090
     30090     30093     30094     30090     30093     30095     30090     30093     30096
     30091     30090     30092     30091     30090     30093     30092     30090     30093
     30093     30096     30097     30093     30096     30098     30093     30096     30099
     30094     30093     30095     30094     30093     30096     30095     30093     30096
     30096     30099     30100     30096     30099     30101     30096     30099     30102
     30097     30096     30098     30097     30096     30099     30098     30096     30099
     30099     30102     30103     30099     30102     30104     30100     30099     30101
     30100     30099     30102     30101     30099     30102     30102     30104     30105
     30102     30104     30106     30103     30102     30104     30104     30106     30107
     30104     30106     30108     30104     30106     30109     30105     30104     30106
     30106     30109     30110     30106     30109     30111     30106     30109     30112
     30107     30106     30108     30107     30106     30109     30108     30106     30109
     30109     30112     30113     30109     30112     30114     30109     30112     30115
     30110     30109     30111     30110     30109     30112     30111     30109     30112
     30112     30115     30116     30112     30115     30117     30112     30115     30118
     30113     30112     30114     30113     30112     30115     30114     30112     30115
     30115     30118     30119     30115     30118     30120     30115     30118     30121
     30116     30115     30117     30116     30115     30118     30117     30115     30118
     30118     30121     30122     30118     30121     30123     30118     30121     30124
     30119     30118     30120     30119     30118     30121     30120     30118     30121
     30121     30124     30125     30121     30124     30126     30121     30124     30127
     30122     30121     30123     30122     30121     30124     30123     30121     30124
     30124     30127     30128     30124     30127     30129     30124     30127     30130
     30125     30124     30126     30125     30124     30127     30126     30124     30127
     30128     30127     30129     30128     30127     30130     30129     30127     30130
     30131     30134     30135     30131     30134     30136     30131     30134     30137
     30132     30131     30133     30132     30131     30134     30133     30131     30134
     30134     30137     30138     30134     30137     30139     30134     30137     30140
     30135     30134     30136     30135     30134     30137     30136     30134     30137
     30137     30140     30141     30137     30140     30142     30137     30140     30143
     30138     30137     30139     30138     30137     30140     30139     30137     30140
     30140     30143     30144     30140     30143     30145     30140     30143     30146
     30141     30140     30142     30141     30140     30143     30142     30140     30143
     30143     30146     30147     30143     30146     30148     30143     30146     30149
     30144     30143     30145     30144     30143     30146     30145     30143     30146
     30146     30149     30150     30146     30149     30151     30146     30149     30152
     30147     30146     30148     30147     30146     30149     30148     30146     30149
     30149     30152     30153     30149     30152     30154     30149     30152     30155
     30150     30149     30151     30150     30149     30152     30151     30149     30152
     30152     30155     30156     30152     30155     30157     30152     30155     30158
     30153     30152     30154     30153     30152     30155     30154     30152     30155
     30155     30158     30159     30155     30158     30160     30155     30158     30161
     30156     30155     30157     30156     30155     30158     30157     30155     30158
     30158     30161     30162     30158     30161     30163     30158     30161     30164
     30159     30158     30160     30159     30158     30161     30160     30158     30161
     30161     30164     30165     30161     30164     30166     30161     30164     30167
     30162     30161     30163     30162     30161     30164     30163     30161     30164
     30164     30167     30168     30164     30167     30169     30164     30167     30170
     30165     30164     30166     30165     30164     30167     30166     30164     30167
     30167     30170     30171     30167     30170     30172     30167     30170     30173
     30168     30167     30169     30168     30167     30170     30169     30167     30170
     30171     30170     30172     30171     30170     30173     30172     30170     30173
     30174     30178     30179     30174     30178     30180     30174     30178     30181
     30175     30174     30176     30175     30174     30177     30175     30174     30178
     30176     30174     30177     30176     30174     30178     30177     30174     30178
     30178     30181     30182     30178     30181     30183     30178     30181     30188
     30179     30178     30180     30179     30178     30181     30180     30178     30181
     30181     30188     30184     30182     30181     30183     30182     30181     30188
     30183     30181     30188     30184     30187     30189     30185     30184     30186
     30185     30184     30187     30185     30184     30188     30186     30184     30187
     30186     30184     30188     30187     30184     30188     30187     30189     30190
     30187     30189     30191     30187     30189     30192     30189     30192     30193
     30189     30192     30194     30189     30192     30200     30190     30189     30191
     30190     30189     30192     30191     30189     30192     30192     30194     30195
     30192     30200     30201     30192     30200     30202     30192     30200     30203
     30193     30192     30194     30193     30192     30200     30194     30192     30200
     30194     30195     30196     30194     30195     30197     30195     30197     30198
     30195     30197     30199     30195     30197     30209     30196     30195     30197
     30197     30209     30210     30197     30209     30211     30197     30209     30212
     30198     30197     30199     30198     30197     30209     30199     30197     30209
     30200     30203     30204     30201     30200     30202     30201     30200     30203
     30202     30200     30203     30203     30204     30205     30203     30204     30206
     30204     30206     30207     30204     30206     30208     30204     30206     30250
     30205     30204     30206     30206     30250     30251     30206     30250     30252
     30206     30250     30253     30207     30206     30208     30207     30206     30250
     30208     30206     30250     30209     30212     30213     30209     30212     30214
     30209     30212     30215     30210     30209     30211     30210     30209     30212
     30211     30209     30212     30212     30215     30216     30212     30215     30217
     30212     30215     30218     30213     30212     30214     30213     30212     30215
     30214     30212     30215     30215     30218     30219     30215     30218     30220
     30215     30218     30221     30216     30215     30217     30216     30215     30218
     30217     30215     30218     30218     30221     30222     30218     30221     30223
     30218     30221     30224     30219     30218     30220     30219     30218     30221
     30220     30218     30221     30221     30224     30225     30221     30224     30226
     30221     30224     30227     30222     30221     30223     30222     30221     30224
     30223     30221     30224     30224     30227     30228     30224     30227     30229
     30225     30224     30226     30225     30224     30227     30226     30224     30227
     30227     30229     30230     30227     30229     30231     30228     30227     30229
     30229     30231     30232     30229     30231     30233     30229     30231     30234
     30230     30229     30231     30231     30234     30235     30231     30234     30236
     30231     30234     30237     30232     30231     30233     30232     30231     30234
     30233     30231     30234     30234     30237     30238     30234     30237     30239
     30234     30237     30240     30235     30234     30236     30235     30234     30237
     30236     30234     30237     30237     30240     30241     30237     30240     30242
     30237     30240     30243     30238     30237     30239     30238     30237     30240
     30239     30237     30240     30240     30243     30244     30240     30243     30245
     30240     30243     30246     30241     30240     30242     30241     30240     30243
     30242     30240     30243     30243     30246     30247     30243     30246     30248
     30243     30246     30249     30244     30243     30245     30244     30243     30246
     30245     30243     30246     30247     30246     30248     30247     30246     30249
     30248     30246     30249     30250     30253     30254     30250     30253     30255
     30250     30253     30256     30251     30250     30252     30251     30250     30253
     30252     30250     30253     30253     30256     30257     30253     30256     30258
     30253     30256     30259     30254     30253     30255     30254     30253     30256
     30255     30253     30256     30256     30259     30260     30256     30259     30261
     30256     30259     30262     30257     30256     30258     30257     30256     30259
     30258     30256     30259     30259     30262     30263     30259     30262     30264
     30259     30262     30265     30260     30259     30261     30260     30259     30262
     30261     30259     30262     30262     30265     30266     30262     30265     30267
     30262     30265     30268     30263     30262     30264     30263     30262     30265
     30264     30262     30265     30265     30268     30269     30265     30268     30270
     30266     30265     30267     30266     30265     30268     30267     30265     30268
     30268     30270     30271     30268     30270     30272     30269     30268     30270
     30270     30272     30273     30270     30272     30274     30270     30272     30275
     30271     30270     30272     30272     30275     30276     30272     30275     30277
     30272     30275     30278     30273     30272     30274     30273     30272     30275
     30274     30272     30275     30275     30278     30279     30275     30278     30280
     30275     30278     30281     30276     30275     30277     30276     30275     30278
     30277     30275     30278     30278     30281     30282     30278     30281     30283
     30278     30281     30284     30279     30278     30280     30279     30278     30281
     30280     30278     30281     30281     30284     30285     30281     30284     30286
     30281     30284     30287     30282     30281     30283     30282     30281     30284
     30283     30281     30284     30284     30287     30288     30284     30287     30289
     30284     30287     30290     30285     30284     30286     30285     30284     30287
     30286     30284     30287     30287     30290     30291     30287     30290     30292
     30287     30290     30293     30288     30287     30289     30288     30287     30290
     30289     30287     30290     30290     30293     30294     30290     30293     30295
     30290     30293     30296     30291     30290     30292     30291     30290     30293
     30292     30290     30293     30294     30293     30295     30294     30293     30296
     30295     30293     30296     30297     30301     30302     30297     30301     30303
     30297     30301     30304     30298     30297     30299     30298     30297     30300
     30298     30297     30301     30299     30297     30300     30299     30297     30301
     30300     30297     30301     30301     30304     30305     30301     30304     30306
     30301     30304     30311     30302     30301     30303     30302     30301     30304
     30303     30301     30304     30304     30311     30307     30305     30304     30306
     30305     30304     30311     30306     30304     30311     30307     30310     30312
     30308     30307     30309     30308     30307     30310     30308     30307     30311
     30309     30307     30310     30309     30307     30311     30310     30307     30311
     30310     30312     30313     30310     30312     30314     30310     30312     30315
     30312     30315     30316     30312     30315     30317     30312     30315     30323
     30313     30312     30314     30313     30312     30315     30314     30312     30315
     30315     30317     30318     30315     30323     30324     30315     30323     30325
     30315     30323     30326     30316     30315     30317     30316     30315     30323
     30317     30315     30323     30317     30318     30319     30317     30318     30320
     30318     30320     30321     30318     30320     30322     30318     30320     30332
     30319     30318     30320     30320     30332     30333     30320     30332     30334
     30320     30332     30335     30321     30320     30322     30321     30320     30332
     30322     30320     30332     30323     30326     30327     30324     30323     30325
     30324     30323     30326     30325     30323     30326     30326     30327     30328
     30326     30327     30329     30327     30329     30330     30327     30329     30331
     30327     30329     30376     30328     30327     30329     30329     30376     30377
     30329     30376     30378     30329     30376     30379     30330     30329     30331
     30330     30329     30376     30331     30329     30376     30332     30335     30336
     30332     30335     30337     30332     30335     30338     30333     30332     30334
     30333     30332     30335     30334     30332     30335     30335     30338     30339
     30335     30338     30340     30335     30338     30341     30336     30335     30337
     30336     30335     30338     30337     30335     30338     30338     30341     30342
     30338     30341     30343     30338     30341     30344     30339     30338     30340
     30339     30338     30341     30340     30338     30341     30341     30344     30345
     30341     30344     30346     30341     30344     30347     30342     30341     30343
     30342     30341     30344     30343     30341     30344     30344     30347     30348
     30344     30347     30349     30344     30347     30350     30345     30344     30346
     30345     30344     30347     30346     30344     30347     30347     30350     30351
     30347     30350     30352     30347     30350     30355     30348     30347     30349
     30348     30347     30350     30349     30347     30350     30350     30352     30353
     30350     30352     30354     30350     30352     30355     30350     30355     30352
     30350     30355     30356     30350     30355     30357     30351     30350     30352
     30351     30350     30355     30352     30350     30355     30352     30355     30356
     30352     30355     30357     30353     30352     30354     30353     30352     30355
     30354     30352     30355     30355     30357     30358     30355     30357     30359
     30355     30357     30360     30356     30355     30357     30357     30360     30361
     30357     30360     30362     30357     30360     30363     30358     30357     30359
     30358     30357     30360     30359     30357     30360     30360     30363     30364
     30360     30363     30365     30360     30363     30366     30361     30360     30362
     30361     30360     30363     30362     30360     30363     30363     30366     30367
     30363     30366     30368     30363     30366     30369     30364     30363     30365
     30364     30363     30366     30365     30363     30366     30366     30369     30370
     30366     30369     30371     30366     30369     30372     30367     30366     30368
     30367     30366     30369     30368     30366     30369     30369     30372     30373
     30369     30372     30374     30369     30372     30375     30370     30369     30371
     30370     30369     30372     30371     30369     30372     30373     30372     30374
     30373     30372     30375     30374     30372     30375     30376     30379     30380
     30376     30379     30381     30376     30379     30382     30377     30376     30378
     30377     30376     30379     30378     30376     30379     30379     30382     30383
     30379     30382     30384     30379     30382     30385     30380     30379     30381
     30380     30379     30382     30381     30379     30382     30382     30385     30386
     30382     30385     30387     30382     30385     30388     30383     30382     30384
     30383     30382     30385     30384     30382     30385     30385     30388     30389
     30385     30388     30390     30385     30388     30391     30386     30385     30387
     30386     30385     30388     30387     30385     30388     30388     30391     30392
     30388     30391     30393     30388     30391     30394     30389     30388     30390
     30389     30388     30391     30390     30388     30391     30391     30394     30395
     30391     30394     30396     30391     30394     30397     30392     30391     30393
     30392     30391     30394     30393     30391     30394     30394     30397     30398
     30394     30397     30399     30394     30397     30400     30395     30394     30396
     30395     30394     30397     30396     30394     30397     30397     30400     30401
     30397     30400     30402     30397     30400     30403     30398     30397     30399
     30398     30397     30400     30399     30397     30400     30400     30403     30404
     30400     30403     30405     30400     30403     30406     30401     30400     30402
     30401     30400     30403     30402     30400     30403     30403     30406     30407
     30403     30406     30408     30403     30406     30409     30404     30403     30405
     30404     30403     30406     30405     30403     30406     30406     30409     30410
     30406     30409     30411     30406     30409     30412     30407     30406     30408
     30407     30406     30409     30408     30406     30409     30409     30412     30413
     30409     30412     30414     30409     30412     30415     30410     30409     30411
     30410     30409     30412     30411     30409     30412     30413     30412     30414
     30413     30412     30415     30414     30412     30415     30416     30420     30421
     30416     30420     30422     30416     30420     30423     30417     30416     30418
     30417     30416     30419     30417     30416     30420     30418     30416     30419
     30418     30416     30420     30419     30416     30420     30420     30423     30424
     30420     30423     30425     30420     30423     30430     30421     30420     30422
     30421     30420     30423     30422     30420     30423     30423     30430     30426
     30424     30423     30425     30424     30423     30430     30425     30423     30430
     30426     30429     30431     30427     30426     30428     30427     30426     30429
     30427     30426     30430     30428     30426     30429     30428     30426     30430
     30429     30426     30430     30429     30431     30432     30429     30431     30433
     30429     30431     30434     30431     30434     30435     30431     30434     30436
     30431     30434     30442     30432     30431     30433     30432     30431     30434
     30433     30431     30434     30434     30436     30437     30434     30442     30443
     30434     30442     30444     30434     30442     30445     30435     30434     30436
     30435     30434     30442     30436     30434     30442     30436     30437     30438
     30436     30437     30439     30437     30439     30440     30437     30439     30441
     30437     30439     30451     30438     30437     30439     30439     30451     30452
     30439     30451     30453     30439     30451     30454     30440     30439     30441
     30440     30439     30451     30441     30439     30451     30442     30445     30446
     30443     30442     30444     30443     30442     30445     30444     30442     30445
     30445     30446     30447     30445     30446     30448     30446     30448     30449
     30446     30448     30450     30446     30448     30495     30447     30446     30448
     30448     30495     30496     30448     30495     30497     30448     30495     30498
     30449     30448     30450     30449     30448     30495     30450     30448     30495
     30451     30454     30455     30451     30454     30456     30451     30454     30457
     30452     30451     30453     30452     30451     30454     30453     30451     30454
     30454     30457     30458     30454     30457     30459     30454     30457     30460
     30455     30454     30456     30455     30454     30457     30456     30454     30457
     30457     30460     30461     30457     30460     30462     30457     30460     30463
     30458     30457     30459     30458     30457     30460     30459     30457     30460
     30460     30463     30464     30460     30463     30465     30460     30463     30466
     30461     30460     30462     30461     30460     30463     30462     30460     30463
     30463     30466     30467     30463     30466     30468     30463     30466     30469
     30464     30463     30465     30464     30463     30466     30465     30463     30466
     30466     30469     30470     30466     30469     30471     30466     30469     30474
     30467     30466     30468     30467     30466     30469     30468     30466     30469
     30469     30471     30472     30469     30471     30473     30469     30471     30474
     30469     30474     30471     30469     30474     30475     30469     30474     30476
     30470     30469     30471     30470     30469     30474     30471     30469     30474
     30471     30474     30475     30471     30474     30476     30472     30471     30473
     30472     30471     30474     30473     30471     30474     30474     30476     30477
     30474     30476     30478     30474     30476     30479     30475     30474     30476
     30476     30479     30480     30476     30479     30481     30476     30479     30482
     30477     30476     30478     30477     30476     30479     30478     30476     30479
     30479     30482     30483     30479     30482     30484     30479     30482     30485
     30480     30479     30481     30480     30479     30482     30481     30479     30482
     30482     30485     30486     30482     30485     30487     30482     30485     30488
     30483     30482     30484     30483     30482     30485     30484     30482     30485
     30485     30488     30489     30485     30488     30490     30485     30488     30491
     30486     30485     30487     30486     30485     30488     30487     30485     30488
     30488     30491     30492     30488     30491     30493     30488     30491     30494
     30489     30488     30490     30489     30488     30491     30490     30488     30491
     30492     30491     30493     30492     30491     30494     30493     30491     30494
     30495     30498     30499     30495     30498     30500     30495     30498     30501
     30496     30495     30497     30496     30495     30498     30497     30495     30498
     30498     30501     30502     30498     30501     30503     30498     30501     30504
     30499     30498     30500     30499     30498     30501     30500     30498     30501
     30501     30504     30505     30501     30504     30506     30501     30504     30507
     30502     30501     30503     30502     30501     30504     30503     30501     30504
     30504     30507     30508     30504     30507     30509     30504     30507     30510
     30505     30504     30506     30505     30504     30507     30506     30504     30507
     30507     30510     30511     30507     30510     30512     30507     30510     30513
     30508     30507     30509     30508     30507     30510     30509     30507     30510
     30510     30513     30514     30510     30513     30515     30510     30513     30516
     30511     30510     30512     30511     30510     30513     30512     30510     30513
     30513     30516     30517     30513     30516     30518     30513     30516     30519
     30514     30513     30515     30514     30513     30516     30515     30513     30516
     30516     30519     30520     30516     30519     30521     30516     30519     30522
     30517     30516     30518     30517     30516     30519     30518     30516     30519
     30519     30522     30523     30519     30522     30524     30519     30522     30525
     30520     30519     30521     30520     30519     30522     30521     30519     30522
     30522     30525     30526     30522     30525     30527     30522     30525     30528
     30523     30522     30524     30523     30522     30525     30524     30522     30525
     30525     30528     30529     30525     30528     30530     30525     30528     30531
     30526     30525     30527     30526     30525     30528     30527     30525     30528
     30528     30531     30532     30528     30531     30533     30528     30531     30534
     30529     30528     30530     30529     30528     30531     30530     30528     30531
     30531     30534     30535     30531     30534     30536     30531     30534     30537
     30532     30531     30533     30532     30531     30534     30533     30531     30534
     30535     30534     30536     30535     30534     30537     30536     30534     30537
     30538     30542     30543     30538     30542     30544     30538     30542     30545
     30539     30538     30540     30539     30538     30541     30539     30538     30542
     30540     30538     30541     30540     30538     30542     30541     30538     30542
     30542     30545     30546     30542     30545     30547     30542     30545     30552
     30543     30542     30544     30543     30542     30545     30544     30542     30545
     30545     30552     30548     30546     30545     30547     30546     30545     30552
     30547     30545     30552     30548     30551     30553     30549     30548     30550
     30549     30548     30551     30549     30548     30552     30550     30548     30551
     30550     30548     30552     30551     30548     30552     30551     30553     30554
     30551     30553     30555     30551     30553     30556     30553     30556     30557
     30553     30556     30558     30553     30556     30564     30554     30553     30555
     30554     30553     30556     30555     30553     30556     30556     30558     30559
     30556     30564     30565     30556     30564     30566     30556     30564     30567
     30557     30556     30558     30557     30556     30564     30558     30556     30564
     30558     30559     30560     30558     30559     30561     30559     30561     30562
     30559     30561     30563     30559     30561     30573     30560     30559     30561
     30561     30573     30574     30561     30573     30575     30561     30573     30576
     30562     30561     30563     30562     30561     30573     30563     30561     30573
     30564     30567     30568     30565     30564     30566     30565     30564     30567
     30566     30564     30567     30567     30568     30569     30567     30568     30570
     30568     30570     30571     30568     30570     30572     30568     30570     30617
     30569     30568     30570     30570     30617     30618     30570     30617     30619
     30570     30617     30620     30571     30570     30572     30571     30570     30617
     30572     30570     30617     30573     30576     30577     30573     30576     30578
     30573     30576     30579     30574     30573     30575     30574     30573     30576
     30575     30573     30576     30576     30579     30580     30576     30579     30581
     30576     30579     30582     30577     30576     30578     30577     30576     30579
     30578     30576     30579     30579     30582     30583     30579     30582     30584
     30579     30582     30585     30580     30579     30581     30580     30579     30582
     30581     30579     30582     30582     30585     30586     30582     30585     30587
     30582     30585     30588     30583     30582     30584     30583     30582     30585
     30584     30582     30585     30585     30588     30589     30585     30588     30590
     30585     30588     30591     30586     30585     30587     30586     30585     30588
     30587     30585     30588     30588     30591     30592     30588     30591     30593
     30588     30591     30596     30589     30588     30590     30589     30588     30591
     30590     30588     30591     30591     30593     30594     30591     30593     30595
     30591     30593     30596     30591     30596     30593     30591     30596     30597
     30591     30596     30598     30592     30591     30593     30592     30591     30596
     30593     30591     30596     30593     30596     30597     30593     30596     30598
     30594     30593     30595     30594     30593     30596     30595     30593     30596
     30596     30598     30599     30596     30598     30600     30596     30598     30601
     30597     30596     30598     30598     30601     30602     30598     30601     30603
     30598     30601     30604     30599     30598     30600     30599     30598     30601
     30600     30598     30601     30601     30604     30605     30601     30604     30606
     30601     30604     30607     30602     30601     30603     30602     30601     30604
     30603     30601     30604     30604     30607     30608     30604     30607     30609
     30604     30607     30610     30605     30604     30606     30605     30604     30607
     30606     30604     30607     30607     30610     30611     30607     30610     30612
     30607     30610     30613     30608     30607     30609     30608     30607     30610
     30609     30607     30610     30610     30613     30614     30610     30613     30615
     30610     30613     30616     30611     30610     30612     30611     30610     30613
     30612     30610     30613     30614     30613     30615     30614     30613     30616
     30615     30613     30616     30617     30620     30621     30617     30620     30622
     30617     30620     30623     30618     30617     30619     30618     30617     30620
     30619     30617     30620     30620     30623     30624     30620     30623     30625
     30620     30623     30626     30621     30620     30622     30621     30620     30623
     30622     30620     30623     30623     30626     30627     30623     30626     30628
     30623     30626     30629     30624     30623     30625     30624     30623     30626
     30625     30623     30626     30626     30629     30630     30626     30629     30631
     30626     30629     30632     30627     30626     30628     30627     30626     30629
     30628     30626     30629     30629     30632     30633     30629     30632     30634
     30629     30632     30635     30630     30629     30631     30630     30629     30632
     30631     30629     30632     30632     30635     30636     30632     30635     30637
     30632     30635     30638     30633     30632     30634     30633     30632     30635
     30634     30632     30635     30635     30638     30639     30635     30638     30640
     30635     30638     30641     30636     30635     30637     30636     30635     30638
     30637     30635     30638     30638     30641     30642     30638     30641     30643
     30638     30641     30644     30639     30638     30640     30639     30638     30641
     30640     30638     30641     30641     30644     30645     30641     30644     30646
     30641     30644     30647     30642     30641     30643     30642     30641     30644
     30643     30641     30644     30644     30647     30648     30644     30647     30649
     30644     30647     30650     30645     30644     30646     30645     30644     30647
     30646     30644     30647     30647     30650     30651     30647     30650     30652
     30647     30650     30653     30648     30647     30649     30648     30647     30650
     30649     30647     30650     30650     30653     30654     30650     30653     30655
     30650     30653     30656     30651     30650     30652     30651     30650     30653
     30652     30650     30653     30654     30653     30655     30654     30653     30656
     30655     30653     30656     30657     30661     30662     30657     30661     30663
     30657     30661     30664     30658     30657     30659     30658     30657     30660
     30658     30657     30661     30659     30657     30660     30659     30657     30661
     30660     30657     30661     30661     30664     30665     30661     30664     30666
     30661     30664     30671     30662     30661     30663     30662     30661     30664
     30663     30661     30664     30664     30671     30667     30665     30664     30666
     30665     30664     30671     30666     30664     30671     30667     30670     30672
     30668     30667     30669     30668     30667     30670     30668     30667     30671
     30669     30667     30670     30669     30667     30671     30670     30667     30671
     30670     30672     30673     30670     30672     30674     30670     30672     30675
     30672     30675     30676     30672     30675     30677     30672     30675     30683
     30673     30672     30674     30673     30672     30675     30674     30672     30675
     30675     30677     30678     30675     30683     30684     30675     30683     30685
     30675     30683     30686     30676     30675     30677     30676     30675     30683
     30677     30675     30683     30677     30678     30679     30677     30678     30680
     30678     30680     30681     30678     30680     30682     30678     30680     30692
     30679     30678     30680     30680     30692     30693     30680     30692     30694
     30680     30692     30695     30681     30680     30682     30681     30680     30692
     30682     30680     30692     30683     30686     30687     30684     30683     30685
     30684     30683     30686     30685     30683     30686     30686     30687     30688
     30686     30687     30689     30687     30689     30690     30687     30689     30691
     30687     30689     30736     30688     30687     30689     30689     30736     30737
     30689     30736     30738     30689     30736     30739     30690     30689     30691
     30690     30689     30736     30691     30689     30736     30692     30695     30696
     30692     30695     30697     30692     30695     30698     30693     30692     30694
     30693     30692     30695     30694     30692     30695     30695     30698     30699
     30695     30698     30700     30695     30698     30701     30696     30695     30697
     30696     30695     30698     30697     30695     30698     30698     30701     30702
     30698     30701     30703     30698     30701     30704     30699     30698     30700
     30699     30698     30701     30700     30698     30701     30701     30704     30705
     30701     30704     30706     30701     30704     30707     30702     30701     30703
     30702     30701     30704     30703     30701     30704     30704     30707     30708
     30704     30707     30709     30704     30707     30710     30705     30704     30706
     30705     30704     30707     30706     30704     30707     30707     30710     30711
     30707     30710     30712     30707     30710     30715     30708     30707     30709
     30708     30707     30710     30709     30707     30710     30710     30712     30713
     30710     30712     30714     30710     30712     30715     30710     30715     30712
     30710     30715     30716     30710     30715     30717     30711     30710     30712
     30711     30710     30715     30712     30710     30715     30712     30715     30716
     30712     30715     30717     30713     30712     30714     30713     30712     30715
     30714     30712     30715     30715     30717     30718     30715     30717     30719
     30715     30717     30720     30716     30715     30717     30717     30720     30721
     30717     30720     30722     30717     30720     30723     30718     30717     30719
     30718     30717     30720     30719     30717     30720     30720     30723     30724
     30720     30723     30725     30720     30723     30726     30721     30720     30722
     30721     30720     30723     30722     30720     30723     30723     30726     30727
     30723     30726     30728     30723     30726     30729     30724     30723     30725
     30724     30723     30726     30725     30723     30726     30726     30729     30730
     30726     30729     30731     30726     30729     30732     30727     30726     30728
     30727     30726     30729     30728     30726     30729     30729     30732     30733
     30729     30732     30734     30729     30732     30735     30730     30729     30731
     30730     30729     30732     30731     30729     30732     30733     30732     30734
     30733     30732     30735     30734     30732     30735     30736     30739     30740
     30736     30739     30741     30736     30739     30742     30737     30736     30738
     30737     30736     30739     30738     30736     30739     30739     30742     30743
     30739     30742     30744     30739     30742     30745     30740     30739     30741
     30740     30739     30742     30741     30739     30742     30742     30745     30746
     30742     30745     30747     30742     30745     30748     30743     30742     30744
     30743     30742     30745     30744     30742     30745     30745     30748     30749
     30745     30748     30750     30745     30748     30751     30746     30745     30747
     30746     30745     30748     30747     30745     30748     30748     30751     30752
     30748     30751     30753     30748     30751     30754     30749     30748     30750
     30749     30748     30751     30750     30748     30751     30751     30754     30755
     30751     30754     30756     30751     30754     30757     30752     30751     30753
     30752     30751     30754     30753     30751     30754     30754     30757     30758
     30754     30757     30759     30754     30757     30760     30755     30754     30756
     30755     30754     30757     30756     30754     30757     30757     30760     30761
     30757     30760     30762     30757     30760     30763     30758     30757     30759
     30758     30757     30760     30759     30757     30760     30760     30763     30764
     30760     30763     30765     30760     30763     30766     30761     30760     30762
     30761     30760     30763     30762     30760     30763     30763     30766     30767
     30763     30766     30768     30763     30766     30769     30764     30763     30765
     30764     30763     30766     30765     30763     30766     30766     30769     30770
     30766     30769     30771     30766     30769     30772     30767     30766     30768
     30767     30766     30769     30768     30766     30769     30769     30772     30773
     30769     30772     30774     30769     30772     30775     30770     30769     30771
     30770     30769     30772     30771     30769     30772     30772     30775     30776
     30772     30775     30777     30772     30775     30778     30773     30772     30774
     30773     30772     30775     30774     30772     30775     30776     30775     30777
     30776     30775     30778     30777     30775     30778     30779     30783     30784
     30779     30783     30785     30779     30783     30786     30780     30779     30781
     30780     30779     30782     30780     30779     30783     30781     30779     30782
     30781     30779     30783     30782     30779     30783     30783     30786     30787
     30783     30786     30788     30783     30786     30793     30784     30783     30785
     30784     30783     30786     30785     30783     30786     30786     30793     30789
     30787     30786     30788     30787     30786     30793     30788     30786     30793
     30789     30792     30794     30790     30789     30791     30790     30789     30792
     30790     30789     30793     30791     30789     30792     30791     30789     30793
     30792     30789     30793     30792     30794     30795     30792     30794     30796
     30792     30794     30797     30794     30797     30798     30794     30797     30799
     30794     30797     30805     30795     30794     30796     30795     30794     30797
     30796     30794     30797     30797     30799     30800     30797     30805     30806
     30797     30805     30807     30797     30805     30808     30798     30797     30799
     30798     30797     30805     30799     30797     30805     30799     30800     30801
     30799     30800     30802     30800     30802     30803     30800     30802     30804
     30800     30802     30814     30801     30800     30802     30802     30814     30815
     30802     30814     30816     30802     30814     30817     30803     30802     30804
     30803     30802     30814     30804     30802     30814     30805     30808     30809
     30806     30805     30807     30806     30805     30808     30807     30805     30808
     30808     30809     30810     30808     30809     30811     30809     30811     30812
     30809     30811     30813     30809     30811     30858     30810     30809     30811
     30811     30858     30859     30811     30858     30860     30811     30858     30861
     30812     30811     30813     30812     30811     30858     30813     30811     30858
     30814     30817     30818     30814     30817     30819     30814     30817     30820
     30815     30814     30816     30815     30814     30817     30816     30814     30817
     30817     30820     30821     30817     30820     30822     30817     30820     30823
     30818     30817     30819     30818     30817     30820     30819     30817     30820
     30820     30823     30824     30820     30823     30825     30820     30823     30826
     30821     30820     30822     30821     30820     30823     30822     30820     30823
     30823     30826     30827     30823     30826     30828     30823     30826     30829
     30824     30823     30825     30824     30823     30826     30825     30823     30826
     30826     30829     30830     30826     30829     30831     30826     30829     30832
     30827     30826     30828     30827     30826     30829     30828     30826     30829
     30829     30832     30833     30829     30832     30834     30829     30832     30837
     30830     30829     30831     30830     30829     30832     30831     30829     30832
     30832     30834     30835     30832     30834     30836     30832     30834     30837
     30832     30837     30834     30832     30837     30838     30832     30837     30839
     30833     30832     30834     30833     30832     30837     30834     30832     30837
     30834     30837     30838     30834     30837     30839     30835     30834     30836
     30835     30834     30837     30836     30834     30837     30837     30839     30840
     30837     30839     30841     30837     30839     30842     30838     30837     30839
     30839     30842     30843     30839     30842     30844     30839     30842     30845
     30840     30839     30841     30840     30839     30842     30841     30839     30842
     30842     30845     30846     30842     30845     30847     30842     30845     30848
     30843     30842     30844     30843     30842     30845     30844     30842     30845
     30845     30848     30849     30845     30848     30850     30845     30848     30851
     30846     30845     30847     30846     30845     30848     30847     30845     30848
     30848     30851     30852     30848     30851     30853     30848     30851     30854
     30849     30848     30850     30849     30848     30851     30850     30848     30851
     30851     30854     30855     30851     30854     30856     30851     30854     30857
     30852     30851     30853     30852     30851     30854     30853     30851     30854
     30855     30854     30856     30855     30854     30857     30856     30854     30857
     30858     30861     30862     30858     30861     30863     30858     30861     30864
     30859     30858     30860     30859     30858     30861     30860     30858     30861
     30861     30864     30865     30861     30864     30866     30861     30864     30867
     30862     30861     30863     30862     30861     30864     30863     30861     30864
     30864     30867     30868     30864     30867     30869     30864     30867     30870
     30865     30864     30866     30865     30864     30867     30866     30864     30867
     30867     30870     30871     30867     30870     30872     30867     30870     30873
     30868     30867     30869     30868     30867     30870     30869     30867     30870
     30870     30873     30874     30870     30873     30875     30870     30873     30876
     30871     30870     30872     30871     30870     30873     30872     30870     30873
     30873     30876     30877     30873     30876     30878     30873     30876     30879
     30874     30873     30875     30874     30873     30876     30875     30873     30876
     30876     30879     30880     30876     30879     30881     30876     30879     30882
     30877     30876     30878     30877     30876     30879     30878     30876     30879
     30879     30882     30883     30879     30882     30884     30879     30882     30885
     30880     30879     30881     30880     30879     30882     30881     30879     30882
     30882     30885     30886     30882     30885     30887     30882     30885     30888
     30883     30882     30884     30883     30882     30885     30884     30882     30885
     30885     30888     30889     30885     30888     30890     30885     30888     30891
     30886     30885     30887     30886     30885     30888     30887     30885     30888
     30888     30891     30892     30888     30891     30893     30888     30891     30894
     30889     30888     30890     30889     30888     30891     30890     30888     30891
     30891     30894     30895     30891     30894     30896     30891     30894     30897
     30892     30891     30893     30892     30891     30894     30893     30891     30894
     30894     30897     30898     30894     30897     30899     30894     30897     30900
     30895     30894     30896     30895     30894     30897     30896     30894     30897
     30898     30897     30899     30898     30897     30900     30899     30897     30900
     30901     30905     30906     30901     30905     30907     30901     30905     30908
     30902     30901     30903     30902     30901     30904     30902     30901     30905
     30903     30901     30904     30903     30901     30905     30904     30901     30905
     30905     30908     30909     30905     30908     30910     30905     30908     30915
     30906     30905     30907     30906     30905     30908     30907     30905     30908
     30908     30915     30911     30909     30908     30910     30909     30908     30915
     30910     30908     30915     30911     30914     30916     30912     30911     30913
     30912     30911     30914     30912     30911     30915     30913     30911     30914
     30913     30911     30915     30914     30911     30915     30914     30916     30917
     30914     30916     30918     30914     30916     30919     30916     30919     30920
     30916     30919     30921     30916     30919     30927     30917     30916     30918
     30917     30916     30919     30918     30916     30919     30919     30921     30922
     30919     30927     30928     30919     30927     30929     30919     30927     30930
     30920     30919     30921     30920     30919     30927     30921     30919     30927
     30921     30922     30923     30921     30922     30924     30922     30924     30925
     30922     30924     30926     30922     30924     30936     30923     30922     30924
     30924     30936     30937     30924     30936     30938     30924     30936     30939
     30925     30924     30926     30925     30924     30936     30926     30924     30936
     30927     30930     30931     30928     30927     30929     30928     30927     30930
     30929     30927     30930     30930     30931     30932     30930     30931     30933
     30931     30933     30934     30931     30933     30935     30931     30933     30980
     30932     30931     30933     30933     30980     30981     30933     30980     30982
     30933     30980     30983     30934     30933     30935     30934     30933     30980
     30935     30933     30980     30936     30939     30940     30936     30939     30941
     30936     30939     30942     30937     30936     30938     30937     30936     30939
     30938     30936     30939     30939     30942     30943     30939     30942     30944
     30939     30942     30945     30940     30939     30941     30940     30939     30942
     30941     30939     30942     30942     30945     30946     30942     30945     30947
     30942     30945     30948     30943     30942     30944     30943     30942     30945
     30944     30942     30945     30945     30948     30949     30945     30948     30950
     30945     30948     30951     30946     30945     30947     30946     30945     30948
     30947     30945     30948     30948     30951     30952     30948     30951     30953
     30948     30951     30954     30949     30948     30950     30949     30948     30951
     30950     30948     30951     30951     30954     30955     30951     30954     30956
     30951     30954     30959     30952     30951     30953     30952     30951     30954
     30953     30951     30954     30954     30956     30957     30954     30956     30958
     30954     30956     30959     30954     30959     30956     30954     30959     30960
     30954     30959     30961     30955     30954     30956     30955     30954     30959
     30956     30954     30959     30956     30959     30960     30956     30959     30961
     30957     30956     30958     30957     30956     30959     30958     30956     30959
     30959     30961     30962     30959     30961     30963     30959     30961     30964
     30960     30959     30961     30961     30964     30965     30961     30964     30966
     30961     30964     30967     30962     30961     30963     30962     30961     30964
     30963     30961     30964     30964     30967     30968     30964     30967     30969
     30964     30967     30970     30965     30964     30966     30965     30964     30967
     30966     30964     30967     30967     30970     30971     30967     30970     30972
     30967     30970     30973     30968     30967     30969     30968     30967     30970
     30969     30967     30970     30970     30973     30974     30970     30973     30975
     30970     30973     30976     30971     30970     30972     30971     30970     30973
     30972     30970     30973     30973     30976     30977     30973     30976     30978
     30973     30976     30979     30974     30973     30975     30974     30973     30976
     30975     30973     30976     30977     30976     30978     30977     30976     30979
     30978     30976     30979     30980     30983     30984     30980     30983     30985
     30980     30983     30986     30981     30980     30982     30981     30980     30983
     30982     30980     30983     30983     30986     30987     30983     30986     30988
     30983     30986     30989     30984     30983     30985     30984     30983     30986
     30985     30983     30986     30986     30989     30990     30986     30989     30991
     30986     30989     30992     30987     30986     30988     30987     30986     30989
     30988     30986     30989     30989     30992     30993     30989     30992     30994
     30989     30992     30995     30990     30989     30991     30990     30989     30992
     30991     30989     30992     30992     30995     30996     30992     30995     30997
     30992     30995     30998     30993     30992     30994     30993     30992     30995
     30994     30992     30995     30995     30998     30999     30995     30998     31000
     30995     30998     31001     30996     30995     30997     30996     30995     30998
     30997     30995     30998     30998     31001     31002     30998     31001     31003
     30998     31001     31004     30999     30998     31000     30999     30998     31001
     31000     30998     31001     31001     31004     31005     31001     31004     31006
     31001     31004     31007     31002     31001     31003     31002     31001     31004
     31003     31001     31004     31004     31007     31008     31004     31007     31009
     31004     31007     31010     31005     31004     31006     31005     31004     31007
     31006     31004     31007     31007     31010     31011     31007     31010     31012
     31007     31010     31013     31008     31007     31009     31008     31007     31010
     31009     31007     31010     31010     31013     31014     31010     31013     31015
     31010     31013     31016     31011     31010     31012     31011     31010     31013
     31012     31010     31013     31013     31016     31017     31013     31016     31018
     31013     31016     31019     31014     31013     31015     31014     31013     31016
     31015     31013     31016     31016     31019     31020     31016     31019     31021
     31016     31019     31022     31017     31016     31018     31017     31016     31019
     31018     31016     31019     31020     31019     31021     31020     31019     31022
     31021     31019     31022     31023     31027     31028     31023     31027     31029
     31023     31027     31030     31024     31023     31025     31024     31023     31026
     31024     31023     31027     31025     31023     31026     31025     31023     31027
     31026     31023     31027     31027     31030     31031     31027     31030     31032
     31027     31030     31037     31028     31027     31029     31028     31027     31030
     31029     31027     31030     31030     31037     31033     31031     31030     31032
     31031     31030     31037     31032     31030     31037     31033     31036     31038
     31034     31033     31035     31034     31033     31036     31034     31033     31037
     31035     31033     31036     31035     31033     31037     31036     31033     31037
     31036     31038     31039     31036     31038     31040     31036     31038     31041
     31038     31041     31042     31038     31041     31043     31038     31041     31049
     31039     31038     31040     31039     31038     31041     31040     31038     31041
     31041     31043     31044     31041     31049     31050     31041     31049     31051
     31041     31049     31052     31042     31041     31043     31042     31041     31049
     31043     31041     31049     31043     31044     31045     31043     31044     31046
     31044     31046     31047     31044     31046     31048     31044     31046     31058
     31045     31044     31046     31046     31058     31059     31046     31058     31060
     31046     31058     31061     31047     31046     31048     31047     31046     31058
     31048     31046     31058     31049     31052     31053     31050     31049     31051
     31050     31049     31052     31051     31049     31052     31052     31053     31054
     31052     31053     31055     31053     31055     31056     31053     31055     31057
     31053     31055     31105     31054     31053     31055     31055     31105     31106
     31055     31105     31107     31055     31105     31108     31056     31055     31057
     31056     31055     31105     31057     31055     31105     31058     31061     31062
     31058     31061     31063     31058     31061     31064     31059     31058     31060
     31059     31058     31061     31060     31058     31061     31061     31064     31065
     31061     31064     31066     31061     31064     31067     31062     31061     31063
     31062     31061     31064     31063     31061     31064     31064     31067     31068
     31064     31067     31069     31064     31067     31070     31065     31064     31066
     31065     31064     31067     31066     31064     31067     31067     31070     31071
     31067     31070     31072     31067     31070     31073     31068     31067     31069
     31068     31067     31070     31069     31067     31070     31070     31073     31074
     31070     31073     31075     31070     31073     31076     31071     31070     31072
     31071     31070     31073     31072     31070     31073     31073     31076     31077
     31073     31076     31078     31074     31073     31075     31074     31073     31076
     31075     31073     31076     31076     31078     31079     31076     31078     31080
     31077     31076     31078     31078     31080     31081     31078     31080     31082
     31078     31080     31083     31079     31078     31080     31080     31083     31084
     31080     31083     31085     31080     31083     31086     31081     31080     31082
     31081     31080     31083     31082     31080     31083     31083     31086     31087
     31083     31086     31088     31083     31086     31089     31084     31083     31085
     31084     31083     31086     31085     31083     31086     31086     31089     31090
     31086     31089     31091     31086     31089     31092     31087     31086     31088
     31087     31086     31089     31088     31086     31089     31089     31092     31093
     31089     31092     31094     31089     31092     31095     31090     31089     31091
     31090     31089     31092     31091     31089     31092     31092     31095     31096
     31092     31095     31097     31092     31095     31098     31093     31092     31094
     31093     31092     31095     31094     31092     31095     31095     31098     31099
     31095     31098     31100     31095     31098     31101     31096     31095     31097
     31096     31095     31098     31097     31095     31098     31098     31101     31102
     31098     31101     31103     31098     31101     31104     31099     31098     31100
     31099     31098     31101     31100     31098     31101     31102     31101     31103
     31102     31101     31104     31103     31101     31104     31105     31108     31109
     31105     31108     31110     31105     31108     31111     31106     31105     31107
     31106     31105     31108     31107     31105     31108     31108     31111     31112
     31108     31111     31113     31108     31111     31114     31109     31108     31110
     31109     31108     31111     31110     31108     31111     31111     31114     31115
     31111     31114     31116     31111     31114     31117     31112     31111     31113
     31112     31111     31114     31113     31111     31114     31114     31117     31118
     31114     31117     31119     31114     31117     31120     31115     31114     31116
     31115     31114     31117     31116     31114     31117     31117     31120     31121
     31117     31120     31122     31117     31120     31123     31118     31117     31119
     31118     31117     31120     31119     31117     31120     31120     31123     31124
     31120     31123     31125     31120     31123     31126     31121     31120     31122
     31121     31120     31123     31122     31120     31123     31123     31126     31127
     31123     31126     31128     31123     31126     31129     31124     31123     31125
     31124     31123     31126     31125     31123     31126     31126     31129     31130
     31126     31129     31131     31126     31129     31132     31127     31126     31128
     31127     31126     31129     31128     31126     31129     31129     31132     31133
     31129     31132     31134     31129     31132     31135     31130     31129     31131
     31130     31129     31132     31131     31129     31132     31132     31135     31136
     31132     31135     31137     31132     31135     31138     31133     31132     31134
     31133     31132     31135     31134     31132     31135     31135     31138     31139
     31135     31138     31140     31135     31138     31141     31136     31135     31137
     31136     31135     31138     31137     31135     31138     31138     31141     31142
     31138     31141     31143     31138     31141     31144     31139     31138     31140
     31139     31138     31141     31140     31138     31141     31141     31144     31145
     31141     31144     31146     31141     31144     31147     31142     31141     31143
     31142     31141     31144     31143     31141     31144     31145     31144     31146
     31145     31144     31147     31146     31144     31147     31148     31151     31152
     31148     31153     31154     31148     31153     31155     31148     31153     31157
     31149     31148     31150     31149     31148     31151     31149     31148     31153
     31150     31148     31151     31150     31148     31153     31151     31148     31153
     31153     31155     31156     31153     31157     31158     31153     31157     31159
     31153     31157     31164     31154     31153     31155     31154     31153     31157
     31155     31153     31157     31157     31164     31160     31158     31157     31159
     31158     31157     31164     31159     31157     31164     31160     31163     31165
     31161     31160     31162     31161     31160     31163     31161     31160     31164
     31162     31160     31163     31162     31160     31164     31163     31160     31164
     31163     31165     31166     31163     31165     31167     31163     31165     31168
     31165     31168     31169     31165     31168     31170     31165     31168     31176
     31166     31165     31167     31166     31165     31168     31167     31165     31168
     31168     31170     31171     31168     31176     31177     31168     31176     31178
     31168     31176     31179     31169     31168     31170     31169     31168     31176
     31170     31168     31176     31170     31171     31172     31170     31171     31173
     31171     31173     31174     31171     31173     31175     31171     31173     31185
     31172     31171     31173     31173     31185     31186     31173     31185     31187
     31173     31185     31188     31174     31173     31175     31174     31173     31185
     31175     31173     31185     31176     31179     31180     31177     31176     31178
     31177     31176     31179     31178     31176     31179     31179     31180     31181
     31179     31180     31182     31180     31182     31183     31180     31182     31184
     31180     31182     31229     31181     31180     31182     31182     31229     31230
     31182     31229     31231     31182     31229     31232     31183     31182     31184
     31183     31182     31229     31184     31182     31229     31185     31188     31189
     31185     31188     31190     31185     31188     31191     31186     31185     31187
     31186     31185     31188     31187     31185     31188     31188     31191     31192
     31188     31191     31193     31188     31191     31194     31189     31188     31190
     31189     31188     31191     31190     31188     31191     31191     31194     31195
     31191     31194     31196     31191     31194     31197     31192     31191     31193
     31192     31191     31194     31193     31191     31194     31194     31197     31198
     31194     31197     31199     31194     31197     31200     31195     31194     31196
     31195     31194     31197     31196     31194     31197     31197     31200     31201
     31197     31200     31202     31197     31200     31203     31198     31197     31199
     31198     31197     31200     31199     31197     31200     31200     31203     31204
     31200     31203     31205     31200     31203     31208     31201     31200     31202
     31201     31200     31203     31202     31200     31203     31203     31205     31206
     31203     31205     31207     31203     31205     31208     31203     31208     31205
     31203     31208     31209     31203     31208     31210     31204     31203     31205
     31204     31203     31208     31205     31203     31208     31205     31208     31209
     31205     31208     31210     31206     31205     31207     31206     31205     31208
     31207     31205     31208     31208     31210     31211     31208     31210     31212
     31208     31210     31213     31209     31208     31210     31210     31213     31214
     31210     31213     31215     31210     31213     31216     31211     31210     31212
     31211     31210     31213     31212     31210     31213     31213     31216     31217
     31213     31216     31218     31213     31216     31219     31214     31213     31215
     31214     31213     31216     31215     31213     31216     31216     31219     31220
     31216     31219     31221     31216     31219     31222     31217     31216     31218
     31217     31216     31219     31218     31216     31219     31219     31222     31223
     31219     31222     31224     31219     31222     31225     31220     31219     31221
     31220     31219     31222     31221     31219     31222     31222     31225     31226
     31222     31225     31227     31222     31225     31228     31223     31222     31224
     31223     31222     31225     31224     31222     31225     31226     31225     31227
     31226     31225     31228     31227     31225     31228     31229     31232     31233
     31229     31232     31234     31229     31232     31235     31230     31229     31231
     31230     31229     31232     31231     31229     31232     31232     31235     31236
     31232     31235     31237     31232     31235     31238     31233     31232     31234
     31233     31232     31235     31234     31232     31235     31235     31238     31239
     31235     31238     31240     31235     31238     31241     31236     31235     31237
     31236     31235     31238     31237     31235     31238     31238     31241     31242
     31238     31241     31243     31238     31241     31244     31239     31238     31240
     31239     31238     31241     31240     31238     31241     31241     31244     31245
     31241     31244     31246     31241     31244     31247     31242     31241     31243
     31242     31241     31244     31243     31241     31244     31244     31247     31248
     31244     31247     31249     31244     31247     31250     31245     31244     31246
     31245     31244     31247     31246     31244     31247     31247     31250     31251
     31247     31250     31252     31247     31250     31253     31248     31247     31249
     31248     31247     31250     31249     31247     31250     31250     31253     31254
     31250     31253     31255     31250     31253     31256     31251     31250     31252
     31251     31250     31253     31252     31250     31253     31253     31256     31257
     31253     31256     31258     31253     31256     31259     31254     31253     31255
     31254     31253     31256     31255     31253     31256     31256     31259     31260
     31256     31259     31261     31256     31259     31262     31257     31256     31258
     31257     31256     31259     31258     31256     31259     31259     31262     31263
     31259     31262     31264     31259     31262     31265     31260     31259     31261
     31260     31259     31262     31261     31259     31262     31262     31265     31266
     31262     31265     31267     31262     31265     31268     31263     31262     31264
     31263     31262     31265     31264     31262     31265     31265     31268     31269
     31265     31268     31270     31265     31268     31271     31266     31265     31267
     31266     31265     31268     31267     31265     31268     31269     31268     31270
     31269     31268     31271     31270     31268     31271     31272     31276     31277
     31272     31276     31278     31272     31276     31279     31273     31272     31274
     31273     31272     31275     31273     31272     31276     31274     31272     31275
     31274     31272     31276     31275     31272     31276     31276     31279     31280
     31276     31279     31281     31276     31279     31286     31277     31276     31278
     31277     31276     31279     31278     31276     31279     31279     31286     31282
     31280     31279     31281     31280     31279     31286     31281     31279     31286
     31282     31285     31287     31283     31282     31284     31283     31282     31285
     31283     31282     31286     31284     31282     31285     31284     31282     31286
     31285     31282     31286     31285     31287     31288     31285     31287     31289
     31285     31287     31290     31287     31290     31291     31287     31290     31292
     31287     31290     31298     31288     31287     31289     31288     31287     31290
     31289     31287     31290     31290     31292     31293     31290     31298     31299
     31290     31298     31300     31290     31298     31301     31291     31290     31292
     31291     31290     31298     31292     31290     31298     31292     31293     31294
     31292     31293     31295     31293     31295     31296     31293     31295     31297
     31293     31295     31307     31294     31293     31295     31295     31307     31308
     31295     31307     31309     31295     31307     31310     31296     31295     31297
     31296     31295     31307     31297     31295     31307     31298     31301     31302
     31299     31298     31300     31299     31298     31301     31300     31298     31301
     31301     31302     31303     31301     31302     31304     31302     31304     31305
     31302     31304     31306     31302     31304     31354     31303     31302     31304
     31304     31354     31355     31304     31354     31356     31304     31354     31357
     31305     31304     31306     31305     31304     31354     31306     31304     31354
     31307     31310     31311     31307     31310     31312     31307     31310     31313
     31308     31307     31309     31308     31307     31310     31309     31307     31310
     31310     31313     31314     31310     31313     31315     31310     31313     31316
     31311     31310     31312     31311     31310     31313     31312     31310     31313
     31313     31316     31317     31313     31316     31318     31313     31316     31319
     31314     31313     31315     31314     31313     31316     31315     31313     31316
     31316     31319     31320     31316     31319     31321     31316     31319     31322
     31317     31316     31318     31317     31316     31319     31318     31316     31319
     31319     31322     31323     31319     31322     31324     31319     31322     31325
     31320     31319     31321     31320     31319     31322     31321     31319     31322
     31322     31325     31326     31322     31325     31327     31323     31322     31324
     31323     31322     31325     31324     31322     31325     31325     31327     31328
     31325     31327     31329     31326     31325     31327     31327     31329     31330
     31327     31329     31331     31327     31329     31332     31328     31327     31329
     31329     31332     31333     31329     31332     31334     31329     31332     31335
     31330     31329     31331     31330     31329     31332     31331     31329     31332
     31332     31335     31336     31332     31335     31337     31332     31335     31338
     31333     31332     31334     31333     31332     31335     31334     31332     31335
     31335     31338     31339     31335     31338     31340     31335     31338     31341
     31336     31335     31337     31336     31335     31338     31337     31335     31338
     31338     31341     31342     31338     31341     31343     31338     31341     31344
     31339     31338     31340     31339     31338     31341     31340     31338     31341
     31341     31344     31345     31341     31344     31346     31341     31344     31347
     31342     31341     31343     31342     31341     31344     31343     31341     31344
     31344     31347     31348     31344     31347     31349     31344     31347     31350
     31345     31344     31346     31345     31344     31347     31346     31344     31347
     31347     31350     31351     31347     31350     31352     31347     31350     31353
     31348     31347     31349     31348     31347     31350     31349     31347     31350
     31351     31350     31352     31351     31350     31353     31352     31350     31353
     31354     31357     31358     31354     31357     31359     31354     31357     31360
     31355     31354     31356     31355     31354     31357     31356     31354     31357
     31357     31360     31361     31357     31360     31362     31357     31360     31363
     31358     31357     31359     31358     31357     31360     31359     31357     31360
     31360     31363     31364     31360     31363     31365     31360     31363     31366
     31361     31360     31362     31361     31360     31363     31362     31360     31363
     31363     31366     31367     31363     31366     31368     31363     31366     31369
     31364     31363     31365     31364     31363     31366     31365     31363     31366
     31366     31369     31370     31366     31369     31371     31366     31369     31372
     31367     31366     31368     31367     31366     31369     31368     31366     31369
     31369     31372     31373     31369     31372     31374     31369     31372     31375
     31370     31369     31371     31370     31369     31372     31371     31369     31372
     31372     31375     31376     31372     31375     31377     31372     31375     31378
     31373     31372     31374     31373     31372     31375     31374     31372     31375
     31375     31378     31379     31375     31378     31380     31375     31378     31381
     31376     31375     31377     31376     31375     31378     31377     31375     31378
     31378     31381     31382     31378     31381     31383     31378     31381     31384
     31379     31378     31380     31379     31378     31381     31380     31378     31381
     31381     31384     31385     31381     31384     31386     31381     31384     31387
     31382     31381     31383     31382     31381     31384     31383     31381     31384
     31384     31387     31388     31384     31387     31389     31384     31387     31390
     31385     31384     31386     31385     31384     31387     31386     31384     31387
     31387     31390     31391     31387     31390     31392     31387     31390     31393
     31388     31387     31389     31388     31387     31390     31389     31387     31390
     31390     31393     31394     31390     31393     31395     31390     31393     31396
     31391     31390     31392     31391     31390     31393     31392     31390     31393
     31394     31393     31395     31394     31393     31396     31395     31393     31396
     31397     31401     31402     31397     31401     31403     31397     31401     31404
     31398     31397     31399     31398     31397     31400     31398     31397     31401
     31399     31397     31400     31399     31397     31401     31400     31397     31401
     31401     31404     31405     31401     31404     31406     31401     31404     31411
     31402     31401     31403     31402     31401     31404     31403     31401     31404
     31404     31411     31407     31405     31404     31406     31405     31404     31411
     31406     31404     31411     31407     31410     31412     31408     31407     31409
     31408     31407     31410     31408     31407     31411     31409     31407     31410
     31409     31407     31411     31410     31407     31411     31410     31412     31413
     31410     31412     31414     31410     31412     31415     31412     31415     31416
     31412     31415     31417     31412     31415     31423     31413     31412     31414
     31413     31412     31415     31414     31412     31415     31415     31417     31418
     31415     31423     31424     31415     31423     31425     31415     31423     31426
     31416     31415     31417     31416     31415     31423     31417     31415     31423
     31417     31418     31419     31417     31418     31420     31418     31420     31421
     31418     31420     31422     31418     31420     31432     31419     31418     31420
     31420     31432     31433     31420     31432     31434     31420     31432     31435
     31421     31420     31422     31421     31420     31432     31422     31420     31432
     31423     31426     31427     31424     31423     31425     31424     31423     31426
     31425     31423     31426     31426     31427     31428     31426     31427     31429
     31427     31429     31430     31427     31429     31431     31427     31429     31476
     31428     31427     31429     31429     31476     31477     31429     31476     31478
     31429     31476     31479     31430     31429     31431     31430     31429     31476
     31431     31429     31476     31432     31435     31436     31432     31435     31437
     31432     31435     31438     31433     31432     31434     31433     31432     31435
     31434     31432     31435     31435     31438     31439     31435     31438     31440
     31435     31438     31441     31436     31435     31437     31436     31435     31438
     31437     31435     31438     31438     31441     31442     31438     31441     31443
     31438     31441     31444     31439     31438     31440     31439     31438     31441
     31440     31438     31441     31441     31444     31445     31441     31444     31446
     31441     31444     31447     31442     31441     31443     31442     31441     31444
     31443     31441     31444     31444     31447     31448     31444     31447     31449
     31444     31447     31450     31445     31444     31446     31445     31444     31447
     31446     31444     31447     31447     31450     31451     31447     31450     31452
     31447     31450     31455     31448     31447     31449     31448     31447     31450
     31449     31447     31450     31450     31452     31453     31450     31452     31454
     31450     31452     31455     31450     31455     31452     31450     31455     31456
     31450     31455     31457     31451     31450     31452     31451     31450     31455
     31452     31450     31455     31452     31455     31456     31452     31455     31457
     31453     31452     31454     31453     31452     31455     31454     31452     31455
     31455     31457     31458     31455     31457     31459     31455     31457     31460
     31456     31455     31457     31457     31460     31461     31457     31460     31462
     31457     31460     31463     31458     31457     31459     31458     31457     31460
     31459     31457     31460     31460     31463     31464     31460     31463     31465
     31460     31463     31466     31461     31460     31462     31461     31460     31463
     31462     31460     31463     31463     31466     31467     31463     31466     31468
     31463     31466     31469     31464     31463     31465     31464     31463     31466
     31465     31463     31466     31466     31469     31470     31466     31469     31471
     31466     31469     31472     31467     31466     31468     31467     31466     31469
     31468     31466     31469     31469     31472     31473     31469     31472     31474
     31469     31472     31475     31470     31469     31471     31470     31469     31472
     31471     31469     31472     31473     31472     31474     31473     31472     31475
     31474     31472     31475     31476     31479     31480     31476     31479     31481
     31476     31479     31482     31477     31476     31478     31477     31476     31479
     31478     31476     31479     31479     31482     31483     31479     31482     31484
     31479     31482     31485     31480     31479     31481     31480     31479     31482
     31481     31479     31482     31482     31485     31486     31482     31485     31487
     31482     31485     31488     31483     31482     31484     31483     31482     31485
     31484     31482     31485     31485     31488     31489     31485     31488     31490
     31485     31488     31491     31486     31485     31487     31486     31485     31488
     31487     31485     31488     31488     31491     31492     31488     31491     31493
     31488     31491     31494     31489     31488     31490     31489     31488     31491
     31490     31488     31491     31491     31494     31495     31491     31494     31496
     31491     31494     31497     31492     31491     31493     31492     31491     31494
     31493     31491     31494     31494     31497     31498     31494     31497     31499
     31494     31497     31500     31495     31494     31496     31495     31494     31497
     31496     31494     31497     31497     31500     31501     31497     31500     31502
     31497     31500     31503     31498     31497     31499     31498     31497     31500
     31499     31497     31500     31500     31503     31504     31500     31503     31505
     31500     31503     31506     31501     31500     31502     31501     31500     31503
     31502     31500     31503     31503     31506     31507     31503     31506     31508
     31503     31506     31509     31504     31503     31505     31504     31503     31506
     31505     31503     31506     31506     31509     31510     31506     31509     31511
     31506     31509     31512     31507     31506     31508     31507     31506     31509
     31508     31506     31509     31509     31512     31513     31509     31512     31514
     31509     31512     31515     31510     31509     31511     31510     31509     31512
     31511     31509     31512     31512     31515     31516     31512     31515     31517
     31512     31515     31518     31513     31512     31514     31513     31512     31515
     31514     31512     31515     31516     31515     31517     31516     31515     31518
     31517     31515     31518     31519     31523     31524     31519     31523     31525
     31519     31523     31526     31520     31519     31521     31520     31519     31522
     31520     31519     31523     31521     31519     31522     31521     31519     31523
     31522     31519     31523     31523     31526     31527     31523     31526     31528
     31523     31526     31533     31524     31523     31525     31524     31523     31526
     31525     31523     31526     31526     31533     31529     31527     31526     31528
     31527     31526     31533     31528     31526     31533     31529     31532     31534
     31530     31529     31531     31530     31529     31532     31530     31529     31533
     31531     31529     31532     31531     31529     31533     31532     31529     31533
     31532     31534     31535     31532     31534     31536     31532     31534     31537
     31534     31537     31538     31534     31537     31539     31534     31537     31545
     31535     31534     31536     31535     31534     31537     31536     31534     31537
     31537     31539     31540     31537     31545     31546     31537     31545     31547
     31537     31545     31548     31538     31537     31539     31538     31537     31545
     31539     31537     31545     31539     31540     31541     31539     31540     31542
     31540     31542     31543     31540     31542     31544     31540     31542     31554
     31541     31540     31542     31542     31554     31555     31542     31554     31556
     31542     31554     31557     31543     31542     31544     31543     31542     31554
     31544     31542     31554     31545     31548     31549     31546     31545     31547
     31546     31545     31548     31547     31545     31548     31548     31549     31550
     31548     31549     31551     31549     31551     31552     31549     31551     31553
     31549     31551     31601     31550     31549     31551     31551     31601     31602
     31551     31601     31603     31551     31601     31604     31552     31551     31553
     31552     31551     31601     31553     31551     31601     31554     31557     31558
     31554     31557     31559     31554     31557     31560     31555     31554     31556
     31555     31554     31557     31556     31554     31557     31557     31560     31561
     31557     31560     31562     31557     31560     31563     31558     31557     31559
     31558     31557     31560     31559     31557     31560     31560     31563     31564
     31560     31563     31565     31560     31563     31566     31561     31560     31562
     31561     31560     31563     31562     31560     31563     31563     31566     31567
     31563     31566     31568     31563     31566     31569     31564     31563     31565
     31564     31563     31566     31565     31563     31566     31566     31569     31570
     31566     31569     31571     31566     31569     31572     31567     31566     31568
     31567     31566     31569     31568     31566     31569     31569     31572     31573
     31569     31572     31574     31570     31569     31571     31570     31569     31572
     31571     31569     31572     31572     31574     31575     31572     31574     31576
     31573     31572     31574     31574     31576     31577     31574     31576     31578
     31574     31576     31579     31575     31574     31576     31576     31579     31580
     31576     31579     31581     31576     31579     31582     31577     31576     31578
     31577     31576     31579     31578     31576     31579     31579     31582     31583
     31579     31582     31584     31579     31582     31585     31580     31579     31581
     31580     31579     31582     31581     31579     31582     31582     31585     31586
     31582     31585     31587     31582     31585     31588     31583     31582     31584
     31583     31582     31585     31584     31582     31585     31585     31588     31589
     31585     31588     31590     31585     31588     31591     31586     31585     31587
     31586     31585     31588     31587     31585     31588     31588     31591     31592
     31588     31591     31593     31588     31591     31594     31589     31588     31590
     31589     31588     31591     31590     31588     31591     31591     31594     31595
     31591     31594     31596     31591     31594     31597     31592     31591     31593
     31592     31591     31594     31593     31591     31594     31594     31597     31598
     31594     31597     31599     31594     31597     31600     31595     31594     31596
     31595     31594     31597     31596     31594     31597     31598     31597     31599
     31598     31597     31600     31599     31597     31600     31601     31604     31605
     31601     31604     31606     31601     31604     31607     31602     31601     31603
     31602     31601     31604     31603     31601     31604     31604     31607     31608
     31604     31607     31609     31604     31607     31610     31605     31604     31606
     31605     31604     31607     31606     31604     31607     31607     31610     31611
     31607     31610     31612     31607     31610     31613     31608     31607     31609
     31608     31607     31610     31609     31607     31610     31610     31613     31614
     31610     31613     31615     31610     31613     31616     31611     31610     31612
     31611     31610     31613     31612     31610     31613     31613     31616     31617
     31613     31616     31618     31613     31616     31619     31614     31613     31615
     31614     31613     31616     31615     31613     31616     31616     31619     31620
     31616     31619     31621     31616     31619     31622     31617     31616     31618
     31617     31616     31619     31618     31616     31619     31619     31622     31623
     31619     31622     31624     31619     31622     31625     31620     31619     31621
     31620     31619     31622     31621     31619     31622     31622     31625     31626
     31622     31625     31627     31622     31625     31628     31623     31622     31624
     31623     31622     31625     31624     31622     31625     31625     31628     31629
     31625     31628     31630     31625     31628     31631     31626     31625     31627
     31626     31625     31628     31627     31625     31628     31628     31631     31632
     31628     31631     31633     31628     31631     31634     31629     31628     31630
     31629     31628     31631     31630     31628     31631     31631     31634     31635
     31631     31634     31636     31631     31634     31637     31632     31631     31633
     31632     31631     31634     31633     31631     31634     31634     31637     31638
     31634     31637     31639     31634     31637     31640     31635     31634     31636
     31635     31634     31637     31636     31634     31637     31637     31640     31641
     31637     31640     31642     31637     31640     31643     31638     31637     31639
     31638     31637     31640     31639     31637     31640     31641     31640     31642
     31641     31640     31643     31642     31640     31643     31644     31648     31649
     31644     31648     31650     31644     31648     31651     31645     31644     31646
     31645     31644     31647     31645     31644     31648     31646     31644     31647
     31646     31644     31648     31647     31644     31648     31648     31651     31652
     31648     31651     31653     31648     31651     31658     31649     31648     31650
     31649     31648     31651     31650     31648     31651     31651     31658     31654
     31652     31651     31653     31652     31651     31658     31653     31651     31658
     31654     31657     31659     31655     31654     31656     31655     31654     31657
     31655     31654     31658     31656     31654     31657     31656     31654     31658
     31657     31654     31658     31657     31659     31660     31657     31659     31661
     31657     31659     31662     31659     31662     31663     31659     31662     31664
     31659     31662     31670     31660     31659     31661     31660     31659     31662
     31661     31659     31662     31662     31664     31665     31662     31670     31671
     31662     31670     31672     31662     31670     31673     31663     31662     31664
     31663     31662     31670     31664     31662     31670     31664     31665     31666
     31664     31665     31667     31665     31667     31668     31665     31667     31669
     31665     31667     31679     31666     31665     31667     31667     31679     31680
     31667     31679     31681     31667     31679     31682     31668     31667     31669
     31668     31667     31679     31669     31667     31679     31670     31673     31674
     31671     31670     31672     31671     31670     31673     31672     31670     31673
     31673     31674     31675     31673     31674     31676     31674     31676     31677
     31674     31676     31678     31674     31676     31723     31675     31674     31676
     31676     31723     31724     31676     31723     31725     31676     31723     31726
     31677     31676     31678     31677     31676     31723     31678     31676     31723
     31679     31682     31683     31679     31682     31684     31679     31682     31685
     31680     31679     31681     31680     31679     31682     31681     31679     31682
     31682     31685     31686     31682     31685     31687     31682     31685     31688
     31683     31682     31684     31683     31682     31685     31684     31682     31685
     31685     31688     31689     31685     31688     31690     31685     31688     31691
     31686     31685     31687     31686     31685     31688     31687     31685     31688
     31688     31691     31692     31688     31691     31693     31688     31691     31694
     31689     31688     31690     31689     31688     31691     31690     31688     31691
     31691     31694     31695     31691     31694     31696     31691     31694     31697
     31692     31691     31693     31692     31691     31694     31693     31691     31694
     31694     31697     31698     31694     31697     31699     31694     31697     31702
     31695     31694     31696     31695     31694     31697     31696     31694     31697
     31697     31699     31700     31697     31699     31701     31697     31699     31702
     31697     31702     31699     31697     31702     31703     31697     31702     31704
     31698     31697     31699     31698     31697     31702     31699     31697     31702
     31699     31702     31703     31699     31702     31704     31700     31699     31701
     31700     31699     31702     31701     31699     31702     31702     31704     31705
     31702     31704     31706     31702     31704     31707     31703     31702     31704
     31704     31707     31708     31704     31707     31709     31704     31707     31710
     31705     31704     31706     31705     31704     31707     31706     31704     31707
     31707     31710     31711     31707     31710     31712     31707     31710     31713
     31708     31707     31709     31708     31707     31710     31709     31707     31710
     31710     31713     31714     31710     31713     31715     31710     31713     31716
     31711     31710     31712     31711     31710     31713     31712     31710     31713
     31713     31716     31717     31713     31716     31718     31713     31716     31719
     31714     31713     31715     31714     31713     31716     31715     31713     31716
     31716     31719     31720     31716     31719     31721     31716     31719     31722
     31717     31716     31718     31717     31716     31719     31718     31716     31719
     31720     31719     31721     31720     31719     31722     31721     31719     31722
     31723     31726     31727     31723     31726     31728     31723     31726     31729
     31724     31723     31725     31724     31723     31726     31725     31723     31726
     31726     31729     31730     31726     31729     31731     31726     31729     31732
     31727     31726     31728     31727     31726     31729     31728     31726     31729
     31729     31732     31733     31729     31732     31734     31729     31732     31735
     31730     31729     31731     31730     31729     31732     31731     31729     31732
     31732     31735     31736     31732     31735     31737     31732     31735     31738
     31733     31732     31734     31733     31732     31735     31734     31732     31735
     31735     31738     31739     31735     31738     31740     31735     31738     31741
     31736     31735     31737     31736     31735     31738     31737     31735     31738
     31738     31741     31742     31738     31741     31743     31738     31741     31744
     31739     31738     31740     31739     31738     31741     31740     31738     31741
     31741     31744     31745     31741     31744     31746     31741     31744     31747
     31742     31741     31743     31742     31741     31744     31743     31741     31744
     31744     31747     31748     31744     31747     31749     31744     31747     31750
     31745     31744     31746     31745     31744     31747     31746     31744     31747
     31747     31750     31751     31747     31750     31752     31747     31750     31753
     31748     31747     31749     31748     31747     31750     31749     31747     31750
     31750     31753     31754     31750     31753     31755     31750     31753     31756
     31751     31750     31752     31751     31750     31753     31752     31750     31753
     31753     31756     31757     31753     31756     31758     31753     31756     31759
     31754     31753     31755     31754     31753     31756     31755     31753     31756
     31756     31759     31760     31756     31759     31761     31756     31759     31762
     31757     31756     31758     31757     31756     31759     31758     31756     31759
     31759     31762     31763     31759     31762     31764     31759     31762     31765
     31760     31759     31761     31760     31759     31762     31761     31759     31762
     31763     31762     31764     31763     31762     31765     31764     31762     31765
     31766     31770     31771     31766     31770     31772     31766     31770     31773
     31767     31766     31768     31767     31766     31769     31767     31766     31770
     31768     31766     31769     31768     31766     31770     31769     31766     31770
     31770     31773     31774     31770     31773     31775     31770     31773     31780
     31771     31770     31772     31771     31770     31773     31772     31770     31773
     31773     31780     31776     31774     31773     31775     31774     31773     31780
     31775     31773     31780     31776     31779     31781     31777     31776     31778
     31777     31776     31779     31777     31776     31780     31778     31776     31779
     31778     31776     31780     31779     31776     31780     31779     31781     31782
     31779     31781     31783     31779     31781     31784     31781     31784     31785
     31781     31784     31786     31781     31784     31792     31782     31781     31783
     31782     31781     31784     31783     31781     31784     31784     31786     31787
     31784     31792     31793     31784     31792     31794     31784     31792     31795
     31785     31784     31786     31785     31784     31792     31786     31784     31792
     31786     31787     31788     31786     31787     31789     31787     31789     31790
     31787     31789     31791     31787     31789     31801     31788     31787     31789
     31789     31801     31802     31789     31801     31803     31789     31801     31804
     31790     31789     31791     31790     31789     31801     31791     31789     31801
     31792     31795     31796     31793     31792     31794     31793     31792     31795
     31794     31792     31795     31795     31796     31797     31795     31796     31798
     31796     31798     31799     31796     31798     31800     31796     31798     31845
     31797     31796     31798     31798     31845     31846     31798     31845     31847
     31798     31845     31848     31799     31798     31800     31799     31798     31845
     31800     31798     31845     31801     31804     31805     31801     31804     31806
     31801     31804     31807     31802     31801     31803     31802     31801     31804
     31803     31801     31804     31804     31807     31808     31804     31807     31809
     31804     31807     31810     31805     31804     31806     31805     31804     31807
     31806     31804     31807     31807     31810     31811     31807     31810     31812
     31807     31810     31813     31808     31807     31809     31808     31807     31810
     31809     31807     31810     31810     31813     31814     31810     31813     31815
     31810     31813     31816     31811     31810     31812     31811     31810     31813
     31812     31810     31813     31813     31816     31817     31813     31816     31818
     31813     31816     31819     31814     31813     31815     31814     31813     31816
     31815     31813     31816     31816     31819     31820     31816     31819     31821
     31816     31819     31824     31817     31816     31818     31817     31816     31819
     31818     31816     31819     31819     31821     31822     31819     31821     31823
     31819     31821     31824     31819     31824     31821     31819     31824     31825
     31819     31824     31826     31820     31819     31821     31820     31819     31824
     31821     31819     31824     31821     31824     31825     31821     31824     31826
     31822     31821     31823     31822     31821     31824     31823     31821     31824
     31824     31826     31827     31824     31826     31828     31824     31826     31829
     31825     31824     31826     31826     31829     31830     31826     31829     31831
     31826     31829     31832     31827     31826     31828     31827     31826     31829
     31828     31826     31829     31829     31832     31833     31829     31832     31834
     31829     31832     31835     31830     31829     31831     31830     31829     31832
     31831     31829     31832     31832     31835     31836     31832     31835     31837
     31832     31835     31838     31833     31832     31834     31833     31832     31835
     31834     31832     31835     31835     31838     31839     31835     31838     31840
     31835     31838     31841     31836     31835     31837     31836     31835     31838
     31837     31835     31838     31838     31841     31842     31838     31841     31843
     31838     31841     31844     31839     31838     31840     31839     31838     31841
     31840     31838     31841     31842     31841     31843     31842     31841     31844
     31843     31841     31844     31845     31848     31849     31845     31848     31850
     31845     31848     31851     31846     31845     31847     31846     31845     31848
     31847     31845     31848     31848     31851     31852     31848     31851     31853
     31848     31851     31854     31849     31848     31850     31849     31848     31851
     31850     31848     31851     31851     31854     31855     31851     31854     31856
     31851     31854     31857     31852     31851     31853     31852     31851     31854
     31853     31851     31854     31854     31857     31858     31854     31857     31859
     31854     31857     31860     31855     31854     31856     31855     31854     31857
     31856     31854     31857     31857     31860     31861     31857     31860     31862
     31857     31860     31863     31858     31857     31859     31858     31857     31860
     31859     31857     31860     31860     31863     31864     31860     31863     31865
     31860     31863     31866     31861     31860     31862     31861     31860     31863
     31862     31860     31863     31863     31866     31867     31863     31866     31868
     31863     31866     31869     31864     31863     31865     31864     31863     31866
     31865     31863     31866     31866     31869     31870     31866     31869     31871
     31866     31869     31872     31867     31866     31868     31867     31866     31869
     31868     31866     31869     31869     31872     31873     31869     31872     31874
     31869     31872     31875     31870     31869     31871     31870     31869     31872
     31871     31869     31872     31872     31875     31876     31872     31875     31877
     31872     31875     31878     31873     31872     31874     31873     31872     31875
     31874     31872     31875     31875     31878     31879     31875     31878     31880
     31875     31878     31881     31876     31875     31877     31876     31875     31878
     31877     31875     31878     31878     31881     31882     31878     31881     31883
     31878     31881     31884     31879     31878     31880     31879     31878     31881
     31880     31878     31881     31881     31884     31885     31881     31884     31886
     31881     31884     31887     31882     31881     31883     31882     31881     31884
     31883     31881     31884     31885     31884     31886     31885     31884     31887
     31886     31884     31887     31888     31892     31893     31888     31892     31894
     31888     31892     31895     31889     31888     31890     31889     31888     31891
     31889     31888     31892     31890     31888     31891     31890     31888     31892
     31891     31888     31892     31892     31895     31896     31892     31895     31897
     31892     31895     31902     31893     31892     31894     31893     31892     31895
     31894     31892     31895     31895     31902     31898     31896     31895     31897
     31896     31895     31902     31897     31895     31902     31898     31901     31903
     31899     31898     31900     31899     31898     31901     31899     31898     31902
     31900     31898     31901     31900     31898     31902     31901     31898     31902
     31901     31903     31904     31901     31903     31905     31901     31903     31906
     31903     31906     31907     31903     31906     31908     31903     31906     31914
     31904     31903     31905     31904     31903     31906     31905     31903     31906
     31906     31908     31909     31906     31914     31915     31906     31914     31916
     31906     31914     31917     31907     31906     31908     31907     31906     31914
     31908     31906     31914     31908     31909     31910     31908     31909     31911
     31909     31911     31912     31909     31911     31913     31909     31911     31923
     31910     31909     31911     31911     31923     31924     31911     31923     31925
     31911     31923     31926     31912     31911     31913     31912     31911     31923
     31913     31911     31923     31914     31917     31918     31915     31914     31916
     31915     31914     31917     31916     31914     31917     31917     31918     31919
     31917     31918     31920     31918     31920     31921     31918     31920     31922
     31918     31920     31964     31919     31918     31920     31920     31964     31965
     31920     31964     31966     31920     31964     31967     31921     31920     31922
     31921     31920     31964     31922     31920     31964     31923     31926     31927
     31923     31926     31928     31923     31926     31929     31924     31923     31925
     31924     31923     31926     31925     31923     31926     31926     31929     31930
     31926     31929     31931     31926     31929     31932     31927     31926     31928
     31927     31926     31929     31928     31926     31929     31929     31932     31933
     31929     31932     31934     31929     31932     31935     31930     31929     31931
     31930     31929     31932     31931     31929     31932     31932     31935     31936
     31932     31935     31937     31932     31935     31938     31933     31932     31934
     31933     31932     31935     31934     31932     31935     31935     31938     31939
     31935     31938     31940     31935     31938     31941     31936     31935     31937
     31936     31935     31938     31937     31935     31938     31938     31941     31942
     31938     31941     31943     31939     31938     31940     31939     31938     31941
     31940     31938     31941     31941     31943     31944     31941     31943     31945
     31942     31941     31943     31943     31945     31946     31943     31945     31947
     31943     31945     31948     31944     31943     31945     31945     31948     31949
     31945     31948     31950     31945     31948     31951     31946     31945     31947
     31946     31945     31948     31947     31945     31948     31948     31951     31952
     31948     31951     31953     31948     31951     31954     31949     31948     31950
     31949     31948     31951     31950     31948     31951     31951     31954     31955
     31951     31954     31956     31951     31954     31957     31952     31951     31953
     31952     31951     31954     31953     31951     31954     31954     31957     31958
     31954     31957     31959     31954     31957     31960     31955     31954     31956
     31955     31954     31957     31956     31954     31957     31957     31960     31961
     31957     31960     31962     31957     31960     31963     31958     31957     31959
     31958     31957     31960     31959     31957     31960     31961     31960     31962
     31961     31960     31963     31962     31960     31963     31964     31967     31968
     31964     31967     31969     31964     31967     31970     31965     31964     31966
     31965     31964     31967     31966     31964     31967     31967     31970     31971
     31967     31970     31972     31967     31970     31973     31968     31967     31969
     31968     31967     31970     31969     31967     31970     31970     31973     31974
     31970     31973     31975     31970     31973     31976     31971     31970     31972
     31971     31970     31973     31972     31970     31973     31973     31976     31977
     31973     31976     31978     31973     31976     31979     31974     31973     31975
     31974     31973     31976     31975     31973     31976     31976     31979     31980
     31976     31979     31981     31976     31979     31982     31977     31976     31978
     31977     31976     31979     31978     31976     31979     31979     31982     31983
     31979     31982     31984     31980     31979     31981     31980     31979     31982
     31981     31979     31982     31982     31984     31985     31982     31984     31986
     31983     31982     31984     31984     31986     31987     31984     31986     31988
     31984     31986     31989     31985     31984     31986     31986     31989     31990
     31986     31989     31991     31986     31989     31992     31987     31986     31988
     31987     31986     31989     31988     31986     31989     31989     31992     31993
     31989     31992     31994     31989     31992     31995     31990     31989     31991
     31990     31989     31992     31991     31989     31992     31992     31995     31996
     31992     31995     31997     31992     31995     31998     31993     31992     31994
     31993     31992     31995     31994     31992     31995     31995     31998     31999
     31995     31998     32000     31995     31998     32001     31996     31995     31997
     31996     31995     31998     31997     31995     31998     31998     32001     32002
     31998     32001     32003     31998     32001     32004     31999     31998     32000
     31999     31998     32001     32000     31998     32001     32001     32004     32005
     32001     32004     32006     32001     32004     32007     32002     32001     32003
     32002     32001     32004     32003     32001     32004     32004     32007     32008
     32004     32007     32009     32004     32007     32010     32005     32004     32006
     32005     32004     32007     32006     32004     32007     32008     32007     32009
     32008     32007     32010     32009     32007     32010     32011     32015     32016
     32011     32015     32017     32011     32015     32018     32012     32011     32013
     32012     32011     32014     32012     32011     32015     32013     32011     32014
     32013     32011     32015     32014     32011     32015     32015     32018     32019
     32015     32018     32020     32015     32018     32025     32016     32015     32017
     32016     32015     32018     32017     32015     32018     32018     32025     32021
     32019     32018     32020     32019     32018     32025     32020     32018     32025
     32021     32024     32026     32022     32021     32023     32022     32021     32024
     32022     32021     32025     32023     32021     32024     32023     32021     32025
     32024     32021     32025     32024     32026     32027     32024     32026     32028
     32024     32026     32029     32026     32029     32030     32026     32029     32031
     32026     32029     32037     32027     32026     32028     32027     32026     32029
     32028     32026     32029     32029     32031     32032     32029     32037     32038
     32029     32037     32039     32029     32037     32040     32030     32029     32031
     32030     32029     32037     32031     32029     32037     32031     32032     32033
     32031     32032     32034     32032     32034     32035     32032     32034     32036
     32032     32034     32046     32033     32032     32034     32034     32046     32047
     32034     32046     32048     32034     32046     32049     32035     32034     32036
     32035     32034     32046     32036     32034     32046     32037     32040     32041
     32038     32037     32039     32038     32037     32040     32039     32037     32040
     32040     32041     32042     32040     32041     32043     32041     32043     32044
     32041     32043     32045     32041     32043     32090     32042     32041     32043
     32043     32090     32091     32043     32090     32092     32043     32090     32093
     32044     32043     32045     32044     32043     32090     32045     32043     32090
     32046     32049     32050     32046     32049     32051     32046     32049     32052
     32047     32046     32048     32047     32046     32049     32048     32046     32049
     32049     32052     32053     32049     32052     32054     32049     32052     32055
     32050     32049     32051     32050     32049     32052     32051     32049     32052
     32052     32055     32056     32052     32055     32057     32052     32055     32058
     32053     32052     32054     32053     32052     32055     32054     32052     32055
     32055     32058     32059     32055     32058     32060     32055     32058     32061
     32056     32055     32057     32056     32055     32058     32057     32055     32058
     32058     32061     32062     32058     32061     32063     32058     32061     32064
     32059     32058     32060     32059     32058     32061     32060     32058     32061
     32061     32064     32065     32061     32064     32066     32061     32064     32069
     32062     32061     32063     32062     32061     32064     32063     32061     32064
     32064     32066     32067     32064     32066     32068     32064     32066     32069
     32064     32069     32066     32064     32069     32070     32064     32069     32071
     32065     32064     32066     32065     32064     32069     32066     32064     32069
     32066     32069     32070     32066     32069     32071     32067     32066     32068
     32067     32066     32069     32068     32066     32069     32069     32071     32072
     32069     32071     32073     32069     32071     32074     32070     32069     32071
     32071     32074     32075     32071     32074     32076     32071     32074     32077
     32072     32071     32073     32072     32071     32074     32073     32071     32074
     32074     32077     32078     32074     32077     32079     32074     32077     32080
     32075     32074     32076     32075     32074     32077     32076     32074     32077
     32077     32080     32081     32077     32080     32082     32077     32080     32083
     32078     32077     32079     32078     32077     32080     32079     32077     32080
     32080     32083     32084     32080     32083     32085     32080     32083     32086
     32081     32080     32082     32081     32080     32083     32082     32080     32083
     32083     32086     32087     32083     32086     32088     32083     32086     32089
     32084     32083     32085     32084     32083     32086     32085     32083     32086
     32087     32086     32088     32087     32086     32089     32088     32086     32089
     32090     32093     32094     32090     32093     32095     32090     32093     32096
     32091     32090     32092     32091     32090     32093     32092     32090     32093
     32093     32096     32097     32093     32096     32098     32093     32096     32099
     32094     32093     32095     32094     32093     32096     32095     32093     32096
     32096     32099     32100     32096     32099     32101     32096     32099     32102
     32097     32096     32098     32097     32096     32099     32098     32096     32099
     32099     32102     32103     32099     32102     32104     32099     32102     32105
     32100     32099     32101     32100     32099     32102     32101     32099     32102
     32102     32105     32106     32102     32105     32107     32102     32105     32108
     32103     32102     32104     32103     32102     32105     32104     32102     32105
     32105     32108     32109     32105     32108     32110     32105     32108     32111
     32106     32105     32107     32106     32105     32108     32107     32105     32108
     32108     32111     32112     32108     32111     32113     32108     32111     32114
     32109     32108     32110     32109     32108     32111     32110     32108     32111
     32111     32114     32115     32111     32114     32116     32111     32114     32117
     32112     32111     32113     32112     32111     32114     32113     32111     32114
     32114     32117     32118     32114     32117     32119     32114     32117     32120
     32115     32114     32116     32115     32114     32117     32116     32114     32117
     32117     32120     32121     32117     32120     32122     32117     32120     32123
     32118     32117     32119     32118     32117     32120     32119     32117     32120
     32120     32123     32124     32120     32123     32125     32120     32123     32126
     32121     32120     32122     32121     32120     32123     32122     32120     32123
     32123     32126     32127     32123     32126     32128     32123     32126     32129
     32124     32123     32125     32124     32123     32126     32125     32123     32126
     32126     32129     32130     32126     32129     32131     32126     32129     32132
     32127     32126     32128     32127     32126     32129     32128     32126     32129
     32130     32129     32131     32130     32129     32132     32131     32129     32132
     32133     32137     32138     32133     32137     32139     32133     32137     32140
     32134     32133     32135     32134     32133     32136     32134     32133     32137
     32135     32133     32136     32135     32133     32137     32136     32133     32137
     32137     32140     32141     32137     32140     32142     32137     32140     32147
     32138     32137     32139     32138     32137     32140     32139     32137     32140
     32140     32147     32143     32141     32140     32142     32141     32140     32147
     32142     32140     32147     32143     32146     32148     32144     32143     32145
     32144     32143     32146     32144     32143     32147     32145     32143     32146
     32145     32143     32147     32146     32143     32147     32146     32148     32149
     32146     32148     32150     32146     32148     32151     32148     32151     32152
     32148     32151     32153     32148     32151     32159     32149     32148     32150
     32149     32148     32151     32150     32148     32151     32151     32153     32154
     32151     32159     32160     32151     32159     32161     32151     32159     32162
     32152     32151     32153     32152     32151     32159     32153     32151     32159
     32153     32154     32155     32153     32154     32156     32154     32156     32157
     32154     32156     32158     32154     32156     32168     32155     32154     32156
     32156     32168     32169     32156     32168     32170     32156     32168     32171
     32157     32156     32158     32157     32156     32168     32158     32156     32168
     32159     32162     32163     32160     32159     32161     32160     32159     32162
     32161     32159     32162     32162     32163     32164     32162     32163     32165
     32163     32165     32166     32163     32165     32167     32163     32165     32212
     32164     32163     32165     32165     32212     32213     32165     32212     32214
     32165     32212     32215     32166     32165     32167     32166     32165     32212
     32167     32165     32212     32168     32171     32172     32168     32171     32173
     32168     32171     32174     32169     32168     32170     32169     32168     32171
     32170     32168     32171     32171     32174     32175     32171     32174     32176
     32171     32174     32177     32172     32171     32173     32172     32171     32174
     32173     32171     32174     32174     32177     32178     32174     32177     32179
     32174     32177     32180     32175     32174     32176     32175     32174     32177
     32176     32174     32177     32177     32180     32181     32177     32180     32182
     32177     32180     32183     32178     32177     32179     32178     32177     32180
     32179     32177     32180     32180     32183     32184     32180     32183     32185
     32180     32183     32186     32181     32180     32182     32181     32180     32183
     32182     32180     32183     32183     32186     32187     32183     32186     32188
     32183     32186     32191     32184     32183     32185     32184     32183     32186
     32185     32183     32186     32186     32188     32189     32186     32188     32190
     32186     32188     32191     32186     32191     32188     32186     32191     32192
     32186     32191     32193     32187     32186     32188     32187     32186     32191
     32188     32186     32191     32188     32191     32192     32188     32191     32193
     32189     32188     32190     32189     32188     32191     32190     32188     32191
     32191     32193     32194     32191     32193     32195     32191     32193     32196
     32192     32191     32193     32193     32196     32197     32193     32196     32198
     32193     32196     32199     32194     32193     32195     32194     32193     32196
     32195     32193     32196     32196     32199     32200     32196     32199     32201
     32196     32199     32202     32197     32196     32198     32197     32196     32199
     32198     32196     32199     32199     32202     32203     32199     32202     32204
     32199     32202     32205     32200     32199     32201     32200     32199     32202
     32201     32199     32202     32202     32205     32206     32202     32205     32207
     32202     32205     32208     32203     32202     32204     32203     32202     32205
     32204     32202     32205     32205     32208     32209     32205     32208     32210
     32205     32208     32211     32206     32205     32207     32206     32205     32208
     32207     32205     32208     32209     32208     32210     32209     32208     32211
     32210     32208     32211     32212     32215     32216     32212     32215     32217
     32212     32215     32218     32213     32212     32214     32213     32212     32215
     32214     32212     32215     32215     32218     32219     32215     32218     32220
     32215     32218     32221     32216     32215     32217     32216     32215     32218
     32217     32215     32218     32218     32221     32222     32218     32221     32223
     32218     32221     32224     32219     32218     32220     32219     32218     32221
     32220     32218     32221     32221     32224     32225     32221     32224     32226
     32221     32224     32227     32222     32221     32223     32222     32221     32224
     32223     32221     32224     32224     32227     32228     32224     32227     32229
     32224     32227     32230     32225     32224     32226     32225     32224     32227
     32226     32224     32227     32227     32230     32231     32227     32230     32232
     32227     32230     32233     32228     32227     32229     32228     32227     32230
     32229     32227     32230     32230     32233     32234     32230     32233     32235
     32230     32233     32236     32231     32230     32232     32231     32230     32233
     32232     32230     32233     32233     32236     32237     32233     32236     32238
     32233     32236     32239     32234     32233     32235     32234     32233     32236
     32235     32233     32236     32236     32239     32240     32236     32239     32241
     32236     32239     32242     32237     32236     32238     32237     32236     32239
     32238     32236     32239     32239     32242     32243     32239     32242     32244
     32239     32242     32245     32240     32239     32241     32240     32239     32242
     32241     32239     32242     32242     32245     32246     32242     32245     32247
     32242     32245     32248     32243     32242     32244     32243     32242     32245
     32244     32242     32245     32245     32248     32249     32245     32248     32250
     32245     32248     32251     32246     32245     32247     32246     32245     32248
     32247     32245     32248     32248     32251     32252     32248     32251     32253
     32248     32251     32254     32249     32248     32250     32249     32248     32251
     32250     32248     32251     32252     32251     32253     32252     32251     32254
     32253     32251     32254     32255     32259     32260     32255     32259     32261
     32255     32259     32262     32256     32255     32257     32256     32255     32258
     32256     32255     32259     32257     32255     32258     32257     32255     32259
     32258     32255     32259     32259     32262     32263     32259     32262     32264
     32259     32262     32269     32260     32259     32261     32260     32259     32262
     32261     32259     32262     32262     32269     32265     32263     32262     32264
     32263     32262     32269     32264     32262     32269     32265     32268     32270
     32266     32265     32267     32266     32265     32268     32266     32265     32269
     32267     32265     32268     32267     32265     32269     32268     32265     32269
     32268     32270     32271     32268     32270     32272     32268     32270     32273
     32270     32273     32274     32270     32273     32275     32270     32273     32281
     32271     32270     32272     32271     32270     32273     32272     32270     32273
     32273     32275     32276     32273     32281     32282     32273     32281     32283
     32273     32281     32284     32274     32273     32275     32274     32273     32281
     32275     32273     32281     32275     32276     32277     32275     32276     32278
     32276     32278     32279     32276     32278     32280     32276     32278     32290
     32277     32276     32278     32278     32290     32291     32278     32290     32292
     32278     32290     32293     32279     32278     32280     32279     32278     32290
     32280     32278     32290     32281     32284     32285     32282     32281     32283
     32282     32281     32284     32283     32281     32284     32284     32285     32286
     32284     32285     32287     32285     32287     32288     32285     32287     32289
     32285     32287     32337     32286     32285     32287     32287     32337     32338
     32287     32337     32339     32287     32337     32340     32288     32287     32289
     32288     32287     32337     32289     32287     32337     32290     32293     32294
     32290     32293     32295     32290     32293     32296     32291     32290     32292
     32291     32290     32293     32292     32290     32293     32293     32296     32297
     32293     32296     32298     32293     32296     32299     32294     32293     32295
     32294     32293     32296     32295     32293     32296     32296     32299     32300
     32296     32299     32301     32296     32299     32302     32297     32296     32298
     32297     32296     32299     32298     32296     32299     32299     32302     32303
     32299     32302     32304     32299     32302     32305     32300     32299     32301
     32300     32299     32302     32301     32299     32302     32302     32305     32306
     32302     32305     32307     32302     32305     32308     32303     32302     32304
     32303     32302     32305     32304     32302     32305     32305     32308     32309
     32305     32308     32310     32306     32305     32307     32306     32305     32308
     32307     32305     32308     32308     32310     32311     32308     32310     32312
     32309     32308     32310     32310     32312     32313     32310     32312     32314
     32310     32312     32315     32311     32310     32312     32312     32315     32316
     32312     32315     32317     32312     32315     32318     32313     32312     32314
     32313     32312     32315     32314     32312     32315     32315     32318     32319
     32315     32318     32320     32315     32318     32321     32316     32315     32317
     32316     32315     32318     32317     32315     32318     32318     32321     32322
     32318     32321     32323     32318     32321     32324     32319     32318     32320
     32319     32318     32321     32320     32318     32321     32321     32324     32325
     32321     32324     32326     32321     32324     32327     32322     32321     32323
     32322     32321     32324     32323     32321     32324     32324     32327     32328
     32324     32327     32329     32324     32327     32330     32325     32324     32326
     32325     32324     32327     32326     32324     32327     32327     32330     32331
     32327     32330     32332     32327     32330     32333     32328     32327     32329
     32328     32327     32330     32329     32327     32330     32330     32333     32334
     32330     32333     32335     32330     32333     32336     32331     32330     32332
     32331     32330     32333     32332     32330     32333     32334     32333     32335
     32334     32333     32336     32335     32333     32336     32337     32340     32341
     32337     32340     32342     32337     32340     32343     32338     32337     32339
     32338     32337     32340     32339     32337     32340     32340     32343     32344
     32340     32343     32345     32340     32343     32346     32341     32340     32342
     32341     32340     32343     32342     32340     32343     32343     32346     32347
     32343     32346     32348     32343     32346     32349     32344     32343     32345
     32344     32343     32346     32345     32343     32346     32346     32349     32350
     32346     32349     32351     32346     32349     32352     32347     32346     32348
     32347     32346     32349     32348     32346     32349     32349     32352     32353
     32349     32352     32354     32349     32352     32355     32350     32349     32351
     32350     32349     32352     32351     32349     32352     32352     32355     32356
     32352     32355     32357     32352     32355     32358     32353     32352     32354
     32353     32352     32355     32354     32352     32355     32355     32358     32359
     32355     32358     32360     32355     32358     32361     32356     32355     32357
     32356     32355     32358     32357     32355     32358     32358     32361     32362
     32358     32361     32363     32358     32361     32364     32359     32358     32360
     32359     32358     32361     32360     32358     32361     32361     32364     32365
     32361     32364     32366     32361     32364     32367     32362     32361     32363
     32362     32361     32364     32363     32361     32364     32364     32367     32368
     32364     32367     32369     32364     32367     32370     32365     32364     32366
     32365     32364     32367     32366     32364     32367     32367     32370     32371
     32367     32370     32372     32367     32370     32373     32368     32367     32369
     32368     32367     32370     32369     32367     32370     32370     32373     32374
     32370     32373     32375     32370     32373     32376     32371     32370     32372
     32371     32370     32373     32372     32370     32373     32373     32376     32377
     32373     32376     32378     32373     32376     32379     32374     32373     32375
     32374     32373     32376     32375     32373     32376     32377     32376     32378
     32377     32376     32379     32378     32376     32379     32380     32383     32384
     32380     32385     32386     32380     32385     32387     32380     32385     32389
     32381     32380     32382     32381     32380     32383     32381     32380     32385
     32382     32380     32383     32382     32380     32385     32383     32380     32385
     32385     32387     32388     32385     32389     32390     32385     32389     32391
     32385     32389     32396     32386     32385     32387     32386     32385     32389
     32387     32385     32389     32389     32396     32392     32390     32389     32391
     32390     32389     32396     32391     32389     32396     32392     32395     32397
     32393     32392     32394     32393     32392     32395     32393     32392     32396
     32394     32392     32395     32394     32392     32396     32395     32392     32396
     32395     32397     32398     32395     32397     32399     32395     32397     32400
     32397     32400     32401     32397     32400     32402     32397     32400     32408
     32398     32397     32399     32398     32397     32400     32399     32397     32400
     32400     32402     32403     32400     32408     32409     32400     32408     32410
     32400     32408     32411     32401     32400     32402     32401     32400     32408
     32402     32400     32408     32402     32403     32404     32402     32403     32405
     32403     32405     32406     32403     32405     32407     32403     32405     32417
     32404     32403     32405     32405     32417     32418     32405     32417     32419
     32405     32417     32420     32406     32405     32407     32406     32405     32417
     32407     32405     32417     32408     32411     32412     32409     32408     32410
     32409     32408     32411     32410     32408     32411     32411     32412     32413
     32411     32412     32414     32412     32414     32415     32412     32414     32416
     32412     32414     32458     32413     32412     32414     32414     32458     32459
     32414     32458     32460     32414     32458     32461     32415     32414     32416
     32415     32414     32458     32416     32414     32458     32417     32420     32421
     32417     32420     32422     32417     32420     32423     32418     32417     32419
     32418     32417     32420     32419     32417     32420     32420     32423     32424
     32420     32423     32425     32420     32423     32426     32421     32420     32422
     32421     32420     32423     32422     32420     32423     32423     32426     32427
     32423     32426     32428     32423     32426     32429     32424     32423     32425
     32424     32423     32426     32425     32423     32426     32426     32429     32430
     32426     32429     32431     32426     32429     32432     32427     32426     32428
     32427     32426     32429     32428     32426     32429     32429     32432     32433
     32429     32432     32434     32429     32432     32435     32430     32429     32431
     32430     32429     32432     32431     32429     32432     32432     32435     32436
     32432     32435     32437     32433     32432     32434     32433     32432     32435
     32434     32432     32435     32435     32437     32438     32435     32437     32439
     32436     32435     32437     32437     32439     32440     32437     32439     32441
     32437     32439     32442     32438     32437     32439     32439     32442     32443
     32439     32442     32444     32439     32442     32445     32440     32439     32441
     32440     32439     32442     32441     32439     32442     32442     32445     32446
     32442     32445     32447     32442     32445     32448     32443     32442     32444
     32443     32442     32445     32444     32442     32445     32445     32448     32449
     32445     32448     32450     32445     32448     32451     32446     32445     32447
     32446     32445     32448     32447     32445     32448     32448     32451     32452
     32448     32451     32453     32448     32451     32454     32449     32448     32450
     32449     32448     32451     32450     32448     32451     32451     32454     32455
     32451     32454     32456     32451     32454     32457     32452     32451     32453
     32452     32451     32454     32453     32451     32454     32455     32454     32456
     32455     32454     32457     32456     32454     32457     32458     32461     32462
     32458     32461     32463     32458     32461     32464     32459     32458     32460
     32459     32458     32461     32460     32458     32461     32461     32464     32465
     32461     32464     32466     32461     32464     32467     32462     32461     32463
     32462     32461     32464     32463     32461     32464     32464     32467     32468
     32464     32467     32469     32464     32467     32470     32465     32464     32466
     32465     32464     32467     32466     32464     32467     32467     32470     32471
     32467     32470     32472     32467     32470     32473     32468     32467     32469
     32468     32467     32470     32469     32467     32470     32470     32473     32474
     32470     32473     32475     32470     32473     32476     32471     32470     32472
     32471     32470     32473     32472     32470     32473     32473     32476     32477
     32473     32476     32478     32473     32476     32479     32474     32473     32475
     32474     32473     32476     32475     32473     32476     32476     32479     32480
     32476     32479     32481     32476     32479     32482     32477     32476     32478
     32477     32476     32479     32478     32476     32479     32479     32482     32483
     32479     32482     32484     32479     32482     32485     32480     32479     32481
     32480     32479     32482     32481     32479     32482     32482     32485     32486
     32482     32485     32487     32482     32485     32488     32483     32482     32484
     32483     32482     32485     32484     32482     32485     32485     32488     32489
     32485     32488     32490     32485     32488     32491     32486     32485     32487
     32486     32485     32488     32487     32485     32488     32488     32491     32492
     32488     32491     32493     32488     32491     32494     32489     32488     32490
     32489     32488     32491     32490     32488     32491     32491     32494     32495
     32491     32494     32496     32491     32494     32497     32492     32491     32493
     32492     32491     32494     32493     32491     32494     32494     32497     32498
     32494     32497     32499     32494     32497     32500     32495     32494     32496
     32495     32494     32497     32496     32494     32497     32498     32497     32499
     32498     32497     32500     32499     32497     32500     32501     32505     32506
     32501     32505     32507     32501     32505     32508     32502     32501     32503
     32502     32501     32504     32502     32501     32505     32503     32501     32504
     32503     32501     32505     32504     32501     32505     32505     32508     32509
     32505     32508     32510     32505     32508     32515     32506     32505     32507
     32506     32505     32508     32507     32505     32508     32508     32515     32511
     32509     32508     32510     32509     32508     32515     32510     32508     32515
     32511     32514     32516     32512     32511     32513     32512     32511     32514
     32512     32511     32515     32513     32511     32514     32513     32511     32515
     32514     32511     32515     32514     32516     32517     32514     32516     32518
     32514     32516     32519     32516     32519     32520     32516     32519     32521
     32516     32519     32527     32517     32516     32518     32517     32516     32519
     32518     32516     32519     32519     32521     32522     32519     32527     32528
     32519     32527     32529     32519     32527     32530     32520     32519     32521
     32520     32519     32527     32521     32519     32527     32521     32522     32523
     32521     32522     32524     32522     32524     32525     32522     32524     32526
     32522     32524     32536     32523     32522     32524     32524     32536     32537
     32524     32536     32538     32524     32536     32539     32525     32524     32526
     32525     32524     32536     32526     32524     32536     32527     32530     32531
     32528     32527     32529     32528     32527     32530     32529     32527     32530
     32530     32531     32532     32530     32531     32533     32531     32533     32534
     32531     32533     32535     32531     32533     32577     32532     32531     32533
     32533     32577     32578     32533     32577     32579     32533     32577     32580
     32534     32533     32535     32534     32533     32577     32535     32533     32577
     32536     32539     32540     32536     32539     32541     32536     32539     32542
     32537     32536     32538     32537     32536     32539     32538     32536     32539
     32539     32542     32543     32539     32542     32544     32539     32542     32545
     32540     32539     32541     32540     32539     32542     32541     32539     32542
     32542     32545     32546     32542     32545     32547     32542     32545     32548
     32543     32542     32544     32543     32542     32545     32544     32542     32545
     32545     32548     32549     32545     32548     32550     32545     32548     32551
     32546     32545     32547     32546     32545     32548     32547     32545     32548
     32548     32551     32552     32548     32551     32553     32548     32551     32554
     32549     32548     32550     32549     32548     32551     32550     32548     32551
     32551     32554     32555     32551     32554     32556     32552     32551     32553
     32552     32551     32554     32553     32551     32554     32554     32556     32557
     32554     32556     32558     32555     32554     32556     32556     32558     32559
     32556     32558     32560     32556     32558     32561     32557     32556     32558
     32558     32561     32562     32558     32561     32563     32558     32561     32564
     32559     32558     32560     32559     32558     32561     32560     32558     32561
     32561     32564     32565     32561     32564     32566     32561     32564     32567
     32562     32561     32563     32562     32561     32564     32563     32561     32564
     32564     32567     32568     32564     32567     32569     32564     32567     32570
     32565     32564     32566     32565     32564     32567     32566     32564     32567
     32567     32570     32571     32567     32570     32572     32567     32570     32573
     32568     32567     32569     32568     32567     32570     32569     32567     32570
     32570     32573     32574     32570     32573     32575     32570     32573     32576
     32571     32570     32572     32571     32570     32573     32572     32570     32573
     32574     32573     32575     32574     32573     32576     32575     32573     32576
     32577     32580     32581     32577     32580     32582     32577     32580     32583
     32578     32577     32579     32578     32577     32580     32579     32577     32580
     32580     32583     32584     32580     32583     32585     32580     32583     32586
     32581     32580     32582     32581     32580     32583     32582     32580     32583
     32583     32586     32587     32583     32586     32588     32583     32586     32589
     32584     32583     32585     32584     32583     32586     32585     32583     32586
     32586     32589     32590     32586     32589     32591     32586     32589     32592
     32587     32586     32588     32587     32586     32589     32588     32586     32589
     32589     32592     32593     32589     32592     32594     32589     32592     32595
     32590     32589     32591     32590     32589     32592     32591     32589     32592
     32592     32595     32596     32592     32595     32597     32593     32592     32594
     32593     32592     32595     32594     32592     32595     32595     32597     32598
     32595     32597     32599     32596     32595     32597     32597     32599     32600
     32597     32599     32601     32597     32599     32602     32598     32597     32599
     32599     32602     32603     32599     32602     32604     32599     32602     32605
     32600     32599     32601     32600     32599     32602     32601     32599     32602
     32602     32605     32606     32602     32605     32607     32602     32605     32608
     32603     32602     32604     32603     32602     32605     32604     32602     32605
     32605     32608     32609     32605     32608     32610     32605     32608     32611
     32606     32605     32607     32606     32605     32608     32607     32605     32608
     32608     32611     32612     32608     32611     32613     32608     32611     32614
     32609     32608     32610     32609     32608     32611     32610     32608     32611
     32611     32614     32615     32611     32614     32616     32611     32614     32617
     32612     32611     32613     32612     32611     32614     32613     32611     32614
     32614     32617     32618     32614     32617     32619     32614     32617     32620
     32615     32614     32616     32615     32614     32617     32616     32614     32617
     32617     32620     32621     32617     32620     32622     32617     32620     32623
     32618     32617     32619     32618     32617     32620     32619     32617     32620
     32621     32620     32622     32621     32620     32623     32622     32620     32623
     32624     32628     32629     32624     32628     32630     32624     32628     32631
     32625     32624     32626     32625     32624     32627     32625     32624     32628
     32626     32624     32627     32626     32624     32628     32627     32624     32628
     32628     32631     32632     32628     32631     32633     32628     32631     32638
     32629     32628     32630     32629     32628     32631     32630     32628     32631
     32631     32638     32634     32632     32631     32633     32632     32631     32638
     32633     32631     32638     32634     32637     32639     32635     32634     32636
     32635     32634     32637     32635     32634     32638     32636     32634     32637
     32636     32634     32638     32637     32634     32638     32637     32639     32640
     32637     32639     32641     32637     32639     32642     32639     32642     32643
     32639     32642     32644     32639     32642     32650     32640     32639     32641
     32640     32639     32642     32641     32639     32642     32642     32644     32645
     32642     32650     32651     32642     32650     32652     32642     32650     32653
     32643     32642     32644     32643     32642     32650     32644     32642     32650
     32644     32645     32646     32644     32645     32647     32645     32647     32648
     32645     32647     32649     32645     32647     32659     32646     32645     32647
     32647     32659     32660     32647     32659     32661     32647     32659     32662
     32648     32647     32649     32648     32647     32659     32649     32647     32659
     32650     32653     32654     32651     32650     32652     32651     32650     32653
     32652     32650     32653     32653     32654     32655     32653     32654     32656
     32654     32656     32657     32654     32656     32658     32654     32656     32703
     32655     32654     32656     32656     32703     32704     32656     32703     32705
     32656     32703     32706     32657     32656     32658     32657     32656     32703
     32658     32656     32703     32659     32662     32663     32659     32662     32664
     32659     32662     32665     32660     32659     32661     32660     32659     32662
     32661     32659     32662     32662     32665     32666     32662     32665     32667
     32662     32665     32668     32663     32662     32664     32663     32662     32665
     32664     32662     32665     32665     32668     32669     32665     32668     32670
     32665     32668     32671     32666     32665     32667     32666     32665     32668
     32667     32665     32668     32668     32671     32672     32668     32671     32673
     32668     32671     32674     32669     32668     32670     32669     32668     32671
     32670     32668     32671     32671     32674     32675     32671     32674     32676
     32671     32674     32677     32672     32671     32673     32672     32671     32674
     32673     32671     32674     32674     32677     32678     32674     32677     32679
     32674     32677     32682     32675     32674     32676     32675     32674     32677
     32676     32674     32677     32677     32679     32680     32677     32679     32681
     32677     32679     32682     32677     32682     32679     32677     32682     32683
     32677     32682     32684     32678     32677     32679     32678     32677     32682
     32679     32677     32682     32679     32682     32683     32679     32682     32684
     32680     32679     32681     32680     32679     32682     32681     32679     32682
     32682     32684     32685     32682     32684     32686     32682     32684     32687
     32683     32682     32684     32684     32687     32688     32684     32687     32689
     32684     32687     32690     32685     32684     32686     32685     32684     32687
     32686     32684     32687     32687     32690     32691     32687     32690     32692
     32687     32690     32693     32688     32687     32689     32688     32687     32690
     32689     32687     32690     32690     32693     32694     32690     32693     32695
     32690     32693     32696     32691     32690     32692     32691     32690     32693
     32692     32690     32693     32693     32696     32697     32693     32696     32698
     32693     32696     32699     32694     32693     32695     32694     32693     32696
     32695     32693     32696     32696     32699     32700     32696     32699     32701
     32696     32699     32702     32697     32696     32698     32697     32696     32699
     32698     32696     32699     32700     32699     32701     32700     32699     32702
     32701     32699     32702     32703     32706     32707     32703     32706     32708
     32703     32706     32709     32704     32703     32705     32704     32703     32706
     32705     32703     32706     32706     32709     32710     32706     32709     32711
     32706     32709     32712     32707     32706     32708     32707     32706     32709
     32708     32706     32709     32709     32712     32713     32709     32712     32714
     32709     32712     32715     32710     32709     32711     32710     32709     32712
     32711     32709     32712     32712     32715     32716     32712     32715     32717
     32712     32715     32718     32713     32712     32714     32713     32712     32715
     32714     32712     32715     32715     32718     32719     32715     32718     32720
     32715     32718     32721     32716     32715     32717     32716     32715     32718
     32717     32715     32718     32718     32721     32722     32718     32721     32723
     32718     32721     32724     32719     32718     32720     32719     32718     32721
     32720     32718     32721     32721     32724     32725     32721     32724     32726
     32721     32724     32727     32722     32721     32723     32722     32721     32724
     32723     32721     32724     32724     32727     32728     32724     32727     32729
     32724     32727     32730     32725     32724     32726     32725     32724     32727
     32726     32724     32727     32727     32730     32731     32727     32730     32732
     32727     32730     32733     32728     32727     32729     32728     32727     32730
     32729     32727     32730     32730     32733     32734     32730     32733     32735
     32730     32733     32736     32731     32730     32732     32731     32730     32733
     32732     32730     32733     32733     32736     32737     32733     32736     32738
     32733     32736     32739     32734     32733     32735     32734     32733     32736
     32735     32733     32736     32736     32739     32740     32736     32739     32741
     32736     32739     32742     32737     32736     32738     32737     32736     32739
     32738     32736     32739     32740     32739     32741     32740     32739     32742
     32741     32739     32742     32743     32746     32747     32743     32748     32749
     32743     32748     32750     32743     32748     32752     32744     32743     32745
     32744     32743     32746     32744     32743     32748     32745     32743     32746
     32745     32743     32748     32746     32743     32748     32748     32750     32751
     32748     32752     32753     32748     32752     32754     32748     32752     32759
     32749     32748     32750     32749     32748     32752     32750     32748     32752
     32752     32759     32755     32753     32752     32754     32753     32752     32759
     32754     32752     32759     32755     32758     32760     32756     32755     32757
     32756     32755     32758     32756     32755     32759     32757     32755     32758
     32757     32755     32759     32758     32755     32759     32758     32760     32761
     32758     32760     32762     32758     32760     32763     32760     32763     32764
     32760     32763     32765     32760     32763     32771     32761     32760     32762
     32761     32760     32763     32762     32760     32763     32763     32765     32766
     32763     32771     32772     32763     32771     32773     32763     32771     32774
     32764     32763     32765     32764     32763     32771     32765     32763     32771
     32765     32766     32767     32765     32766     32768     32766     32768     32769
     32766     32768     32770     32766     32768     32780     32767     32766     32768
     32768     32780     32781     32768     32780     32782     32768     32780     32783
     32769     32768     32770     32769     32768     32780     32770     32768     32780
     32771     32774     32775     32772     32771     32773     32772     32771     32774
     32773     32771     32774     32774     32775     32776     32774     32775     32777
     32775     32777     32778     32775     32777     32779     32775     32777     32821
     32776     32775     32777     32777     32821     32822     32777     32821     32823
     32777     32821     32824     32778     32777     32779     32778     32777     32821
     32779     32777     32821     32780     32783     32784     32780     32783     32785
     32780     32783     32786     32781     32780     32782     32781     32780     32783
     32782     32780     32783     32783     32786     32787     32783     32786     32788
     32783     32786     32789     32784     32783     32785     32784     32783     32786
     32785     32783     32786     32786     32789     32790     32786     32789     32791
     32786     32789     32792     32787     32786     32788     32787     32786     32789
     32788     32786     32789     32789     32792     32793     32789     32792     32794
     32789     32792     32795     32790     32789     32791     32790     32789     32792
     32791     32789     32792     32792     32795     32796     32792     32795     32797
     32792     32795     32798     32793     32792     32794     32793     32792     32795
     32794     32792     32795     32795     32798     32799     32795     32798     32800
     32796     32795     32797     32796     32795     32798     32797     32795     32798
     32798     32800     32801     32798     32800     32802     32799     32798     32800
     32800     32802     32803     32800     32802     32804     32800     32802     32805
     32801     32800     32802     32802     32805     32806     32802     32805     32807
     32802     32805     32808     32803     32802     32804     32803     32802     32805
     32804     32802     32805     32805     32808     32809     32805     32808     32810
     32805     32808     32811     32806     32805     32807     32806     32805     32808
     32807     32805     32808     32808     32811     32812     32808     32811     32813
     32808     32811     32814     32809     32808     32810     32809     32808     32811
     32810     32808     32811     32811     32814     32815     32811     32814     32816
     32811     32814     32817     32812     32811     32813     32812     32811     32814
     32813     32811     32814     32814     32817     32818     32814     32817     32819
     32814     32817     32820     32815     32814     32816     32815     32814     32817
     32816     32814     32817     32818     32817     32819     32818     32817     32820
     32819     32817     32820     32821     32824     32825     32821     32824     32826
     32821     32824     32827     32822     32821     32823     32822     32821     32824
     32823     32821     32824     32824     32827     32828     32824     32827     32829
     32824     32827     32830     32825     32824     32826     32825     32824     32827
     32826     32824     32827     32827     32830     32831     32827     32830     32832
     32827     32830     32833     32828     32827     32829     32828     32827     32830
     32829     32827     32830     32830     32833     32834     32830     32833     32835
     32830     32833     32836     32831     32830     32832     32831     32830     32833
     32832     32830     32833     32833     32836     32837     32833     32836     32838
     32833     32836     32839     32834     32833     32835     32834     32833     32836
     32835     32833     32836     32836     32839     32840     32836     32839     32841
     32836     32839     32842     32837     32836     32838     32837     32836     32839
     32838     32836     32839     32839     32842     32843     32839     32842     32844
     32839     32842     32845     32840     32839     32841     32840     32839     32842
     32841     32839     32842     32842     32845     32846     32842     32845     32847
     32842     32845     32848     32843     32842     32844     32843     32842     32845
     32844     32842     32845     32845     32848     32849     32845     32848     32850
     32845     32848     32851     32846     32845     32847     32846     32845     32848
     32847     32845     32848     32848     32851     32852     32848     32851     32853
     32848     32851     32854     32849     32848     32850     32849     32848     32851
     32850     32848     32851     32851     32854     32855     32851     32854     32856
     32851     32854     32857     32852     32851     32853     32852     32851     32854
     32853     32851     32854     32854     32857     32858     32854     32857     32859
     32854     32857     32860     32855     32854     32856     32855     32854     32857
     32856     32854     32857     32857     32860     32861     32857     32860     32862
     32857     32860     32863     32858     32857     32859     32858     32857     32860
     32859     32857     32860     32861     32860     32862     32861     32860     32863
     32862     32860     32863     32864     32868     32869     32864     32868     32870
     32864     32868     32871     32865     32864     32866     32865     32864     32867
     32865     32864     32868     32866     32864     32867     32866     32864     32868
     32867     32864     32868     32868     32871     32872     32868     32871     32873
     32868     32871     32878     32869     32868     32870     32869     32868     32871
     32870     32868     32871     32871     32878     32874     32872     32871     32873
     32872     32871     32878     32873     32871     32878     32874     32877     32879
     32875     32874     32876     32875     32874     32877     32875     32874     32878
     32876     32874     32877     32876     32874     32878     32877     32874     32878
     32877     32879     32880     32877     32879     32881     32877     32879     32882
     32879     32882     32883     32879     32882     32884     32879     32882     32890
     32880     32879     32881     32880     32879     32882     32881     32879     32882
     32882     32884     32885     32882     32890     32891     32882     32890     32892
     32882     32890     32893     32883     32882     32884     32883     32882     32890
     32884     32882     32890     32884     32885     32886     32884     32885     32887
     32885     32887     32888     32885     32887     32889     32885     32887     32899
     32886     32885     32887     32887     32899     32900     32887     32899     32901
     32887     32899     32902     32888     32887     32889     32888     32887     32899
     32889     32887     32899     32890     32893     32894     32891     32890     32892
     32891     32890     32893     32892     32890     32893     32893     32894     32895
     32893     32894     32896     32894     32896     32897     32894     32896     32898
     32894     32896     32943     32895     32894     32896     32896     32943     32944
     32896     32943     32945     32896     32943     32946     32897     32896     32898
     32897     32896     32943     32898     32896     32943     32899     32902     32903
     32899     32902     32904     32899     32902     32905     32900     32899     32901
     32900     32899     32902     32901     32899     32902     32902     32905     32906
     32902     32905     32907     32902     32905     32908     32903     32902     32904
     32903     32902     32905     32904     32902     32905     32905     32908     32909
     32905     32908     32910     32905     32908     32911     32906     32905     32907
     32906     32905     32908     32907     32905     32908     32908     32911     32912
     32908     32911     32913     32908     32911     32914     32909     32908     32910
     32909     32908     32911     32910     32908     32911     32911     32914     32915
     32911     32914     32916     32911     32914     32917     32912     32911     32913
     32912     32911     32914     32913     32911     32914     32914     32917     32918
     32914     32917     32919     32914     32917     32922     32915     32914     32916
     32915     32914     32917     32916     32914     32917     32917     32919     32920
     32917     32919     32921     32917     32919     32922     32917     32922     32919
     32917     32922     32923     32917     32922     32924     32918     32917     32919
     32918     32917     32922     32919     32917     32922     32919     32922     32923
     32919     32922     32924     32920     32919     32921     32920     32919     32922
     32921     32919     32922     32922     32924     32925     32922     32924     32926
     32922     32924     32927     32923     32922     32924     32924     32927     32928
     32924     32927     32929     32924     32927     32930     32925     32924     32926
     32925     32924     32927     32926     32924     32927     32927     32930     32931
     32927     32930     32932     32927     32930     32933     32928     32927     32929
     32928     32927     32930     32929     32927     32930     32930     32933     32934
     32930     32933     32935     32930     32933     32936     32931     32930     32932
     32931     32930     32933     32932     32930     32933     32933     32936     32937
     32933     32936     32938     32933     32936     32939     32934     32933     32935
     32934     32933     32936     32935     32933     32936     32936     32939     32940
     32936     32939     32941     32936     32939     32942     32937     32936     32938
     32937     32936     32939     32938     32936     32939     32940     32939     32941
     32940     32939     32942     32941     32939     32942     32943     32946     32947
     32943     32946     32948     32943     32946     32949     32944     32943     32945
     32944     32943     32946     32945     32943     32946     32946     32949     32950
     32946     32949     32951     32946     32949     32952     32947     32946     32948
     32947     32946     32949     32948     32946     32949     32949     32952     32953
     32949     32952     32954     32949     32952     32955     32950     32949     32951
     32950     32949     32952     32951     32949     32952     32952     32955     32956
     32952     32955     32957     32952     32955     32958     32953     32952     32954
     32953     32952     32955     32954     32952     32955     32955     32958     32959
     32955     32958     32960     32955     32958     32961     32956     32955     32957
     32956     32955     32958     32957     32955     32958     32958     32961     32962
     32958     32961     32963     32958     32961     32964     32959     32958     32960
     32959     32958     32961     32960     32958     32961     32961     32964     32965
     32961     32964     32966     32961     32964     32967     32962     32961     32963
     32962     32961     32964     32963     32961     32964     32964     32967     32968
     32964     32967     32969     32964     32967     32970     32965     32964     32966
     32965     32964     32967     32966     32964     32967     32967     32970     32971
     32967     32970     32972     32967     32970     32973     32968     32967     32969
     32968     32967     32970     32969     32967     32970     32970     32973     32974
     32970     32973     32975     32970     32973     32976     32971     32970     32972
     32971     32970     32973     32972     32970     32973     32973     32976     32977
     32973     32976     32978     32973     32976     32979     32974     32973     32975
     32974     32973     32976     32975     32973     32976     32976     32979     32980
     32976     32979     32981     32976     32979     32982     32977     32976     32978
     32977     32976     32979     32978     32976     32979     32980     32979     32981
     32980     32979     32982     32981     32979     32982     32983     32987     32988
     32983     32987     32989     32983     32987     32990     32984     32983     32985
     32984     32983     32986     32984     32983     32987     32985     32983     32986
     32985     32983     32987     32986     32983     32987     32987     32990     32991
     32987     32990     32992     32987     32990     32997     32988     32987     32989
     32988     32987     32990     32989     32987     32990     32990     32997     32993
     32991     32990     32992     32991     32990     32997     32992     32990     32997
     32993     32996     32998     32994     32993     32995     32994     32993     32996
     32994     32993     32997     32995     32993     32996     32995     32993     32997
     32996     32993     32997     32996     32998     32999     32996     32998     33000
     32996     32998     33001     32998     33001     33002     32998     33001     33003
     32998     33001     33009     32999     32998     33000     32999     32998     33001
     33000     32998     33001     33001     33003     33004     33001     33009     33010
     33001     33009     33011     33001     33009     33012     33002     33001     33003
     33002     33001     33009     33003     33001     33009     33003     33004     33005
     33003     33004     33006     33004     33006     33007     33004     33006     33008
     33004     33006     33018     33005     33004     33006     33006     33018     33019
     33006     33018     33020     33006     33018     33021     33007     33006     33008
     33007     33006     33018     33008     33006     33018     33009     33012     33013
     33010     33009     33011     33010     33009     33012     33011     33009     33012
     33012     33013     33014     33012     33013     33015     33013     33015     33016
     33013     33015     33017     33013     33015     33065     33014     33013     33015
     33015     33065     33066     33015     33065     33067     33015     33065     33068
     33016     33015     33017     33016     33015     33065     33017     33015     33065
     33018     33021     33022     33018     33021     33023     33018     33021     33024
     33019     33018     33020     33019     33018     33021     33020     33018     33021
     33021     33024     33025     33021     33024     33026     33021     33024     33027
     33022     33021     33023     33022     33021     33024     33023     33021     33024
     33024     33027     33028     33024     33027     33029     33024     33027     33030
     33025     33024     33026     33025     33024     33027     33026     33024     33027
     33027     33030     33031     33027     33030     33032     33027     33030     33033
     33028     33027     33029     33028     33027     33030     33029     33027     33030
     33030     33033     33034     33030     33033     33035     33030     33033     33036
     33031     33030     33032     33031     33030     33033     33032     33030     33033
     33033     33036     33037     33033     33036     33038     33034     33033     33035
     33034     33033     33036     33035     33033     33036     33036     33038     33039
     33036     33038     33040     33037     33036     33038     33038     33040     33041
     33038     33040     33042     33038     33040     33043     33039     33038     33040
     33040     33043     33044     33040     33043     33045     33040     33043     33046
     33041     33040     33042     33041     33040     33043     33042     33040     33043
     33043     33046     33047     33043     33046     33048     33043     33046     33049
     33044     33043     33045     33044     33043     33046     33045     33043     33046
     33046     33049     33050     33046     33049     33051     33046     33049     33052
     33047     33046     33048     33047     33046     33049     33048     33046     33049
     33049     33052     33053     33049     33052     33054     33049     33052     33055
     33050     33049     33051     33050     33049     33052     33051     33049     33052
     33052     33055     33056     33052     33055     33057     33052     33055     33058
     33053     33052     33054     33053     33052     33055     33054     33052     33055
     33055     33058     33059     33055     33058     33060     33055     33058     33061
     33056     33055     33057     33056     33055     33058     33057     33055     33058
     33058     33061     33062     33058     33061     33063     33058     33061     33064
     33059     33058     33060     33059     33058     33061     33060     33058     33061
     33062     33061     33063     33062     33061     33064     33063     33061     33064
     33065     33068     33069     33065     33068     33070     33065     33068     33071
     33066     33065     33067     33066     33065     33068     33067     33065     33068
     33068     33071     33072     33068     33071     33073     33068     33071     33074
     33069     33068     33070     33069     33068     33071     33070     33068     33071
     33071     33074     33075     33071     33074     33076     33071     33074     33077
     33072     33071     33073     33072     33071     33074     33073     33071     33074
     33074     33077     33078     33074     33077     33079     33074     33077     33080
     33075     33074     33076     33075     33074     33077     33076     33074     33077
     33077     33080     33081     33077     33080     33082     33077     33080     33083
     33078     33077     33079     33078     33077     33080     33079     33077     33080
     33080     33083     33084     33080     33083     33085     33080     33083     33086
     33081     33080     33082     33081     33080     33083     33082     33080     33083
     33083     33086     33087     33083     33086     33088     33083     33086     33089
     33084     33083     33085     33084     33083     33086     33085     33083     33086
     33086     33089     33090     33086     33089     33091     33086     33089     33092
     33087     33086     33088     33087     33086     33089     33088     33086     33089
     33089     33092     33093     33089     33092     33094     33089     33092     33095
     33090     33089     33091     33090     33089     33092     33091     33089     33092
     33092     33095     33096     33092     33095     33097     33092     33095     33098
     33093     33092     33094     33093     33092     33095     33094     33092     33095
     33095     33098     33099     33095     33098     33100     33095     33098     33101
     33096     33095     33097     33096     33095     33098     33097     33095     33098
     33098     33101     33102     33098     33101     33103     33098     33101     33104
     33099     33098     33100     33099     33098     33101     33100     33098     33101
     33101     33104     33105     33101     33104     33106     33101     33104     33107
     33102     33101     33103     33102     33101     33104     33103     33101     33104
     33105     33104     33106     33105     33104     33107     33106     33104     33107
     33108     33112     33113     33108     33112     33114     33108     33112     33115
     33109     33108     33110     33109     33108     33111     33109     33108     33112
     33110     33108     33111     33110     33108     33112     33111     33108     33112
     33112     33115     33116     33112     33115     33117     33112     33115     33122
     33113     33112     33114     33113     33112     33115     33114     33112     33115
     33115     33122     33118     33116     33115     33117     33116     33115     33122
     33117     33115     33122     33118     33121     33123     33119     33118     33120
     33119     33118     33121     33119     33118     33122     33120     33118     33121
     33120     33118     33122     33121     33118     33122     33121     33123     33124
     33121     33123     33125     33121     33123     33126     33123     33126     33127
     33123     33126     33128     33123     33126     33134     33124     33123     33125
     33124     33123     33126     33125     33123     33126     33126     33128     33129
     33126     33134     33135     33126     33134     33136     33126     33134     33137
     33127     33126     33128     33127     33126     33134     33128     33126     33134
     33128     33129     33130     33128     33129     33131     33129     33131     33132
     33129     33131     33133     33129     33131     33143     33130     33129     33131
     33131     33143     33144     33131     33143     33145     33131     33143     33146
     33132     33131     33133     33132     33131     33143     33133     33131     33143
     33134     33137     33138     33135     33134     33136     33135     33134     33137
     33136     33134     33137     33137     33138     33139     33137     33138     33140
     33138     33140     33141     33138     33140     33142     33138     33140     33187
     33139     33138     33140     33140     33187     33188     33140     33187     33189
     33140     33187     33190     33141     33140     33142     33141     33140     33187
     33142     33140     33187     33143     33146     33147     33143     33146     33148
     33143     33146     33149     33144     33143     33145     33144     33143     33146
     33145     33143     33146     33146     33149     33150     33146     33149     33151
     33146     33149     33152     33147     33146     33148     33147     33146     33149
     33148     33146     33149     33149     33152     33153     33149     33152     33154
     33149     33152     33155     33150     33149     33151     33150     33149     33152
     33151     33149     33152     33152     33155     33156     33152     33155     33157
     33152     33155     33158     33153     33152     33154     33153     33152     33155
     33154     33152     33155     33155     33158     33159     33155     33158     33160
     33155     33158     33161     33156     33155     33157     33156     33155     33158
     33157     33155     33158     33158     33161     33162     33158     33161     33163
     33158     33161     33166     33159     33158     33160     33159     33158     33161
     33160     33158     33161     33161     33163     33164     33161     33163     33165
     33161     33163     33166     33161     33166     33163     33161     33166     33167
     33161     33166     33168     33162     33161     33163     33162     33161     33166
     33163     33161     33166     33163     33166     33167     33163     33166     33168
     33164     33163     33165     33164     33163     33166     33165     33163     33166
     33166     33168     33169     33166     33168     33170     33166     33168     33171
     33167     33166     33168     33168     33171     33172     33168     33171     33173
     33168     33171     33174     33169     33168     33170     33169     33168     33171
     33170     33168     33171     33171     33174     33175     33171     33174     33176
     33171     33174     33177     33172     33171     33173     33172     33171     33174
     33173     33171     33174     33174     33177     33178     33174     33177     33179
     33174     33177     33180     33175     33174     33176     33175     33174     33177
     33176     33174     33177     33177     33180     33181     33177     33180     33182
     33177     33180     33183     33178     33177     33179     33178     33177     33180
     33179     33177     33180     33180     33183     33184     33180     33183     33185
     33180     33183     33186     33181     33180     33182     33181     33180     33183
     33182     33180     33183     33184     33183     33185     33184     33183     33186
     33185     33183     33186     33187     33190     33191     33187     33190     33192
     33187     33190     33193     33188     33187     33189     33188     33187     33190
     33189     33187     33190     33190     33193     33194     33190     33193     33195
     33190     33193     33196     33191     33190     33192     33191     33190     33193
     33192     33190     33193     33193     33196     33197     33193     33196     33198
     33193     33196     33199     33194     33193     33195     33194     33193     33196
     33195     33193     33196     33196     33199     33200     33196     33199     33201
     33196     33199     33202     33197     33196     33198     33197     33196     33199
     33198     33196     33199     33199     33202     33203     33199     33202     33204
     33199     33202     33205     33200     33199     33201     33200     33199     33202
     33201     33199     33202     33202     33205     33206     33202     33205     33207
     33202     33205     33208     33203     33202     33204     33203     33202     33205
     33204     33202     33205     33205     33208     33209     33205     33208     33210
     33205     33208     33211     33206     33205     33207     33206     33205     33208
     33207     33205     33208     33208     33211     33212     33208     33211     33213
     33208     33211     33214     33209     33208     33210     33209     33208     33211
     33210     33208     33211     33211     33214     33215     33211     33214     33216
     33211     33214     33217     33212     33211     33213     33212     33211     33214
     33213     33211     33214     33214     33217     33218     33214     33217     33219
     33214     33217     33220     33215     33214     33216     33215     33214     33217
     33216     33214     33217     33217     33220     33221     33217     33220     33222
     33217     33220     33223     33218     33217     33219     33218     33217     33220
     33219     33217     33220     33220     33223     33224     33220     33223     33225
     33220     33223     33226     33221     33220     33222     33221     33220     33223
     33222     33220     33223     33223     33226     33227     33223     33226     33228
     33223     33226     33229     33224     33223     33225     33224     33223     33226
     33225     33223     33226     33227     33226     33228     33227     33226     33229
     33228     33226     33229     33230     33234     33235     33230     33234     33236
     33230     33234     33237     33231     33230     33232     33231     33230     33233
     33231     33230     33234     33232     33230     33233     33232     33230     33234
     33233     33230     33234     33234     33237     33238     33234     33237     33239
     33234     33237     33244     33235     33234     33236     33235     33234     33237
     33236     33234     33237     33237     33244     33240     33238     33237     33239
     33238     33237     33244     33239     33237     33244     33240     33243     33245
     33241     33240     33242     33241     33240     33243     33241     33240     33244
     33242     33240     33243     33242     33240     33244     33243     33240     33244
     33243     33245     33246     33243     33245     33247     33243     33245     33248
     33245     33248     33249     33245     33248     33250     33245     33248     33256
     33246     33245     33247     33246     33245     33248     33247     33245     33248
     33248     33250     33251     33248     33256     33257     33248     33256     33258
     33248     33256     33259     33249     33248     33250     33249     33248     33256
     33250     33248     33256     33250     33251     33252     33250     33251     33253
     33251     33253     33254     33251     33253     33255     33251     33253     33265
     33252     33251     33253     33253     33265     33266     33253     33265     33267
     33253     33265     33268     33254     33253     33255     33254     33253     33265
     33255     33253     33265     33256     33259     33260     33257     33256     33258
     33257     33256     33259     33258     33256     33259     33259     33260     33261
     33259     33260     33262     33260     33262     33263     33260     33262     33264
     33260     33262     33309     33261     33260     33262     33262     33309     33310
     33262     33309     33311     33262     33309     33312     33263     33262     33264
     33263     33262     33309     33264     33262     33309     33265     33268     33269
     33265     33268     33270     33265     33268     33271     33266     33265     33267
     33266     33265     33268     33267     33265     33268     33268     33271     33272
     33268     33271     33273     33268     33271     33274     33269     33268     33270
     33269     33268     33271     33270     33268     33271     33271     33274     33275
     33271     33274     33276     33271     33274     33277     33272     33271     33273
     33272     33271     33274     33273     33271     33274     33274     33277     33278
     33274     33277     33279     33274     33277     33280     33275     33274     33276
     33275     33274     33277     33276     33274     33277     33277     33280     33281
     33277     33280     33282     33277     33280     33283     33278     33277     33279
     33278     33277     33280     33279     33277     33280     33280     33283     33284
     33280     33283     33285     33280     33283     33288     33281     33280     33282
     33281     33280     33283     33282     33280     33283     33283     33285     33286
     33283     33285     33287     33283     33285     33288     33283     33288     33285
     33283     33288     33289     33283     33288     33290     33284     33283     33285
     33284     33283     33288     33285     33283     33288     33285     33288     33289
     33285     33288     33290     33286     33285     33287     33286     33285     33288
     33287     33285     33288     33288     33290     33291     33288     33290     33292
     33288     33290     33293     33289     33288     33290     33290     33293     33294
     33290     33293     33295     33290     33293     33296     33291     33290     33292
     33291     33290     33293     33292     33290     33293     33293     33296     33297
     33293     33296     33298     33293     33296     33299     33294     33293     33295
     33294     33293     33296     33295     33293     33296     33296     33299     33300
     33296     33299     33301     33296     33299     33302     33297     33296     33298
     33297     33296     33299     33298     33296     33299     33299     33302     33303
     33299     33302     33304     33299     33302     33305     33300     33299     33301
     33300     33299     33302     33301     33299     33302     33302     33305     33306
     33302     33305     33307     33302     33305     33308     33303     33302     33304
     33303     33302     33305     33304     33302     33305     33306     33305     33307
     33306     33305     33308     33307     33305     33308     33309     33312     33313
     33309     33312     33314     33309     33312     33315     33310     33309     33311
     33310     33309     33312     33311     33309     33312     33312     33315     33316
     33312     33315     33317     33312     33315     33318     33313     33312     33314
     33313     33312     33315     33314     33312     33315     33315     33318     33319
     33315     33318     33320     33315     33318     33321     33316     33315     33317
     33316     33315     33318     33317     33315     33318     33318     33321     33322
     33318     33321     33323     33318     33321     33324     33319     33318     33320
     33319     33318     33321     33320     33318     33321     33321     33324     33325
     33321     33324     33326     33321     33324     33327     33322     33321     33323
     33322     33321     33324     33323     33321     33324     33324     33327     33328
     33324     33327     33329     33324     33327     33330     33325     33324     33326
     33325     33324     33327     33326     33324     33327     33327     33330     33331
     33327     33330     33332     33327     33330     33333     33328     33327     33329
     33328     33327     33330     33329     33327     33330     33330     33333     33334
     33330     33333     33335     33330     33333     33336     33331     33330     33332
     33331     33330     33333     33332     33330     33333     33333     33336     33337
     33333     33336     33338     33333     33336     33339     33334     33333     33335
     33334     33333     33336     33335     33333     33336     33336     33339     33340
     33336     33339     33341     33336     33339     33342     33337     33336     33338
     33337     33336     33339     33338     33336     33339     33339     33342     33343
     33339     33342     33344     33339     33342     33345     33340     33339     33341
     33340     33339     33342     33341     33339     33342     33342     33345     33346
     33342     33345     33347     33342     33345     33348     33343     33342     33344
     33343     33342     33345     33344     33342     33345     33345     33348     33349
     33345     33348     33350     33345     33348     33351     33346     33345     33347
     33346     33345     33348     33347     33345     33348     33349     33348     33350
     33349     33348     33351     33350     33348     33351     33352     33356     33357
     33352     33356     33358     33352     33356     33359     33353     33352     33354
     33353     33352     33355     33353     33352     33356     33354     33352     33355
     33354     33352     33356     33355     33352     33356     33356     33359     33360
     33356     33359     33361     33356     33359     33366     33357     33356     33358
     33357     33356     33359     33358     33356     33359     33359     33366     33362
     33360     33359     33361     33360     33359     33366     33361     33359     33366
     33362     33365     33367     33363     33362     33364     33363     33362     33365
     33363     33362     33366     33364     33362     33365     33364     33362     33366
     33365     33362     33366     33365     33367     33368     33365     33367     33369
     33365     33367     33370     33367     33370     33371     33367     33370     33372
     33367     33370     33378     33368     33367     33369     33368     33367     33370
     33369     33367     33370     33370     33372     33373     33370     33378     33379
     33370     33378     33380     33370     33378     33381     33371     33370     33372
     33371     33370     33378     33372     33370     33378     33372     33373     33374
     33372     33373     33375     33373     33375     33376     33373     33375     33377
     33373     33375     33387     33374     33373     33375     33375     33387     33388
     33375     33387     33389     33375     33387     33390     33376     33375     33377
     33376     33375     33387     33377     33375     33387     33378     33381     33382
     33379     33378     33380     33379     33378     33381     33380     33378     33381
     33381     33382     33383     33381     33382     33384     33382     33384     33385
     33382     33384     33386     33382     33384     33428     33383     33382     33384
     33384     33428     33429     33384     33428     33430     33384     33428     33431
     33385     33384     33386     33385     33384     33428     33386     33384     33428
     33387     33390     33391     33387     33390     33392     33387     33390     33393
     33388     33387     33389     33388     33387     33390     33389     33387     33390
     33390     33393     33394     33390     33393     33395     33390     33393     33396
     33391     33390     33392     33391     33390     33393     33392     33390     33393
     33393     33396     33397     33393     33396     33398     33393     33396     33399
     33394     33393     33395     33394     33393     33396     33395     33393     33396
     33396     33399     33400     33396     33399     33401     33396     33399     33402
     33397     33396     33398     33397     33396     33399     33398     33396     33399
     33399     33402     33403     33399     33402     33404     33399     33402     33405
     33400     33399     33401     33400     33399     33402     33401     33399     33402
     33402     33405     33406     33402     33405     33407     33403     33402     33404
     33403     33402     33405     33404     33402     33405     33405     33407     33408
     33405     33407     33409     33406     33405     33407     33407     33409     33410
     33407     33409     33411     33407     33409     33412     33408     33407     33409
     33409     33412     33413     33409     33412     33414     33409     33412     33415
     33410     33409     33411     33410     33409     33412     33411     33409     33412
     33412     33415     33416     33412     33415     33417     33412     33415     33418
     33413     33412     33414     33413     33412     33415     33414     33412     33415
     33415     33418     33419     33415     33418     33420     33415     33418     33421
     33416     33415     33417     33416     33415     33418     33417     33415     33418
     33418     33421     33422     33418     33421     33423     33418     33421     33424
     33419     33418     33420     33419     33418     33421     33420     33418     33421
     33421     33424     33425     33421     33424     33426     33421     33424     33427
     33422     33421     33423     33422     33421     33424     33423     33421     33424
     33425     33424     33426     33425     33424     33427     33426     33424     33427
     33428     33431     33432     33428     33431     33433     33428     33431     33434
     33429     33428     33430     33429     33428     33431     33430     33428     33431
     33431     33434     33435     33431     33434     33436     33431     33434     33437
     33432     33431     33433     33432     33431     33434     33433     33431     33434
     33434     33437     33438     33434     33437     33439     33434     33437     33440
     33435     33434     33436     33435     33434     33437     33436     33434     33437
     33437     33440     33441     33437     33440     33442     33437     33440     33443
     33438     33437     33439     33438     33437     33440     33439     33437     33440
     33440     33443     33444     33440     33443     33445     33440     33443     33446
     33441     33440     33442     33441     33440     33443     33442     33440     33443
     33443     33446     33447     33443     33446     33448     33444     33443     33445
     33444     33443     33446     33445     33443     33446     33446     33448     33449
     33446     33448     33450     33447     33446     33448     33448     33450     33451
     33448     33450     33452     33448     33450     33453     33449     33448     33450
     33450     33453     33454     33450     33453     33455     33450     33453     33456
     33451     33450     33452     33451     33450     33453     33452     33450     33453
     33453     33456     33457     33453     33456     33458     33453     33456     33459
     33454     33453     33455     33454     33453     33456     33455     33453     33456
     33456     33459     33460     33456     33459     33461     33456     33459     33462
     33457     33456     33458     33457     33456     33459     33458     33456     33459
     33459     33462     33463     33459     33462     33464     33459     33462     33465
     33460     33459     33461     33460     33459     33462     33461     33459     33462
     33462     33465     33466     33462     33465     33467     33462     33465     33468
     33463     33462     33464     33463     33462     33465     33464     33462     33465
     33465     33468     33469     33465     33468     33470     33465     33468     33471
     33466     33465     33467     33466     33465     33468     33467     33465     33468
     33468     33471     33472     33468     33471     33473     33468     33471     33474
     33469     33468     33470     33469     33468     33471     33470     33468     33471
     33472     33471     33473     33472     33471     33474     33473     33471     33474
     33475     33478     33479     33475     33480     33481     33475     33480     33482
     33475     33480     33484     33476     33475     33477     33476     33475     33478
     33476     33475     33480     33477     33475     33478     33477     33475     33480
     33478     33475     33480     33480     33482     33483     33480     33484     33485
     33480     33484     33486     33480     33484     33491     33481     33480     33482
     33481     33480     33484     33482     33480     33484     33484     33491     33487
     33485     33484     33486     33485     33484     33491     33486     33484     33491
     33487     33490     33492     33488     33487     33489     33488     33487     33490
     33488     33487     33491     33489     33487     33490     33489     33487     33491
     33490     33487     33491     33490     33492     33493     33490     33492     33494
     33490     33492     33495     33492     33495     33496     33492     33495     33497
     33492     33495     33503     33493     33492     33494     33493     33492     33495
     33494     33492     33495     33495     33497     33498     33495     33503     33504
     33495     33503     33505     33495     33503     33506     33496     33495     33497
     33496     33495     33503     33497     33495     33503     33497     33498     33499
     33497     33498     33500     33498     33500     33501     33498     33500     33502
     33498     33500     33512     33499     33498     33500     33500     33512     33513
     33500     33512     33514     33500     33512     33515     33501     33500     33502
     33501     33500     33512     33502     33500     33512     33503     33506     33507
     33504     33503     33505     33504     33503     33506     33505     33503     33506
     33506     33507     33508     33506     33507     33509     33507     33509     33510
     33507     33509     33511     33507     33509     33553     33508     33507     33509
     33509     33553     33554     33509     33553     33555     33509     33553     33556
     33510     33509     33511     33510     33509     33553     33511     33509     33553
     33512     33515     33516     33512     33515     33517     33512     33515     33518
     33513     33512     33514     33513     33512     33515     33514     33512     33515
     33515     33518     33519     33515     33518     33520     33515     33518     33521
     33516     33515     33517     33516     33515     33518     33517     33515     33518
     33518     33521     33522     33518     33521     33523     33518     33521     33524
     33519     33518     33520     33519     33518     33521     33520     33518     33521
     33521     33524     33525     33521     33524     33526     33521     33524     33527
     33522     33521     33523     33522     33521     33524     33523     33521     33524
     33524     33527     33528     33524     33527     33529     33524     33527     33530
     33525     33524     33526     33525     33524     33527     33526     33524     33527
     33527     33530     33531     33527     33530     33532     33528     33527     33529
     33528     33527     33530     33529     33527     33530     33530     33532     33533
     33530     33532     33534     33531     33530     33532     33532     33534     33535
     33532     33534     33536     33532     33534     33537     33533     33532     33534
     33534     33537     33538     33534     33537     33539     33534     33537     33540
     33535     33534     33536     33535     33534     33537     33536     33534     33537
     33537     33540     33541     33537     33540     33542     33537     33540     33543
     33538     33537     33539     33538     33537     33540     33539     33537     33540
     33540     33543     33544     33540     33543     33545     33540     33543     33546
     33541     33540     33542     33541     33540     33543     33542     33540     33543
     33543     33546     33547     33543     33546     33548     33543     33546     33549
     33544     33543     33545     33544     33543     33546     33545     33543     33546
     33546     33549     33550     33546     33549     33551     33546     33549     33552
     33547     33546     33548     33547     33546     33549     33548     33546     33549
     33550     33549     33551     33550     33549     33552     33551     33549     33552
     33553     33556     33557     33553     33556     33558     33553     33556     33559
     33554     33553     33555     33554     33553     33556     33555     33553     33556
     33556     33559     33560     33556     33559     33561     33556     33559     33562
     33557     33556     33558     33557     33556     33559     33558     33556     33559
     33559     33562     33563     33559     33562     33564     33559     33562     33565
     33560     33559     33561     33560     33559     33562     33561     33559     33562
     33562     33565     33566     33562     33565     33567     33562     33565     33568
     33563     33562     33564     33563     33562     33565     33564     33562     33565
     33565     33568     33569     33565     33568     33570     33565     33568     33571
     33566     33565     33567     33566     33565     33568     33567     33565     33568
     33568     33571     33572     33568     33571     33573     33568     33571     33574
     33569     33568     33570     33569     33568     33571     33570     33568     33571
     33571     33574     33575     33571     33574     33576     33571     33574     33577
     33572     33571     33573     33572     33571     33574     33573     33571     33574
     33574     33577     33578     33574     33577     33579     33574     33577     33580
     33575     33574     33576     33575     33574     33577     33576     33574     33577
     33577     33580     33581     33577     33580     33582     33577     33580     33583
     33578     33577     33579     33578     33577     33580     33579     33577     33580
     33580     33583     33584     33580     33583     33585     33580     33583     33586
     33581     33580     33582     33581     33580     33583     33582     33580     33583
     33583     33586     33587     33583     33586     33588     33583     33586     33589
     33584     33583     33585     33584     33583     33586     33585     33583     33586
     33586     33589     33590     33586     33589     33591     33586     33589     33592
     33587     33586     33588     33587     33586     33589     33588     33586     33589
     33589     33592     33593     33589     33592     33594     33589     33592     33595
     33590     33589     33591     33590     33589     33592     33591     33589     33592
     33593     33592     33594     33593     33592     33595     33594     33592     33595
     33596     33600     33601     33596     33600     33602     33596     33600     33603
     33597     33596     33598     33597     33596     33599     33597     33596     33600
     33598     33596     33599     33598     33596     33600     33599     33596     33600
     33600     33603     33604     33600     33603     33605     33600     33603     33610
     33601     33600     33602     33601     33600     33603     33602     33600     33603
     33603     33610     33606     33604     33603     33605     33604     33603     33610
     33605     33603     33610     33606     33609     33611     33607     33606     33608
     33607     33606     33609     33607     33606     33610     33608     33606     33609
     33608     33606     33610     33609     33606     33610     33609     33611     33612
     33609     33611     33613     33609     33611     33614     33611     33614     33615
     33611     33614     33616     33611     33614     33622     33612     33611     33613
     33612     33611     33614     33613     33611     33614     33614     33616     33617
     33614     33622     33623     33614     33622     33624     33614     33622     33625
     33615     33614     33616     33615     33614     33622     33616     33614     33622
     33616     33617     33618     33616     33617     33619     33617     33619     33620
     33617     33619     33621     33617     33619     33631     33618     33617     33619
     33619     33631     33632     33619     33631     33633     33619     33631     33634
     33620     33619     33621     33620     33619     33631     33621     33619     33631
     33622     33625     33626     33623     33622     33624     33623     33622     33625
     33624     33622     33625     33625     33626     33627     33625     33626     33628
     33626     33628     33629     33626     33628     33630     33626     33628     33675
     33627     33626     33628     33628     33675     33676     33628     33675     33677
     33628     33675     33678     33629     33628     33630     33629     33628     33675
     33630     33628     33675     33631     33634     33635     33631     33634     33636
     33631     33634     33637     33632     33631     33633     33632     33631     33634
     33633     33631     33634     33634     33637     33638     33634     33637     33639
     33634     33637     33640     33635     33634     33636     33635     33634     33637
     33636     33634     33637     33637     33640     33641     33637     33640     33642
     33637     33640     33643     33638     33637     33639     33638     33637     33640
     33639     33637     33640     33640     33643     33644     33640     33643     33645
     33640     33643     33646     33641     33640     33642     33641     33640     33643
     33642     33640     33643     33643     33646     33647     33643     33646     33648
     33643     33646     33649     33644     33643     33645     33644     33643     33646
     33645     33643     33646     33646     33649     33650     33646     33649     33651
     33646     33649     33654     33647     33646     33648     33647     33646     33649
     33648     33646     33649     33649     33651     33652     33649     33651     33653
     33649     33651     33654     33649     33654     33651     33649     33654     33655
     33649     33654     33656     33650     33649     33651     33650     33649     33654
     33651     33649     33654     33651     33654     33655     33651     33654     33656
     33652     33651     33653     33652     33651     33654     33653     33651     33654
     33654     33656     33657     33654     33656     33658     33654     33656     33659
     33655     33654     33656     33656     33659     33660     33656     33659     33661
     33656     33659     33662     33657     33656     33658     33657     33656     33659
     33658     33656     33659     33659     33662     33663     33659     33662     33664
     33659     33662     33665     33660     33659     33661     33660     33659     33662
     33661     33659     33662     33662     33665     33666     33662     33665     33667
     33662     33665     33668     33663     33662     33664     33663     33662     33665
     33664     33662     33665     33665     33668     33669     33665     33668     33670
     33665     33668     33671     33666     33665     33667     33666     33665     33668
     33667     33665     33668     33668     33671     33672     33668     33671     33673
     33668     33671     33674     33669     33668     33670     33669     33668     33671
     33670     33668     33671     33672     33671     33673     33672     33671     33674
     33673     33671     33674     33675     33678     33679     33675     33678     33680
     33675     33678     33681     33676     33675     33677     33676     33675     33678
     33677     33675     33678     33678     33681     33682     33678     33681     33683
     33678     33681     33684     33679     33678     33680     33679     33678     33681
     33680     33678     33681     33681     33684     33685     33681     33684     33686
     33681     33684     33687     33682     33681     33683     33682     33681     33684
     33683     33681     33684     33684     33687     33688     33684     33687     33689
     33684     33687     33690     33685     33684     33686     33685     33684     33687
     33686     33684     33687     33687     33690     33691     33687     33690     33692
     33687     33690     33693     33688     33687     33689     33688     33687     33690
     33689     33687     33690     33690     33693     33694     33690     33693     33695
     33690     33693     33696     33691     33690     33692     33691     33690     33693
     33692     33690     33693     33693     33696     33697     33693     33696     33698
     33693     33696     33699     33694     33693     33695     33694     33693     33696
     33695     33693     33696     33696     33699     33700     33696     33699     33701
     33696     33699     33702     33697     33696     33698     33697     33696     33699
     33698     33696     33699     33699     33702     33703     33699     33702     33704
     33699     33702     33705     33700     33699     33701     33700     33699     33702
     33701     33699     33702     33702     33705     33706     33702     33705     33707
     33702     33705     33708     33703     33702     33704     33703     33702     33705
     33704     33702     33705     33705     33708     33709     33705     33708     33710
     33705     33708     33711     33706     33705     33707     33706     33705     33708
     33707     33705     33708     33708     33711     33712     33708     33711     33713
     33708     33711     33714     33709     33708     33710     33709     33708     33711
     33710     33708     33711     33711     33714     33715     33711     33714     33716
     33711     33714     33717     33712     33711     33713     33712     33711     33714
     33713     33711     33714     33715     33714     33716     33715     33714     33717
     33716     33714     33717     33718     33722     33723     33718     33722     33724
     33718     33722     33725     33719     33718     33720     33719     33718     33721
     33719     33718     33722     33720     33718     33721     33720     33718     33722
     33721     33718     33722     33722     33725     33726     33722     33725     33727
     33722     33725     33732     33723     33722     33724     33723     33722     33725
     33724     33722     33725     33725     33732     33728     33726     33725     33727
     33726     33725     33732     33727     33725     33732     33728     33731     33733
     33729     33728     33730     33729     33728     33731     33729     33728     33732
     33730     33728     33731     33730     33728     33732     33731     33728     33732
     33731     33733     33734     33731     33733     33735     33731     33733     33736
     33733     33736     33737     33733     33736     33738     33733     33736     33744
     33734     33733     33735     33734     33733     33736     33735     33733     33736
     33736     33738     33739     33736     33744     33745     33736     33744     33746
     33736     33744     33747     33737     33736     33738     33737     33736     33744
     33738     33736     33744     33738     33739     33740     33738     33739     33741
     33739     33741     33742     33739     33741     33743     33739     33741     33753
     33740     33739     33741     33741     33753     33754     33741     33753     33755
     33741     33753     33756     33742     33741     33743     33742     33741     33753
     33743     33741     33753     33744     33747     33748     33745     33744     33746
     33745     33744     33747     33746     33744     33747     33747     33748     33749
     33747     33748     33750     33748     33750     33751     33748     33750     33752
     33748     33750     33797     33749     33748     33750     33750     33797     33798
     33750     33797     33799     33750     33797     33800     33751     33750     33752
     33751     33750     33797     33752     33750     33797     33753     33756     33757
     33753     33756     33758     33753     33756     33759     33754     33753     33755
     33754     33753     33756     33755     33753     33756     33756     33759     33760
     33756     33759     33761     33756     33759     33762     33757     33756     33758
     33757     33756     33759     33758     33756     33759     33759     33762     33763
     33759     33762     33764     33759     33762     33765     33760     33759     33761
     33760     33759     33762     33761     33759     33762     33762     33765     33766
     33762     33765     33767     33762     33765     33768     33763     33762     33764
     33763     33762     33765     33764     33762     33765     33765     33768     33769
     33765     33768     33770     33765     33768     33771     33766     33765     33767
     33766     33765     33768     33767     33765     33768     33768     33771     33772
     33768     33771     33773     33768     33771     33776     33769     33768     33770
     33769     33768     33771     33770     33768     33771     33771     33773     33774
     33771     33773     33775     33771     33773     33776     33771     33776     33773
     33771     33776     33777     33771     33776     33778     33772     33771     33773
     33772     33771     33776     33773     33771     33776     33773     33776     33777
     33773     33776     33778     33774     33773     33775     33774     33773     33776
     33775     33773     33776     33776     33778     33779     33776     33778     33780
     33776     33778     33781     33777     33776     33778     33778     33781     33782
     33778     33781     33783     33778     33781     33784     33779     33778     33780
     33779     33778     33781     33780     33778     33781     33781     33784     33785
     33781     33784     33786     33781     33784     33787     33782     33781     33783
     33782     33781     33784     33783     33781     33784     33784     33787     33788
     33784     33787     33789     33784     33787     33790     33785     33784     33786
     33785     33784     33787     33786     33784     33787     33787     33790     33791
     33787     33790     33792     33787     33790     33793     33788     33787     33789
     33788     33787     33790     33789     33787     33790     33790     33793     33794
     33790     33793     33795     33790     33793     33796     33791     33790     33792
     33791     33790     33793     33792     33790     33793     33794     33793     33795
     33794     33793     33796     33795     33793     33796     33797     33800     33801
     33797     33800     33802     33797     33800     33803     33798     33797     33799
     33798     33797     33800     33799     33797     33800     33800     33803     33804
     33800     33803     33805     33800     33803     33806     33801     33800     33802
     33801     33800     33803     33802     33800     33803     33803     33806     33807
     33803     33806     33808     33803     33806     33809     33804     33803     33805
     33804     33803     33806     33805     33803     33806     33806     33809     33810
     33806     33809     33811     33806     33809     33812     33807     33806     33808
     33807     33806     33809     33808     33806     33809     33809     33812     33813
     33809     33812     33814     33809     33812     33815     33810     33809     33811
     33810     33809     33812     33811     33809     33812     33812     33815     33816
     33812     33815     33817     33812     33815     33818     33813     33812     33814
     33813     33812     33815     33814     33812     33815     33815     33818     33819
     33815     33818     33820     33815     33818     33821     33816     33815     33817
     33816     33815     33818     33817     33815     33818     33818     33821     33822
     33818     33821     33823     33818     33821     33824     33819     33818     33820
     33819     33818     33821     33820     33818     33821     33821     33824     33825
     33821     33824     33826     33821     33824     33827     33822     33821     33823
     33822     33821     33824     33823     33821     33824     33824     33827     33828
     33824     33827     33829     33824     33827     33830     33825     33824     33826
     33825     33824     33827     33826     33824     33827     33827     33830     33831
     33827     33830     33832     33827     33830     33833     33828     33827     33829
     33828     33827     33830     33829     33827     33830     33830     33833     33834
     33830     33833     33835     33830     33833     33836     33831     33830     33832
     33831     33830     33833     33832     33830     33833     33833     33836     33837
     33833     33836     33838     33833     33836     33839     33834     33833     33835
     33834     33833     33836     33835     33833     33836     33837     33836     33838
     33837     33836     33839     33838     33836     33839     33840     33844     33845
     33840     33844     33846     33840     33844     33847     33841     33840     33842
     33841     33840     33843     33841     33840     33844     33842     33840     33843
     33842     33840     33844     33843     33840     33844     33844     33847     33848
     33844     33847     33849     33844     33847     33854     33845     33844     33846
     33845     33844     33847     33846     33844     33847     33847     33854     33850
     33848     33847     33849     33848     33847     33854     33849     33847     33854
     33850     33853     33855     33851     33850     33852     33851     33850     33853
     33851     33850     33854     33852     33850     33853     33852     33850     33854
     33853     33850     33854     33853     33855     33856     33853     33855     33857
     33853     33855     33858     33855     33858     33859     33855     33858     33860
     33855     33858     33866     33856     33855     33857     33856     33855     33858
     33857     33855     33858     33858     33860     33861     33858     33866     33867
     33858     33866     33868     33858     33866     33869     33859     33858     33860
     33859     33858     33866     33860     33858     33866     33860     33861     33862
     33860     33861     33863     33861     33863     33864     33861     33863     33865
     33861     33863     33875     33862     33861     33863     33863     33875     33876
     33863     33875     33877     33863     33875     33878     33864     33863     33865
     33864     33863     33875     33865     33863     33875     33866     33869     33870
     33867     33866     33868     33867     33866     33869     33868     33866     33869
     33869     33870     33871     33869     33870     33872     33870     33872     33873
     33870     33872     33874     33870     33872     33919     33871     33870     33872
     33872     33919     33920     33872     33919     33921     33872     33919     33922
     33873     33872     33874     33873     33872     33919     33874     33872     33919
     33875     33878     33879     33875     33878     33880     33875     33878     33881
     33876     33875     33877     33876     33875     33878     33877     33875     33878
     33878     33881     33882     33878     33881     33883     33878     33881     33884
     33879     33878     33880     33879     33878     33881     33880     33878     33881
     33881     33884     33885     33881     33884     33886     33881     33884     33887
     33882     33881     33883     33882     33881     33884     33883     33881     33884
     33884     33887     33888     33884     33887     33889     33884     33887     33890
     33885     33884     33886     33885     33884     33887     33886     33884     33887
     33887     33890     33891     33887     33890     33892     33887     33890     33893
     33888     33887     33889     33888     33887     33890     33889     33887     33890
     33890     33893     33894     33890     33893     33895     33890     33893     33898
     33891     33890     33892     33891     33890     33893     33892     33890     33893
     33893     33895     33896     33893     33895     33897     33893     33895     33898
     33893     33898     33895     33893     33898     33899     33893     33898     33900
     33894     33893     33895     33894     33893     33898     33895     33893     33898
     33895     33898     33899     33895     33898     33900     33896     33895     33897
     33896     33895     33898     33897     33895     33898     33898     33900     33901
     33898     33900     33902     33898     33900     33903     33899     33898     33900
     33900     33903     33904     33900     33903     33905     33900     33903     33906
     33901     33900     33902     33901     33900     33903     33902     33900     33903
     33903     33906     33907     33903     33906     33908     33903     33906     33909
     33904     33903     33905     33904     33903     33906     33905     33903     33906
     33906     33909     33910     33906     33909     33911     33906     33909     33912
     33907     33906     33908     33907     33906     33909     33908     33906     33909
     33909     33912     33913     33909     33912     33914     33909     33912     33915
     33910     33909     33911     33910     33909     33912     33911     33909     33912
     33912     33915     33916     33912     33915     33917     33912     33915     33918
     33913     33912     33914     33913     33912     33915     33914     33912     33915
     33916     33915     33917     33916     33915     33918     33917     33915     33918
     33919     33922     33923     33919     33922     33924     33919     33922     33925
     33920     33919     33921     33920     33919     33922     33921     33919     33922
     33922     33925     33926     33922     33925     33927     33922     33925     33928
     33923     33922     33924     33923     33922     33925     33924     33922     33925
     33925     33928     33929     33925     33928     33930     33925     33928     33931
     33926     33925     33927     33926     33925     33928     33927     33925     33928
     33928     33931     33932     33928     33931     33933     33928     33931     33934
     33929     33928     33930     33929     33928     33931     33930     33928     33931
     33931     33934     33935     33931     33934     33936     33931     33934     33937
     33932     33931     33933     33932     33931     33934     33933     33931     33934
     33934     33937     33938     33934     33937     33939     33934     33937     33940
     33935     33934     33936     33935     33934     33937     33936     33934     33937
     33937     33940     33941     33937     33940     33942     33937     33940     33943
     33938     33937     33939     33938     33937     33940     33939     33937     33940
     33940     33943     33944     33940     33943     33945     33940     33943     33946
     33941     33940     33942     33941     33940     33943     33942     33940     33943
     33943     33946     33947     33943     33946     33948     33943     33946     33949
     33944     33943     33945     33944     33943     33946     33945     33943     33946
     33946     33949     33950     33946     33949     33951     33946     33949     33952
     33947     33946     33948     33947     33946     33949     33948     33946     33949
     33949     33952     33953     33949     33952     33954     33949     33952     33955
     33950     33949     33951     33950     33949     33952     33951     33949     33952
     33952     33955     33956     33952     33955     33957     33952     33955     33958
     33953     33952     33954     33953     33952     33955     33954     33952     33955
     33955     33958     33959     33955     33958     33960     33955     33958     33961
     33956     33955     33957     33956     33955     33958     33957     33955     33958
     33959     33958     33960     33959     33958     33961     33960     33958     33961
     33962     33966     33967     33962     33966     33968     33962     33966     33969
     33963     33962     33964     33963     33962     33965     33963     33962     33966
     33964     33962     33965     33964     33962     33966     33965     33962     33966
     33966     33969     33970     33966     33969     33971     33966     33969     33976
     33967     33966     33968     33967     33966     33969     33968     33966     33969
     33969     33976     33972     33970     33969     33971     33970     33969     33976
     33971     33969     33976     33972     33975     33977     33973     33972     33974
     33973     33972     33975     33973     33972     33976     33974     33972     33975
     33974     33972     33976     33975     33972     33976     33975     33977     33978
     33975     33977     33979     33975     33977     33980     33977     33980     33981
     33977     33980     33982     33977     33980     33988     33978     33977     33979
     33978     33977     33980     33979     33977     33980     33980     33982     33983
     33980     33988     33989     33980     33988     33990     33980     33988     33991
     33981     33980     33982     33981     33980     33988     33982     33980     33988
     33982     33983     33984     33982     33983     33985     33983     33985     33986
     33983     33985     33987     33983     33985     33997     33984     33983     33985
     33985     33997     33998     33985     33997     33999     33985     33997     34000
     33986     33985     33987     33986     33985     33997     33987     33985     33997
     33988     33991     33992     33989     33988     33990     33989     33988     33991
     33990     33988     33991     33991     33992     33993     33991     33992     33994
     33992     33994     33995     33992     33994     33996     33992     33994     34041
     33993     33992     33994     33994     34041     34042     33994     34041     34043
     33994     34041     34044     33995     33994     33996     33995     33994     34041
     33996     33994     34041     33997     34000     34001     33997     34000     34002
     33997     34000     34003     33998     33997     33999     33998     33997     34000
     33999     33997     34000     34000     34003     34004     34000     34003     34005
     34000     34003     34006     34001     34000     34002     34001     34000     34003
     34002     34000     34003     34003     34006     34007     34003     34006     34008
     34003     34006     34009     34004     34003     34005     34004     34003     34006
     34005     34003     34006     34006     34009     34010     34006     34009     34011
     34006     34009     34012     34007     34006     34008     34007     34006     34009
     34008     34006     34009     34009     34012     34013     34009     34012     34014
     34009     34012     34015     34010     34009     34011     34010     34009     34012
     34011     34009     34012     34012     34015     34016     34012     34015     34017
     34012     34015     34020     34013     34012     34014     34013     34012     34015
     34014     34012     34015     34015     34017     34018     34015     34017     34019
     34015     34017     34020     34015     34020     34017     34015     34020     34021
     34015     34020     34022     34016     34015     34017     34016     34015     34020
     34017     34015     34020     34017     34020     34021     34017     34020     34022
     34018     34017     34019     34018     34017     34020     34019     34017     34020
     34020     34022     34023     34020     34022     34024     34020     34022     34025
     34021     34020     34022     34022     34025     34026     34022     34025     34027
     34022     34025     34028     34023     34022     34024     34023     34022     34025
     34024     34022     34025     34025     34028     34029     34025     34028     34030
     34025     34028     34031     34026     34025     34027     34026     34025     34028
     34027     34025     34028     34028     34031     34032     34028     34031     34033
     34028     34031     34034     34029     34028     34030     34029     34028     34031
     34030     34028     34031     34031     34034     34035     34031     34034     34036
     34031     34034     34037     34032     34031     34033     34032     34031     34034
     34033     34031     34034     34034     34037     34038     34034     34037     34039
     34034     34037     34040     34035     34034     34036     34035     34034     34037
     34036     34034     34037     34038     34037     34039     34038     34037     34040
     34039     34037     34040     34041     34044     34045     34041     34044     34046
     34041     34044     34047     34042     34041     34043     34042     34041     34044
     34043     34041     34044     34044     34047     34048     34044     34047     34049
     34044     34047     34050     34045     34044     34046     34045     34044     34047
     34046     34044     34047     34047     34050     34051     34047     34050     34052
     34047     34050     34053     34048     34047     34049     34048     34047     34050
     34049     34047     34050     34050     34053     34054     34050     34053     34055
     34050     34053     34056     34051     34050     34052     34051     34050     34053
     34052     34050     34053     34053     34056     34057     34053     34056     34058
     34053     34056     34059     34054     34053     34055     34054     34053     34056
     34055     34053     34056     34056     34059     34060     34056     34059     34061
     34056     34059     34062     34057     34056     34058     34057     34056     34059
     34058     34056     34059     34059     34062     34063     34059     34062     34064
     34059     34062     34065     34060     34059     34061     34060     34059     34062
     34061     34059     34062     34062     34065     34066     34062     34065     34067
     34062     34065     34068     34063     34062     34064     34063     34062     34065
     34064     34062     34065     34065     34068     34069     34065     34068     34070
     34065     34068     34071     34066     34065     34067     34066     34065     34068
     34067     34065     34068     34068     34071     34072     34068     34071     34073
     34068     34071     34074     34069     34068     34070     34069     34068     34071
     34070     34068     34071     34071     34074     34075     34071     34074     34076
     34071     34074     34077     34072     34071     34073     34072     34071     34074
     34073     34071     34074     34074     34077     34078     34074     34077     34079
     34074     34077     34080     34075     34074     34076     34075     34074     34077
     34076     34074     34077     34077     34080     34081     34077     34080     34082
     34077     34080     34083     34078     34077     34079     34078     34077     34080
     34079     34077     34080     34081     34080     34082     34081     34080     34083
     34082     34080     34083     34084     34088     34089     34084     34088     34090
     34084     34088     34091     34085     34084     34086     34085     34084     34087
     34085     34084     34088     34086     34084     34087     34086     34084     34088
     34087     34084     34088     34088     34091     34092     34088     34091     34093
     34088     34091     34098     34089     34088     34090     34089     34088     34091
     34090     34088     34091     34091     34098     34094     34092     34091     34093
     34092     34091     34098     34093     34091     34098     34094     34097     34099
     34095     34094     34096     34095     34094     34097     34095     34094     34098
     34096     34094     34097     34096     34094     34098     34097     34094     34098
     34097     34099     34100     34097     34099     34101     34097     34099     34102
     34099     34102     34103     34099     34102     34104     34099     34102     34110
     34100     34099     34101     34100     34099     34102     34101     34099     34102
     34102     34104     34105     34102     34110     34111     34102     34110     34112
     34102     34110     34113     34103     34102     34104     34103     34102     34110
     34104     34102     34110     34104     34105     34106     34104     34105     34107
     34105     34107     34108     34105     34107     34109     34105     34107     34119
     34106     34105     34107     34107     34119     34120     34107     34119     34121
     34107     34119     34122     34108     34107     34109     34108     34107     34119
     34109     34107     34119     34110     34113     34114     34111     34110     34112
     34111     34110     34113     34112     34110     34113     34113     34114     34115
     34113     34114     34116     34114     34116     34117     34114     34116     34118
     34114     34116     34163     34115     34114     34116     34116     34163     34164
     34116     34163     34165     34116     34163     34166     34117     34116     34118
     34117     34116     34163     34118     34116     34163     34119     34122     34123
     34119     34122     34124     34119     34122     34125     34120     34119     34121
     34120     34119     34122     34121     34119     34122     34122     34125     34126
     34122     34125     34127     34122     34125     34128     34123     34122     34124
     34123     34122     34125     34124     34122     34125     34125     34128     34129
     34125     34128     34130     34125     34128     34131     34126     34125     34127
     34126     34125     34128     34127     34125     34128     34128     34131     34132
     34128     34131     34133     34128     34131     34134     34129     34128     34130
     34129     34128     34131     34130     34128     34131     34131     34134     34135
     34131     34134     34136     34131     34134     34137     34132     34131     34133
     34132     34131     34134     34133     34131     34134     34134     34137     34138
     34134     34137     34139     34134     34137     34142     34135     34134     34136
     34135     34134     34137     34136     34134     34137     34137     34139     34140
     34137     34139     34141     34137     34139     34142     34137     34142     34139
     34137     34142     34143     34137     34142     34144     34138     34137     34139
     34138     34137     34142     34139     34137     34142     34139     34142     34143
     34139     34142     34144     34140     34139     34141     34140     34139     34142
     34141     34139     34142     34142     34144     34145     34142     34144     34146
     34142     34144     34147     34143     34142     34144     34144     34147     34148
     34144     34147     34149     34144     34147     34150     34145     34144     34146
     34145     34144     34147     34146     34144     34147     34147     34150     34151
     34147     34150     34152     34147     34150     34153     34148     34147     34149
     34148     34147     34150     34149     34147     34150     34150     34153     34154
     34150     34153     34155     34150     34153     34156     34151     34150     34152
     34151     34150     34153     34152     34150     34153     34153     34156     34157
     34153     34156     34158     34153     34156     34159     34154     34153     34155
     34154     34153     34156     34155     34153     34156     34156     34159     34160
     34156     34159     34161     34156     34159     34162     34157     34156     34158
     34157     34156     34159     34158     34156     34159     34160     34159     34161
     34160     34159     34162     34161     34159     34162     34163     34166     34167
     34163     34166     34168     34163     34166     34169     34164     34163     34165
     34164     34163     34166     34165     34163     34166     34166     34169     34170
     34166     34169     34171     34166     34169     34172     34167     34166     34168
     34167     34166     34169     34168     34166     34169     34169     34172     34173
     34169     34172     34174     34169     34172     34175     34170     34169     34171
     34170     34169     34172     34171     34169     34172     34172     34175     34176
     34172     34175     34177     34172     34175     34178     34173     34172     34174
     34173     34172     34175     34174     34172     34175     34175     34178     34179
     34175     34178     34180     34175     34178     34181     34176     34175     34177
     34176     34175     34178     34177     34175     34178     34178     34181     34182
     34178     34181     34183     34178     34181     34184     34179     34178     34180
     34179     34178     34181     34180     34178     34181     34181     34184     34185
     34181     34184     34186     34181     34184     34187     34182     34181     34183
     34182     34181     34184     34183     34181     34184     34184     34187     34188
     34184     34187     34189     34184     34187     34190     34185     34184     34186
     34185     34184     34187     34186     34184     34187     34187     34190     34191
     34187     34190     34192     34187     34190     34193     34188     34187     34189
     34188     34187     34190     34189     34187     34190     34190     34193     34194
     34190     34193     34195     34190     34193     34196     34191     34190     34192
     34191     34190     34193     34192     34190     34193     34193     34196     34197
     34193     34196     34198     34193     34196     34199     34194     34193     34195
     34194     34193     34196     34195     34193     34196     34196     34199     34200
     34196     34199     34201     34196     34199     34202     34197     34196     34198
     34197     34196     34199     34198     34196     34199     34199     34202     34203
     34199     34202     34204     34199     34202     34205     34200     34199     34201
     34200     34199     34202     34201     34199     34202     34203     34202     34204
     34203     34202     34205     34204     34202     34205     34206     34210     34211
     34206     34210     34212     34206     34210     34213     34207     34206     34208
     34207     34206     34209     34207     34206     34210     34208     34206     34209
     34208     34206     34210     34209     34206     34210     34210     34213     34214
     34210     34213     34215     34210     34213     34220     34211     34210     34212
     34211     34210     34213     34212     34210     34213     34213     34220     34216
     34214     34213     34215     34214     34213     34220     34215     34213     34220
     34216     34219     34221     34217     34216     34218     34217     34216     34219
     34217     34216     34220     34218     34216     34219     34218     34216     34220
     34219     34216     34220     34219     34221     34222     34219     34221     34223
     34219     34221     34224     34221     34224     34225     34221     34224     34226
     34221     34224     34232     34222     34221     34223     34222     34221     34224
     34223     34221     34224     34224     34226     34227     34224     34232     34233
     34224     34232     34234     34224     34232     34235     34225     34224     34226
     34225     34224     34232     34226     34224     34232     34226     34227     34228
     34226     34227     34229     34227     34229     34230     34227     34229     34231
     34227     34229     34241     34228     34227     34229     34229     34241     34242
     34229     34241     34243     34229     34241     34244     34230     34229     34231
     34230     34229     34241     34231     34229     34241     34232     34235     34236
     34233     34232     34234     34233     34232     34235     34234     34232     34235
     34235     34236     34237     34235     34236     34238     34236     34238     34239
     34236     34238     34240     34236     34238     34285     34237     34236     34238
     34238     34285     34286     34238     34285     34287     34238     34285     34288
     34239     34238     34240     34239     34238     34285     34240     34238     34285
     34241     34244     34245     34241     34244     34246     34241     34244     34247
     34242     34241     34243     34242     34241     34244     34243     34241     34244
     34244     34247     34248     34244     34247     34249     34244     34247     34250
     34245     34244     34246     34245     34244     34247     34246     34244     34247
     34247     34250     34251     34247     34250     34252     34247     34250     34253
     34248     34247     34249     34248     34247     34250     34249     34247     34250
     34250     34253     34254     34250     34253     34255     34250     34253     34256
     34251     34250     34252     34251     34250     34253     34252     34250     34253
     34253     34256     34257     34253     34256     34258     34253     34256     34259
     34254     34253     34255     34254     34253     34256     34255     34253     34256
     34256     34259     34260     34256     34259     34261     34256     34259     34264
     34257     34256     34258     34257     34256     34259     34258     34256     34259
     34259     34261     34262     34259     34261     34263     34259     34261     34264
     34259     34264     34261     34259     34264     34265     34259     34264     34266
     34260     34259     34261     34260     34259     34264     34261     34259     34264
     34261     34264     34265     34261     34264     34266     34262     34261     34263
     34262     34261     34264     34263     34261     34264     34264     34266     34267
     34264     34266     34268     34264     34266     34269     34265     34264     34266
     34266     34269     34270     34266     34269     34271     34266     34269     34272
     34267     34266     34268     34267     34266     34269     34268     34266     34269
     34269     34272     34273     34269     34272     34274     34269     34272     34275
     34270     34269     34271     34270     34269     34272     34271     34269     34272
     34272     34275     34276     34272     34275     34277     34272     34275     34278
     34273     34272     34274     34273     34272     34275     34274     34272     34275
     34275     34278     34279     34275     34278     34280     34275     34278     34281
     34276     34275     34277     34276     34275     34278     34277     34275     34278
     34278     34281     34282     34278     34281     34283     34278     34281     34284
     34279     34278     34280     34279     34278     34281     34280     34278     34281
     34282     34281     34283     34282     34281     34284     34283     34281     34284
     34285     34288     34289     34285     34288     34290     34285     34288     34291
     34286     34285     34287     34286     34285     34288     34287     34285     34288
     34288     34291     34292     34288     34291     34293     34288     34291     34294
     34289     34288     34290     34289     34288     34291     34290     34288     34291
     34291     34294     34295     34291     34294     34296     34291     34294     34297
     34292     34291     34293     34292     34291     34294     34293     34291     34294
     34294     34297     34298     34294     34297     34299     34294     34297     34300
     34295     34294     34296     34295     34294     34297     34296     34294     34297
     34297     34300     34301     34297     34300     34302     34297     34300     34303
     34298     34297     34299     34298     34297     34300     34299     34297     34300
     34300     34303     34304     34300     34303     34305     34300     34303     34306
     34301     34300     34302     34301     34300     34303     34302     34300     34303
     34303     34306     34307     34303     34306     34308     34303     34306     34309
     34304     34303     34305     34304     34303     34306     34305     34303     34306
     34306     34309     34310     34306     34309     34311     34306     34309     34312
     34307     34306     34308     34307     34306     34309     34308     34306     34309
     34309     34312     34313     34309     34312     34314     34309     34312     34315
     34310     34309     34311     34310     34309     34312     34311     34309     34312
     34312     34315     34316     34312     34315     34317     34312     34315     34318
     34313     34312     34314     34313     34312     34315     34314     34312     34315
     34315     34318     34319     34315     34318     34320     34315     34318     34321
     34316     34315     34317     34316     34315     34318     34317     34315     34318
     34318     34321     34322     34318     34321     34323     34318     34321     34324
     34319     34318     34320     34319     34318     34321     34320     34318     34321
     34321     34324     34325     34321     34324     34326     34321     34324     34327
     34322     34321     34323     34322     34321     34324     34323     34321     34324
     34325     34324     34326     34325     34324     34327     34326     34324     34327
     34328     34332     34333     34328     34332     34334     34328     34332     34335
     34329     34328     34330     34329     34328     34331     34329     34328     34332
     34330     34328     34331     34330     34328     34332     34331     34328     34332
     34332     34335     34336     34332     34335     34337     34332     34335     34342
     34333     34332     34334     34333     34332     34335     34334     34332     34335
     34335     34342     34338     34336     34335     34337     34336     34335     34342
     34337     34335     34342     34338     34341     34343     34339     34338     34340
     34339     34338     34341     34339     34338     34342     34340     34338     34341
     34340     34338     34342     34341     34338     34342     34341     34343     34344
     34341     34343     34345     34341     34343     34346     34343     34346     34347
     34343     34346     34348     34343     34346     34354     34344     34343     34345
     34344     34343     34346     34345     34343     34346     34346     34348     34349
     34346     34354     34355     34346     34354     34356     34346     34354     34357
     34347     34346     34348     34347     34346     34354     34348     34346     34354
     34348     34349     34350     34348     34349     34351     34349     34351     34352
     34349     34351     34353     34349     34351     34363     34350     34349     34351
     34351     34363     34364     34351     34363     34365     34351     34363     34366
     34352     34351     34353     34352     34351     34363     34353     34351     34363
     34354     34357     34358     34355     34354     34356     34355     34354     34357
     34356     34354     34357     34357     34358     34359     34357     34358     34360
     34358     34360     34361     34358     34360     34362     34358     34360     34407
     34359     34358     34360     34360     34407     34408     34360     34407     34409
     34360     34407     34410     34361     34360     34362     34361     34360     34407
     34362     34360     34407     34363     34366     34367     34363     34366     34368
     34363     34366     34369     34364     34363     34365     34364     34363     34366
     34365     34363     34366     34366     34369     34370     34366     34369     34371
     34366     34369     34372     34367     34366     34368     34367     34366     34369
     34368     34366     34369     34369     34372     34373     34369     34372     34374
     34369     34372     34375     34370     34369     34371     34370     34369     34372
     34371     34369     34372     34372     34375     34376     34372     34375     34377
     34372     34375     34378     34373     34372     34374     34373     34372     34375
     34374     34372     34375     34375     34378     34379     34375     34378     34380
     34375     34378     34381     34376     34375     34377     34376     34375     34378
     34377     34375     34378     34378     34381     34382     34378     34381     34383
     34378     34381     34386     34379     34378     34380     34379     34378     34381
     34380     34378     34381     34381     34383     34384     34381     34383     34385
     34381     34383     34386     34381     34386     34383     34381     34386     34387
     34381     34386     34388     34382     34381     34383     34382     34381     34386
     34383     34381     34386     34383     34386     34387     34383     34386     34388
     34384     34383     34385     34384     34383     34386     34385     34383     34386
     34386     34388     34389     34386     34388     34390     34386     34388     34391
     34387     34386     34388     34388     34391     34392     34388     34391     34393
     34388     34391     34394     34389     34388     34390     34389     34388     34391
     34390     34388     34391     34391     34394     34395     34391     34394     34396
     34391     34394     34397     34392     34391     34393     34392     34391     34394
     34393     34391     34394     34394     34397     34398     34394     34397     34399
     34394     34397     34400     34395     34394     34396     34395     34394     34397
     34396     34394     34397     34397     34400     34401     34397     34400     34402
     34397     34400     34403     34398     34397     34399     34398     34397     34400
     34399     34397     34400     34400     34403     34404     34400     34403     34405
     34400     34403     34406     34401     34400     34402     34401     34400     34403
     34402     34400     34403     34404     34403     34405     34404     34403     34406
     34405     34403     34406     34407     34410     34411     34407     34410     34412
     34407     34410     34413     34408     34407     34409     34408     34407     34410
     34409     34407     34410     34410     34413     34414     34410     34413     34415
     34410     34413     34416     34411     34410     34412     34411     34410     34413
     34412     34410     34413     34413     34416     34417     34413     34416     34418
     34413     34416     34419     34414     34413     34415     34414     34413     34416
     34415     34413     34416     34416     34419     34420     34416     34419     34421
     34416     34419     34422     34417     34416     34418     34417     34416     34419
     34418     34416     34419     34419     34422     34423     34419     34422     34424
     34419     34422     34425     34420     34419     34421     34420     34419     34422
     34421     34419     34422     34422     34425     34426     34422     34425     34427
     34422     34425     34428     34423     34422     34424     34423     34422     34425
     34424     34422     34425     34425     34428     34429     34425     34428     34430
     34425     34428     34431     34426     34425     34427     34426     34425     34428
     34427     34425     34428     34428     34431     34432     34428     34431     34433
     34428     34431     34434     34429     34428     34430     34429     34428     34431
     34430     34428     34431     34431     34434     34435     34431     34434     34436
     34431     34434     34437     34432     34431     34433     34432     34431     34434
     34433     34431     34434     34434     34437     34438     34434     34437     34439
     34434     34437     34440     34435     34434     34436     34435     34434     34437
     34436     34434     34437     34437     34440     34441     34437     34440     34442
     34437     34440     34443     34438     34437     34439     34438     34437     34440
     34439     34437     34440     34440     34443     34444     34440     34443     34445
     34440     34443     34446     34441     34440     34442     34441     34440     34443
     34442     34440     34443     34443     34446     34447     34443     34446     34448
     34443     34446     34449     34444     34443     34445     34444     34443     34446
     34445     34443     34446     34447     34446     34448     34447     34446     34449
     34448     34446     34449     34450     34453     34454     34450     34455     34456
     34450     34455     34457     34450     34455     34459     34451     34450     34452
     34451     34450     34453     34451     34450     34455     34452     34450     34453
     34452     34450     34455     34453     34450     34455     34455     34457     34458
     34455     34459     34460     34455     34459     34461     34455     34459     34466
     34456     34455     34457     34456     34455     34459     34457     34455     34459
     34459     34466     34462     34460     34459     34461     34460     34459     34466
     34461     34459     34466     34462     34465     34467     34463     34462     34464
     34463     34462     34465     34463     34462     34466     34464     34462     34465
     34464     34462     34466     34465     34462     34466     34465     34467     34468
     34465     34467     34469     34465     34467     34470     34467     34470     34471
     34467     34470     34472     34467     34470     34478     34468     34467     34469
     34468     34467     34470     34469     34467     34470     34470     34472     34473
     34470     34478     34479     34470     34478     34480     34470     34478     34481
     34471     34470     34472     34471     34470     34478     34472     34470     34478
     34472     34473     34474     34472     34473     34475     34473     34475     34476
     34473     34475     34477     34473     34475     34487     34474     34473     34475
     34475     34487     34488     34475     34487     34489     34475     34487     34490
     34476     34475     34477     34476     34475     34487     34477     34475     34487
     34478     34481     34482     34479     34478     34480     34479     34478     34481
     34480     34478     34481     34481     34482     34483     34481     34482     34484
     34482     34484     34485     34482     34484     34486     34482     34484     34528
     34483     34482     34484     34484     34528     34529     34484     34528     34530
     34484     34528     34531     34485     34484     34486     34485     34484     34528
     34486     34484     34528     34487     34490     34491     34487     34490     34492
     34487     34490     34493     34488     34487     34489     34488     34487     34490
     34489     34487     34490     34490     34493     34494     34490     34493     34495
     34490     34493     34496     34491     34490     34492     34491     34490     34493
     34492     34490     34493     34493     34496     34497     34493     34496     34498
     34493     34496     34499     34494     34493     34495     34494     34493     34496
     34495     34493     34496     34496     34499     34500     34496     34499     34501
     34496     34499     34502     34497     34496     34498     34497     34496     34499
     34498     34496     34499     34499     34502     34503     34499     34502     34504
     34499     34502     34505     34500     34499     34501     34500     34499     34502
     34501     34499     34502     34502     34505     34506     34502     34505     34507
     34503     34502     34504     34503     34502     34505     34504     34502     34505
     34505     34507     34508     34505     34507     34509     34506     34505     34507
     34507     34509     34510     34507     34509     34511     34507     34509     34512
     34508     34507     34509     34509     34512     34513     34509     34512     34514
     34509     34512     34515     34510     34509     34511     34510     34509     34512
     34511     34509     34512     34512     34515     34516     34512     34515     34517
     34512     34515     34518     34513     34512     34514     34513     34512     34515
     34514     34512     34515     34515     34518     34519     34515     34518     34520
     34515     34518     34521     34516     34515     34517     34516     34515     34518
     34517     34515     34518     34518     34521     34522     34518     34521     34523
     34518     34521     34524     34519     34518     34520     34519     34518     34521
     34520     34518     34521     34521     34524     34525     34521     34524     34526
     34521     34524     34527     34522     34521     34523     34522     34521     34524
     34523     34521     34524     34525     34524     34526     34525     34524     34527
     34526     34524     34527     34528     34531     34532     34528     34531     34533
     34528     34531     34534     34529     34528     34530     34529     34528     34531
     34530     34528     34531     34531     34534     34535     34531     34534     34536
     34531     34534     34537     34532     34531     34533     34532     34531     34534
     34533     34531     34534     34534     34537     34538     34534     34537     34539
     34534     34537     34540     34535     34534     34536     34535     34534     34537
     34536     34534     34537     34537     34540     34541     34537     34540     34542
     34537     34540     34543     34538     34537     34539     34538     34537     34540
     34539     34537     34540     34540     34543     34544     34540     34543     34545
     34540     34543     34546     34541     34540     34542     34541     34540     34543
     34542     34540     34543     34543     34546     34547     34543     34546     34548
     34543     34546     34549     34544     34543     34545     34544     34543     34546
     34545     34543     34546     34546     34549     34550     34546     34549     34551
     34546     34549     34552     34547     34546     34548     34547     34546     34549
     34548     34546     34549     34549     34552     34553     34549     34552     34554
     34549     34552     34555     34550     34549     34551     34550     34549     34552
     34551     34549     34552     34552     34555     34556     34552     34555     34557
     34552     34555     34558     34553     34552     34554     34553     34552     34555
     34554     34552     34555     34555     34558     34559     34555     34558     34560
     34555     34558     34561     34556     34555     34557     34556     34555     34558
     34557     34555     34558     34558     34561     34562     34558     34561     34563
     34558     34561     34564     34559     34558     34560     34559     34558     34561
     34560     34558     34561     34561     34564     34565     34561     34564     34566
     34561     34564     34567     34562     34561     34563     34562     34561     34564
     34563     34561     34564     34564     34567     34568     34564     34567     34569
     34564     34567     34570     34565     34564     34566     34565     34564     34567
     34566     34564     34567     34568     34567     34569     34568     34567     34570
     34569     34567     34570     34571     34575     34576     34571     34575     34577
     34571     34575     34578     34572     34571     34573     34572     34571     34574
     34572     34571     34575     34573     34571     34574     34573     34571     34575
     34574     34571     34575     34575     34578     34579     34575     34578     34580
     34575     34578     34585     34576     34575     34577     34576     34575     34578
     34577     34575     34578     34578     34585     34581     34579     34578     34580
     34579     34578     34585     34580     34578     34585     34581     34584     34586
     34582     34581     34583     34582     34581     34584     34582     34581     34585
     34583     34581     34584     34583     34581     34585     34584     34581     34585
     34584     34586     34587     34584     34586     34588     34584     34586     34589
     34586     34589     34590     34586     34589     34591     34586     34589     34597
     34587     34586     34588     34587     34586     34589     34588     34586     34589
     34589     34591     34592     34589     34597     34598     34589     34597     34599
     34589     34597     34600     34590     34589     34591     34590     34589     34597
     34591     34589     34597     34591     34592     34593     34591     34592     34594
     34592     34594     34595     34592     34594     34596     34592     34594     34606
     34593     34592     34594     34594     34606     34607     34594     34606     34608
     34594     34606     34609     34595     34594     34596     34595     34594     34606
     34596     34594     34606     34597     34600     34601     34598     34597     34599
     34598     34597     34600     34599     34597     34600     34600     34601     34602
     34600     34601     34603     34601     34603     34604     34601     34603     34605
     34601     34603     34647     34602     34601     34603     34603     34647     34648
     34603     34647     34649     34603     34647     34650     34604     34603     34605
     34604     34603     34647     34605     34603     34647     34606     34609     34610
     34606     34609     34611     34606     34609     34612     34607     34606     34608
     34607     34606     34609     34608     34606     34609     34609     34612     34613
     34609     34612     34614     34609     34612     34615     34610     34609     34611
     34610     34609     34612     34611     34609     34612     34612     34615     34616
     34612     34615     34617     34612     34615     34618     34613     34612     34614
     34613     34612     34615     34614     34612     34615     34615     34618     34619
     34615     34618     34620     34615     34618     34621     34616     34615     34617
     34616     34615     34618     34617     34615     34618     34618     34621     34622
     34618     34621     34623     34618     34621     34624     34619     34618     34620
     34619     34618     34621     34620     34618     34621     34621     34624     34625
     34621     34624     34626     34622     34621     34623     34622     34621     34624
     34623     34621     34624     34624     34626     34627     34624     34626     34628
     34625     34624     34626     34626     34628     34629     34626     34628     34630
     34626     34628     34631     34627     34626     34628     34628     34631     34632
     34628     34631     34633     34628     34631     34634     34629     34628     34630
     34629     34628     34631     34630     34628     34631     34631     34634     34635
     34631     34634     34636     34631     34634     34637     34632     34631     34633
     34632     34631     34634     34633     34631     34634     34634     34637     34638
     34634     34637     34639     34634     34637     34640     34635     34634     34636
     34635     34634     34637     34636     34634     34637     34637     34640     34641
     34637     34640     34642     34637     34640     34643     34638     34637     34639
     34638     34637     34640     34639     34637     34640     34640     34643     34644
     34640     34643     34645     34640     34643     34646     34641     34640     34642
     34641     34640     34643     34642     34640     34643     34644     34643     34645
     34644     34643     34646     34645     34643     34646     34647     34650     34651
     34647     34650     34652     34647     34650     34653     34648     34647     34649
     34648     34647     34650     34649     34647     34650     34650     34653     34654
     34650     34653     34655     34650     34653     34656     34651     34650     34652
     34651     34650     34653     34652     34650     34653     34653     34656     34657
     34653     34656     34658     34653     34656     34659     34654     34653     34655
     34654     34653     34656     34655     34653     34656     34656     34659     34660
     34656     34659     34661     34656     34659     34662     34657     34656     34658
     34657     34656     34659     34658     34656     34659     34659     34662     34663
     34659     34662     34664     34659     34662     34665     34660     34659     34661
     34660     34659     34662     34661     34659     34662     34662     34665     34666
     34662     34665     34667     34663     34662     34664     34663     34662     34665
     34664     34662     34665     34665     34667     34668     34665     34667     34669
     34666     34665     34667     34667     34669     34670     34667     34669     34671
     34667     34669     34672     34668     34667     34669     34669     34672     34673
     34669     34672     34674     34669     34672     34675     34670     34669     34671
     34670     34669     34672     34671     34669     34672     34672     34675     34676
     34672     34675     34677     34672     34675     34678     34673     34672     34674
     34673     34672     34675     34674     34672     34675     34675     34678     34679
     34675     34678     34680     34675     34678     34681     34676     34675     34677
     34676     34675     34678     34677     34675     34678     34678     34681     34682
     34678     34681     34683     34678     34681     34684     34679     34678     34680
     34679     34678     34681     34680     34678     34681     34681     34684     34685
     34681     34684     34686     34681     34684     34687     34682     34681     34683
     34682     34681     34684     34683     34681     34684     34684     34687     34688
     34684     34687     34689     34684     34687     34690     34685     34684     34686
     34685     34684     34687     34686     34684     34687     34687     34690     34691
     34687     34690     34692     34687     34690     34693     34688     34687     34689
     34688     34687     34690     34689     34687     34690     34691     34690     34692
     34691     34690     34693     34692     34690     34693     34694     34698     34699
     34694     34698     34700     34694     34698     34701     34695     34694     34696
     34695     34694     34697     34695     34694     34698     34696     34694     34697
     34696     34694     34698     34697     34694     34698     34698     34701     34702
     34698     34701     34703     34698     34701     34708     34699     34698     34700
     34699     34698     34701     34700     34698     34701     34701     34708     34704
     34702     34701     34703     34702     34701     34708     34703     34701     34708
     34704     34707     34709     34705     34704     34706     34705     34704     34707
     34705     34704     34708     34706     34704     34707     34706     34704     34708
     34707     34704     34708     34707     34709     34710     34707     34709     34711
     34707     34709     34712     34709     34712     34713     34709     34712     34714
     34709     34712     34720     34710     34709     34711     34710     34709     34712
     34711     34709     34712     34712     34714     34715     34712     34720     34721
     34712     34720     34722     34712     34720     34723     34713     34712     34714
     34713     34712     34720     34714     34712     34720     34714     34715     34716
     34714     34715     34717     34715     34717     34718     34715     34717     34719
     34715     34717     34729     34716     34715     34717     34717     34729     34730
     34717     34729     34731     34717     34729     34732     34718     34717     34719
     34718     34717     34729     34719     34717     34729     34720     34723     34724
     34721     34720     34722     34721     34720     34723     34722     34720     34723
     34723     34724     34725     34723     34724     34726     34724     34726     34727
     34724     34726     34728     34724     34726     34773     34725     34724     34726
     34726     34773     34774     34726     34773     34775     34726     34773     34776
     34727     34726     34728     34727     34726     34773     34728     34726     34773
     34729     34732     34733     34729     34732     34734     34729     34732     34735
     34730     34729     34731     34730     34729     34732     34731     34729     34732
     34732     34735     34736     34732     34735     34737     34732     34735     34738
     34733     34732     34734     34733     34732     34735     34734     34732     34735
     34735     34738     34739     34735     34738     34740     34735     34738     34741
     34736     34735     34737     34736     34735     34738     34737     34735     34738
     34738     34741     34742     34738     34741     34743     34738     34741     34744
     34739     34738     34740     34739     34738     34741     34740     34738     34741
     34741     34744     34745     34741     34744     34746     34741     34744     34747
     34742     34741     34743     34742     34741     34744     34743     34741     34744
     34744     34747     34748     34744     34747     34749     34744     34747     34752
     34745     34744     34746     34745     34744     34747     34746     34744     34747
     34747     34749     34750     34747     34749     34751     34747     34749     34752
     34747     34752     34749     34747     34752     34753     34747     34752     34754
     34748     34747     34749     34748     34747     34752     34749     34747     34752
     34749     34752     34753     34749     34752     34754     34750     34749     34751
     34750     34749     34752     34751     34749     34752     34752     34754     34755
     34752     34754     34756     34752     34754     34757     34753     34752     34754
     34754     34757     34758     34754     34757     34759     34754     34757     34760
     34755     34754     34756     34755     34754     34757     34756     34754     34757
     34757     34760     34761     34757     34760     34762     34757     34760     34763
     34758     34757     34759     34758     34757     34760     34759     34757     34760
     34760     34763     34764     34760     34763     34765     34760     34763     34766
     34761     34760     34762     34761     34760     34763     34762     34760     34763
     34763     34766     34767     34763     34766     34768     34763     34766     34769
     34764     34763     34765     34764     34763     34766     34765     34763     34766
     34766     34769     34770     34766     34769     34771     34766     34769     34772
     34767     34766     34768     34767     34766     34769     34768     34766     34769
     34770     34769     34771     34770     34769     34772     34771     34769     34772
     34773     34776     34777     34773     34776     34778     34773     34776     34779
     34774     34773     34775     34774     34773     34776     34775     34773     34776
     34776     34779     34780     34776     34779     34781     34776     34779     34782
     34777     34776     34778     34777     34776     34779     34778     34776     34779
     34779     34782     34783     34779     34782     34784     34779     34782     34785
     34780     34779     34781     34780     34779     34782     34781     34779     34782
     34782     34785     34786     34782     34785     34787     34782     34785     34788
     34783     34782     34784     34783     34782     34785     34784     34782     34785
     34785     34788     34789     34785     34788     34790     34785     34788     34791
     34786     34785     34787     34786     34785     34788     34787     34785     34788
     34788     34791     34792     34788     34791     34793     34788     34791     34794
     34789     34788     34790     34789     34788     34791     34790     34788     34791
     34791     34794     34795     34791     34794     34796     34791     34794     34797
     34792     34791     34793     34792     34791     34794     34793     34791     34794
     34794     34797     34798     34794     34797     34799     34794     34797     34800
     34795     34794     34796     34795     34794     34797     34796     34794     34797
     34797     34800     34801     34797     34800     34802     34797     34800     34803
     34798     34797     34799     34798     34797     34800     34799     34797     34800
     34800     34803     34804     34800     34803     34805     34800     34803     34806
     34801     34800     34802     34801     34800     34803     34802     34800     34803
     34803     34806     34807     34803     34806     34808     34803     34806     34809
     34804     34803     34805     34804     34803     34806     34805     34803     34806
     34806     34809     34810     34806     34809     34811     34806     34809     34812
     34807     34806     34808     34807     34806     34809     34808     34806     34809
     34809     34812     34813     34809     34812     34814     34809     34812     34815
     34810     34809     34811     34810     34809     34812     34811     34809     34812
     34813     34812     34814     34813     34812     34815     34814     34812     34815
     34816     34819     34820     34816     34821     34822     34816     34821     34823
     34816     34821     34825     34817     34816     34818     34817     34816     34819
     34817     34816     34821     34818     34816     34819     34818     34816     34821
     34819     34816     34821     34821     34823     34824     34821     34825     34826
     34821     34825     34827     34821     34825     34832     34822     34821     34823
     34822     34821     34825     34823     34821     34825     34825     34832     34828
     34826     34825     34827     34826     34825     34832     34827     34825     34832
     34828     34831     34833     34829     34828     34830     34829     34828     34831
     34829     34828     34832     34830     34828     34831     34830     34828     34832
     34831     34828     34832     34831     34833     34834     34831     34833     34835
     34831     34833     34836     34833     34836     34837     34833     34836     34838
     34833     34836     34844     34834     34833     34835     34834     34833     34836
     34835     34833     34836     34836     34838     34839     34836     34844     34845
     34836     34844     34846     34836     34844     34847     34837     34836     34838
     34837     34836     34844     34838     34836     34844     34838     34839     34840
     34838     34839     34841     34839     34841     34842     34839     34841     34843
     34839     34841     34853     34840     34839     34841     34841     34853     34854
     34841     34853     34855     34841     34853     34856     34842     34841     34843
     34842     34841     34853     34843     34841     34853     34844     34847     34848
     34845     34844     34846     34845     34844     34847     34846     34844     34847
     34847     34848     34849     34847     34848     34850     34848     34850     34851
     34848     34850     34852     34848     34850     34894     34849     34848     34850
     34850     34894     34895     34850     34894     34896     34850     34894     34897
     34851     34850     34852     34851     34850     34894     34852     34850     34894
     34853     34856     34857     34853     34856     34858     34853     34856     34859
     34854     34853     34855     34854     34853     34856     34855     34853     34856
     34856     34859     34860     34856     34859     34861     34856     34859     34862
     34857     34856     34858     34857     34856     34859     34858     34856     34859
     34859     34862     34863     34859     34862     34864     34859     34862     34865
     34860     34859     34861     34860     34859     34862     34861     34859     34862
     34862     34865     34866     34862     34865     34867     34862     34865     34868
     34863     34862     34864     34863     34862     34865     34864     34862     34865
     34865     34868     34869     34865     34868     34870     34865     34868     34871
     34866     34865     34867     34866     34865     34868     34867     34865     34868
     34868     34871     34872     34868     34871     34873     34869     34868     34870
     34869     34868     34871     34870     34868     34871     34871     34873     34874
     34871     34873     34875     34872     34871     34873     34873     34875     34876
     34873     34875     34877     34873     34875     34878     34874     34873     34875
     34875     34878     34879     34875     34878     34880     34875     34878     34881
     34876     34875     34877     34876     34875     34878     34877     34875     34878
     34878     34881     34882     34878     34881     34883     34878     34881     34884
     34879     34878     34880     34879     34878     34881     34880     34878     34881
     34881     34884     34885     34881     34884     34886     34881     34884     34887
     34882     34881     34883     34882     34881     34884     34883     34881     34884
     34884     34887     34888     34884     34887     34889     34884     34887     34890
     34885     34884     34886     34885     34884     34887     34886     34884     34887
     34887     34890     34891     34887     34890     34892     34887     34890     34893
     34888     34887     34889     34888     34887     34890     34889     34887     34890
     34891     34890     34892     34891     34890     34893     34892     34890     34893
     34894     34897     34898     34894     34897     34899     34894     34897     34900
     34895     34894     34896     34895     34894     34897     34896     34894     34897
     34897     34900     34901     34897     34900     34902     34897     34900     34903
     34898     34897     34899     34898     34897     34900     34899     34897     34900
     34900     34903     34904     34900     34903     34905     34900     34903     34906
     34901     34900     34902     34901     34900     34903     34902     34900     34903
     34903     34906     34907     34903     34906     34908     34903     34906     34909
     34904     34903     34905     34904     34903     34906     34905     34903     34906
     34906     34909     34910     34906     34909     34911     34906     34909     34912
     34907     34906     34908     34907     34906     34909     34908     34906     34909
     34909     34912     34913     34909     34912     34914     34909     34912     34915
     34910     34909     34911     34910     34909     34912     34911     34909     34912
     34912     34915     34916     34912     34915     34917     34912     34915     34918
     34913     34912     34914     34913     34912     34915     34914     34912     34915
     34915     34918     34919     34915     34918     34920     34915     34918     34921
     34916     34915     34917     34916     34915     34918     34917     34915     34918
     34918     34921     34922     34918     34921     34923     34918     34921     34924
     34919     34918     34920     34919     34918     34921     34920     34918     34921
     34921     34924     34925     34921     34924     34926     34921     34924     34927
     34922     34921     34923     34922     34921     34924     34923     34921     34924
     34924     34927     34928     34924     34927     34929     34924     34927     34930
     34925     34924     34926     34925     34924     34927     34926     34924     34927
     34927     34930     34931     34927     34930     34932     34927     34930     34933
     34928     34927     34929     34928     34927     34930     34929     34927     34930
     34930     34933     34934     34930     34933     34935     34930     34933     34936
     34931     34930     34932     34931     34930     34933     34932     34930     34933
     34934     34933     34935     34934     34933     34936     34935     34933     34936
     34937     34940     34941     34937     34942     34943     34937     34942     34944
     34937     34942     34946     34938     34937     34939     34938     34937     34940
     34938     34937     34942     34939     34937     34940     34939     34937     34942
     34940     34937     34942     34942     34944     34945     34942     34946     34947
     34942     34946     34948     34942     34946     34953     34943     34942     34944
     34943     34942     34946     34944     34942     34946     34946     34953     34949
     34947     34946     34948     34947     34946     34953     34948     34946     34953
     34949     34952     34954     34950     34949     34951     34950     34949     34952
     34950     34949     34953     34951     34949     34952     34951     34949     34953
     34952     34949     34953     34952     34954     34955     34952     34954     34956
     34952     34954     34957     34954     34957     34958     34954     34957     34959
     34954     34957     34965     34955     34954     34956     34955     34954     34957
     34956     34954     34957     34957     34959     34960     34957     34965     34966
     34957     34965     34967     34957     34965     34968     34958     34957     34959
     34958     34957     34965     34959     34957     34965     34959     34960     34961
     34959     34960     34962     34960     34962     34963     34960     34962     34964
     34960     34962     34974     34961     34960     34962     34962     34974     34975
     34962     34974     34976     34962     34974     34977     34963     34962     34964
     34963     34962     34974     34964     34962     34974     34965     34968     34969
     34966     34965     34967     34966     34965     34968     34967     34965     34968
     34968     34969     34970     34968     34969     34971     34969     34971     34972
     34969     34971     34973     34969     34971     35015     34970     34969     34971
     34971     35015     35016     34971     35015     35017     34971     35015     35018
     34972     34971     34973     34972     34971     35015     34973     34971     35015
     34974     34977     34978     34974     34977     34979     34974     34977     34980
     34975     34974     34976     34975     34974     34977     34976     34974     34977
     34977     34980     34981     34977     34980     34982     34977     34980     34983
     34978     34977     34979     34978     34977     34980     34979     34977     34980
     34980     34983     34984     34980     34983     34985     34980     34983     34986
     34981     34980     34982     34981     34980     34983     34982     34980     34983
     34983     34986     34987     34983     34986     34988     34983     34986     34989
     34984     34983     34985     34984     34983     34986     34985     34983     34986
     34986     34989     34990     34986     34989     34991     34986     34989     34992
     34987     34986     34988     34987     34986     34989     34988     34986     34989
     34989     34992     34993     34989     34992     34994     34990     34989     34991
     34990     34989     34992     34991     34989     34992     34992     34994     34995
     34992     34994     34996     34993     34992     34994     34994     34996     34997
     34994     34996     34998     34994     34996     34999     34995     34994     34996
     34996     34999     35000     34996     34999     35001     34996     34999     35002
     34997     34996     34998     34997     34996     34999     34998     34996     34999
     34999     35002     35003     34999     35002     35004     34999     35002     35005
     35000     34999     35001     35000     34999     35002     35001     34999     35002
     35002     35005     35006     35002     35005     35007     35002     35005     35008
     35003     35002     35004     35003     35002     35005     35004     35002     35005
     35005     35008     35009     35005     35008     35010     35005     35008     35011
     35006     35005     35007     35006     35005     35008     35007     35005     35008
     35008     35011     35012     35008     35011     35013     35008     35011     35014
     35009     35008     35010     35009     35008     35011     35010     35008     35011
     35012     35011     35013     35012     35011     35014     35013     35011     35014
     35015     35018     35019     35015     35018     35020     35015     35018     35021
     35016     35015     35017     35016     35015     35018     35017     35015     35018
     35018     35021     35022     35018     35021     35023     35018     35021     35024
     35019     35018     35020     35019     35018     35021     35020     35018     35021
     35021     35024     35025     35021     35024     35026     35021     35024     35027
     35022     35021     35023     35022     35021     35024     35023     35021     35024
     35024     35027     35028     35024     35027     35029     35024     35027     35030
     35025     35024     35026     35025     35024     35027     35026     35024     35027
     35027     35030     35031     35027     35030     35032     35027     35030     35033
     35028     35027     35029     35028     35027     35030     35029     35027     35030
     35030     35033     35034     35030     35033     35035     35030     35033     35036
     35031     35030     35032     35031     35030     35033     35032     35030     35033
     35033     35036     35037     35033     35036     35038     35033     35036     35039
     35034     35033     35035     35034     35033     35036     35035     35033     35036
     35036     35039     35040     35036     35039     35041     35036     35039     35042
     35037     35036     35038     35037     35036     35039     35038     35036     35039
     35039     35042     35043     35039     35042     35044     35039     35042     35045
     35040     35039     35041     35040     35039     35042     35041     35039     35042
     35042     35045     35046     35042     35045     35047     35042     35045     35048
     35043     35042     35044     35043     35042     35045     35044     35042     35045
     35045     35048     35049     35045     35048     35050     35045     35048     35051
     35046     35045     35047     35046     35045     35048     35047     35045     35048
     35048     35051     35052     35048     35051     35053     35048     35051     35054
     35049     35048     35050     35049     35048     35051     35050     35048     35051
     35051     35054     35055     35051     35054     35056     35051     35054     35057
     35052     35051     35053     35052     35051     35054     35053     35051     35054
     35055     35054     35056     35055     35054     35057     35056     35054     35057
     35058     35062     35063     35058     35062     35064     35058     35062     35065
     35059     35058     35060     35059     35058     35061     35059     35058     35062
     35060     35058     35061     35060     35058     35062     35061     35058     35062
     35062     35065     35066     35062     35065     35067     35062     35065     35072
     35063     35062     35064     35063     35062     35065     35064     35062     35065
     35065     35072     35068     35066     35065     35067     35066     35065     35072
     35067     35065     35072     35068     35071     35073     35069     35068     35070
     35069     35068     35071     35069     35068     35072     35070     35068     35071
     35070     35068     35072     35071     35068     35072     35071     35073     35074
     35071     35073     35075     35071     35073     35076     35073     35076     35077
     35073     35076     35078     35073     35076     35084     35074     35073     35075
     35074     35073     35076     35075     35073     35076     35076     35078     35079
     35076     35084     35085     35076     35084     35086     35076     35084     35087
     35077     35076     35078     35077     35076     35084     35078     35076     35084
     35078     35079     35080     35078     35079     35081     35079     35081     35082
     35079     35081     35083     35079     35081     35093     35080     35079     35081
     35081     35093     35094     35081     35093     35095     35081     35093     35096
     35082     35081     35083     35082     35081     35093     35083     35081     35093
     35084     35087     35088     35085     35084     35086     35085     35084     35087
     35086     35084     35087     35087     35088     35089     35087     35088     35090
     35088     35090     35091     35088     35090     35092     35088     35090     35137
     35089     35088     35090     35090     35137     35138     35090     35137     35139
     35090     35137     35140     35091     35090     35092     35091     35090     35137
     35092     35090     35137     35093     35096     35097     35093     35096     35098
     35093     35096     35099     35094     35093     35095     35094     35093     35096
     35095     35093     35096     35096     35099     35100     35096     35099     35101
     35096     35099     35102     35097     35096     35098     35097     35096     35099
     35098     35096     35099     35099     35102     35103     35099     35102     35104
     35099     35102     35105     35100     35099     35101     35100     35099     35102
     35101     35099     35102     35102     35105     35106     35102     35105     35107
     35102     35105     35108     35103     35102     35104     35103     35102     35105
     35104     35102     35105     35105     35108     35109     35105     35108     35110
     35105     35108     35111     35106     35105     35107     35106     35105     35108
     35107     35105     35108     35108     35111     35112     35108     35111     35113
     35108     35111     35116     35109     35108     35110     35109     35108     35111
     35110     35108     35111     35111     35113     35114     35111     35113     35115
     35111     35113     35116     35111     35116     35113     35111     35116     35117
     35111     35116     35118     35112     35111     35113     35112     35111     35116
     35113     35111     35116     35113     35116     35117     35113     35116     35118
     35114     35113     35115     35114     35113     35116     35115     35113     35116
     35116     35118     35119     35116     35118     35120     35116     35118     35121
     35117     35116     35118     35118     35121     35122     35118     35121     35123
     35118     35121     35124     35119     35118     35120     35119     35118     35121
     35120     35118     35121     35121     35124     35125     35121     35124     35126
     35121     35124     35127     35122     35121     35123     35122     35121     35124
     35123     35121     35124     35124     35127     35128     35124     35127     35129
     35124     35127     35130     35125     35124     35126     35125     35124     35127
     35126     35124     35127     35127     35130     35131     35127     35130     35132
     35127     35130     35133     35128     35127     35129     35128     35127     35130
     35129     35127     35130     35130     35133     35134     35130     35133     35135
     35130     35133     35136     35131     35130     35132     35131     35130     35133
     35132     35130     35133     35134     35133     35135     35134     35133     35136
     35135     35133     35136     35137     35140     35141     35137     35140     35142
     35137     35140     35143     35138     35137     35139     35138     35137     35140
     35139     35137     35140     35140     35143     35144     35140     35143     35145
     35140     35143     35146     35141     35140     35142     35141     35140     35143
     35142     35140     35143     35143     35146     35147     35143     35146     35148
     35143     35146     35149     35144     35143     35145     35144     35143     35146
     35145     35143     35146     35146     35149     35150     35146     35149     35151
     35146     35149     35152     35147     35146     35148     35147     35146     35149
     35148     35146     35149     35149     35152     35153     35149     35152     35154
     35149     35152     35155     35150     35149     35151     35150     35149     35152
     35151     35149     35152     35152     35155     35156     35152     35155     35157
     35152     35155     35158     35153     35152     35154     35153     35152     35155
     35154     35152     35155     35155     35158     35159     35155     35158     35160
     35155     35158     35161     35156     35155     35157     35156     35155     35158
     35157     35155     35158     35158     35161     35162     35158     35161     35163
     35158     35161     35164     35159     35158     35160     35159     35158     35161
     35160     35158     35161     35161     35164     35165     35161     35164     35166
     35161     35164     35167     35162     35161     35163     35162     35161     35164
     35163     35161     35164     35164     35167     35168     35164     35167     35169
     35164     35167     35170     35165     35164     35166     35165     35164     35167
     35166     35164     35167     35167     35170     35171     35167     35170     35172
     35167     35170     35173     35168     35167     35169     35168     35167     35170
     35169     35167     35170     35170     35173     35174     35170     35173     35175
     35170     35173     35176     35171     35170     35172     35171     35170     35173
     35172     35170     35173     35173     35176     35177     35173     35176     35178
     35173     35176     35179     35174     35173     35175     35174     35173     35176
     35175     35173     35176     35177     35176     35178     35177     35176     35179
     35178     35176     35179     35180     35183     35184     35180     35185     35186
     35180     35185     35187     35180     35185     35189     35181     35180     35182
     35181     35180     35183     35181     35180     35185     35182     35180     35183
     35182     35180     35185     35183     35180     35185     35185     35187     35188
     35185     35189     35190     35185     35189     35191     35185     35189     35196
     35186     35185     35187     35186     35185     35189     35187     35185     35189
     35189     35196     35192     35190     35189     35191     35190     35189     35196
     35191     35189     35196     35192     35195     35197     35193     35192     35194
     35193     35192     35195     35193     35192     35196     35194     35192     35195
     35194     35192     35196     35195     35192     35196     35195     35197     35198
     35195     35197     35199     35195     35197     35200     35197     35200     35201
     35197     35200     35202     35197     35200     35208     35198     35197     35199
     35198     35197     35200     35199     35197     35200     35200     35202     35203
     35200     35208     35209     35200     35208     35210     35200     35208     35211
     35201     35200     35202     35201     35200     35208     35202     35200     35208
     35202     35203     35204     35202     35203     35205     35203     35205     35206
     35203     35205     35207     35203     35205     35217     35204     35203     35205
     35205     35217     35218     35205     35217     35219     35205     35217     35220
     35206     35205     35207     35206     35205     35217     35207     35205     35217
     35208     35211     35212     35209     35208     35210     35209     35208     35211
     35210     35208     35211     35211     35212     35213     35211     35212     35214
     35212     35214     35215     35212     35214     35216     35212     35214     35258
     35213     35212     35214     35214     35258     35259     35214     35258     35260
     35214     35258     35261     35215     35214     35216     35215     35214     35258
     35216     35214     35258     35217     35220     35221     35217     35220     35222
     35217     35220     35223     35218     35217     35219     35218     35217     35220
     35219     35217     35220     35220     35223     35224     35220     35223     35225
     35220     35223     35226     35221     35220     35222     35221     35220     35223
     35222     35220     35223     35223     35226     35227     35223     35226     35228
     35223     35226     35229     35224     35223     35225     35224     35223     35226
     35225     35223     35226     35226     35229     35230     35226     35229     35231
     35226     35229     35232     35227     35226     35228     35227     35226     35229
     35228     35226     35229     35229     35232     35233     35229     35232     35234
     35229     35232     35235     35230     35229     35231     35230     35229     35232
     35231     35229     35232     35232     35235     35236     35232     35235     35237
     35233     35232     35234     35233     35232     35235     35234     35232     35235
     35235     35237     35238     35235     35237     35239     35236     35235     35237
     35237     35239     35240     35237     35239     35241     35237     35239     35242
     35238     35237     35239     35239     35242     35243     35239     35242     35244
     35239     35242     35245     35240     35239     35241     35240     35239     35242
     35241     35239     35242     35242     35245     35246     35242     35245     35247
     35242     35245     35248     35243     35242     35244     35243     35242     35245
     35244     35242     35245     35245     35248     35249     35245     35248     35250
     35245     35248     35251     35246     35245     35247     35246     35245     35248
     35247     35245     35248     35248     35251     35252     35248     35251     35253
     35248     35251     35254     35249     35248     35250     35249     35248     35251
     35250     35248     35251     35251     35254     35255     35251     35254     35256
     35251     35254     35257     35252     35251     35253     35252     35251     35254
     35253     35251     35254     35255     35254     35256     35255     35254     35257
     35256     35254     35257     35258     35261     35262     35258     35261     35263
     35258     35261     35264     35259     35258     35260     35259     35258     35261
     35260     35258     35261     35261     35264     35265     35261     35264     35266
     35261     35264     35267     35262     35261     35263     35262     35261     35264
     35263     35261     35264     35264     35267     35268     35264     35267     35269
     35264     35267     35270     35265     35264     35266     35265     35264     35267
     35266     35264     35267     35267     35270     35271     35267     35270     35272
     35267     35270     35273     35268     35267     35269     35268     35267     35270
     35269     35267     35270     35270     35273     35274     35270     35273     35275
     35270     35273     35276     35271     35270     35272     35271     35270     35273
     35272     35270     35273     35273     35276     35277     35273     35276     35278
     35273     35276     35279     35274     35273     35275     35274     35273     35276
     35275     35273     35276     35276     35279     35280     35276     35279     35281
     35276     35279     35282     35277     35276     35278     35277     35276     35279
     35278     35276     35279     35279     35282     35283     35279     35282     35284
     35279     35282     35285     35280     35279     35281     35280     35279     35282
     35281     35279     35282     35282     35285     35286     35282     35285     35287
     35282     35285     35288     35283     35282     35284     35283     35282     35285
     35284     35282     35285     35285     35288     35289     35285     35288     35290
     35285     35288     35291     35286     35285     35287     35286     35285     35288
     35287     35285     35288     35288     35291     35292     35288     35291     35293
     35288     35291     35294     35289     35288     35290     35289     35288     35291
     35290     35288     35291     35291     35294     35295     35291     35294     35296
     35291     35294     35297     35292     35291     35293     35292     35291     35294
     35293     35291     35294     35294     35297     35298     35294     35297     35299
     35294     35297     35300     35295     35294     35296     35295     35294     35297
     35296     35294     35297     35298     35297     35299     35298     35297     35300
     35299     35297     35300     35301     35307     35304     35301     35312     35313
     35301     35312     35314     35301     35312     35316     35302     35301     35303
     35302     35301     35307     35302     35301     35312     35303     35301     35307
     35303     35301     35312     35304     35308     35309     35305     35304     35306
     35305     35304     35307     35305     35304     35308     35306     35304     35307
     35306     35304     35308     35307     35301     35312     35307     35304     35308
     35308     35309     35310     35308     35309     35311     35308     35309     35344
     35309     35344     35345     35309     35344     35346     35309     35344     35352
     35310     35309     35311     35310     35309     35344     35311     35309     35344
     35312     35314     35315     35312     35316     35317     35312     35316     35318
     35312     35316     35322     35313     35312     35314     35313     35312     35316
     35314     35312     35316     35316     35322     35319     35317     35316     35318
     35317     35316     35322     35318     35316     35322     35319     35323     35324
     35320     35319     35321     35320     35319     35322     35320     35319     35323
     35321     35319     35322     35321     35319     35323     35322     35319     35323
     35323     35324     35325     35323     35324     35326     35323     35324     35327
     35324     35327     35328     35324     35327     35329     35324     35327     35335
     35325     35324     35326     35325     35324     35327     35326     35324     35327
     35327     35329     35330     35327     35335     35336     35327     35335     35337
     35327     35335     35338     35328     35327     35329     35328     35327     35335
     35329     35327     35335     35329     35330     35331     35329     35330     35332
     35330     35332     35333     35330     35332     35334     35330     35332     35361
     35331     35330     35332     35332     35361     35362     35332     35361     35363
     35332     35361     35364     35333     35332     35334     35333     35332     35361
     35334     35332     35361     35335     35338     35339     35336     35335     35337
     35336     35335     35338     35337     35335     35338     35338     35339     35340
     35338     35339     35341     35339     35341     35342     35339     35341     35343
     35339     35341     35408     35340     35339     35341     35341     35408     35409
     35341     35408     35410     35341     35408     35411     35342     35341     35343
     35342     35341     35408     35343     35341     35408     35344     35346     35347
     35344     35352     35353     35344     35352     35354     35344     35352     35355
     35345     35344     35346     35345     35344     35352     35346     35344     35352
     35346     35347     35348     35346     35347     35349     35347     35349     35350
     35347     35349     35351     35347     35349     35451     35348     35347     35349
     35349     35451     35452     35349     35451     35453     35349     35451     35454
     35350     35349     35351     35350     35349     35451     35351     35349     35451
     35352     35355     35356     35353     35352     35354     35353     35352     35355
     35354     35352     35355     35355     35356     35357     35355     35356     35358
     35356     35358     35359     35356     35358     35360     35356     35358     35498
     35357     35356     35358     35358     35498     35499     35358     35498     35500
     35358     35498     35501     35359     35358     35360     35359     35358     35498
     35360     35358     35498     35361     35364     35365     35361     35364     35366
     35361     35364     35367     35362     35361     35363     35362     35361     35364
     35363     35361     35364     35364     35367     35368     35364     35367     35369
     35364     35367     35370     35365     35364     35366     35365     35364     35367
     35366     35364     35367     35367     35370     35371     35367     35370     35372
     35367     35370     35373     35368     35367     35369     35368     35367     35370
     35369     35367     35370     35370     35373     35374     35370     35373     35375
     35370     35373     35376     35371     35370     35372     35371     35370     35373
     35372     35370     35373     35373     35376     35377     35373     35376     35378
     35373     35376     35379     35374     35373     35375     35374     35373     35376
     35375     35373     35376     35376     35379     35380     35376     35379     35381
     35376     35379     35382     35377     35376     35378     35377     35376     35379
     35378     35376     35379     35379     35382     35383     35379     35382     35384
     35379     35382     35385     35380     35379     35381     35380     35379     35382
     35381     35379     35382     35382     35385     35386     35382     35385     35387
     35383     35382     35384     35383     35382     35385     35384     35382     35385
     35385     35387     35388     35385     35387     35389     35386     35385     35387
     35387     35389     35390     35387     35389     35391     35387     35389     35392
     35388     35387     35389     35389     35392     35393     35389     35392     35394
     35389     35392     35395     35390     35389     35391     35390     35389     35392
     35391     35389     35392     35392     35395     35396     35392     35395     35397
     35392     35395     35398     35393     35392     35394     35393     35392     35395
     35394     35392     35395     35395     35398     35399     35395     35398     35400
     35395     35398     35401     35396     35395     35397     35396     35395     35398
     35397     35395     35398     35398     35401     35402     35398     35401     35403
     35398     35401     35404     35399     35398     35400     35399     35398     35401
     35400     35398     35401     35401     35404     35405     35401     35404     35406
     35401     35404     35407     35402     35401     35403     35402     35401     35404
     35403     35401     35404     35405     35404     35406     35405     35404     35407
     35406     35404     35407     35408     35411     35412     35408     35411     35413
     35408     35411     35414     35409     35408     35410     35409     35408     35411
     35410     35408     35411     35411     35414     35415     35411     35414     35416
     35411     35414     35417     35412     35411     35413     35412     35411     35414
     35413     35411     35414     35414     35417     35418     35414     35417     35419
     35414     35417     35420     35415     35414     35416     35415     35414     35417
     35416     35414     35417     35417     35420     35421     35417     35420     35422
     35417     35420     35423     35418     35417     35419     35418     35417     35420
     35419     35417     35420     35420     35423     35424     35420     35423     35425
     35420     35423     35426     35421     35420     35422     35421     35420     35423
     35422     35420     35423     35423     35426     35427     35423     35426     35428
     35423     35426     35429     35424     35423     35425     35424     35423     35426
     35425     35423     35426     35426     35429     35430     35426     35429     35431
     35426     35429     35432     35427     35426     35428     35427     35426     35429
     35428     35426     35429     35429     35432     35433     35429     35432     35434
     35429     35432     35435     35430     35429     35431     35430     35429     35432
     35431     35429     35432     35432     35435     35436     35432     35435     35437
     35432     35435     35438     35433     35432     35434     35433     35432     35435
     35434     35432     35435     35435     35438     35439     35435     35438     35440
     35435     35438     35441     35436     35435     35437     35436     35435     35438
     35437     35435     35438     35438     35441     35442     35438     35441     35443
     35438     35441     35444     35439     35438     35440     35439     35438     35441
     35440     35438     35441     35441     35444     35445     35441     35444     35446
     35441     35444     35447     35442     35441     35443     35442     35441     35444
     35443     35441     35444     35444     35447     35448     35444     35447     35449
     35444     35447     35450     35445     35444     35446     35445     35444     35447
     35446     35444     35447     35448     35447     35449     35448     35447     35450
     35449     35447     35450     35451     35454     35455     35451     35454     35456
     35451     35454     35457     35452     35451     35453     35452     35451     35454
     35453     35451     35454     35454     35457     35458     35454     35457     35459
     35454     35457     35460     35455     35454     35456     35455     35454     35457
     35456     35454     35457     35457     35460     35461     35457     35460     35462
     35457     35460     35463     35458     35457     35459     35458     35457     35460
     35459     35457     35460     35460     35463     35464     35460     35463     35465
     35460     35463     35466     35461     35460     35462     35461     35460     35463
     35462     35460     35463     35463     35466     35467     35463     35466     35468
     35463     35466     35469     35464     35463     35465     35464     35463     35466
     35465     35463     35466     35466     35469     35470     35466     35469     35471
     35466     35469     35472     35467     35466     35468     35467     35466     35469
     35468     35466     35469     35469     35472     35473     35469     35472     35474
     35469     35472     35475     35470     35469     35471     35470     35469     35472
     35471     35469     35472     35472     35475     35476     35472     35475     35477
     35473     35472     35474     35473     35472     35475     35474     35472     35475
     35475     35477     35478     35475     35477     35479     35476     35475     35477
     35477     35479     35480     35477     35479     35481     35477     35479     35482
     35478     35477     35479     35479     35482     35483     35479     35482     35484
     35479     35482     35485     35480     35479     35481     35480     35479     35482
     35481     35479     35482     35482     35485     35486     35482     35485     35487
     35482     35485     35488     35483     35482     35484     35483     35482     35485
     35484     35482     35485     35485     35488     35489     35485     35488     35490
     35485     35488     35491     35486     35485     35487     35486     35485     35488
     35487     35485     35488     35488     35491     35492     35488     35491     35493
     35488     35491     35494     35489     35488     35490     35489     35488     35491
     35490     35488     35491     35491     35494     35495     35491     35494     35496
     35491     35494     35497     35492     35491     35493     35492     35491     35494
     35493     35491     35494     35495     35494     35496     35495     35494     35497
     35496     35494     35497     35498     35501     35502     35498     35501     35503
     35498     35501     35504     35499     35498     35500     35499     35498     35501
     35500     35498     35501     35501     35504     35505     35501     35504     35506
     35501     35504     35507     35502     35501     35503     35502     35501     35504
     35503     35501     35504     35504     35507     35508     35504     35507     35509
     35504     35507     35510     35505     35504     35506     35505     35504     35507
     35506     35504     35507     35507     35510     35511     35507     35510     35512
     35507     35510     35513     35508     35507     35509     35508     35507     35510
     35509     35507     35510     35510     35513     35514     35510     35513     35515
     35510     35513     35516     35511     35510     35512     35511     35510     35513
     35512     35510     35513     35513     35516     35517     35513     35516     35518
     35513     35516     35519     35514     35513     35515     35514     35513     35516
     35515     35513     35516     35516     35519     35520     35516     35519     35521
     35516     35519     35522     35517     35516     35518     35517     35516     35519
     35518     35516     35519     35519     35522     35523     35519     35522     35524
     35519     35522     35525     35520     35519     35521     35520     35519     35522
     35521     35519     35522     35522     35525     35526     35522     35525     35527
     35522     35525     35528     35523     35522     35524     35523     35522     35525
     35524     35522     35525     35525     35528     35529     35525     35528     35530
     35525     35528     35531     35526     35525     35527     35526     35525     35528
     35527     35525     35528     35528     35531     35532     35528     35531     35533
     35528     35531     35534     35529     35528     35530     35529     35528     35531
     35530     35528     35531     35531     35534     35535     35531     35534     35536
     35531     35534     35537     35532     35531     35533     35532     35531     35534
     35533     35531     35534     35534     35537     35538     35534     35537     35539
     35534     35537     35540     35535     35534     35536     35535     35534     35537
     35536     35534     35537     35538     35537     35539     35538     35537     35540
     35539     35537     35540     35541     35545     35546     35541     35545     35547
     35541     35545     35548     35542     35541     35543     35542     35541     35544
     35542     35541     35545     35543     35541     35544     35543     35541     35545
     35544     35541     35545     35545     35548     35549     35545     35548     35550
     35545     35548     35555     35546     35545     35547     35546     35545     35548
     35547     35545     35548     35548     35555     35551     35549     35548     35550
     35549     35548     35555     35550     35548     35555     35551     35554     35556
     35552     35551     35553     35552     35551     35554     35552     35551     35555
     35553     35551     35554     35553     35551     35555     35554     35551     35555
     35554     35556     35557     35554     35556     35558     35554     35556     35559
     35556     35559     35560     35556     35559     35561     35556     35559     35567
     35557     35556     35558     35557     35556     35559     35558     35556     35559
     35559     35561     35562     35559     35567     35568     35559     35567     35569
     35559     35567     35570     35560     35559     35561     35560     35559     35567
     35561     35559     35567     35561     35562     35563     35561     35562     35564
     35562     35564     35565     35562     35564     35566     35562     35564     35576
     35563     35562     35564     35564     35576     35577     35564     35576     35578
     35564     35576     35579     35565     35564     35566     35565     35564     35576
     35566     35564     35576     35567     35570     35571     35568     35567     35569
     35568     35567     35570     35569     35567     35570     35570     35571     35572
     35570     35571     35573     35571     35573     35574     35571     35573     35575
     35571     35573     35620     35572     35571     35573     35573     35620     35621
     35573     35620     35622     35573     35620     35623     35574     35573     35575
     35574     35573     35620     35575     35573     35620     35576     35579     35580
     35576     35579     35581     35576     35579     35582     35577     35576     35578
     35577     35576     35579     35578     35576     35579     35579     35582     35583
     35579     35582     35584     35579     35582     35585     35580     35579     35581
     35580     35579     35582     35581     35579     35582     35582     35585     35586
     35582     35585     35587     35582     35585     35588     35583     35582     35584
     35583     35582     35585     35584     35582     35585     35585     35588     35589
     35585     35588     35590     35585     35588     35591     35586     35585     35587
     35586     35585     35588     35587     35585     35588     35588     35591     35592
     35588     35591     35593     35588     35591     35594     35589     35588     35590
     35589     35588     35591     35590     35588     35591     35591     35594     35595
     35591     35594     35596     35591     35594     35599     35592     35591     35593
     35592     35591     35594     35593     35591     35594     35594     35596     35597
     35594     35596     35598     35594     35596     35599     35594     35599     35596
     35594     35599     35600     35594     35599     35601     35595     35594     35596
     35595     35594     35599     35596     35594     35599     35596     35599     35600
     35596     35599     35601     35597     35596     35598     35597     35596     35599
     35598     35596     35599     35599     35601     35602     35599     35601     35603
     35599     35601     35604     35600     35599     35601     35601     35604     35605
     35601     35604     35606     35601     35604     35607     35602     35601     35603
     35602     35601     35604     35603     35601     35604     35604     35607     35608
     35604     35607     35609     35604     35607     35610     35605     35604     35606
     35605     35604     35607     35606     35604     35607     35607     35610     35611
     35607     35610     35612     35607     35610     35613     35608     35607     35609
     35608     35607     35610     35609     35607     35610     35610     35613     35614
     35610     35613     35615     35610     35613     35616     35611     35610     35612
     35611     35610     35613     35612     35610     35613     35613     35616     35617
     35613     35616     35618     35613     35616     35619     35614     35613     35615
     35614     35613     35616     35615     35613     35616     35617     35616     35618
     35617     35616     35619     35618     35616     35619     35620     35623     35624
     35620     35623     35625     35620     35623     35626     35621     35620     35622
     35621     35620     35623     35622     35620     35623     35623     35626     35627
     35623     35626     35628     35623     35626     35629     35624     35623     35625
     35624     35623     35626     35625     35623     35626     35626     35629     35630
     35626     35629     35631     35626     35629     35632     35627     35626     35628
     35627     35626     35629     35628     35626     35629     35629     35632     35633
     35629     35632     35634     35629     35632     35635     35630     35629     35631
     35630     35629     35632     35631     35629     35632     35632     35635     35636
     35632     35635     35637     35632     35635     35638     35633     35632     35634
     35633     35632     35635     35634     35632     35635     35635     35638     35639
     35635     35638     35640     35635     35638     35641     35636     35635     35637
     35636     35635     35638     35637     35635     35638     35638     35641     35642
     35638     35641     35643     35638     35641     35644     35639     35638     35640
     35639     35638     35641     35640     35638     35641     35641     35644     35645
     35641     35644     35646     35641     35644     35647     35642     35641     35643
     35642     35641     35644     35643     35641     35644     35644     35647     35648
     35644     35647     35649     35644     35647     35650     35645     35644     35646
     35645     35644     35647     35646     35644     35647     35647     35650     35651
     35647     35650     35652     35647     35650     35653     35648     35647     35649
     35648     35647     35650     35649     35647     35650     35650     35653     35654
     35650     35653     35655     35650     35653     35656     35651     35650     35652
     35651     35650     35653     35652     35650     35653     35653     35656     35657
     35653     35656     35658     35653     35656     35659     35654     35653     35655
     35654     35653     35656     35655     35653     35656     35656     35659     35660
     35656     35659     35661     35656     35659     35662     35657     35656     35658
     35657     35656     35659     35658     35656     35659     35660     35659     35661
     35660     35659     35662     35661     35659     35662     35663     35667     35668
     35663     35667     35669     35663     35667     35670     35664     35663     35665
     35664     35663     35666     35664     35663     35667     35665     35663     35666
     35665     35663     35667     35666     35663     35667     35667     35670     35671
     35667     35670     35672     35667     35670     35677     35668     35667     35669
     35668     35667     35670     35669     35667     35670     35670     35677     35673
     35671     35670     35672     35671     35670     35677     35672     35670     35677
     35673     35676     35678     35674     35673     35675     35674     35673     35676
     35674     35673     35677     35675     35673     35676     35675     35673     35677
     35676     35673     35677     35676     35678     35679     35676     35678     35680
     35676     35678     35681     35678     35681     35682     35678     35681     35683
     35678     35681     35689     35679     35678     35680     35679     35678     35681
     35680     35678     35681     35681     35683     35684     35681     35689     35690
     35681     35689     35691     35681     35689     35692     35682     35681     35683
     35682     35681     35689     35683     35681     35689     35683     35684     35685
     35683     35684     35686     35684     35686     35687     35684     35686     35688
     35684     35686     35698     35685     35684     35686     35686     35698     35699
     35686     35698     35700     35686     35698     35701     35687     35686     35688
     35687     35686     35698     35688     35686     35698     35689     35692     35693
     35690     35689     35691     35690     35689     35692     35691     35689     35692
     35692     35693     35694     35692     35693     35695     35693     35695     35696
     35693     35695     35697     35693     35695     35742     35694     35693     35695
     35695     35742     35743     35695     35742     35744     35695     35742     35745
     35696     35695     35697     35696     35695     35742     35697     35695     35742
     35698     35701     35702     35698     35701     35703     35698     35701     35704
     35699     35698     35700     35699     35698     35701     35700     35698     35701
     35701     35704     35705     35701     35704     35706     35701     35704     35707
     35702     35701     35703     35702     35701     35704     35703     35701     35704
     35704     35707     35708     35704     35707     35709     35704     35707     35710
     35705     35704     35706     35705     35704     35707     35706     35704     35707
     35707     35710     35711     35707     35710     35712     35707     35710     35713
     35708     35707     35709     35708     35707     35710     35709     35707     35710
     35710     35713     35714     35710     35713     35715     35710     35713     35716
     35711     35710     35712     35711     35710     35713     35712     35710     35713
     35713     35716     35717     35713     35716     35718     35713     35716     35721
     35714     35713     35715     35714     35713     35716     35715     35713     35716
     35716     35718     35719     35716     35718     35720     35716     35718     35721
     35716     35721     35718     35716     35721     35722     35716     35721     35723
     35717     35716     35718     35717     35716     35721     35718     35716     35721
     35718     35721     35722     35718     35721     35723     35719     35718     35720
     35719     35718     35721     35720     35718     35721     35721     35723     35724
     35721     35723     35725     35721     35723     35726     35722     35721     35723
     35723     35726     35727     35723     35726     35728     35723     35726     35729
     35724     35723     35725     35724     35723     35726     35725     35723     35726
     35726     35729     35730     35726     35729     35731     35726     35729     35732
     35727     35726     35728     35727     35726     35729     35728     35726     35729
     35729     35732     35733     35729     35732     35734     35729     35732     35735
     35730     35729     35731     35730     35729     35732     35731     35729     35732
     35732     35735     35736     35732     35735     35737     35732     35735     35738
     35733     35732     35734     35733     35732     35735     35734     35732     35735
     35735     35738     35739     35735     35738     35740     35735     35738     35741
     35736     35735     35737     35736     35735     35738     35737     35735     35738
     35739     35738     35740     35739     35738     35741     35740     35738     35741
     35742     35745     35746     35742     35745     35747     35742     35745     35748
     35743     35742     35744     35743     35742     35745     35744     35742     35745
     35745     35748     35749     35745     35748     35750     35745     35748     35751
     35746     35745     35747     35746     35745     35748     35747     35745     35748
     35748     35751     35752     35748     35751     35753     35748     35751     35754
     35749     35748     35750     35749     35748     35751     35750     35748     35751
     35751     35754     35755     35751     35754     35756     35751     35754     35757
     35752     35751     35753     35752     35751     35754     35753     35751     35754
     35754     35757     35758     35754     35757     35759     35754     35757     35760
     35755     35754     35756     35755     35754     35757     35756     35754     35757
     35757     35760     35761     35757     35760     35762     35757     35760     35763
     35758     35757     35759     35758     35757     35760     35759     35757     35760
     35760     35763     35764     35760     35763     35765     35760     35763     35766
     35761     35760     35762     35761     35760     35763     35762     35760     35763
     35763     35766     35767     35763     35766     35768     35763     35766     35769
     35764     35763     35765     35764     35763     35766     35765     35763     35766
     35766     35769     35770     35766     35769     35771     35766     35769     35772
     35767     35766     35768     35767     35766     35769     35768     35766     35769
     35769     35772     35773     35769     35772     35774     35769     35772     35775
     35770     35769     35771     35770     35769     35772     35771     35769     35772
     35772     35775     35776     35772     35775     35777     35772     35775     35778
     35773     35772     35774     35773     35772     35775     35774     35772     35775
     35775     35778     35779     35775     35778     35780     35775     35778     35781
     35776     35775     35777     35776     35775     35778     35777     35775     35778
     35778     35781     35782     35778     35781     35783     35778     35781     35784
     35779     35778     35780     35779     35778     35781     35780     35778     35781
     35782     35781     35783     35782     35781     35784     35783     35781     35784
     35785     35789     35790     35785     35789     35791     35785     35789     35792
     35786     35785     35787     35786     35785     35788     35786     35785     35789
     35787     35785     35788     35787     35785     35789     35788     35785     35789
     35789     35792     35793     35789     35792     35794     35789     35792     35799
     35790     35789     35791     35790     35789     35792     35791     35789     35792
     35792     35799     35795     35793     35792     35794     35793     35792     35799
     35794     35792     35799     35795     35798     35800     35796     35795     35797
     35796     35795     35798     35796     35795     35799     35797     35795     35798
     35797     35795     35799     35798     35795     35799     35798     35800     35801
     35798     35800     35802     35798     35800     35803     35800     35803     35804
     35800     35803     35805     35800     35803     35811     35801     35800     35802
     35801     35800     35803     35802     35800     35803     35803     35805     35806
     35803     35811     35812     35803     35811     35813     35803     35811     35814
     35804     35803     35805     35804     35803     35811     35805     35803     35811
     35805     35806     35807     35805     35806     35808     35806     35808     35809
     35806     35808     35810     35806     35808     35820     35807     35806     35808
     35808     35820     35821     35808     35820     35822     35808     35820     35823
     35809     35808     35810     35809     35808     35820     35810     35808     35820
     35811     35814     35815     35812     35811     35813     35812     35811     35814
     35813     35811     35814     35814     35815     35816     35814     35815     35817
     35815     35817     35818     35815     35817     35819     35815     35817     35864
     35816     35815     35817     35817     35864     35865     35817     35864     35866
     35817     35864     35867     35818     35817     35819     35818     35817     35864
     35819     35817     35864     35820     35823     35824     35820     35823     35825
     35820     35823     35826     35821     35820     35822     35821     35820     35823
     35822     35820     35823     35823     35826     35827     35823     35826     35828
     35823     35826     35829     35824     35823     35825     35824     35823     35826
     35825     35823     35826     35826     35829     35830     35826     35829     35831
     35826     35829     35832     35827     35826     35828     35827     35826     35829
     35828     35826     35829     35829     35832     35833     35829     35832     35834
     35829     35832     35835     35830     35829     35831     35830     35829     35832
     35831     35829     35832     35832     35835     35836     35832     35835     35837
     35832     35835     35838     35833     35832     35834     35833     35832     35835
     35834     35832     35835     35835     35838     35839     35835     35838     35840
     35835     35838     35843     35836     35835     35837     35836     35835     35838
     35837     35835     35838     35838     35840     35841     35838     35840     35842
     35838     35840     35843     35838     35843     35840     35838     35843     35844
     35838     35843     35845     35839     35838     35840     35839     35838     35843
     35840     35838     35843     35840     35843     35844     35840     35843     35845
     35841     35840     35842     35841     35840     35843     35842     35840     35843
     35843     35845     35846     35843     35845     35847     35843     35845     35848
     35844     35843     35845     35845     35848     35849     35845     35848     35850
     35845     35848     35851     35846     35845     35847     35846     35845     35848
     35847     35845     35848     35848     35851     35852     35848     35851     35853
     35848     35851     35854     35849     35848     35850     35849     35848     35851
     35850     35848     35851     35851     35854     35855     35851     35854     35856
     35851     35854     35857     35852     35851     35853     35852     35851     35854
     35853     35851     35854     35854     35857     35858     35854     35857     35859
     35854     35857     35860     35855     35854     35856     35855     35854     35857
     35856     35854     35857     35857     35860     35861     35857     35860     35862
     35857     35860     35863     35858     35857     35859     35858     35857     35860
     35859     35857     35860     35861     35860     35862     35861     35860     35863
     35862     35860     35863     35864     35867     35868     35864     35867     35869
     35864     35867     35870     35865     35864     35866     35865     35864     35867
     35866     35864     35867     35867     35870     35871     35867     35870     35872
     35867     35870     35873     35868     35867     35869     35868     35867     35870
     35869     35867     35870     35870     35873     35874     35870     35873     35875
     35870     35873     35876     35871     35870     35872     35871     35870     35873
     35872     35870     35873     35873     35876     35877     35873     35876     35878
     35873     35876     35879     35874     35873     35875     35874     35873     35876
     35875     35873     35876     35876     35879     35880     35876     35879     35881
     35876     35879     35882     35877     35876     35878     35877     35876     35879
     35878     35876     35879     35879     35882     35883     35879     35882     35884
     35879     35882     35885     35880     35879     35881     35880     35879     35882
     35881     35879     35882     35882     35885     35886     35882     35885     35887
     35882     35885     35888     35883     35882     35884     35883     35882     35885
     35884     35882     35885     35885     35888     35889     35885     35888     35890
     35885     35888     35891     35886     35885     35887     35886     35885     35888
     35887     35885     35888     35888     35891     35892     35888     35891     35893
     35888     35891     35894     35889     35888     35890     35889     35888     35891
     35890     35888     35891     35891     35894     35895     35891     35894     35896
     35891     35894     35897     35892     35891     35893     35892     35891     35894
     35893     35891     35894     35894     35897     35898     35894     35897     35899
     35894     35897     35900     35895     35894     35896     35895     35894     35897
     35896     35894     35897     35897     35900     35901     35897     35900     35902
     35897     35900     35903     35898     35897     35899     35898     35897     35900
     35899     35897     35900     35900     35903     35904     35900     35903     35905
     35900     35903     35906     35901     35900     35902     35901     35900     35903
     35902     35900     35903     35904     35903     35905     35904     35903     35906
     35905     35903     35906     35907     35910     35911     35907     35912     35913
     35907     35912     35914     35907     35912     35916     35908     35907     35909
     35908     35907     35910     35908     35907     35912     35909     35907     35910
     35909     35907     35912     35910     35907     35912     35912     35914     35915
     35912     35916     35917     35912     35916     35918     35912     35916     35923
     35913     35912     35914     35913     35912     35916     35914     35912     35916
     35916     35923     35919     35917     35916     35918     35917     35916     35923
     35918     35916     35923     35919     35922     35924     35920     35919     35921
     35920     35919     35922     35920     35919     35923     35921     35919     35922
     35921     35919     35923     35922     35919     35923     35922     35924     35925
     35922     35924     35926     35922     35924     35927     35924     35927     35928
     35924     35927     35929     35924     35927     35935     35925     35924     35926
     35925     35924     35927     35926     35924     35927     35927     35929     35930
     35927     35935     35936     35927     35935     35937     35927     35935     35938
     35928     35927     35929     35928     35927     35935     35929     35927     35935
     35929     35930     35931     35929     35930     35932     35930     35932     35933
     35930     35932     35934     35930     35932     35944     35931     35930     35932
     35932     35944     35945     35932     35944     35946     35932     35944     35947
     35933     35932     35934     35933     35932     35944     35934     35932     35944
     35935     35938     35939     35936     35935     35937     35936     35935     35938
     35937     35935     35938     35938     35939     35940     35938     35939     35941
     35939     35941     35942     35939     35941     35943     35939     35941     35985
     35940     35939     35941     35941     35985     35986     35941     35985     35987
     35941     35985     35988     35942     35941     35943     35942     35941     35985
     35943     35941     35985     35944     35947     35948     35944     35947     35949
     35944     35947     35950     35945     35944     35946     35945     35944     35947
     35946     35944     35947     35947     35950     35951     35947     35950     35952
     35947     35950     35953     35948     35947     35949     35948     35947     35950
     35949     35947     35950     35950     35953     35954     35950     35953     35955
     35950     35953     35956     35951     35950     35952     35951     35950     35953
     35952     35950     35953     35953     35956     35957     35953     35956     35958
     35953     35956     35959     35954     35953     35955     35954     35953     35956
     35955     35953     35956     35956     35959     35960     35956     35959     35961
     35956     35959     35962     35957     35956     35958     35957     35956     35959
     35958     35956     35959     35959     35962     35963     35959     35962     35964
     35960     35959     35961     35960     35959     35962     35961     35959     35962
     35962     35964     35965     35962     35964     35966     35963     35962     35964
     35964     35966     35967     35964     35966     35968     35964     35966     35969
     35965     35964     35966     35966     35969     35970     35966     35969     35971
     35966     35969     35972     35967     35966     35968     35967     35966     35969
     35968     35966     35969     35969     35972     35973     35969     35972     35974
     35969     35972     35975     35970     35969     35971     35970     35969     35972
     35971     35969     35972     35972     35975     35976     35972     35975     35977
     35972     35975     35978     35973     35972     35974     35973     35972     35975
     35974     35972     35975     35975     35978     35979     35975     35978     35980
     35975     35978     35981     35976     35975     35977     35976     35975     35978
     35977     35975     35978     35978     35981     35982     35978     35981     35983
     35978     35981     35984     35979     35978     35980     35979     35978     35981
     35980     35978     35981     35982     35981     35983     35982     35981     35984
     35983     35981     35984     35985     35988     35989     35985     35988     35990
     35985     35988     35991     35986     35985     35987     35986     35985     35988
     35987     35985     35988     35988     35991     35992     35988     35991     35993
     35988     35991     35994     35989     35988     35990     35989     35988     35991
     35990     35988     35991     35991     35994     35995     35991     35994     35996
     35991     35994     35997     35992     35991     35993     35992     35991     35994
     35993     35991     35994     35994     35997     35998     35994     35997     35999
     35994     35997     36000     35995     35994     35996     35995     35994     35997
     35996     35994     35997     35997     36000     36001     35997     36000     36002
     35997     36000     36003     35998     35997     35999     35998     35997     36000
     35999     35997     36000     36000     36003     36004     36000     36003     36005
     36000     36003     36006     36001     36000     36002     36001     36000     36003
     36002     36000     36003     36003     36006     36007     36003     36006     36008
     36003     36006     36009     36004     36003     36005     36004     36003     36006
     36005     36003     36006     36006     36009     36010     36006     36009     36011
     36006     36009     36012     36007     36006     36008     36007     36006     36009
     36008     36006     36009     36009     36012     36013     36009     36012     36014
     36009     36012     36015     36010     36009     36011     36010     36009     36012
     36011     36009     36012     36012     36015     36016     36012     36015     36017
     36012     36015     36018     36013     36012     36014     36013     36012     36015
     36014     36012     36015     36015     36018     36019     36015     36018     36020
     36015     36018     36021     36016     36015     36017     36016     36015     36018
     36017     36015     36018     36018     36021     36022     36018     36021     36023
     36018     36021     36024     36019     36018     36020     36019     36018     36021
     36020     36018     36021     36021     36024     36025     36021     36024     36026
     36021     36024     36027     36022     36021     36023     36022     36021     36024
     36023     36021     36024     36025     36024     36026     36025     36024     36027
     36026     36024     36027     36028     36032     36033     36028     36032     36034
     36028     36032     36035     36029     36028     36030     36029     36028     36031
     36029     36028     36032     36030     36028     36031     36030     36028     36032
     36031     36028     36032     36032     36035     36036     36032     36035     36037
     36032     36035     36042     36033     36032     36034     36033     36032     36035
     36034     36032     36035     36035     36042     36038     36036     36035     36037
     36036     36035     36042     36037     36035     36042     36038     36041     36043
     36039     36038     36040     36039     36038     36041     36039     36038     36042
     36040     36038     36041     36040     36038     36042     36041     36038     36042
     36041     36043     36044     36041     36043     36045     36041     36043     36046
     36043     36046     36047     36043     36046     36048     36043     36046     36054
     36044     36043     36045     36044     36043     36046     36045     36043     36046
     36046     36048     36049     36046     36054     36055     36046     36054     36056
     36046     36054     36057     36047     36046     36048     36047     36046     36054
     36048     36046     36054     36048     36049     36050     36048     36049     36051
     36049     36051     36052     36049     36051     36053     36049     36051     36063
     36050     36049     36051     36051     36063     36064     36051     36063     36065
     36051     36063     36066     36052     36051     36053     36052     36051     36063
     36053     36051     36063     36054     36057     36058     36055     36054     36056
     36055     36054     36057     36056     36054     36057     36057     36058     36059
     36057     36058     36060     36058     36060     36061     36058     36060     36062
     36058     36060     36104     36059     36058     36060     36060     36104     36105
     36060     36104     36106     36060     36104     36107     36061     36060     36062
     36061     36060     36104     36062     36060     36104     36063     36066     36067
     36063     36066     36068     36063     36066     36069     36064     36063     36065
     36064     36063     36066     36065     36063     36066     36066     36069     36070
     36066     36069     36071     36066     36069     36072     36067     36066     36068
     36067     36066     36069     36068     36066     36069     36069     36072     36073
     36069     36072     36074     36069     36072     36075     36070     36069     36071
     36070     36069     36072     36071     36069     36072     36072     36075     36076
     36072     36075     36077     36072     36075     36078     36073     36072     36074
     36073     36072     36075     36074     36072     36075     36075     36078     36079
     36075     36078     36080     36075     36078     36081     36076     36075     36077
     36076     36075     36078     36077     36075     36078     36078     36081     36082
     36078     36081     36083     36079     36078     36080     36079     36078     36081
     36080     36078     36081     36081     36083     36084     36081     36083     36085
     36082     36081     36083     36083     36085     36086     36083     36085     36087
     36083     36085     36088     36084     36083     36085     36085     36088     36089
     36085     36088     36090     36085     36088     36091     36086     36085     36087
     36086     36085     36088     36087     36085     36088     36088     36091     36092
     36088     36091     36093     36088     36091     36094     36089     36088     36090
     36089     36088     36091     36090     36088     36091     36091     36094     36095
     36091     36094     36096     36091     36094     36097     36092     36091     36093
     36092     36091     36094     36093     36091     36094     36094     36097     36098
     36094     36097     36099     36094     36097     36100     36095     36094     36096
     36095     36094     36097     36096     36094     36097     36097     36100     36101
     36097     36100     36102     36097     36100     36103     36098     36097     36099
     36098     36097     36100     36099     36097     36100     36101     36100     36102
     36101     36100     36103     36102     36100     36103     36104     36107     36108
     36104     36107     36109     36104     36107     36110     36105     36104     36106
     36105     36104     36107     36106     36104     36107     36107     36110     36111
     36107     36110     36112     36107     36110     36113     36108     36107     36109
     36108     36107     36110     36109     36107     36110     36110     36113     36114
     36110     36113     36115     36110     36113     36116     36111     36110     36112
     36111     36110     36113     36112     36110     36113     36113     36116     36117
     36113     36116     36118     36113     36116     36119     36114     36113     36115
     36114     36113     36116     36115     36113     36116     36116     36119     36120
     36116     36119     36121     36116     36119     36122     36117     36116     36118
     36117     36116     36119     36118     36116     36119     36119     36122     36123
     36119     36122     36124     36120     36119     36121     36120     36119     36122
     36121     36119     36122     36122     36124     36125     36122     36124     36126
     36123     36122     36124     36124     36126     36127     36124     36126     36128
     36124     36126     36129     36125     36124     36126     36126     36129     36130
     36126     36129     36131     36126     36129     36132     36127     36126     36128
     36127     36126     36129     36128     36126     36129     36129     36132     36133
     36129     36132     36134     36129     36132     36135     36130     36129     36131
     36130     36129     36132     36131     36129     36132     36132     36135     36136
     36132     36135     36137     36132     36135     36138     36133     36132     36134
     36133     36132     36135     36134     36132     36135     36135     36138     36139
     36135     36138     36140     36135     36138     36141     36136     36135     36137
     36136     36135     36138     36137     36135     36138     36138     36141     36142
     36138     36141     36143     36138     36141     36144     36139     36138     36140
     36139     36138     36141     36140     36138     36141     36141     36144     36145
     36141     36144     36146     36141     36144     36147     36142     36141     36143
     36142     36141     36144     36143     36141     36144     36144     36147     36148
     36144     36147     36149     36144     36147     36150     36145     36144     36146
     36145     36144     36147     36146     36144     36147     36148     36147     36149
     36148     36147     36150     36149     36147     36150     36151     36155     36156
     36151     36155     36157     36151     36155     36158     36152     36151     36153
     36152     36151     36154     36152     36151     36155     36153     36151     36154
     36153     36151     36155     36154     36151     36155     36155     36158     36159
     36155     36158     36160     36155     36158     36165     36156     36155     36157
     36156     36155     36158     36157     36155     36158     36158     36165     36161
     36159     36158     36160     36159     36158     36165     36160     36158     36165
     36161     36164     36166     36162     36161     36163     36162     36161     36164
     36162     36161     36165     36163     36161     36164     36163     36161     36165
     36164     36161     36165     36164     36166     36167     36164     36166     36168
     36164     36166     36169     36166     36169     36170     36166     36169     36171
     36166     36169     36177     36167     36166     36168     36167     36166     36169
     36168     36166     36169     36169     36171     36172     36169     36177     36178
     36169     36177     36179     36169     36177     36180     36170     36169     36171
     36170     36169     36177     36171     36169     36177     36171     36172     36173
     36171     36172     36174     36172     36174     36175     36172     36174     36176
     36172     36174     36186     36173     36172     36174     36174     36186     36187
     36174     36186     36188     36174     36186     36189     36175     36174     36176
     36175     36174     36186     36176     36174     36186     36177     36180     36181
     36178     36177     36179     36178     36177     36180     36179     36177     36180
     36180     36181     36182     36180     36181     36183     36181     36183     36184
     36181     36183     36185     36181     36183     36230     36182     36181     36183
     36183     36230     36231     36183     36230     36232     36183     36230     36233
     36184     36183     36185     36184     36183     36230     36185     36183     36230
     36186     36189     36190     36186     36189     36191     36186     36189     36192
     36187     36186     36188     36187     36186     36189     36188     36186     36189
     36189     36192     36193     36189     36192     36194     36189     36192     36195
     36190     36189     36191     36190     36189     36192     36191     36189     36192
     36192     36195     36196     36192     36195     36197     36192     36195     36198
     36193     36192     36194     36193     36192     36195     36194     36192     36195
     36195     36198     36199     36195     36198     36200     36195     36198     36201
     36196     36195     36197     36196     36195     36198     36197     36195     36198
     36198     36201     36202     36198     36201     36203     36198     36201     36204
     36199     36198     36200     36199     36198     36201     36200     36198     36201
     36201     36204     36205     36201     36204     36206     36201     36204     36209
     36202     36201     36203     36202     36201     36204     36203     36201     36204
     36204     36206     36207     36204     36206     36208     36204     36206     36209
     36204     36209     36206     36204     36209     36210     36204     36209     36211
     36205     36204     36206     36205     36204     36209     36206     36204     36209
     36206     36209     36210     36206     36209     36211     36207     36206     36208
     36207     36206     36209     36208     36206     36209     36209     36211     36212
     36209     36211     36213     36209     36211     36214     36210     36209     36211
     36211     36214     36215     36211     36214     36216     36211     36214     36217
     36212     36211     36213     36212     36211     36214     36213     36211     36214
     36214     36217     36218     36214     36217     36219     36214     36217     36220
     36215     36214     36216     36215     36214     36217     36216     36214     36217
     36217     36220     36221     36217     36220     36222     36217     36220     36223
     36218     36217     36219     36218     36217     36220     36219     36217     36220
     36220     36223     36224     36220     36223     36225     36220     36223     36226
     36221     36220     36222     36221     36220     36223     36222     36220     36223
     36223     36226     36227     36223     36226     36228     36223     36226     36229
     36224     36223     36225     36224     36223     36226     36225     36223     36226
     36227     36226     36228     36227     36226     36229     36228     36226     36229
     36230     36233     36234     36230     36233     36235     36230     36233     36236
     36231     36230     36232     36231     36230     36233     36232     36230     36233
     36233     36236     36237     36233     36236     36238     36233     36236     36239
     36234     36233     36235     36234     36233     36236     36235     36233     36236
     36236     36239     36240     36236     36239     36241     36236     36239     36242
     36237     36236     36238     36237     36236     36239     36238     36236     36239
     36239     36242     36243     36239     36242     36244     36239     36242     36245
     36240     36239     36241     36240     36239     36242     36241     36239     36242
     36242     36245     36246     36242     36245     36247     36242     36245     36248
     36243     36242     36244     36243     36242     36245     36244     36242     36245
     36245     36248     36249     36245     36248     36250     36245     36248     36251
     36246     36245     36247     36246     36245     36248     36247     36245     36248
     36248     36251     36252     36248     36251     36253     36248     36251     36254
     36249     36248     36250     36249     36248     36251     36250     36248     36251
     36251     36254     36255     36251     36254     36256     36251     36254     36257
     36252     36251     36253     36252     36251     36254     36253     36251     36254
     36254     36257     36258     36254     36257     36259     36254     36257     36260
     36255     36254     36256     36255     36254     36257     36256     36254     36257
     36257     36260     36261     36257     36260     36262     36257     36260     36263
     36258     36257     36259     36258     36257     36260     36259     36257     36260
     36260     36263     36264     36260     36263     36265     36260     36263     36266
     36261     36260     36262     36261     36260     36263     36262     36260     36263
     36263     36266     36267     36263     36266     36268     36263     36266     36269
     36264     36263     36265     36264     36263     36266     36265     36263     36266
     36266     36269     36270     36266     36269     36271     36266     36269     36272
     36267     36266     36268     36267     36266     36269     36268     36266     36269
     36270     36269     36271     36270     36269     36272     36271     36269     36272
     36273     36277     36278     36273     36277     36279     36273     36277     36280
     36274     36273     36275     36274     36273     36276     36274     36273     36277
     36275     36273     36276     36275     36273     36277     36276     36273     36277
     36277     36280     36281     36277     36280     36282     36277     36280     36287
     36278     36277     36279     36278     36277     36280     36279     36277     36280
     36280     36287     36283     36281     36280     36282     36281     36280     36287
     36282     36280     36287     36283     36286     36288     36284     36283     36285
     36284     36283     36286     36284     36283     36287     36285     36283     36286
     36285     36283     36287     36286     36283     36287     36286     36288     36289
     36286     36288     36290     36286     36288     36291     36288     36291     36292
     36288     36291     36293     36288     36291     36299     36289     36288     36290
     36289     36288     36291     36290     36288     36291     36291     36293     36294
     36291     36299     36300     36291     36299     36301     36291     36299     36302
     36292     36291     36293     36292     36291     36299     36293     36291     36299
     36293     36294     36295     36293     36294     36296     36294     36296     36297
     36294     36296     36298     36294     36296     36308     36295     36294     36296
     36296     36308     36309     36296     36308     36310     36296     36308     36311
     36297     36296     36298     36297     36296     36308     36298     36296     36308
     36299     36302     36303     36300     36299     36301     36300     36299     36302
     36301     36299     36302     36302     36303     36304     36302     36303     36305
     36303     36305     36306     36303     36305     36307     36303     36305     36352
     36304     36303     36305     36305     36352     36353     36305     36352     36354
     36305     36352     36355     36306     36305     36307     36306     36305     36352
     36307     36305     36352     36308     36311     36312     36308     36311     36313
     36308     36311     36314     36309     36308     36310     36309     36308     36311
     36310     36308     36311     36311     36314     36315     36311     36314     36316
     36311     36314     36317     36312     36311     36313     36312     36311     36314
     36313     36311     36314     36314     36317     36318     36314     36317     36319
     36314     36317     36320     36315     36314     36316     36315     36314     36317
     36316     36314     36317     36317     36320     36321     36317     36320     36322
     36317     36320     36323     36318     36317     36319     36318     36317     36320
     36319     36317     36320     36320     36323     36324     36320     36323     36325
     36320     36323     36326     36321     36320     36322     36321     36320     36323
     36322     36320     36323     36323     36326     36327     36323     36326     36328
     36323     36326     36331     36324     36323     36325     36324     36323     36326
     36325     36323     36326     36326     36328     36329     36326     36328     36330
     36326     36328     36331     36326     36331     36328     36326     36331     36332
     36326     36331     36333     36327     36326     36328     36327     36326     36331
     36328     36326     36331     36328     36331     36332     36328     36331     36333
     36329     36328     36330     36329     36328     36331     36330     36328     36331
     36331     36333     36334     36331     36333     36335     36331     36333     36336
     36332     36331     36333     36333     36336     36337     36333     36336     36338
     36333     36336     36339     36334     36333     36335     36334     36333     36336
     36335     36333     36336     36336     36339     36340     36336     36339     36341
     36336     36339     36342     36337     36336     36338     36337     36336     36339
     36338     36336     36339     36339     36342     36343     36339     36342     36344
     36339     36342     36345     36340     36339     36341     36340     36339     36342
     36341     36339     36342     36342     36345     36346     36342     36345     36347
     36342     36345     36348     36343     36342     36344     36343     36342     36345
     36344     36342     36345     36345     36348     36349     36345     36348     36350
     36345     36348     36351     36346     36345     36347     36346     36345     36348
     36347     36345     36348     36349     36348     36350     36349     36348     36351
     36350     36348     36351     36352     36355     36356     36352     36355     36357
     36352     36355     36358     36353     36352     36354     36353     36352     36355
     36354     36352     36355     36355     36358     36359     36355     36358     36360
     36355     36358     36361     36356     36355     36357     36356     36355     36358
     36357     36355     36358     36358     36361     36362     36358     36361     36363
     36358     36361     36364     36359     36358     36360     36359     36358     36361
     36360     36358     36361     36361     36364     36365     36361     36364     36366
     36361     36364     36367     36362     36361     36363     36362     36361     36364
     36363     36361     36364     36364     36367     36368     36364     36367     36369
     36364     36367     36370     36365     36364     36366     36365     36364     36367
     36366     36364     36367     36367     36370     36371     36367     36370     36372
     36367     36370     36373     36368     36367     36369     36368     36367     36370
     36369     36367     36370     36370     36373     36374     36370     36373     36375
     36370     36373     36376     36371     36370     36372     36371     36370     36373
     36372     36370     36373     36373     36376     36377     36373     36376     36378
     36373     36376     36379     36374     36373     36375     36374     36373     36376
     36375     36373     36376     36376     36379     36380     36376     36379     36381
     36376     36379     36382     36377     36376     36378     36377     36376     36379
     36378     36376     36379     36379     36382     36383     36379     36382     36384
     36379     36382     36385     36380     36379     36381     36380     36379     36382
     36381     36379     36382     36382     36385     36386     36382     36385     36387
     36382     36385     36388     36383     36382     36384     36383     36382     36385
     36384     36382     36385     36385     36388     36389     36385     36388     36390
     36385     36388     36391     36386     36385     36387     36386     36385     36388
     36387     36385     36388     36389     36388     36390     36389     36388     36391
     36390     36388     36391     36392     36396     36397     36392     36396     36398
     36392     36396     36399     36393     36392     36394     36393     36392     36395
     36393     36392     36396     36394     36392     36395     36394     36392     36396
     36395     36392     36396     36396     36399     36400     36396     36399     36401
     36396     36399     36406     36397     36396     36398     36397     36396     36399
     36398     36396     36399     36399     36406     36402     36400     36399     36401
     36400     36399     36406     36401     36399     36406     36402     36405     36407
     36403     36402     36404     36403     36402     36405     36403     36402     36406
     36404     36402     36405     36404     36402     36406     36405     36402     36406
     36405     36407     36408     36405     36407     36409     36405     36407     36410
     36407     36410     36411     36407     36410     36412     36407     36410     36418
     36408     36407     36409     36408     36407     36410     36409     36407     36410
     36410     36412     36413     36410     36418     36419     36410     36418     36420
     36410     36418     36421     36411     36410     36412     36411     36410     36418
     36412     36410     36418     36412     36413     36414     36412     36413     36415
     36413     36415     36416     36413     36415     36417     36413     36415     36427
     36414     36413     36415     36415     36427     36428     36415     36427     36429
     36415     36427     36430     36416     36415     36417     36416     36415     36427
     36417     36415     36427     36418     36421     36422     36419     36418     36420
     36419     36418     36421     36420     36418     36421     36421     36422     36423
     36421     36422     36424     36422     36424     36425     36422     36424     36426
     36422     36424     36474     36423     36422     36424     36424     36474     36475
     36424     36474     36476     36424     36474     36477     36425     36424     36426
     36425     36424     36474     36426     36424     36474     36427     36430     36431
     36427     36430     36432     36427     36430     36433     36428     36427     36429
     36428     36427     36430     36429     36427     36430     36430     36433     36434
     36430     36433     36435     36430     36433     36436     36431     36430     36432
     36431     36430     36433     36432     36430     36433     36433     36436     36437
     36433     36436     36438     36433     36436     36439     36434     36433     36435
     36434     36433     36436     36435     36433     36436     36436     36439     36440
     36436     36439     36441     36436     36439     36442     36437     36436     36438
     36437     36436     36439     36438     36436     36439     36439     36442     36443
     36439     36442     36444     36439     36442     36445     36440     36439     36441
     36440     36439     36442     36441     36439     36442     36442     36445     36446
     36442     36445     36447     36443     36442     36444     36443     36442     36445
     36444     36442     36445     36445     36447     36448     36445     36447     36449
     36446     36445     36447     36447     36449     36450     36447     36449     36451
     36447     36449     36452     36448     36447     36449     36449     36452     36453
     36449     36452     36454     36449     36452     36455     36450     36449     36451
     36450     36449     36452     36451     36449     36452     36452     36455     36456
     36452     36455     36457     36452     36455     36458     36453     36452     36454
     36453     36452     36455     36454     36452     36455     36455     36458     36459
     36455     36458     36460     36455     36458     36461     36456     36455     36457
     36456     36455     36458     36457     36455     36458     36458     36461     36462
     36458     36461     36463     36458     36461     36464     36459     36458     36460
     36459     36458     36461     36460     36458     36461     36461     36464     36465
     36461     36464     36466     36461     36464     36467     36462     36461     36463
     36462     36461     36464     36463     36461     36464     36464     36467     36468
     36464     36467     36469     36464     36467     36470     36465     36464     36466
     36465     36464     36467     36466     36464     36467     36467     36470     36471
     36467     36470     36472     36467     36470     36473     36468     36467     36469
     36468     36467     36470     36469     36467     36470     36471     36470     36472
     36471     36470     36473     36472     36470     36473     36474     36477     36478
     36474     36477     36479     36474     36477     36480     36475     36474     36476
     36475     36474     36477     36476     36474     36477     36477     36480     36481
     36477     36480     36482     36477     36480     36483     36478     36477     36479
     36478     36477     36480     36479     36477     36480     36480     36483     36484
     36480     36483     36485     36480     36483     36486     36481     36480     36482
     36481     36480     36483     36482     36480     36483     36483     36486     36487
     36483     36486     36488     36483     36486     36489     36484     36483     36485
     36484     36483     36486     36485     36483     36486     36486     36489     36490
     36486     36489     36491     36486     36489     36492     36487     36486     36488
     36487     36486     36489     36488     36486     36489     36489     36492     36493
     36489     36492     36494     36489     36492     36495     36490     36489     36491
     36490     36489     36492     36491     36489     36492     36492     36495     36496
     36492     36495     36497     36492     36495     36498     36493     36492     36494
     36493     36492     36495     36494     36492     36495     36495     36498     36499
     36495     36498     36500     36495     36498     36501     36496     36495     36497
     36496     36495     36498     36497     36495     36498     36498     36501     36502
     36498     36501     36503     36498     36501     36504     36499     36498     36500
     36499     36498     36501     36500     36498     36501     36501     36504     36505
     36501     36504     36506     36501     36504     36507     36502     36501     36503
     36502     36501     36504     36503     36501     36504     36504     36507     36508
     36504     36507     36509     36504     36507     36510     36505     36504     36506
     36505     36504     36507     36506     36504     36507     36507     36510     36511
     36507     36510     36512     36507     36510     36513     36508     36507     36509
     36508     36507     36510     36509     36507     36510     36510     36513     36514
     36510     36513     36515     36510     36513     36516     36511     36510     36512
     36511     36510     36513     36512     36510     36513     36514     36513     36515
     36514     36513     36516     36515     36513     36516     36517     36520     36521
     36517     36522     36523     36517     36522     36524     36517     36522     36526
     36518     36517     36519     36518     36517     36520     36518     36517     36522
     36519     36517     36520     36519     36517     36522     36520     36517     36522
     36522     36524     36525     36522     36526     36527     36522     36526     36528
     36522     36526     36533     36523     36522     36524     36523     36522     36526
     36524     36522     36526     36526     36533     36529     36527     36526     36528
     36527     36526     36533     36528     36526     36533     36529     36532     36534
     36530     36529     36531     36530     36529     36532     36530     36529     36533
     36531     36529     36532     36531     36529     36533     36532     36529     36533
     36532     36534     36535     36532     36534     36536     36532     36534     36537
     36534     36537     36538     36534     36537     36539     36534     36537     36545
     36535     36534     36536     36535     36534     36537     36536     36534     36537
     36537     36539     36540     36537     36545     36546     36537     36545     36547
     36537     36545     36548     36538     36537     36539     36538     36537     36545
     36539     36537     36545     36539     36540     36541     36539     36540     36542
     36540     36542     36543     36540     36542     36544     36540     36542     36554
     36541     36540     36542     36542     36554     36555     36542     36554     36556
     36542     36554     36557     36543     36542     36544     36543     36542     36554
     36544     36542     36554     36545     36548     36549     36546     36545     36547
     36546     36545     36548     36547     36545     36548     36548     36549     36550
     36548     36549     36551     36549     36551     36552     36549     36551     36553
     36549     36551     36598     36550     36549     36551     36551     36598     36599
     36551     36598     36600     36551     36598     36601     36552     36551     36553
     36552     36551     36598     36553     36551     36598     36554     36557     36558
     36554     36557     36559     36554     36557     36560     36555     36554     36556
     36555     36554     36557     36556     36554     36557     36557     36560     36561
     36557     36560     36562     36557     36560     36563     36558     36557     36559
     36558     36557     36560     36559     36557     36560     36560     36563     36564
     36560     36563     36565     36560     36563     36566     36561     36560     36562
     36561     36560     36563     36562     36560     36563     36563     36566     36567
     36563     36566     36568     36563     36566     36569     36564     36563     36565
     36564     36563     36566     36565     36563     36566     36566     36569     36570
     36566     36569     36571     36566     36569     36572     36567     36566     36568
     36567     36566     36569     36568     36566     36569     36569     36572     36573
     36569     36572     36574     36569     36572     36577     36570     36569     36571
     36570     36569     36572     36571     36569     36572     36572     36574     36575
     36572     36574     36576     36572     36574     36577     36572     36577     36574
     36572     36577     36578     36572     36577     36579     36573     36572     36574
     36573     36572     36577     36574     36572     36577     36574     36577     36578
     36574     36577     36579     36575     36574     36576     36575     36574     36577
     36576     36574     36577     36577     36579     36580     36577     36579     36581
     36577     36579     36582     36578     36577     36579     36579     36582     36583
     36579     36582     36584     36579     36582     36585     36580     36579     36581
     36580     36579     36582     36581     36579     36582     36582     36585     36586
     36582     36585     36587     36582     36585     36588     36583     36582     36584
     36583     36582     36585     36584     36582     36585     36585     36588     36589
     36585     36588     36590     36585     36588     36591     36586     36585     36587
     36586     36585     36588     36587     36585     36588     36588     36591     36592
     36588     36591     36593     36588     36591     36594     36589     36588     36590
     36589     36588     36591     36590     36588     36591     36591     36594     36595
     36591     36594     36596     36591     36594     36597     36592     36591     36593
     36592     36591     36594     36593     36591     36594     36595     36594     36596
     36595     36594     36597     36596     36594     36597     36598     36601     36602
     36598     36601     36603     36598     36601     36604     36599     36598     36600
     36599     36598     36601     36600     36598     36601     36601     36604     36605
     36601     36604     36606     36601     36604     36607     36602     36601     36603
     36602     36601     36604     36603     36601     36604     36604     36607     36608
     36604     36607     36609     36604     36607     36610     36605     36604     36606
     36605     36604     36607     36606     36604     36607     36607     36610     36611
     36607     36610     36612     36607     36610     36613     36608     36607     36609
     36608     36607     36610     36609     36607     36610     36610     36613     36614
     36610     36613     36615     36610     36613     36616     36611     36610     36612
     36611     36610     36613     36612     36610     36613     36613     36616     36617
     36613     36616     36618     36613     36616     36619     36614     36613     36615
     36614     36613     36616     36615     36613     36616     36616     36619     36620
     36616     36619     36621     36616     36619     36622     36617     36616     36618
     36617     36616     36619     36618     36616     36619     36619     36622     36623
     36619     36622     36624     36619     36622     36625     36620     36619     36621
     36620     36619     36622     36621     36619     36622     36622     36625     36626
     36622     36625     36627     36622     36625     36628     36623     36622     36624
     36623     36622     36625     36624     36622     36625     36625     36628     36629
     36625     36628     36630     36625     36628     36631     36626     36625     36627
     36626     36625     36628     36627     36625     36628     36628     36631     36632
     36628     36631     36633     36628     36631     36634     36629     36628     36630
     36629     36628     36631     36630     36628     36631     36631     36634     36635
     36631     36634     36636     36631     36634     36637     36632     36631     36633
     36632     36631     36634     36633     36631     36634     36634     36637     36638
     36634     36637     36639     36634     36637     36640     36635     36634     36636
     36635     36634     36637     36636     36634     36637     36638     36637     36639
     36638     36637     36640     36639     36637     36640     36641     36645     36646
     36641     36645     36647     36641     36645     36648     36642     36641     36643
     36642     36641     36644     36642     36641     36645     36643     36641     36644
     36643     36641     36645     36644     36641     36645     36645     36648     36649
     36645     36648     36650     36645     36648     36655     36646     36645     36647
     36646     36645     36648     36647     36645     36648     36648     36655     36651
     36649     36648     36650     36649     36648     36655     36650     36648     36655
     36651     36654     36656     36652     36651     36653     36652     36651     36654
     36652     36651     36655     36653     36651     36654     36653     36651     36655
     36654     36651     36655     36654     36656     36657     36654     36656     36658
     36654     36656     36659     36656     36659     36660     36656     36659     36661
     36656     36659     36667     36657     36656     36658     36657     36656     36659
     36658     36656     36659     36659     36661     36662     36659     36667     36668
     36659     36667     36669     36659     36667     36670     36660     36659     36661
     36660     36659     36667     36661     36659     36667     36661     36662     36663
     36661     36662     36664     36662     36664     36665     36662     36664     36666
     36662     36664     36676     36663     36662     36664     36664     36676     36677
     36664     36676     36678     36664     36676     36679     36665     36664     36666
     36665     36664     36676     36666     36664     36676     36667     36670     36671
     36668     36667     36669     36668     36667     36670     36669     36667     36670
     36670     36671     36672     36670     36671     36673     36671     36673     36674
     36671     36673     36675     36671     36673     36720     36672     36671     36673
     36673     36720     36721     36673     36720     36722     36673     36720     36723
     36674     36673     36675     36674     36673     36720     36675     36673     36720
     36676     36679     36680     36676     36679     36681     36676     36679     36682
     36677     36676     36678     36677     36676     36679     36678     36676     36679
     36679     36682     36683     36679     36682     36684     36679     36682     36685
     36680     36679     36681     36680     36679     36682     36681     36679     36682
     36682     36685     36686     36682     36685     36687     36682     36685     36688
     36683     36682     36684     36683     36682     36685     36684     36682     36685
     36685     36688     36689     36685     36688     36690     36685     36688     36691
     36686     36685     36687     36686     36685     36688     36687     36685     36688
     36688     36691     36692     36688     36691     36693     36688     36691     36694
     36689     36688     36690     36689     36688     36691     36690     36688     36691
     36691     36694     36695     36691     36694     36696     36691     36694     36699
     36692     36691     36693     36692     36691     36694     36693     36691     36694
     36694     36696     36697     36694     36696     36698     36694     36696     36699
     36694     36699     36696     36694     36699     36700     36694     36699     36701
     36695     36694     36696     36695     36694     36699     36696     36694     36699
     36696     36699     36700     36696     36699     36701     36697     36696     36698
     36697     36696     36699     36698     36696     36699     36699     36701     36702
     36699     36701     36703     36699     36701     36704     36700     36699     36701
     36701     36704     36705     36701     36704     36706     36701     36704     36707
     36702     36701     36703     36702     36701     36704     36703     36701     36704
     36704     36707     36708     36704     36707     36709     36704     36707     36710
     36705     36704     36706     36705     36704     36707     36706     36704     36707
     36707     36710     36711     36707     36710     36712     36707     36710     36713
     36708     36707     36709     36708     36707     36710     36709     36707     36710
     36710     36713     36714     36710     36713     36715     36710     36713     36716
     36711     36710     36712     36711     36710     36713     36712     36710     36713
     36713     36716     36717     36713     36716     36718     36713     36716     36719
     36714     36713     36715     36714     36713     36716     36715     36713     36716
     36717     36716     36718     36717     36716     36719     36718     36716     36719
     36720     36723     36724     36720     36723     36725     36720     36723     36726
     36721     36720     36722     36721     36720     36723     36722     36720     36723
     36723     36726     36727     36723     36726     36728     36723     36726     36729
     36724     36723     36725     36724     36723     36726     36725     36723     36726
     36726     36729     36730     36726     36729     36731     36726     36729     36732
     36727     36726     36728     36727     36726     36729     36728     36726     36729
     36729     36732     36733     36729     36732     36734     36729     36732     36735
     36730     36729     36731     36730     36729     36732     36731     36729     36732
     36732     36735     36736     36732     36735     36737     36732     36735     36738
     36733     36732     36734     36733     36732     36735     36734     36732     36735
     36735     36738     36739     36735     36738     36740     36735     36738     36741
     36736     36735     36737     36736     36735     36738     36737     36735     36738
     36738     36741     36742     36738     36741     36743     36738     36741     36744
     36739     36738     36740     36739     36738     36741     36740     36738     36741
     36741     36744     36745     36741     36744     36746     36741     36744     36747
     36742     36741     36743     36742     36741     36744     36743     36741     36744
     36744     36747     36748     36744     36747     36749     36744     36747     36750
     36745     36744     36746     36745     36744     36747     36746     36744     36747
     36747     36750     36751     36747     36750     36752     36747     36750     36753
     36748     36747     36749     36748     36747     36750     36749     36747     36750
     36750     36753     36754     36750     36753     36755     36750     36753     36756
     36751     36750     36752     36751     36750     36753     36752     36750     36753
     36753     36756     36757     36753     36756     36758     36753     36756     36759
     36754     36753     36755     36754     36753     36756     36755     36753     36756
     36756     36759     36760     36756     36759     36761     36756     36759     36762
     36757     36756     36758     36757     36756     36759     36758     36756     36759
     36760     36759     36761     36760     36759     36762     36761     36759     36762
     36763     36767     36768     36763     36767     36769     36763     36767     36770
     36764     36763     36765     36764     36763     36766     36764     36763     36767
     36765     36763     36766     36765     36763     36767     36766     36763     36767
     36767     36770     36771     36767     36770     36772     36767     36770     36777
     36768     36767     36769     36768     36767     36770     36769     36767     36770
     36770     36777     36773     36771     36770     36772     36771     36770     36777
     36772     36770     36777     36773     36776     36778     36774     36773     36775
     36774     36773     36776     36774     36773     36777     36775     36773     36776
     36775     36773     36777     36776     36773     36777     36776     36778     36779
     36776     36778     36780     36776     36778     36781     36778     36781     36782
     36778     36781     36783     36778     36781     36789     36779     36778     36780
     36779     36778     36781     36780     36778     36781     36781     36783     36784
     36781     36789     36790     36781     36789     36791     36781     36789     36792
     36782     36781     36783     36782     36781     36789     36783     36781     36789
     36783     36784     36785     36783     36784     36786     36784     36786     36787
     36784     36786     36788     36784     36786     36798     36785     36784     36786
     36786     36798     36799     36786     36798     36800     36786     36798     36801
     36787     36786     36788     36787     36786     36798     36788     36786     36798
     36789     36792     36793     36790     36789     36791     36790     36789     36792
     36791     36789     36792     36792     36793     36794     36792     36793     36795
     36793     36795     36796     36793     36795     36797     36793     36795     36842
     36794     36793     36795     36795     36842     36843     36795     36842     36844
     36795     36842     36845     36796     36795     36797     36796     36795     36842
     36797     36795     36842     36798     36801     36802     36798     36801     36803
     36798     36801     36804     36799     36798     36800     36799     36798     36801
     36800     36798     36801     36801     36804     36805     36801     36804     36806
     36801     36804     36807     36802     36801     36803     36802     36801     36804
     36803     36801     36804     36804     36807     36808     36804     36807     36809
     36804     36807     36810     36805     36804     36806     36805     36804     36807
     36806     36804     36807     36807     36810     36811     36807     36810     36812
     36807     36810     36813     36808     36807     36809     36808     36807     36810
     36809     36807     36810     36810     36813     36814     36810     36813     36815
     36810     36813     36816     36811     36810     36812     36811     36810     36813
     36812     36810     36813     36813     36816     36817     36813     36816     36818
     36813     36816     36821     36814     36813     36815     36814     36813     36816
     36815     36813     36816     36816     36818     36819     36816     36818     36820
     36816     36818     36821     36816     36821     36818     36816     36821     36822
     36816     36821     36823     36817     36816     36818     36817     36816     36821
     36818     36816     36821     36818     36821     36822     36818     36821     36823
     36819     36818     36820     36819     36818     36821     36820     36818     36821
     36821     36823     36824     36821     36823     36825     36821     36823     36826
     36822     36821     36823     36823     36826     36827     36823     36826     36828
     36823     36826     36829     36824     36823     36825     36824     36823     36826
     36825     36823     36826     36826     36829     36830     36826     36829     36831
     36826     36829     36832     36827     36826     36828     36827     36826     36829
     36828     36826     36829     36829     36832     36833     36829     36832     36834
     36829     36832     36835     36830     36829     36831     36830     36829     36832
     36831     36829     36832     36832     36835     36836     36832     36835     36837
     36832     36835     36838     36833     36832     36834     36833     36832     36835
     36834     36832     36835     36835     36838     36839     36835     36838     36840
     36835     36838     36841     36836     36835     36837     36836     36835     36838
     36837     36835     36838     36839     36838     36840     36839     36838     36841
     36840     36838     36841     36842     36845     36846     36842     36845     36847
     36842     36845     36848     36843     36842     36844     36843     36842     36845
     36844     36842     36845     36845     36848     36849     36845     36848     36850
     36845     36848     36851     36846     36845     36847     36846     36845     36848
     36847     36845     36848     36848     36851     36852     36848     36851     36853
     36848     36851     36854     36849     36848     36850     36849     36848     36851
     36850     36848     36851     36851     36854     36855     36851     36854     36856
     36851     36854     36857     36852     36851     36853     36852     36851     36854
     36853     36851     36854     36854     36857     36858     36854     36857     36859
     36854     36857     36860     36855     36854     36856     36855     36854     36857
     36856     36854     36857     36857     36860     36861     36857     36860     36862
     36857     36860     36863     36858     36857     36859     36858     36857     36860
     36859     36857     36860     36860     36863     36864     36860     36863     36865
     36860     36863     36866     36861     36860     36862     36861     36860     36863
     36862     36860     36863     36863     36866     36867     36863     36866     36868
     36863     36866     36869     36864     36863     36865     36864     36863     36866
     36865     36863     36866     36866     36869     36870     36866     36869     36871
     36866     36869     36872     36867     36866     36868     36867     36866     36869
     36868     36866     36869     36869     36872     36873     36869     36872     36874
     36869     36872     36875     36870     36869     36871     36870     36869     36872
     36871     36869     36872     36872     36875     36876     36872     36875     36877
     36872     36875     36878     36873     36872     36874     36873     36872     36875
     36874     36872     36875     36875     36878     36879     36875     36878     36880
     36875     36878     36881     36876     36875     36877     36876     36875     36878
     36877     36875     36878     36878     36881     36882     36878     36881     36883
     36878     36881     36884     36879     36878     36880     36879     36878     36881
     36880     36878     36881     36882     36881     36883     36882     36881     36884
     36883     36881     36884     36885     36889     36890     36885     36889     36891
     36885     36889     36892     36886     36885     36887     36886     36885     36888
     36886     36885     36889     36887     36885     36888     36887     36885     36889
     36888     36885     36889     36889     36892     36893     36889     36892     36894
     36889     36892     36899     36890     36889     36891     36890     36889     36892
     36891     36889     36892     36892     36899     36895     36893     36892     36894
     36893     36892     36899     36894     36892     36899     36895     36898     36900
     36896     36895     36897     36896     36895     36898     36896     36895     36899
     36897     36895     36898     36897     36895     36899     36898     36895     36899
     36898     36900     36901     36898     36900     36902     36898     36900     36903
     36900     36903     36904     36900     36903     36905     36900     36903     36911
     36901     36900     36902     36901     36900     36903     36902     36900     36903
     36903     36905     36906     36903     36911     36912     36903     36911     36913
     36903     36911     36914     36904     36903     36905     36904     36903     36911
     36905     36903     36911     36905     36906     36907     36905     36906     36908
     36906     36908     36909     36906     36908     36910     36906     36908     36920
     36907     36906     36908     36908     36920     36921     36908     36920     36922
     36908     36920     36923     36909     36908     36910     36909     36908     36920
     36910     36908     36920     36911     36914     36915     36912     36911     36913
     36912     36911     36914     36913     36911     36914     36914     36915     36916
     36914     36915     36917     36915     36917     36918     36915     36917     36919
     36915     36917     36964     36916     36915     36917     36917     36964     36965
     36917     36964     36966     36917     36964     36967     36918     36917     36919
     36918     36917     36964     36919     36917     36964     36920     36923     36924
     36920     36923     36925     36920     36923     36926     36921     36920     36922
     36921     36920     36923     36922     36920     36923     36923     36926     36927
     36923     36926     36928     36923     36926     36929     36924     36923     36925
     36924     36923     36926     36925     36923     36926     36926     36929     36930
     36926     36929     36931     36926     36929     36932     36927     36926     36928
     36927     36926     36929     36928     36926     36929     36929     36932     36933
     36929     36932     36934     36929     36932     36935     36930     36929     36931
     36930     36929     36932     36931     36929     36932     36932     36935     36936
     36932     36935     36937     36932     36935     36938     36933     36932     36934
     36933     36932     36935     36934     36932     36935     36935     36938     36939
     36935     36938     36940     36935     36938     36943     36936     36935     36937
     36936     36935     36938     36937     36935     36938     36938     36940     36941
     36938     36940     36942     36938     36940     36943     36938     36943     36940
     36938     36943     36944     36938     36943     36945     36939     36938     36940
     36939     36938     36943     36940     36938     36943     36940     36943     36944
     36940     36943     36945     36941     36940     36942     36941     36940     36943
     36942     36940     36943     36943     36945     36946     36943     36945     36947
     36943     36945     36948     36944     36943     36945     36945     36948     36949
     36945     36948     36950     36945     36948     36951     36946     36945     36947
     36946     36945     36948     36947     36945     36948     36948     36951     36952
     36948     36951     36953     36948     36951     36954     36949     36948     36950
     36949     36948     36951     36950     36948     36951     36951     36954     36955
     36951     36954     36956     36951     36954     36957     36952     36951     36953
     36952     36951     36954     36953     36951     36954     36954     36957     36958
     36954     36957     36959     36954     36957     36960     36955     36954     36956
     36955     36954     36957     36956     36954     36957     36957     36960     36961
     36957     36960     36962     36957     36960     36963     36958     36957     36959
     36958     36957     36960     36959     36957     36960     36961     36960     36962
     36961     36960     36963     36962     36960     36963     36964     36967     36968
     36964     36967     36969     36964     36967     36970     36965     36964     36966
     36965     36964     36967     36966     36964     36967     36967     36970     36971
     36967     36970     36972     36967     36970     36973     36968     36967     36969
     36968     36967     36970     36969     36967     36970     36970     36973     36974
     36970     36973     36975     36970     36973     36976     36971     36970     36972
     36971     36970     36973     36972     36970     36973     36973     36976     36977
     36973     36976     36978     36973     36976     36979     36974     36973     36975
     36974     36973     36976     36975     36973     36976     36976     36979     36980
     36976     36979     36981     36976     36979     36982     36977     36976     36978
     36977     36976     36979     36978     36976     36979     36979     36982     36983
     36979     36982     36984     36979     36982     36985     36980     36979     36981
     36980     36979     36982     36981     36979     36982     36982     36985     36986
     36982     36985     36987     36982     36985     36988     36983     36982     36984
     36983     36982     36985     36984     36982     36985     36985     36988     36989
     36985     36988     36990     36985     36988     36991     36986     36985     36987
     36986     36985     36988     36987     36985     36988     36988     36991     36992
     36988     36991     36993     36988     36991     36994     36989     36988     36990
     36989     36988     36991     36990     36988     36991     36991     36994     36995
     36991     36994     36996     36991     36994     36997     36992     36991     36993
     36992     36991     36994     36993     36991     36994     36994     36997     36998
     36994     36997     36999     36994     36997     37000     36995     36994     36996
     36995     36994     36997     36996     36994     36997     36997     37000     37001
     36997     37000     37002     36997     37000     37003     36998     36997     36999
     36998     36997     37000     36999     36997     37000     37000     37003     37004
     37000     37003     37005     37000     37003     37006     37001     37000     37002
     37001     37000     37003     37002     37000     37003     37004     37003     37005
     37004     37003     37006     37005     37003     37006     37007     37011     37012
     37007     37011     37013     37007     37011     37014     37008     37007     37009
     37008     37007     37010     37008     37007     37011     37009     37007     37010
     37009     37007     37011     37010     37007     37011     37011     37014     37015
     37011     37014     37016     37011     37014     37021     37012     37011     37013
     37012     37011     37014     37013     37011     37014     37014     37021     37017
     37015     37014     37016     37015     37014     37021     37016     37014     37021
     37017     37020     37022     37018     37017     37019     37018     37017     37020
     37018     37017     37021     37019     37017     37020     37019     37017     37021
     37020     37017     37021     37020     37022     37023     37020     37022     37024
     37020     37022     37025     37022     37025     37026     37022     37025     37027
     37022     37025     37033     37023     37022     37024     37023     37022     37025
     37024     37022     37025     37025     37027     37028     37025     37033     37034
     37025     37033     37035     37025     37033     37036     37026     37025     37027
     37026     37025     37033     37027     37025     37033     37027     37028     37029
     37027     37028     37030     37028     37030     37031     37028     37030     37032
     37028     37030     37042     37029     37028     37030     37030     37042     37043
     37030     37042     37044     37030     37042     37045     37031     37030     37032
     37031     37030     37042     37032     37030     37042     37033     37036     37037
     37034     37033     37035     37034     37033     37036     37035     37033     37036
     37036     37037     37038     37036     37037     37039     37037     37039     37040
     37037     37039     37041     37037     37039     37086     37038     37037     37039
     37039     37086     37087     37039     37086     37088     37039     37086     37089
     37040     37039     37041     37040     37039     37086     37041     37039     37086
     37042     37045     37046     37042     37045     37047     37042     37045     37048
     37043     37042     37044     37043     37042     37045     37044     37042     37045
     37045     37048     37049     37045     37048     37050     37045     37048     37051
     37046     37045     37047     37046     37045     37048     37047     37045     37048
     37048     37051     37052     37048     37051     37053     37048     37051     37054
     37049     37048     37050     37049     37048     37051     37050     37048     37051
     37051     37054     37055     37051     37054     37056     37051     37054     37057
     37052     37051     37053     37052     37051     37054     37053     37051     37054
     37054     37057     37058     37054     37057     37059     37054     37057     37060
     37055     37054     37056     37055     37054     37057     37056     37054     37057
     37057     37060     37061     37057     37060     37062     37057     37060     37065
     37058     37057     37059     37058     37057     37060     37059     37057     37060
     37060     37062     37063     37060     37062     37064     37060     37062     37065
     37060     37065     37062     37060     37065     37066     37060     37065     37067
     37061     37060     37062     37061     37060     37065     37062     37060     37065
     37062     37065     37066     37062     37065     37067     37063     37062     37064
     37063     37062     37065     37064     37062     37065     37065     37067     37068
     37065     37067     37069     37065     37067     37070     37066     37065     37067
     37067     37070     37071     37067     37070     37072     37067     37070     37073
     37068     37067     37069     37068     37067     37070     37069     37067     37070
     37070     37073     37074     37070     37073     37075     37070     37073     37076
     37071     37070     37072     37071     37070     37073     37072     37070     37073
     37073     37076     37077     37073     37076     37078     37073     37076     37079
     37074     37073     37075     37074     37073     37076     37075     37073     37076
     37076     37079     37080     37076     37079     37081     37076     37079     37082
     37077     37076     37078     37077     37076     37079     37078     37076     37079
     37079     37082     37083     37079     37082     37084     37079     37082     37085
     37080     37079     37081     37080     37079     37082     37081     37079     37082
     37083     37082     37084     37083     37082     37085     37084     37082     37085
     37086     37089     37090     37086     37089     37091     37086     37089     37092
     37087     37086     37088     37087     37086     37089     37088     37086     37089
     37089     37092     37093     37089     37092     37094     37089     37092     37095
     37090     37089     37091     37090     37089     37092     37091     37089     37092
     37092     37095     37096     37092     37095     37097     37092     37095     37098
     37093     37092     37094     37093     37092     37095     37094     37092     37095
     37095     37098     37099     37095     37098     37100     37095     37098     37101
     37096     37095     37097     37096     37095     37098     37097     37095     37098
     37098     37101     37102     37098     37101     37103     37098     37101     37104
     37099     37098     37100     37099     37098     37101     37100     37098     37101
     37101     37104     37105     37101     37104     37106     37101     37104     37107
     37102     37101     37103     37102     37101     37104     37103     37101     37104
     37104     37107     37108     37104     37107     37109     37104     37107     37110
     37105     37104     37106     37105     37104     37107     37106     37104     37107
     37107     37110     37111     37107     37110     37112     37107     37110     37113
     37108     37107     37109     37108     37107     37110     37109     37107     37110
     37110     37113     37114     37110     37113     37115     37110     37113     37116
     37111     37110     37112     37111     37110     37113     37112     37110     37113
     37113     37116     37117     37113     37116     37118     37113     37116     37119
     37114     37113     37115     37114     37113     37116     37115     37113     37116
     37116     37119     37120     37116     37119     37121     37116     37119     37122
     37117     37116     37118     37117     37116     37119     37118     37116     37119
     37119     37122     37123     37119     37122     37124     37119     37122     37125
     37120     37119     37121     37120     37119     37122     37121     37119     37122
     37122     37125     37126     37122     37125     37127     37122     37125     37128
     37123     37122     37124     37123     37122     37125     37124     37122     37125
     37126     37125     37127     37126     37125     37128     37127     37125     37128
     37129     37133     37134     37129     37133     37135     37129     37133     37136
     37130     37129     37131     37130     37129     37132     37130     37129     37133
     37131     37129     37132     37131     37129     37133     37132     37129     37133
     37133     37136     37137     37133     37136     37138     37133     37136     37143
     37134     37133     37135     37134     37133     37136     37135     37133     37136
     37136     37143     37139     37137     37136     37138     37137     37136     37143
     37138     37136     37143     37139     37142     37144     37140     37139     37141
     37140     37139     37142     37140     37139     37143     37141     37139     37142
     37141     37139     37143     37142     37139     37143     37142     37144     37145
     37142     37144     37146     37142     37144     37147     37144     37147     37148
     37144     37147     37149     37144     37147     37155     37145     37144     37146
     37145     37144     37147     37146     37144     37147     37147     37149     37150
     37147     37155     37156     37147     37155     37157     37147     37155     37158
     37148     37147     37149     37148     37147     37155     37149     37147     37155
     37149     37150     37151     37149     37150     37152     37150     37152     37153
     37150     37152     37154     37150     37152     37164     37151     37150     37152
     37152     37164     37165     37152     37164     37166     37152     37164     37167
     37153     37152     37154     37153     37152     37164     37154     37152     37164
     37155     37158     37159     37156     37155     37157     37156     37155     37158
     37157     37155     37158     37158     37159     37160     37158     37159     37161
     37159     37161     37162     37159     37161     37163     37159     37161     37208
     37160     37159     37161     37161     37208     37209     37161     37208     37210
     37161     37208     37211     37162     37161     37163     37162     37161     37208
     37163     37161     37208     37164     37167     37168     37164     37167     37169
     37164     37167     37170     37165     37164     37166     37165     37164     37167
     37166     37164     37167     37167     37170     37171     37167     37170     37172
     37167     37170     37173     37168     37167     37169     37168     37167     37170
     37169     37167     37170     37170     37173     37174     37170     37173     37175
     37170     37173     37176     37171     37170     37172     37171     37170     37173
     37172     37170     37173     37173     37176     37177     37173     37176     37178
     37173     37176     37179     37174     37173     37175     37174     37173     37176
     37175     37173     37176     37176     37179     37180     37176     37179     37181
     37176     37179     37182     37177     37176     37178     37177     37176     37179
     37178     37176     37179     37179     37182     37183     37179     37182     37184
     37179     37182     37187     37180     37179     37181     37180     37179     37182
     37181     37179     37182     37182     37184     37185     37182     37184     37186
     37182     37184     37187     37182     37187     37184     37182     37187     37188
     37182     37187     37189     37183     37182     37184     37183     37182     37187
     37184     37182     37187     37184     37187     37188     37184     37187     37189
     37185     37184     37186     37185     37184     37187     37186     37184     37187
     37187     37189     37190     37187     37189     37191     37187     37189     37192
     37188     37187     37189     37189     37192     37193     37189     37192     37194
     37189     37192     37195     37190     37189     37191     37190     37189     37192
     37191     37189     37192     37192     37195     37196     37192     37195     37197
     37192     37195     37198     37193     37192     37194     37193     37192     37195
     37194     37192     37195     37195     37198     37199     37195     37198     37200
     37195     37198     37201     37196     37195     37197     37196     37195     37198
     37197     37195     37198     37198     37201     37202     37198     37201     37203
     37198     37201     37204     37199     37198     37200     37199     37198     37201
     37200     37198     37201     37201     37204     37205     37201     37204     37206
     37201     37204     37207     37202     37201     37203     37202     37201     37204
     37203     37201     37204     37205     37204     37206     37205     37204     37207
     37206     37204     37207     37208     37211     37212     37208     37211     37213
     37208     37211     37214     37209     37208     37210     37209     37208     37211
     37210     37208     37211     37211     37214     37215     37211     37214     37216
     37211     37214     37217     37212     37211     37213     37212     37211     37214
     37213     37211     37214     37214     37217     37218     37214     37217     37219
     37214     37217     37220     37215     37214     37216     37215     37214     37217
     37216     37214     37217     37217     37220     37221     37217     37220     37222
     37217     37220     37223     37218     37217     37219     37218     37217     37220
     37219     37217     37220     37220     37223     37224     37220     37223     37225
     37220     37223     37226     37221     37220     37222     37221     37220     37223
     37222     37220     37223     37223     37226     37227     37223     37226     37228
     37223     37226     37229     37224     37223     37225     37224     37223     37226
     37225     37223     37226     37226     37229     37230     37226     37229     37231
     37226     37229     37232     37227     37226     37228     37227     37226     37229
     37228     37226     37229     37229     37232     37233     37229     37232     37234
     37229     37232     37235     37230     37229     37231     37230     37229     37232
     37231     37229     37232     37232     37235     37236     37232     37235     37237
     37232     37235     37238     37233     37232     37234     37233     37232     37235
     37234     37232     37235     37235     37238     37239     37235     37238     37240
     37235     37238     37241     37236     37235     37237     37236     37235     37238
     37237     37235     37238     37238     37241     37242     37238     37241     37243
     37238     37241     37244     37239     37238     37240     37239     37238     37241
     37240     37238     37241     37241     37244     37245     37241     37244     37246
     37241     37244     37247     37242     37241     37243     37242     37241     37244
     37243     37241     37244     37244     37247     37248     37244     37247     37249
     37244     37247     37250     37245     37244     37246     37245     37244     37247
     37246     37244     37247     37248     37247     37249     37248     37247     37250
     37249     37247     37250     37251     37255     37256     37251     37255     37257
     37251     37255     37258     37252     37251     37253     37252     37251     37254
     37252     37251     37255     37253     37251     37254     37253     37251     37255
     37254     37251     37255     37255     37258     37259     37255     37258     37260
     37255     37258     37265     37256     37255     37257     37256     37255     37258
     37257     37255     37258     37258     37265     37261     37259     37258     37260
     37259     37258     37265     37260     37258     37265     37261     37264     37266
     37262     37261     37263     37262     37261     37264     37262     37261     37265
     37263     37261     37264     37263     37261     37265     37264     37261     37265
     37264     37266     37267     37264     37266     37268     37264     37266     37269
     37266     37269     37270     37266     37269     37271     37266     37269     37277
     37267     37266     37268     37267     37266     37269     37268     37266     37269
     37269     37271     37272     37269     37277     37278     37269     37277     37279
     37269     37277     37280     37270     37269     37271     37270     37269     37277
     37271     37269     37277     37271     37272     37273     37271     37272     37274
     37272     37274     37275     37272     37274     37276     37272     37274     37286
     37273     37272     37274     37274     37286     37287     37274     37286     37288
     37274     37286     37289     37275     37274     37276     37275     37274     37286
     37276     37274     37286     37277     37280     37281     37278     37277     37279
     37278     37277     37280     37279     37277     37280     37280     37281     37282
     37280     37281     37283     37281     37283     37284     37281     37283     37285
     37281     37283     37330     37282     37281     37283     37283     37330     37331
     37283     37330     37332     37283     37330     37333     37284     37283     37285
     37284     37283     37330     37285     37283     37330     37286     37289     37290
     37286     37289     37291     37286     37289     37292     37287     37286     37288
     37287     37286     37289     37288     37286     37289     37289     37292     37293
     37289     37292     37294     37289     37292     37295     37290     37289     37291
     37290     37289     37292     37291     37289     37292     37292     37295     37296
     37292     37295     37297     37292     37295     37298     37293     37292     37294
     37293     37292     37295     37294     37292     37295     37295     37298     37299
     37295     37298     37300     37295     37298     37301     37296     37295     37297
     37296     37295     37298     37297     37295     37298     37298     37301     37302
     37298     37301     37303     37298     37301     37304     37299     37298     37300
     37299     37298     37301     37300     37298     37301     37301     37304     37305
     37301     37304     37306     37301     37304     37309     37302     37301     37303
     37302     37301     37304     37303     37301     37304     37304     37306     37307
     37304     37306     37308     37304     37306     37309     37304     37309     37306
     37304     37309     37310     37304     37309     37311     37305     37304     37306
     37305     37304     37309     37306     37304     37309     37306     37309     37310
     37306     37309     37311     37307     37306     37308     37307     37306     37309
     37308     37306     37309     37309     37311     37312     37309     37311     37313
     37309     37311     37314     37310     37309     37311     37311     37314     37315
     37311     37314     37316     37311     37314     37317     37312     37311     37313
     37312     37311     37314     37313     37311     37314     37314     37317     37318
     37314     37317     37319     37314     37317     37320     37315     37314     37316
     37315     37314     37317     37316     37314     37317     37317     37320     37321
     37317     37320     37322     37317     37320     37323     37318     37317     37319
     37318     37317     37320     37319     37317     37320     37320     37323     37324
     37320     37323     37325     37320     37323     37326     37321     37320     37322
     37321     37320     37323     37322     37320     37323     37323     37326     37327
     37323     37326     37328     37323     37326     37329     37324     37323     37325
     37324     37323     37326     37325     37323     37326     37327     37326     37328
     37327     37326     37329     37328     37326     37329     37330     37333     37334
     37330     37333     37335     37330     37333     37336     37331     37330     37332
     37331     37330     37333     37332     37330     37333     37333     37336     37337
     37333     37336     37338     37333     37336     37339     37334     37333     37335
     37334     37333     37336     37335     37333     37336     37336     37339     37340
     37336     37339     37341     37336     37339     37342     37337     37336     37338
     37337     37336     37339     37338     37336     37339     37339     37342     37343
     37339     37342     37344     37339     37342     37345     37340     37339     37341
     37340     37339     37342     37341     37339     37342     37342     37345     37346
     37342     37345     37347     37342     37345     37348     37343     37342     37344
     37343     37342     37345     37344     37342     37345     37345     37348     37349
     37345     37348     37350     37345     37348     37351     37346     37345     37347
     37346     37345     37348     37347     37345     37348     37348     37351     37352
     37348     37351     37353     37348     37351     37354     37349     37348     37350
     37349     37348     37351     37350     37348     37351     37351     37354     37355
     37351     37354     37356     37351     37354     37357     37352     37351     37353
     37352     37351     37354     37353     37351     37354     37354     37357     37358
     37354     37357     37359     37354     37357     37360     37355     37354     37356
     37355     37354     37357     37356     37354     37357     37357     37360     37361
     37357     37360     37362     37357     37360     37363     37358     37357     37359
     37358     37357     37360     37359     37357     37360     37360     37363     37364
     37360     37363     37365     37360     37363     37366     37361     37360     37362
     37361     37360     37363     37362     37360     37363     37363     37366     37367
     37363     37366     37368     37363     37366     37369     37364     37363     37365
     37364     37363     37366     37365     37363     37366     37366     37369     37370
     37366     37369     37371     37366     37369     37372     37367     37366     37368
     37367     37366     37369     37368     37366     37369     37370     37369     37371
     37370     37369     37372     37371     37369     37372     37373     37376     37377
     37373     37378     37379     37373     37378     37380     37373     37378     37382
     37374     37373     37375     37374     37373     37376     37374     37373     37378
     37375     37373     37376     37375     37373     37378     37376     37373     37378
     37378     37380     37381     37378     37382     37383     37378     37382     37384
     37378     37382     37389     37379     37378     37380     37379     37378     37382
     37380     37378     37382     37382     37389     37385     37383     37382     37384
     37383     37382     37389     37384     37382     37389     37385     37388     37390
     37386     37385     37387     37386     37385     37388     37386     37385     37389
     37387     37385     37388     37387     37385     37389     37388     37385     37389
     37388     37390     37391     37388     37390     37392     37388     37390     37393
     37390     37393     37394     37390     37393     37395     37390     37393     37401
     37391     37390     37392     37391     37390     37393     37392     37390     37393
     37393     37395     37396     37393     37401     37402     37393     37401     37403
     37393     37401     37404     37394     37393     37395     37394     37393     37401
     37395     37393     37401     37395     37396     37397     37395     37396     37398
     37396     37398     37399     37396     37398     37400     37396     37398     37410
     37397     37396     37398     37398     37410     37411     37398     37410     37412
     37398     37410     37413     37399     37398     37400     37399     37398     37410
     37400     37398     37410     37401     37404     37405     37402     37401     37403
     37402     37401     37404     37403     37401     37404     37404     37405     37406
     37404     37405     37407     37405     37407     37408     37405     37407     37409
     37405     37407     37454     37406     37405     37407     37407     37454     37455
     37407     37454     37456     37407     37454     37457     37408     37407     37409
     37408     37407     37454     37409     37407     37454     37410     37413     37414
     37410     37413     37415     37410     37413     37416     37411     37410     37412
     37411     37410     37413     37412     37410     37413     37413     37416     37417
     37413     37416     37418     37413     37416     37419     37414     37413     37415
     37414     37413     37416     37415     37413     37416     37416     37419     37420
     37416     37419     37421     37416     37419     37422     37417     37416     37418
     37417     37416     37419     37418     37416     37419     37419     37422     37423
     37419     37422     37424     37419     37422     37425     37420     37419     37421
     37420     37419     37422     37421     37419     37422     37422     37425     37426
     37422     37425     37427     37422     37425     37428     37423     37422     37424
     37423     37422     37425     37424     37422     37425     37425     37428     37429
     37425     37428     37430     37425     37428     37433     37426     37425     37427
     37426     37425     37428     37427     37425     37428     37428     37430     37431
     37428     37430     37432     37428     37430     37433     37428     37433     37430
     37428     37433     37434     37428     37433     37435     37429     37428     37430
     37429     37428     37433     37430     37428     37433     37430     37433     37434
     37430     37433     37435     37431     37430     37432     37431     37430     37433
     37432     37430     37433     37433     37435     37436     37433     37435     37437
     37433     37435     37438     37434     37433     37435     37435     37438     37439
     37435     37438     37440     37435     37438     37441     37436     37435     37437
     37436     37435     37438     37437     37435     37438     37438     37441     37442
     37438     37441     37443     37438     37441     37444     37439     37438     37440
     37439     37438     37441     37440     37438     37441     37441     37444     37445
     37441     37444     37446     37441     37444     37447     37442     37441     37443
     37442     37441     37444     37443     37441     37444     37444     37447     37448
     37444     37447     37449     37444     37447     37450     37445     37444     37446
     37445     37444     37447     37446     37444     37447     37447     37450     37451
     37447     37450     37452     37447     37450     37453     37448     37447     37449
     37448     37447     37450     37449     37447     37450     37451     37450     37452
     37451     37450     37453     37452     37450     37453     37454     37457     37458
     37454     37457     37459     37454     37457     37460     37455     37454     37456
     37455     37454     37457     37456     37454     37457     37457     37460     37461
     37457     37460     37462     37457     37460     37463     37458     37457     37459
     37458     37457     37460     37459     37457     37460     37460     37463     37464
     37460     37463     37465     37460     37463     37466     37461     37460     37462
     37461     37460     37463     37462     37460     37463     37463     37466     37467
     37463     37466     37468     37463     37466     37469     37464     37463     37465
     37464     37463     37466     37465     37463     37466     37466     37469     37470
     37466     37469     37471     37466     37469     37472     37467     37466     37468
     37467     37466     37469     37468     37466     37469     37469     37472     37473
     37469     37472     37474     37469     37472     37475     37470     37469     37471
     37470     37469     37472     37471     37469     37472     37472     37475     37476
     37472     37475     37477     37472     37475     37478     37473     37472     37474
     37473     37472     37475     37474     37472     37475     37475     37478     37479
     37475     37478     37480     37475     37478     37481     37476     37475     37477
     37476     37475     37478     37477     37475     37478     37478     37481     37482
     37478     37481     37483     37478     37481     37484     37479     37478     37480
     37479     37478     37481     37480     37478     37481     37481     37484     37485
     37481     37484     37486     37481     37484     37487     37482     37481     37483
     37482     37481     37484     37483     37481     37484     37484     37487     37488
     37484     37487     37489     37484     37487     37490     37485     37484     37486
     37485     37484     37487     37486     37484     37487     37487     37490     37491
     37487     37490     37492     37487     37490     37493     37488     37487     37489
     37488     37487     37490     37489     37487     37490     37490     37493     37494
     37490     37493     37495     37490     37493     37496     37491     37490     37492
     37491     37490     37493     37492     37490     37493     37494     37493     37495
     37494     37493     37496     37495     37493     37496     37497     37501     37502
     37497     37501     37503     37497     37501     37504     37498     37497     37499
     37498     37497     37500     37498     37497     37501     37499     37497     37500
     37499     37497     37501     37500     37497     37501     37501     37504     37505
     37501     37504     37506     37501     37504     37511     37502     37501     37503
     37502     37501     37504     37503     37501     37504     37504     37511     37507
     37505     37504     37506     37505     37504     37511     37506     37504     37511
     37507     37510     37512     37508     37507     37509     37508     37507     37510
     37508     37507     37511     37509     37507     37510     37509     37507     37511
     37510     37507     37511     37510     37512     37513     37510     37512     37514
     37510     37512     37515     37512     37515     37516     37512     37515     37517
     37512     37515     37523     37513     37512     37514     37513     37512     37515
     37514     37512     37515     37515     37517     37518     37515     37523     37524
     37515     37523     37525     37515     37523     37526     37516     37515     37517
     37516     37515     37523     37517     37515     37523     37517     37518     37519
     37517     37518     37520     37518     37520     37521     37518     37520     37522
     37518     37520     37532     37519     37518     37520     37520     37532     37533
     37520     37532     37534     37520     37532     37535     37521     37520     37522
     37521     37520     37532     37522     37520     37532     37523     37526     37527
     37524     37523     37525     37524     37523     37526     37525     37523     37526
     37526     37527     37528     37526     37527     37529     37527     37529     37530
     37527     37529     37531     37527     37529     37576     37528     37527     37529
     37529     37576     37577     37529     37576     37578     37529     37576     37579
     37530     37529     37531     37530     37529     37576     37531     37529     37576
     37532     37535     37536     37532     37535     37537     37532     37535     37538
     37533     37532     37534     37533     37532     37535     37534     37532     37535
     37535     37538     37539     37535     37538     37540     37535     37538     37541
     37536     37535     37537     37536     37535     37538     37537     37535     37538
     37538     37541     37542     37538     37541     37543     37538     37541     37544
     37539     37538     37540     37539     37538     37541     37540     37538     37541
     37541     37544     37545     37541     37544     37546     37541     37544     37547
     37542     37541     37543     37542     37541     37544     37543     37541     37544
     37544     37547     37548     37544     37547     37549     37544     37547     37550
     37545     37544     37546     37545     37544     37547     37546     37544     37547
     37547     37550     37551     37547     37550     37552     37547     37550     37555
     37548     37547     37549     37548     37547     37550     37549     37547     37550
     37550     37552     37553     37550     37552     37554     37550     37552     37555
     37550     37555     37552     37550     37555     37556     37550     37555     37557
     37551     37550     37552     37551     37550     37555     37552     37550     37555
     37552     37555     37556     37552     37555     37557     37553     37552     37554
     37553     37552     37555     37554     37552     37555     37555     37557     37558
     37555     37557     37559     37555     37557     37560     37556     37555     37557
     37557     37560     37561     37557     37560     37562     37557     37560     37563
     37558     37557     37559     37558     37557     37560     37559     37557     37560
     37560     37563     37564     37560     37563     37565     37560     37563     37566
     37561     37560     37562     37561     37560     37563     37562     37560     37563
     37563     37566     37567     37563     37566     37568     37563     37566     37569
     37564     37563     37565     37564     37563     37566     37565     37563     37566
     37566     37569     37570     37566     37569     37571     37566     37569     37572
     37567     37566     37568     37567     37566     37569     37568     37566     37569
     37569     37572     37573     37569     37572     37574     37569     37572     37575
     37570     37569     37571     37570     37569     37572     37571     37569     37572
     37573     37572     37574     37573     37572     37575     37574     37572     37575
     37576     37579     37580     37576     37579     37581     37576     37579     37582
     37577     37576     37578     37577     37576     37579     37578     37576     37579
     37579     37582     37583     37579     37582     37584     37579     37582     37585
     37580     37579     37581     37580     37579     37582     37581     37579     37582
     37582     37585     37586     37582     37585     37587     37582     37585     37588
     37583     37582     37584     37583     37582     37585     37584     37582     37585
     37585     37588     37589     37585     37588     37590     37585     37588     37591
     37586     37585     37587     37586     37585     37588     37587     37585     37588
     37588     37591     37592     37588     37591     37593     37588     37591     37594
     37589     37588     37590     37589     37588     37591     37590     37588     37591
     37591     37594     37595     37591     37594     37596     37591     37594     37597
     37592     37591     37593     37592     37591     37594     37593     37591     37594
     37594     37597     37598     37594     37597     37599     37594     37597     37600
     37595     37594     37596     37595     37594     37597     37596     37594     37597
     37597     37600     37601     37597     37600     37602     37597     37600     37603
     37598     37597     37599     37598     37597     37600     37599     37597     37600
     37600     37603     37604     37600     37603     37605     37600     37603     37606
     37601     37600     37602     37601     37600     37603     37602     37600     37603
     37603     37606     37607     37603     37606     37608     37603     37606     37609
     37604     37603     37605     37604     37603     37606     37605     37603     37606
     37606     37609     37610     37606     37609     37611     37606     37609     37612
     37607     37606     37608     37607     37606     37609     37608     37606     37609
     37609     37612     37613     37609     37612     37614     37609     37612     37615
     37610     37609     37611     37610     37609     37612     37611     37609     37612
     37612     37615     37616     37612     37615     37617     37612     37615     37618
     37613     37612     37614     37613     37612     37615     37614     37612     37615
     37616     37615     37617     37616     37615     37618     37617     37615     37618
     37619     37623     37624     37619     37623     37625     37619     37623     37626
     37620     37619     37621     37620     37619     37622     37620     37619     37623
     37621     37619     37622     37621     37619     37623     37622     37619     37623
     37623     37626     37627     37623     37626     37628     37623     37626     37633
     37624     37623     37625     37624     37623     37626     37625     37623     37626
     37626     37633     37629     37627     37626     37628     37627     37626     37633
     37628     37626     37633     37629     37632     37634     37630     37629     37631
     37630     37629     37632     37630     37629     37633     37631     37629     37632
     37631     37629     37633     37632     37629     37633     37632     37634     37635
     37632     37634     37636     37632     37634     37637     37634     37637     37638
     37634     37637     37639     37634     37637     37645     37635     37634     37636
     37635     37634     37637     37636     37634     37637     37637     37639     37640
     37637     37645     37646     37637     37645     37647     37637     37645     37648
     37638     37637     37639     37638     37637     37645     37639     37637     37645
     37639     37640     37641     37639     37640     37642     37640     37642     37643
     37640     37642     37644     37640     37642     37654     37641     37640     37642
     37642     37654     37655     37642     37654     37656     37642     37654     37657
     37643     37642     37644     37643     37642     37654     37644     37642     37654
     37645     37648     37649     37646     37645     37647     37646     37645     37648
     37647     37645     37648     37648     37649     37650     37648     37649     37651
     37649     37651     37652     37649     37651     37653     37649     37651     37698
     37650     37649     37651     37651     37698     37699     37651     37698     37700
     37651     37698     37701     37652     37651     37653     37652     37651     37698
     37653     37651     37698     37654     37657     37658     37654     37657     37659
     37654     37657     37660     37655     37654     37656     37655     37654     37657
     37656     37654     37657     37657     37660     37661     37657     37660     37662
     37657     37660     37663     37658     37657     37659     37658     37657     37660
     37659     37657     37660     37660     37663     37664     37660     37663     37665
     37660     37663     37666     37661     37660     37662     37661     37660     37663
     37662     37660     37663     37663     37666     37667     37663     37666     37668
     37663     37666     37669     37664     37663     37665     37664     37663     37666
     37665     37663     37666     37666     37669     37670     37666     37669     37671
     37666     37669     37672     37667     37666     37668     37667     37666     37669
     37668     37666     37669     37669     37672     37673     37669     37672     37674
     37669     37672     37677     37670     37669     37671     37670     37669     37672
     37671     37669     37672     37672     37674     37675     37672     37674     37676
     37672     37674     37677     37672     37677     37674     37672     37677     37678
     37672     37677     37679     37673     37672     37674     37673     37672     37677
     37674     37672     37677     37674     37677     37678     37674     37677     37679
     37675     37674     37676     37675     37674     37677     37676     37674     37677
     37677     37679     37680     37677     37679     37681     37677     37679     37682
     37678     37677     37679     37679     37682     37683     37679     37682     37684
     37679     37682     37685     37680     37679     37681     37680     37679     37682
     37681     37679     37682     37682     37685     37686     37682     37685     37687
     37682     37685     37688     37683     37682     37684     37683     37682     37685
     37684     37682     37685     37685     37688     37689     37685     37688     37690
     37685     37688     37691     37686     37685     37687     37686     37685     37688
     37687     37685     37688     37688     37691     37692     37688     37691     37693
     37688     37691     37694     37689     37688     37690     37689     37688     37691
     37690     37688     37691     37691     37694     37695     37691     37694     37696
     37691     37694     37697     37692     37691     37693     37692     37691     37694
     37693     37691     37694     37695     37694     37696     37695     37694     37697
     37696     37694     37697     37698     37701     37702     37698     37701     37703
     37698     37701     37704     37699     37698     37700     37699     37698     37701
     37700     37698     37701     37701     37704     37705     37701     37704     37706
     37701     37704     37707     37702     37701     37703     37702     37701     37704
     37703     37701     37704     37704     37707     37708     37704     37707     37709
     37704     37707     37710     37705     37704     37706     37705     37704     37707
     37706     37704     37707     37707     37710     37711     37707     37710     37712
     37707     37710     37713     37708     37707     37709     37708     37707     37710
     37709     37707     37710     37710     37713     37714     37710     37713     37715
     37710     37713     37716     37711     37710     37712     37711     37710     37713
     37712     37710     37713     37713     37716     37717     37713     37716     37718
     37713     37716     37719     37714     37713     37715     37714     37713     37716
     37715     37713     37716     37716     37719     37720     37716     37719     37721
     37716     37719     37722     37717     37716     37718     37717     37716     37719
     37718     37716     37719     37719     37722     37723     37719     37722     37724
     37719     37722     37725     37720     37719     37721     37720     37719     37722
     37721     37719     37722     37722     37725     37726     37722     37725     37727
     37722     37725     37728     37723     37722     37724     37723     37722     37725
     37724     37722     37725     37725     37728     37729     37725     37728     37730
     37725     37728     37731     37726     37725     37727     37726     37725     37728
     37727     37725     37728     37728     37731     37732     37728     37731     37733
     37728     37731     37734     37729     37728     37730     37729     37728     37731
     37730     37728     37731     37731     37734     37735     37731     37734     37736
     37731     37734     37737     37732     37731     37733     37732     37731     37734
     37733     37731     37734     37734     37737     37738     37734     37737     37739
     37734     37737     37740     37735     37734     37736     37735     37734     37737
     37736     37734     37737     37738     37737     37739     37738     37737     37740
     37739     37737     37740     37741     37745     37746     37741     37745     37747
     37741     37745     37748     37742     37741     37743     37742     37741     37744
     37742     37741     37745     37743     37741     37744     37743     37741     37745
     37744     37741     37745     37745     37748     37749     37745     37748     37750
     37745     37748     37755     37746     37745     37747     37746     37745     37748
     37747     37745     37748     37748     37755     37751     37749     37748     37750
     37749     37748     37755     37750     37748     37755     37751     37754     37756
     37752     37751     37753     37752     37751     37754     37752     37751     37755
     37753     37751     37754     37753     37751     37755     37754     37751     37755
     37754     37756     37757     37754     37756     37758     37754     37756     37759
     37756     37759     37760     37756     37759     37761     37756     37759     37767
     37757     37756     37758     37757     37756     37759     37758     37756     37759
     37759     37761     37762     37759     37767     37768     37759     37767     37769
     37759     37767     37770     37760     37759     37761     37760     37759     37767
     37761     37759     37767     37761     37762     37763     37761     37762     37764
     37762     37764     37765     37762     37764     37766     37762     37764     37776
     37763     37762     37764     37764     37776     37777     37764     37776     37778
     37764     37776     37779     37765     37764     37766     37765     37764     37776
     37766     37764     37776     37767     37770     37771     37768     37767     37769
     37768     37767     37770     37769     37767     37770     37770     37771     37772
     37770     37771     37773     37771     37773     37774     37771     37773     37775
     37771     37773     37823     37772     37771     37773     37773     37823     37824
     37773     37823     37825     37773     37823     37826     37774     37773     37775
     37774     37773     37823     37775     37773     37823     37776     37779     37780
     37776     37779     37781     37776     37779     37782     37777     37776     37778
     37777     37776     37779     37778     37776     37779     37779     37782     37783
     37779     37782     37784     37779     37782     37785     37780     37779     37781
     37780     37779     37782     37781     37779     37782     37782     37785     37786
     37782     37785     37787     37782     37785     37788     37783     37782     37784
     37783     37782     37785     37784     37782     37785     37785     37788     37789
     37785     37788     37790     37785     37788     37791     37786     37785     37787
     37786     37785     37788     37787     37785     37788     37788     37791     37792
     37788     37791     37793     37788     37791     37794     37789     37788     37790
     37789     37788     37791     37790     37788     37791     37791     37794     37795
     37791     37794     37796     37792     37791     37793     37792     37791     37794
     37793     37791     37794     37794     37796     37797     37794     37796     37798
     37795     37794     37796     37796     37798     37799     37796     37798     37800
     37796     37798     37801     37797     37796     37798     37798     37801     37802
     37798     37801     37803     37798     37801     37804     37799     37798     37800
     37799     37798     37801     37800     37798     37801     37801     37804     37805
     37801     37804     37806     37801     37804     37807     37802     37801     37803
     37802     37801     37804     37803     37801     37804     37804     37807     37808
     37804     37807     37809     37804     37807     37810     37805     37804     37806
     37805     37804     37807     37806     37804     37807     37807     37810     37811
     37807     37810     37812     37807     37810     37813     37808     37807     37809
     37808     37807     37810     37809     37807     37810     37810     37813     37814
     37810     37813     37815     37810     37813     37816     37811     37810     37812
     37811     37810     37813     37812     37810     37813     37813     37816     37817
     37813     37816     37818     37813     37816     37819     37814     37813     37815
     37814     37813     37816     37815     37813     37816     37816     37819     37820
     37816     37819     37821     37816     37819     37822     37817     37816     37818
     37817     37816     37819     37818     37816     37819     37820     37819     37821
     37820     37819     37822     37821     37819     37822     37823     37826     37827
     37823     37826     37828     37823     37826     37829     37824     37823     37825
     37824     37823     37826     37825     37823     37826     37826     37829     37830
     37826     37829     37831     37826     37829     37832     37827     37826     37828
     37827     37826     37829     37828     37826     37829     37829     37832     37833
     37829     37832     37834     37829     37832     37835     37830     37829     37831
     37830     37829     37832     37831     37829     37832     37832     37835     37836
     37832     37835     37837     37832     37835     37838     37833     37832     37834
     37833     37832     37835     37834     37832     37835     37835     37838     37839
     37835     37838     37840     37835     37838     37841     37836     37835     37837
     37836     37835     37838     37837     37835     37838     37838     37841     37842
     37838     37841     37843     37838     37841     37844     37839     37838     37840
     37839     37838     37841     37840     37838     37841     37841     37844     37845
     37841     37844     37846     37841     37844     37847     37842     37841     37843
     37842     37841     37844     37843     37841     37844     37844     37847     37848
     37844     37847     37849     37844     37847     37850     37845     37844     37846
     37845     37844     37847     37846     37844     37847     37847     37850     37851
     37847     37850     37852     37847     37850     37853     37848     37847     37849
     37848     37847     37850     37849     37847     37850     37850     37853     37854
     37850     37853     37855     37850     37853     37856     37851     37850     37852
     37851     37850     37853     37852     37850     37853     37853     37856     37857
     37853     37856     37858     37853     37856     37859     37854     37853     37855
     37854     37853     37856     37855     37853     37856     37856     37859     37860
     37856     37859     37861     37856     37859     37862     37857     37856     37858
     37857     37856     37859     37858     37856     37859     37859     37862     37863
     37859     37862     37864     37859     37862     37865     37860     37859     37861
     37860     37859     37862     37861     37859     37862     37863     37862     37864
     37863     37862     37865     37864     37862     37865     37866     37870     37871
     37866     37870     37872     37866     37870     37873     37867     37866     37868
     37867     37866     37869     37867     37866     37870     37868     37866     37869
     37868     37866     37870     37869     37866     37870     37870     37873     37874
     37870     37873     37875     37870     37873     37880     37871     37870     37872
     37871     37870     37873     37872     37870     37873     37873     37880     37876
     37874     37873     37875     37874     37873     37880     37875     37873     37880
     37876     37879     37881     37877     37876     37878     37877     37876     37879
     37877     37876     37880     37878     37876     37879     37878     37876     37880
     37879     37876     37880     37879     37881     37882     37879     37881     37883
     37879     37881     37884     37881     37884     37885     37881     37884     37886
     37881     37884     37892     37882     37881     37883     37882     37881     37884
     37883     37881     37884     37884     37886     37887     37884     37892     37893
     37884     37892     37894     37884     37892     37895     37885     37884     37886
     37885     37884     37892     37886     37884     37892     37886     37887     37888
     37886     37887     37889     37887     37889     37890     37887     37889     37891
     37887     37889     37901     37888     37887     37889     37889     37901     37902
     37889     37901     37903     37889     37901     37904     37890     37889     37891
     37890     37889     37901     37891     37889     37901     37892     37895     37896
     37893     37892     37894     37893     37892     37895     37894     37892     37895
     37895     37896     37897     37895     37896     37898     37896     37898     37899
     37896     37898     37900     37896     37898     37945     37897     37896     37898
     37898     37945     37946     37898     37945     37947     37898     37945     37948
     37899     37898     37900     37899     37898     37945     37900     37898     37945
     37901     37904     37905     37901     37904     37906     37901     37904     37907
     37902     37901     37903     37902     37901     37904     37903     37901     37904
     37904     37907     37908     37904     37907     37909     37904     37907     37910
     37905     37904     37906     37905     37904     37907     37906     37904     37907
     37907     37910     37911     37907     37910     37912     37907     37910     37913
     37908     37907     37909     37908     37907     37910     37909     37907     37910
     37910     37913     37914     37910     37913     37915     37910     37913     37916
     37911     37910     37912     37911     37910     37913     37912     37910     37913
     37913     37916     37917     37913     37916     37918     37913     37916     37919
     37914     37913     37915     37914     37913     37916     37915     37913     37916
     37916     37919     37920     37916     37919     37921     37916     37919     37924
     37917     37916     37918     37917     37916     37919     37918     37916     37919
     37919     37921     37922     37919     37921     37923     37919     37921     37924
     37919     37924     37921     37919     37924     37925     37919     37924     37926
     37920     37919     37921     37920     37919     37924     37921     37919     37924
     37921     37924     37925     37921     37924     37926     37922     37921     37923
     37922     37921     37924     37923     37921     37924     37924     37926     37927
     37924     37926     37928     37924     37926     37929     37925     37924     37926
     37926     37929     37930     37926     37929     37931     37926     37929     37932
     37927     37926     37928     37927     37926     37929     37928     37926     37929
     37929     37932     37933     37929     37932     37934     37929     37932     37935
     37930     37929     37931     37930     37929     37932     37931     37929     37932
     37932     37935     37936     37932     37935     37937     37932     37935     37938
     37933     37932     37934     37933     37932     37935     37934     37932     37935
     37935     37938     37939     37935     37938     37940     37935     37938     37941
     37936     37935     37937     37936     37935     37938     37937     37935     37938
     37938     37941     37942     37938     37941     37943     37938     37941     37944
     37939     37938     37940     37939     37938     37941     37940     37938     37941
     37942     37941     37943     37942     37941     37944     37943     37941     37944
     37945     37948     37949     37945     37948     37950     37945     37948     37951
     37946     37945     37947     37946     37945     37948     37947     37945     37948
     37948     37951     37952     37948     37951     37953     37948     37951     37954
     37949     37948     37950     37949     37948     37951     37950     37948     37951
     37951     37954     37955     37951     37954     37956     37951     37954     37957
     37952     37951     37953     37952     37951     37954     37953     37951     37954
     37954     37957     37958     37954     37957     37959     37954     37957     37960
     37955     37954     37956     37955     37954     37957     37956     37954     37957
     37957     37960     37961     37957     37960     37962     37957     37960     37963
     37958     37957     37959     37958     37957     37960     37959     37957     37960
     37960     37963     37964     37960     37963     37965     37960     37963     37966
     37961     37960     37962     37961     37960     37963     37962     37960     37963
     37963     37966     37967     37963     37966     37968     37963     37966     37969
     37964     37963     37965     37964     37963     37966     37965     37963     37966
     37966     37969     37970     37966     37969     37971     37966     37969     37972
     37967     37966     37968     37967     37966     37969     37968     37966     37969
     37969     37972     37973     37969     37972     37974     37969     37972     37975
     37970     37969     37971     37970     37969     37972     37971     37969     37972
     37972     37975     37976     37972     37975     37977     37972     37975     37978
     37973     37972     37974     37973     37972     37975     37974     37972     37975
     37975     37978     37979     37975     37978     37980     37975     37978     37981
     37976     37975     37977     37976     37975     37978     37977     37975     37978
     37978     37981     37982     37978     37981     37983     37978     37981     37984
     37979     37978     37980     37979     37978     37981     37980     37978     37981
     37981     37984     37985     37981     37984     37986     37981     37984     37987
     37982     37981     37983     37982     37981     37984     37983     37981     37984
     37985     37984     37986     37985     37984     37987     37986     37984     37987
     37988     37992     37993     37988     37992     37994     37988     37992     37995
     37989     37988     37990     37989     37988     37991     37989     37988     37992
     37990     37988     37991     37990     37988     37992     37991     37988     37992
     37992     37995     37996     37992     37995     37997     37992     37995     38002
     37993     37992     37994     37993     37992     37995     37994     37992     37995
     37995     38002     37998     37996     37995     37997     37996     37995     38002
     37997     37995     38002     37998     38001     38003     37999     37998     38000
     37999     37998     38001     37999     37998     38002     38000     37998     38001
     38000     37998     38002     38001     37998     38002     38001     38003     38004
     38001     38003     38005     38001     38003     38006     38003     38006     38007
     38003     38006     38008     38003     38006     38014     38004     38003     38005
     38004     38003     38006     38005     38003     38006     38006     38008     38009
     38006     38014     38015     38006     38014     38016     38006     38014     38017
     38007     38006     38008     38007     38006     38014     38008     38006     38014
     38008     38009     38010     38008     38009     38011     38009     38011     38012
     38009     38011     38013     38009     38011     38023     38010     38009     38011
     38011     38023     38024     38011     38023     38025     38011     38023     38026
     38012     38011     38013     38012     38011     38023     38013     38011     38023
     38014     38017     38018     38015     38014     38016     38015     38014     38017
     38016     38014     38017     38017     38018     38019     38017     38018     38020
     38018     38020     38021     38018     38020     38022     38018     38020     38070
     38019     38018     38020     38020     38070     38071     38020     38070     38072
     38020     38070     38073     38021     38020     38022     38021     38020     38070
     38022     38020     38070     38023     38026     38027     38023     38026     38028
     38023     38026     38029     38024     38023     38025     38024     38023     38026
     38025     38023     38026     38026     38029     38030     38026     38029     38031
     38026     38029     38032     38027     38026     38028     38027     38026     38029
     38028     38026     38029     38029     38032     38033     38029     38032     38034
     38029     38032     38035     38030     38029     38031     38030     38029     38032
     38031     38029     38032     38032     38035     38036     38032     38035     38037
     38032     38035     38038     38033     38032     38034     38033     38032     38035
     38034     38032     38035     38035     38038     38039     38035     38038     38040
     38035     38038     38041     38036     38035     38037     38036     38035     38038
     38037     38035     38038     38038     38041     38042     38038     38041     38043
     38039     38038     38040     38039     38038     38041     38040     38038     38041
     38041     38043     38044     38041     38043     38045     38042     38041     38043
     38043     38045     38046     38043     38045     38047     38043     38045     38048
     38044     38043     38045     38045     38048     38049     38045     38048     38050
     38045     38048     38051     38046     38045     38047     38046     38045     38048
     38047     38045     38048     38048     38051     38052     38048     38051     38053
     38048     38051     38054     38049     38048     38050     38049     38048     38051
     38050     38048     38051     38051     38054     38055     38051     38054     38056
     38051     38054     38057     38052     38051     38053     38052     38051     38054
     38053     38051     38054     38054     38057     38058     38054     38057     38059
     38054     38057     38060     38055     38054     38056     38055     38054     38057
     38056     38054     38057     38057     38060     38061     38057     38060     38062
     38057     38060     38063     38058     38057     38059     38058     38057     38060
     38059     38057     38060     38060     38063     38064     38060     38063     38065
     38060     38063     38066     38061     38060     38062     38061     38060     38063
     38062     38060     38063     38063     38066     38067     38063     38066     38068
     38063     38066     38069     38064     38063     38065     38064     38063     38066
     38065     38063     38066     38067     38066     38068     38067     38066     38069
     38068     38066     38069     38070     38073     38074     38070     38073     38075
     38070     38073     38076     38071     38070     38072     38071     38070     38073
     38072     38070     38073     38073     38076     38077     38073     38076     38078
     38073     38076     38079     38074     38073     38075     38074     38073     38076
     38075     38073     38076     38076     38079     38080     38076     38079     38081
     38076     38079     38082     38077     38076     38078     38077     38076     38079
     38078     38076     38079     38079     38082     38083     38079     38082     38084
     38079     38082     38085     38080     38079     38081     38080     38079     38082
     38081     38079     38082     38082     38085     38086     38082     38085     38087
     38082     38085     38088     38083     38082     38084     38083     38082     38085
     38084     38082     38085     38085     38088     38089     38085     38088     38090
     38085     38088     38091     38086     38085     38087     38086     38085     38088
     38087     38085     38088     38088     38091     38092     38088     38091     38093
     38088     38091     38094     38089     38088     38090     38089     38088     38091
     38090     38088     38091     38091     38094     38095     38091     38094     38096
     38091     38094     38097     38092     38091     38093     38092     38091     38094
     38093     38091     38094     38094     38097     38098     38094     38097     38099
     38094     38097     38100     38095     38094     38096     38095     38094     38097
     38096     38094     38097     38097     38100     38101     38097     38100     38102
     38097     38100     38103     38098     38097     38099     38098     38097     38100
     38099     38097     38100     38100     38103     38104     38100     38103     38105
     38100     38103     38106     38101     38100     38102     38101     38100     38103
     38102     38100     38103     38103     38106     38107     38103     38106     38108
     38103     38106     38109     38104     38103     38105     38104     38103     38106
     38105     38103     38106     38106     38109     38110     38106     38109     38111
     38106     38109     38112     38107     38106     38108     38107     38106     38109
     38108     38106     38109     38110     38109     38111     38110     38109     38112
     38111     38109     38112     38113     38117     38118     38113     38117     38119
     38113     38117     38120     38114     38113     38115     38114     38113     38116
     38114     38113     38117     38115     38113     38116     38115     38113     38117
     38116     38113     38117     38117     38120     38121     38117     38120     38122
     38117     38120     38127     38118     38117     38119     38118     38117     38120
     38119     38117     38120     38120     38127     38123     38121     38120     38122
     38121     38120     38127     38122     38120     38127     38123     38126     38128
     38124     38123     38125     38124     38123     38126     38124     38123     38127
     38125     38123     38126     38125     38123     38127     38126     38123     38127
     38126     38128     38129     38126     38128     38130     38126     38128     38131
     38128     38131     38132     38128     38131     38133     38128     38131     38139
     38129     38128     38130     38129     38128     38131     38130     38128     38131
     38131     38133     38134     38131     38139     38140     38131     38139     38141
     38131     38139     38142     38132     38131     38133     38132     38131     38139
     38133     38131     38139     38133     38134     38135     38133     38134     38136
     38134     38136     38137     38134     38136     38138     38134     38136     38148
     38135     38134     38136     38136     38148     38149     38136     38148     38150
     38136     38148     38151     38137     38136     38138     38137     38136     38148
     38138     38136     38148     38139     38142     38143     38140     38139     38141
     38140     38139     38142     38141     38139     38142     38142     38143     38144
     38142     38143     38145     38143     38145     38146     38143     38145     38147
     38143     38145     38189     38144     38143     38145     38145     38189     38190
     38145     38189     38191     38145     38189     38192     38146     38145     38147
     38146     38145     38189     38147     38145     38189     38148     38151     38152
     38148     38151     38153     38148     38151     38154     38149     38148     38150
     38149     38148     38151     38150     38148     38151     38151     38154     38155
     38151     38154     38156     38151     38154     38157     38152     38151     38153
     38152     38151     38154     38153     38151     38154     38154     38157     38158
     38154     38157     38159     38154     38157     38160     38155     38154     38156
     38155     38154     38157     38156     38154     38157     38157     38160     38161
     38157     38160     38162     38157     38160     38163     38158     38157     38159
     38158     38157     38160     38159     38157     38160     38160     38163     38164
     38160     38163     38165     38160     38163     38166     38161     38160     38162
     38161     38160     38163     38162     38160     38163     38163     38166     38167
     38163     38166     38168     38164     38163     38165     38164     38163     38166
     38165     38163     38166     38166     38168     38169     38166     38168     38170
     38167     38166     38168     38168     38170     38171     38168     38170     38172
     38168     38170     38173     38169     38168     38170     38170     38173     38174
     38170     38173     38175     38170     38173     38176     38171     38170     38172
     38171     38170     38173     38172     38170     38173     38173     38176     38177
     38173     38176     38178     38173     38176     38179     38174     38173     38175
     38174     38173     38176     38175     38173     38176     38176     38179     38180
     38176     38179     38181     38176     38179     38182     38177     38176     38178
     38177     38176     38179     38178     38176     38179     38179     38182     38183
     38179     38182     38184     38179     38182     38185     38180     38179     38181
     38180     38179     38182     38181     38179     38182     38182     38185     38186
     38182     38185     38187     38182     38185     38188     38183     38182     38184
     38183     38182     38185     38184     38182     38185     38186     38185     38187
     38186     38185     38188     38187     38185     38188     38189     38192     38193
     38189     38192     38194     38189     38192     38195     38190     38189     38191
     38190     38189     38192     38191     38189     38192     38192     38195     38196
     38192     38195     38197     38192     38195     38198     38193     38192     38194
     38193     38192     38195     38194     38192     38195     38195     38198     38199
     38195     38198     38200     38195     38198     38201     38196     38195     38197
     38196     38195     38198     38197     38195     38198     38198     38201     38202
     38198     38201     38203     38198     38201     38204     38199     38198     38200
     38199     38198     38201     38200     38198     38201     38201     38204     38205
     38201     38204     38206     38201     38204     38207     38202     38201     38203
     38202     38201     38204     38203     38201     38204     38204     38207     38208
     38204     38207     38209     38205     38204     38206     38205     38204     38207
     38206     38204     38207     38207     38209     38210     38207     38209     38211
     38208     38207     38209     38209     38211     38212     38209     38211     38213
     38209     38211     38214     38210     38209     38211     38211     38214     38215
     38211     38214     38216     38211     38214     38217     38212     38211     38213
     38212     38211     38214     38213     38211     38214     38214     38217     38218
     38214     38217     38219     38214     38217     38220     38215     38214     38216
     38215     38214     38217     38216     38214     38217     38217     38220     38221
     38217     38220     38222     38217     38220     38223     38218     38217     38219
     38218     38217     38220     38219     38217     38220     38220     38223     38224
     38220     38223     38225     38220     38223     38226     38221     38220     38222
     38221     38220     38223     38222     38220     38223     38223     38226     38227
     38223     38226     38228     38223     38226     38229     38224     38223     38225
     38224     38223     38226     38225     38223     38226     38226     38229     38230
     38226     38229     38231     38226     38229     38232     38227     38226     38228
     38227     38226     38229     38228     38226     38229     38229     38232     38233
     38229     38232     38234     38229     38232     38235     38230     38229     38231
     38230     38229     38232     38231     38229     38232     38233     38232     38234
     38233     38232     38235     38234     38232     38235     38236     38240     38241
     38236     38240     38242     38236     38240     38243     38237     38236     38238
     38237     38236     38239     38237     38236     38240     38238     38236     38239
     38238     38236     38240     38239     38236     38240     38240     38243     38244
     38240     38243     38245     38240     38243     38250     38241     38240     38242
     38241     38240     38243     38242     38240     38243     38243     38250     38246
     38244     38243     38245     38244     38243     38250     38245     38243     38250
     38246     38249     38251     38247     38246     38248     38247     38246     38249
     38247     38246     38250     38248     38246     38249     38248     38246     38250
     38249     38246     38250     38249     38251     38252     38249     38251     38253
     38249     38251     38254     38251     38254     38255     38251     38254     38256
     38251     38254     38262     38252     38251     38253     38252     38251     38254
     38253     38251     38254     38254     38256     38257     38254     38262     38263
     38254     38262     38264     38254     38262     38265     38255     38254     38256
     38255     38254     38262     38256     38254     38262     38256     38257     38258
     38256     38257     38259     38257     38259     38260     38257     38259     38261
     38257     38259     38271     38258     38257     38259     38259     38271     38272
     38259     38271     38273     38259     38271     38274     38260     38259     38261
     38260     38259     38271     38261     38259     38271     38262     38265     38266
     38263     38262     38264     38263     38262     38265     38264     38262     38265
     38265     38266     38267     38265     38266     38268     38266     38268     38269
     38266     38268     38270     38266     38268     38315     38267     38266     38268
     38268     38315     38316     38268     38315     38317     38268     38315     38318
     38269     38268     38270     38269     38268     38315     38270     38268     38315
     38271     38274     38275     38271     38274     38276     38271     38274     38277
     38272     38271     38273     38272     38271     38274     38273     38271     38274
     38274     38277     38278     38274     38277     38279     38274     38277     38280
     38275     38274     38276     38275     38274     38277     38276     38274     38277
     38277     38280     38281     38277     38280     38282     38277     38280     38283
     38278     38277     38279     38278     38277     38280     38279     38277     38280
     38280     38283     38284     38280     38283     38285     38280     38283     38286
     38281     38280     38282     38281     38280     38283     38282     38280     38283
     38283     38286     38287     38283     38286     38288     38283     38286     38289
     38284     38283     38285     38284     38283     38286     38285     38283     38286
     38286     38289     38290     38286     38289     38291     38286     38289     38294
     38287     38286     38288     38287     38286     38289     38288     38286     38289
     38289     38291     38292     38289     38291     38293     38289     38291     38294
     38289     38294     38291     38289     38294     38295     38289     38294     38296
     38290     38289     38291     38290     38289     38294     38291     38289     38294
     38291     38294     38295     38291     38294     38296     38292     38291     38293
     38292     38291     38294     38293     38291     38294     38294     38296     38297
     38294     38296     38298     38294     38296     38299     38295     38294     38296
     38296     38299     38300     38296     38299     38301     38296     38299     38302
     38297     38296     38298     38297     38296     38299     38298     38296     38299
     38299     38302     38303     38299     38302     38304     38299     38302     38305
     38300     38299     38301     38300     38299     38302     38301     38299     38302
     38302     38305     38306     38302     38305     38307     38302     38305     38308
     38303     38302     38304     38303     38302     38305     38304     38302     38305
     38305     38308     38309     38305     38308     38310     38305     38308     38311
     38306     38305     38307     38306     38305     38308     38307     38305     38308
     38308     38311     38312     38308     38311     38313     38308     38311     38314
     38309     38308     38310     38309     38308     38311     38310     38308     38311
     38312     38311     38313     38312     38311     38314     38313     38311     38314
     38315     38318     38319     38315     38318     38320     38315     38318     38321
     38316     38315     38317     38316     38315     38318     38317     38315     38318
     38318     38321     38322     38318     38321     38323     38318     38321     38324
     38319     38318     38320     38319     38318     38321     38320     38318     38321
     38321     38324     38325     38321     38324     38326     38321     38324     38327
     38322     38321     38323     38322     38321     38324     38323     38321     38324
     38324     38327     38328     38324     38327     38329     38324     38327     38330
     38325     38324     38326     38325     38324     38327     38326     38324     38327
     38327     38330     38331     38327     38330     38332     38327     38330     38333
     38328     38327     38329     38328     38327     38330     38329     38327     38330
     38330     38333     38334     38330     38333     38335     38330     38333     38336
     38331     38330     38332     38331     38330     38333     38332     38330     38333
     38333     38336     38337     38333     38336     38338     38333     38336     38339
     38334     38333     38335     38334     38333     38336     38335     38333     38336
     38336     38339     38340     38336     38339     38341     38336     38339     38342
     38337     38336     38338     38337     38336     38339     38338     38336     38339
     38339     38342     38343     38339     38342     38344     38339     38342     38345
     38340     38339     38341     38340     38339     38342     38341     38339     38342
     38342     38345     38346     38342     38345     38347     38342     38345     38348
     38343     38342     38344     38343     38342     38345     38344     38342     38345
     38345     38348     38349     38345     38348     38350     38345     38348     38351
     38346     38345     38347     38346     38345     38348     38347     38345     38348
     38348     38351     38352     38348     38351     38353     38348     38351     38354
     38349     38348     38350     38349     38348     38351     38350     38348     38351
     38352     38351     38353     38352     38351     38354     38353     38351     38354
     38355     38359     38360     38355     38359     38361     38355     38359     38362
     38356     38355     38357     38356     38355     38358     38356     38355     38359
     38357     38355     38358     38357     38355     38359     38358     38355     38359
     38359     38362     38363     38359     38362     38364     38359     38362     38369
     38360     38359     38361     38360     38359     38362     38361     38359     38362
     38362     38369     38365     38363     38362     38364     38363     38362     38369
     38364     38362     38369     38365     38368     38370     38366     38365     38367
     38366     38365     38368     38366     38365     38369     38367     38365     38368
     38367     38365     38369     38368     38365     38369     38368     38370     38371
     38368     38370     38372     38368     38370     38373     38370     38373     38374
     38370     38373     38375     38370     38373     38381     38371     38370     38372
     38371     38370     38373     38372     38370     38373     38373     38375     38376
     38373     38381     38382     38373     38381     38383     38373     38381     38384
     38374     38373     38375     38374     38373     38381     38375     38373     38381
     38375     38376     38377     38375     38376     38378     38376     38378     38379
     38376     38378     38380     38376     38378     38390     38377     38376     38378
     38378     38390     38391     38378     38390     38392     38378     38390     38393
     38379     38378     38380     38379     38378     38390     38380     38378     38390
     38381     38384     38385     38382     38381     38383     38382     38381     38384
     38383     38381     38384     38384     38385     38386     38384     38385     38387
     38385     38387     38388     38385     38387     38389     38385     38387     38434
     38386     38385     38387     38387     38434     38435     38387     38434     38436
     38387     38434     38437     38388     38387     38389     38388     38387     38434
     38389     38387     38434     38390     38393     38394     38390     38393     38395
     38390     38393     38396     38391     38390     38392     38391     38390     38393
     38392     38390     38393     38393     38396     38397     38393     38396     38398
     38393     38396     38399     38394     38393     38395     38394     38393     38396
     38395     38393     38396     38396     38399     38400     38396     38399     38401
     38396     38399     38402     38397     38396     38398     38397     38396     38399
     38398     38396     38399     38399     38402     38403     38399     38402     38404
     38399     38402     38405     38400     38399     38401     38400     38399     38402
     38401     38399     38402     38402     38405     38406     38402     38405     38407
     38402     38405     38408     38403     38402     38404     38403     38402     38405
     38404     38402     38405     38405     38408     38409     38405     38408     38410
     38405     38408     38413     38406     38405     38407     38406     38405     38408
     38407     38405     38408     38408     38410     38411     38408     38410     38412
     38408     38410     38413     38408     38413     38410     38408     38413     38414
     38408     38413     38415     38409     38408     38410     38409     38408     38413
     38410     38408     38413     38410     38413     38414     38410     38413     38415
     38411     38410     38412     38411     38410     38413     38412     38410     38413
     38413     38415     38416     38413     38415     38417     38413     38415     38418
     38414     38413     38415     38415     38418     38419     38415     38418     38420
     38415     38418     38421     38416     38415     38417     38416     38415     38418
     38417     38415     38418     38418     38421     38422     38418     38421     38423
     38418     38421     38424     38419     38418     38420     38419     38418     38421
     38420     38418     38421     38421     38424     38425     38421     38424     38426
     38421     38424     38427     38422     38421     38423     38422     38421     38424
     38423     38421     38424     38424     38427     38428     38424     38427     38429
     38424     38427     38430     38425     38424     38426     38425     38424     38427
     38426     38424     38427     38427     38430     38431     38427     38430     38432
     38427     38430     38433     38428     38427     38429     38428     38427     38430
     38429     38427     38430     38431     38430     38432     38431     38430     38433
     38432     38430     38433     38434     38437     38438     38434     38437     38439
     38434     38437     38440     38435     38434     38436     38435     38434     38437
     38436     38434     38437     38437     38440     38441     38437     38440     38442
     38437     38440     38443     38438     38437     38439     38438     38437     38440
     38439     38437     38440     38440     38443     38444     38440     38443     38445
     38440     38443     38446     38441     38440     38442     38441     38440     38443
     38442     38440     38443     38443     38446     38447     38443     38446     38448
     38443     38446     38449     38444     38443     38445     38444     38443     38446
     38445     38443     38446     38446     38449     38450     38446     38449     38451
     38446     38449     38452     38447     38446     38448     38447     38446     38449
     38448     38446     38449     38449     38452     38453     38449     38452     38454
     38449     38452     38455     38450     38449     38451     38450     38449     38452
     38451     38449     38452     38452     38455     38456     38452     38455     38457
     38452     38455     38458     38453     38452     38454     38453     38452     38455
     38454     38452     38455     38455     38458     38459     38455     38458     38460
     38455     38458     38461     38456     38455     38457     38456     38455     38458
     38457     38455     38458     38458     38461     38462     38458     38461     38463
     38458     38461     38464     38459     38458     38460     38459     38458     38461
     38460     38458     38461     38461     38464     38465     38461     38464     38466
     38461     38464     38467     38462     38461     38463     38462     38461     38464
     38463     38461     38464     38464     38467     38468     38464     38467     38469
     38464     38467     38470     38465     38464     38466     38465     38464     38467
     38466     38464     38467     38467     38470     38471     38467     38470     38472
     38467     38470     38473     38468     38467     38469     38468     38467     38470
     38469     38467     38470     38470     38473     38474     38470     38473     38475
     38470     38473     38476     38471     38470     38472     38471     38470     38473
     38472     38470     38473     38474     38473     38475     38474     38473     38476
     38475     38473     38476     38477     38481     38482     38477     38481     38483
     38477     38481     38484     38478     38477     38479     38478     38477     38480
     38478     38477     38481     38479     38477     38480     38479     38477     38481
     38480     38477     38481     38481     38484     38485     38481     38484     38486
     38481     38484     38491     38482     38481     38483     38482     38481     38484
     38483     38481     38484     38484     38491     38487     38485     38484     38486
     38485     38484     38491     38486     38484     38491     38487     38490     38492
     38488     38487     38489     38488     38487     38490     38488     38487     38491
     38489     38487     38490     38489     38487     38491     38490     38487     38491
     38490     38492     38493     38490     38492     38494     38490     38492     38495
     38492     38495     38496     38492     38495     38497     38492     38495     38503
     38493     38492     38494     38493     38492     38495     38494     38492     38495
     38495     38497     38498     38495     38503     38504     38495     38503     38505
     38495     38503     38506     38496     38495     38497     38496     38495     38503
     38497     38495     38503     38497     38498     38499     38497     38498     38500
     38498     38500     38501     38498     38500     38502     38498     38500     38512
     38499     38498     38500     38500     38512     38513     38500     38512     38514
     38500     38512     38515     38501     38500     38502     38501     38500     38512
     38502     38500     38512     38503     38506     38507     38504     38503     38505
     38504     38503     38506     38505     38503     38506     38506     38507     38508
     38506     38507     38509     38507     38509     38510     38507     38509     38511
     38507     38509     38556     38508     38507     38509     38509     38556     38557
     38509     38556     38558     38509     38556     38559     38510     38509     38511
     38510     38509     38556     38511     38509     38556     38512     38515     38516
     38512     38515     38517     38512     38515     38518     38513     38512     38514
     38513     38512     38515     38514     38512     38515     38515     38518     38519
     38515     38518     38520     38515     38518     38521     38516     38515     38517
     38516     38515     38518     38517     38515     38518     38518     38521     38522
     38518     38521     38523     38518     38521     38524     38519     38518     38520
     38519     38518     38521     38520     38518     38521     38521     38524     38525
     38521     38524     38526     38521     38524     38527     38522     38521     38523
     38522     38521     38524     38523     38521     38524     38524     38527     38528
     38524     38527     38529     38524     38527     38530     38525     38524     38526
     38525     38524     38527     38526     38524     38527     38527     38530     38531
     38527     38530     38532     38527     38530     38535     38528     38527     38529
     38528     38527     38530     38529     38527     38530     38530     38532     38533
     38530     38532     38534     38530     38532     38535     38530     38535     38532
     38530     38535     38536     38530     38535     38537     38531     38530     38532
     38531     38530     38535     38532     38530     38535     38532     38535     38536
     38532     38535     38537     38533     38532     38534     38533     38532     38535
     38534     38532     38535     38535     38537     38538     38535     38537     38539
     38535     38537     38540     38536     38535     38537     38537     38540     38541
     38537     38540     38542     38537     38540     38543     38538     38537     38539
     38538     38537     38540     38539     38537     38540     38540     38543     38544
     38540     38543     38545     38540     38543     38546     38541     38540     38542
     38541     38540     38543     38542     38540     38543     38543     38546     38547
     38543     38546     38548     38543     38546     38549     38544     38543     38545
     38544     38543     38546     38545     38543     38546     38546     38549     38550
     38546     38549     38551     38546     38549     38552     38547     38546     38548
     38547     38546     38549     38548     38546     38549     38549     38552     38553
     38549     38552     38554     38549     38552     38555     38550     38549     38551
     38550     38549     38552     38551     38549     38552     38553     38552     38554
     38553     38552     38555     38554     38552     38555     38556     38559     38560
     38556     38559     38561     38556     38559     38562     38557     38556     38558
     38557     38556     38559     38558     38556     38559     38559     38562     38563
     38559     38562     38564     38559     38562     38565     38560     38559     38561
     38560     38559     38562     38561     38559     38562     38562     38565     38566
     38562     38565     38567     38562     38565     38568     38563     38562     38564
     38563     38562     38565     38564     38562     38565     38565     38568     38569
     38565     38568     38570     38565     38568     38571     38566     38565     38567
     38566     38565     38568     38567     38565     38568     38568     38571     38572
     38568     38571     38573     38568     38571     38574     38569     38568     38570
     38569     38568     38571     38570     38568     38571     38571     38574     38575
     38571     38574     38576     38571     38574     38577     38572     38571     38573
     38572     38571     38574     38573     38571     38574     38574     38577     38578
     38574     38577     38579     38574     38577     38580     38575     38574     38576
     38575     38574     38577     38576     38574     38577     38577     38580     38581
     38577     38580     38582     38577     38580     38583     38578     38577     38579
     38578     38577     38580     38579     38577     38580     38580     38583     38584
     38580     38583     38585     38580     38583     38586     38581     38580     38582
     38581     38580     38583     38582     38580     38583     38583     38586     38587
     38583     38586     38588     38583     38586     38589     38584     38583     38585
     38584     38583     38586     38585     38583     38586     38586     38589     38590
     38586     38589     38591     38586     38589     38592     38587     38586     38588
     38587     38586     38589     38588     38586     38589     38589     38592     38593
     38589     38592     38594     38589     38592     38595     38590     38589     38591
     38590     38589     38592     38591     38589     38592     38592     38595     38596
     38592     38595     38597     38592     38595     38598     38593     38592     38594
     38593     38592     38595     38594     38592     38595     38596     38595     38597
     38596     38595     38598     38597     38595     38598     38599     38603     38604
     38599     38603     38605     38599     38603     38606     38600     38599     38601
     38600     38599     38602     38600     38599     38603     38601     38599     38602
     38601     38599     38603     38602     38599     38603     38603     38606     38607
     38603     38606     38608     38603     38606     38613     38604     38603     38605
     38604     38603     38606     38605     38603     38606     38606     38613     38609
     38607     38606     38608     38607     38606     38613     38608     38606     38613
     38609     38612     38614     38610     38609     38611     38610     38609     38612
     38610     38609     38613     38611     38609     38612     38611     38609     38613
     38612     38609     38613     38612     38614     38615     38612     38614     38616
     38612     38614     38617     38614     38617     38618     38614     38617     38619
     38614     38617     38625     38615     38614     38616     38615     38614     38617
     38616     38614     38617     38617     38619     38620     38617     38625     38626
     38617     38625     38627     38617     38625     38628     38618     38617     38619
     38618     38617     38625     38619     38617     38625     38619     38620     38621
     38619     38620     38622     38620     38622     38623     38620     38622     38624
     38620     38622     38634     38621     38620     38622     38622     38634     38635
     38622     38634     38636     38622     38634     38637     38623     38622     38624
     38623     38622     38634     38624     38622     38634     38625     38628     38629
     38626     38625     38627     38626     38625     38628     38627     38625     38628
     38628     38629     38630     38628     38629     38631     38629     38631     38632
     38629     38631     38633     38629     38631     38681     38630     38629     38631
     38631     38681     38682     38631     38681     38683     38631     38681     38684
     38632     38631     38633     38632     38631     38681     38633     38631     38681
     38634     38637     38638     38634     38637     38639     38634     38637     38640
     38635     38634     38636     38635     38634     38637     38636     38634     38637
     38637     38640     38641     38637     38640     38642     38637     38640     38643
     38638     38637     38639     38638     38637     38640     38639     38637     38640
     38640     38643     38644     38640     38643     38645     38640     38643     38646
     38641     38640     38642     38641     38640     38643     38642     38640     38643
     38643     38646     38647     38643     38646     38648     38643     38646     38649
     38644     38643     38645     38644     38643     38646     38645     38643     38646
     38646     38649     38650     38646     38649     38651     38646     38649     38652
     38647     38646     38648     38647     38646     38649     38648     38646     38649
     38649     38652     38653     38649     38652     38654     38650     38649     38651
     38650     38649     38652     38651     38649     38652     38652     38654     38655
     38652     38654     38656     38653     38652     38654     38654     38656     38657
     38654     38656     38658     38654     38656     38659     38655     38654     38656
     38656     38659     38660     38656     38659     38661     38656     38659     38662
     38657     38656     38658     38657     38656     38659     38658     38656     38659
     38659     38662     38663     38659     38662     38664     38659     38662     38665
     38660     38659     38661     38660     38659     38662     38661     38659     38662
     38662     38665     38666     38662     38665     38667     38662     38665     38668
     38663     38662     38664     38663     38662     38665     38664     38662     38665
     38665     38668     38669     38665     38668     38670     38665     38668     38671
     38666     38665     38667     38666     38665     38668     38667     38665     38668
     38668     38671     38672     38668     38671     38673     38668     38671     38674
     38669     38668     38670     38669     38668     38671     38670     38668     38671
     38671     38674     38675     38671     38674     38676     38671     38674     38677
     38672     38671     38673     38672     38671     38674     38673     38671     38674
     38674     38677     38678     38674     38677     38679     38674     38677     38680
     38675     38674     38676     38675     38674     38677     38676     38674     38677
     38678     38677     38679     38678     38677     38680     38679     38677     38680
     38681     38684     38685     38681     38684     38686     38681     38684     38687
     38682     38681     38683     38682     38681     38684     38683     38681     38684
     38684     38687     38688     38684     38687     38689     38684     38687     38690
     38685     38684     38686     38685     38684     38687     38686     38684     38687
     38687     38690     38691     38687     38690     38692     38687     38690     38693
     38688     38687     38689     38688     38687     38690     38689     38687     38690
     38690     38693     38694     38690     38693     38695     38690     38693     38696
     38691     38690     38692     38691     38690     38693     38692     38690     38693
     38693     38696     38697     38693     38696     38698     38693     38696     38699
     38694     38693     38695     38694     38693     38696     38695     38693     38696
     38696     38699     38700     38696     38699     38701     38696     38699     38702
     38697     38696     38698     38697     38696     38699     38698     38696     38699
     38699     38702     38703     38699     38702     38704     38699     38702     38705
     38700     38699     38701     38700     38699     38702     38701     38699     38702
     38702     38705     38706     38702     38705     38707     38702     38705     38708
     38703     38702     38704     38703     38702     38705     38704     38702     38705
     38705     38708     38709     38705     38708     38710     38705     38708     38711
     38706     38705     38707     38706     38705     38708     38707     38705     38708
     38708     38711     38712     38708     38711     38713     38708     38711     38714
     38709     38708     38710     38709     38708     38711     38710     38708     38711
     38711     38714     38715     38711     38714     38716     38711     38714     38717
     38712     38711     38713     38712     38711     38714     38713     38711     38714
     38714     38717     38718     38714     38717     38719     38714     38717     38720
     38715     38714     38716     38715     38714     38717     38716     38714     38717
     38717     38720     38721     38717     38720     38722     38717     38720     38723
     38718     38717     38719     38718     38717     38720     38719     38717     38720
     38721     38720     38722     38721     38720     38723     38722     38720     38723
     38724     38728     38729     38724     38728     38730     38724     38728     38731
     38725     38724     38726     38725     38724     38727     38725     38724     38728
     38726     38724     38727     38726     38724     38728     38727     38724     38728
     38728     38731     38732     38728     38731     38733     38728     38731     38738
     38729     38728     38730     38729     38728     38731     38730     38728     38731
     38731     38738     38734     38732     38731     38733     38732     38731     38738
     38733     38731     38738     38734     38737     38739     38735     38734     38736
     38735     38734     38737     38735     38734     38738     38736     38734     38737
     38736     38734     38738     38737     38734     38738     38737     38739     38740
     38737     38739     38741     38737     38739     38742     38739     38742     38743
     38739     38742     38744     38739     38742     38750     38740     38739     38741
     38740     38739     38742     38741     38739     38742     38742     38744     38745
     38742     38750     38751     38742     38750     38752     38742     38750     38753
     38743     38742     38744     38743     38742     38750     38744     38742     38750
     38744     38745     38746     38744     38745     38747     38745     38747     38748
     38745     38747     38749     38745     38747     38759     38746     38745     38747
     38747     38759     38760     38747     38759     38761     38747     38759     38762
     38748     38747     38749     38748     38747     38759     38749     38747     38759
     38750     38753     38754     38751     38750     38752     38751     38750     38753
     38752     38750     38753     38753     38754     38755     38753     38754     38756
     38754     38756     38757     38754     38756     38758     38754     38756     38803
     38755     38754     38756     38756     38803     38804     38756     38803     38805
     38756     38803     38806     38757     38756     38758     38757     38756     38803
     38758     38756     38803     38759     38762     38763     38759     38762     38764
     38759     38762     38765     38760     38759     38761     38760     38759     38762
     38761     38759     38762     38762     38765     38766     38762     38765     38767
     38762     38765     38768     38763     38762     38764     38763     38762     38765
     38764     38762     38765     38765     38768     38769     38765     38768     38770
     38765     38768     38771     38766     38765     38767     38766     38765     38768
     38767     38765     38768     38768     38771     38772     38768     38771     38773
     38768     38771     38774     38769     38768     38770     38769     38768     38771
     38770     38768     38771     38771     38774     38775     38771     38774     38776
     38771     38774     38777     38772     38771     38773     38772     38771     38774
     38773     38771     38774     38774     38777     38778     38774     38777     38779
     38774     38777     38782     38775     38774     38776     38775     38774     38777
     38776     38774     38777     38777     38779     38780     38777     38779     38781
     38777     38779     38782     38777     38782     38779     38777     38782     38783
     38777     38782     38784     38778     38777     38779     38778     38777     38782
     38779     38777     38782     38779     38782     38783     38779     38782     38784
     38780     38779     38781     38780     38779     38782     38781     38779     38782
     38782     38784     38785     38782     38784     38786     38782     38784     38787
     38783     38782     38784     38784     38787     38788     38784     38787     38789
     38784     38787     38790     38785     38784     38786     38785     38784     38787
     38786     38784     38787     38787     38790     38791     38787     38790     38792
     38787     38790     38793     38788     38787     38789     38788     38787     38790
     38789     38787     38790     38790     38793     38794     38790     38793     38795
     38790     38793     38796     38791     38790     38792     38791     38790     38793
     38792     38790     38793     38793     38796     38797     38793     38796     38798
     38793     38796     38799     38794     38793     38795     38794     38793     38796
     38795     38793     38796     38796     38799     38800     38796     38799     38801
     38796     38799     38802     38797     38796     38798     38797     38796     38799
     38798     38796     38799     38800     38799     38801     38800     38799     38802
     38801     38799     38802     38803     38806     38807     38803     38806     38808
     38803     38806     38809     38804     38803     38805     38804     38803     38806
     38805     38803     38806     38806     38809     38810     38806     38809     38811
     38806     38809     38812     38807     38806     38808     38807     38806     38809
     38808     38806     38809     38809     38812     38813     38809     38812     38814
     38809     38812     38815     38810     38809     38811     38810     38809     38812
     38811     38809     38812     38812     38815     38816     38812     38815     38817
     38812     38815     38818     38813     38812     38814     38813     38812     38815
     38814     38812     38815     38815     38818     38819     38815     38818     38820
     38815     38818     38821     38816     38815     38817     38816     38815     38818
     38817     38815     38818     38818     38821     38822     38818     38821     38823
     38818     38821     38824     38819     38818     38820     38819     38818     38821
     38820     38818     38821     38821     38824     38825     38821     38824     38826
     38821     38824     38827     38822     38821     38823     38822     38821     38824
     38823     38821     38824     38824     38827     38828     38824     38827     38829
     38824     38827     38830     38825     38824     38826     38825     38824     38827
     38826     38824     38827     38827     38830     38831     38827     38830     38832
     38827     38830     38833     38828     38827     38829     38828     38827     38830
     38829     38827     38830     38830     38833     38834     38830     38833     38835
     38830     38833     38836     38831     38830     38832     38831     38830     38833
     38832     38830     38833     38833     38836     38837     38833     38836     38838
     38833     38836     38839     38834     38833     38835     38834     38833     38836
     38835     38833     38836     38836     38839     38840     38836     38839     38841
     38836     38839     38842     38837     38836     38838     38837     38836     38839
     38838     38836     38839     38839     38842     38843     38839     38842     38844
     38839     38842     38845     38840     38839     38841     38840     38839     38842
     38841     38839     38842     38843     38842     38844     38843     38842     38845
     38844     38842     38845     38846     38850     38851     38846     38850     38852
     38846     38850     38853     38847     38846     38848     38847     38846     38849
     38847     38846     38850     38848     38846     38849     38848     38846     38850
     38849     38846     38850     38850     38853     38854     38850     38853     38855
     38850     38853     38860     38851     38850     38852     38851     38850     38853
     38852     38850     38853     38853     38860     38856     38854     38853     38855
     38854     38853     38860     38855     38853     38860     38856     38859     38861
     38857     38856     38858     38857     38856     38859     38857     38856     38860
     38858     38856     38859     38858     38856     38860     38859     38856     38860
     38859     38861     38862     38859     38861     38863     38859     38861     38864
     38861     38864     38865     38861     38864     38866     38861     38864     38872
     38862     38861     38863     38862     38861     38864     38863     38861     38864
     38864     38866     38867     38864     38872     38873     38864     38872     38874
     38864     38872     38875     38865     38864     38866     38865     38864     38872
     38866     38864     38872     38866     38867     38868     38866     38867     38869
     38867     38869     38870     38867     38869     38871     38867     38869     38881
     38868     38867     38869     38869     38881     38882     38869     38881     38883
     38869     38881     38884     38870     38869     38871     38870     38869     38881
     38871     38869     38881     38872     38875     38876     38873     38872     38874
     38873     38872     38875     38874     38872     38875     38875     38876     38877
     38875     38876     38878     38876     38878     38879     38876     38878     38880
     38876     38878     38925     38877     38876     38878     38878     38925     38926
     38878     38925     38927     38878     38925     38928     38879     38878     38880
     38879     38878     38925     38880     38878     38925     38881     38884     38885
     38881     38884     38886     38881     38884     38887     38882     38881     38883
     38882     38881     38884     38883     38881     38884     38884     38887     38888
     38884     38887     38889     38884     38887     38890     38885     38884     38886
     38885     38884     38887     38886     38884     38887     38887     38890     38891
     38887     38890     38892     38887     38890     38893     38888     38887     38889
     38888     38887     38890     38889     38887     38890     38890     38893     38894
     38890     38893     38895     38890     38893     38896     38891     38890     38892
     38891     38890     38893     38892     38890     38893     38893     38896     38897
     38893     38896     38898     38893     38896     38899     38894     38893     38895
     38894     38893     38896     38895     38893     38896     38896     38899     38900
     38896     38899     38901     38896     38899     38904     38897     38896     38898
     38897     38896     38899     38898     38896     38899     38899     38901     38902
     38899     38901     38903     38899     38901     38904     38899     38904     38901
     38899     38904     38905     38899     38904     38906     38900     38899     38901
     38900     38899     38904     38901     38899     38904     38901     38904     38905
     38901     38904     38906     38902     38901     38903     38902     38901     38904
     38903     38901     38904     38904     38906     38907     38904     38906     38908
     38904     38906     38909     38905     38904     38906     38906     38909     38910
     38906     38909     38911     38906     38909     38912     38907     38906     38908
     38907     38906     38909     38908     38906     38909     38909     38912     38913
     38909     38912     38914     38909     38912     38915     38910     38909     38911
     38910     38909     38912     38911     38909     38912     38912     38915     38916
     38912     38915     38917     38912     38915     38918     38913     38912     38914
     38913     38912     38915     38914     38912     38915     38915     38918     38919
     38915     38918     38920     38915     38918     38921     38916     38915     38917
     38916     38915     38918     38917     38915     38918     38918     38921     38922
     38918     38921     38923     38918     38921     38924     38919     38918     38920
     38919     38918     38921     38920     38918     38921     38922     38921     38923
     38922     38921     38924     38923     38921     38924     38925     38928     38929
     38925     38928     38930     38925     38928     38931     38926     38925     38927
     38926     38925     38928     38927     38925     38928     38928     38931     38932
     38928     38931     38933     38928     38931     38934     38929     38928     38930
     38929     38928     38931     38930     38928     38931     38931     38934     38935
     38931     38934     38936     38931     38934     38937     38932     38931     38933
     38932     38931     38934     38933     38931     38934     38934     38937     38938
     38934     38937     38939     38934     38937     38940     38935     38934     38936
     38935     38934     38937     38936     38934     38937     38937     38940     38941
     38937     38940     38942     38937     38940     38943     38938     38937     38939
     38938     38937     38940     38939     38937     38940     38940     38943     38944
     38940     38943     38945     38940     38943     38946     38941     38940     38942
     38941     38940     38943     38942     38940     38943     38943     38946     38947
     38943     38946     38948     38943     38946     38949     38944     38943     38945
     38944     38943     38946     38945     38943     38946     38946     38949     38950
     38946     38949     38951     38946     38949     38952     38947     38946     38948
     38947     38946     38949     38948     38946     38949     38949     38952     38953
     38949     38952     38954     38949     38952     38955     38950     38949     38951
     38950     38949     38952     38951     38949     38952     38952     38955     38956
     38952     38955     38957     38952     38955     38958     38953     38952     38954
     38953     38952     38955     38954     38952     38955     38955     38958     38959
     38955     38958     38960     38955     38958     38961     38956     38955     38957
     38956     38955     38958     38957     38955     38958     38958     38961     38962
     38958     38961     38963     38958     38961     38964     38959     38958     38960
     38959     38958     38961     38960     38958     38961     38962     38961     38963
     38962     38961     38964     38963     38961     38964     38965     38969     38970
     38965     38969     38971     38965     38969     38972     38966     38965     38967
     38966     38965     38968     38966     38965     38969     38967     38965     38968
     38967     38965     38969     38968     38965     38969     38969     38972     38973
     38969     38972     38974     38969     38972     38979     38970     38969     38971
     38970     38969     38972     38971     38969     38972     38972     38979     38975
     38973     38972     38974     38973     38972     38979     38974     38972     38979
     38975     38978     38980     38976     38975     38977     38976     38975     38978
     38976     38975     38979     38977     38975     38978     38977     38975     38979
     38978     38975     38979     38978     38980     38981     38978     38980     38982
     38978     38980     38983     38980     38983     38984     38980     38983     38985
     38980     38983     38991     38981     38980     38982     38981     38980     38983
     38982     38980     38983     38983     38985     38986     38983     38991     38992
     38983     38991     38993     38983     38991     38994     38984     38983     38985
     38984     38983     38991     38985     38983     38991     38985     38986     38987
     38985     38986     38988     38986     38988     38989     38986     38988     38990
     38986     38988     39000     38987     38986     38988     38988     39000     39001
     38988     39000     39002     38988     39000     39003     38989     38988     38990
     38989     38988     39000     38990     38988     39000     38991     38994     38995
     38992     38991     38993     38992     38991     38994     38993     38991     38994
     38994     38995     38996     38994     38995     38997     38995     38997     38998
     38995     38997     38999     38995     38997     39044     38996     38995     38997
     38997     39044     39045     38997     39044     39046     38997     39044     39047
     38998     38997     38999     38998     38997     39044     38999     38997     39044
     39000     39003     39004     39000     39003     39005     39000     39003     39006
     39001     39000     39002     39001     39000     39003     39002     39000     39003
     39003     39006     39007     39003     39006     39008     39003     39006     39009
     39004     39003     39005     39004     39003     39006     39005     39003     39006
     39006     39009     39010     39006     39009     39011     39006     39009     39012
     39007     39006     39008     39007     39006     39009     39008     39006     39009
     39009     39012     39013     39009     39012     39014     39009     39012     39015
     39010     39009     39011     39010     39009     39012     39011     39009     39012
     39012     39015     39016     39012     39015     39017     39012     39015     39018
     39013     39012     39014     39013     39012     39015     39014     39012     39015
     39015     39018     39019     39015     39018     39020     39015     39018     39023
     39016     39015     39017     39016     39015     39018     39017     39015     39018
     39018     39020     39021     39018     39020     39022     39018     39020     39023
     39018     39023     39020     39018     39023     39024     39018     39023     39025
     39019     39018     39020     39019     39018     39023     39020     39018     39023
     39020     39023     39024     39020     39023     39025     39021     39020     39022
     39021     39020     39023     39022     39020     39023     39023     39025     39026
     39023     39025     39027     39023     39025     39028     39024     39023     39025
     39025     39028     39029     39025     39028     39030     39025     39028     39031
     39026     39025     39027     39026     39025     39028     39027     39025     39028
     39028     39031     39032     39028     39031     39033     39028     39031     39034
     39029     39028     39030     39029     39028     39031     39030     39028     39031
     39031     39034     39035     39031     39034     39036     39031     39034     39037
     39032     39031     39033     39032     39031     39034     39033     39031     39034
     39034     39037     39038     39034     39037     39039     39034     39037     39040
     39035     39034     39036     39035     39034     39037     39036     39034     39037
     39037     39040     39041     39037     39040     39042     39037     39040     39043
     39038     39037     39039     39038     39037     39040     39039     39037     39040
     39041     39040     39042     39041     39040     39043     39042     39040     39043
     39044     39047     39048     39044     39047     39049     39044     39047     39050
     39045     39044     39046     39045     39044     39047     39046     39044     39047
     39047     39050     39051     39047     39050     39052     39047     39050     39053
     39048     39047     39049     39048     39047     39050     39049     39047     39050
     39050     39053     39054     39050     39053     39055     39050     39053     39056
     39051     39050     39052     39051     39050     39053     39052     39050     39053
     39053     39056     39057     39053     39056     39058     39053     39056     39059
     39054     39053     39055     39054     39053     39056     39055     39053     39056
     39056     39059     39060     39056     39059     39061     39056     39059     39062
     39057     39056     39058     39057     39056     39059     39058     39056     39059
     39059     39062     39063     39059     39062     39064     39059     39062     39065
     39060     39059     39061     39060     39059     39062     39061     39059     39062
     39062     39065     39066     39062     39065     39067     39062     39065     39068
     39063     39062     39064     39063     39062     39065     39064     39062     39065
     39065     39068     39069     39065     39068     39070     39065     39068     39071
     39066     39065     39067     39066     39065     39068     39067     39065     39068
     39068     39071     39072     39068     39071     39073     39068     39071     39074
     39069     39068     39070     39069     39068     39071     39070     39068     39071
     39071     39074     39075     39071     39074     39076     39071     39074     39077
     39072     39071     39073     39072     39071     39074     39073     39071     39074
     39074     39077     39078     39074     39077     39079     39074     39077     39080
     39075     39074     39076     39075     39074     39077     39076     39074     39077
     39077     39080     39081     39077     39080     39082     39077     39080     39083
     39078     39077     39079     39078     39077     39080     39079     39077     39080
     39081     39080     39082     39081     39080     39083     39082     39080     39083
     39084     39088     39089     39084     39088     39090     39084     39088     39091
     39085     39084     39086     39085     39084     39087     39085     39084     39088
     39086     39084     39087     39086     39084     39088     39087     39084     39088
     39088     39091     39092     39088     39091     39093     39088     39091     39098
     39089     39088     39090     39089     39088     39091     39090     39088     39091
     39091     39098     39094     39092     39091     39093     39092     39091     39098
     39093     39091     39098     39094     39097     39099     39095     39094     39096
     39095     39094     39097     39095     39094     39098     39096     39094     39097
     39096     39094     39098     39097     39094     39098     39097     39099     39100
     39097     39099     39101     39097     39099     39102     39099     39102     39103
     39099     39102     39104     39099     39102     39110     39100     39099     39101
     39100     39099     39102     39101     39099     39102     39102     39104     39105
     39102     39110     39111     39102     39110     39112     39102     39110     39113
     39103     39102     39104     39103     39102     39110     39104     39102     39110
     39104     39105     39106     39104     39105     39107     39105     39107     39108
     39105     39107     39109     39105     39107     39119     39106     39105     39107
     39107     39119     39120     39107     39119     39121     39107     39119     39122
     39108     39107     39109     39108     39107     39119     39109     39107     39119
     39110     39113     39114     39111     39110     39112     39111     39110     39113
     39112     39110     39113     39113     39114     39115     39113     39114     39116
     39114     39116     39117     39114     39116     39118     39114     39116     39166
     39115     39114     39116     39116     39166     39167     39116     39166     39168
     39116     39166     39169     39117     39116     39118     39117     39116     39166
     39118     39116     39166     39119     39122     39123     39119     39122     39124
     39119     39122     39125     39120     39119     39121     39120     39119     39122
     39121     39119     39122     39122     39125     39126     39122     39125     39127
     39122     39125     39128     39123     39122     39124     39123     39122     39125
     39124     39122     39125     39125     39128     39129     39125     39128     39130
     39125     39128     39131     39126     39125     39127     39126     39125     39128
     39127     39125     39128     39128     39131     39132     39128     39131     39133
     39128     39131     39134     39129     39128     39130     39129     39128     39131
     39130     39128     39131     39131     39134     39135     39131     39134     39136
     39131     39134     39137     39132     39131     39133     39132     39131     39134
     39133     39131     39134     39134     39137     39138     39134     39137     39139
     39135     39134     39136     39135     39134     39137     39136     39134     39137
     39137     39139     39140     39137     39139     39141     39138     39137     39139
     39139     39141     39142     39139     39141     39143     39139     39141     39144
     39140     39139     39141     39141     39144     39145     39141     39144     39146
     39141     39144     39147     39142     39141     39143     39142     39141     39144
     39143     39141     39144     39144     39147     39148     39144     39147     39149
     39144     39147     39150     39145     39144     39146     39145     39144     39147
     39146     39144     39147     39147     39150     39151     39147     39150     39152
     39147     39150     39153     39148     39147     39149     39148     39147     39150
     39149     39147     39150     39150     39153     39154     39150     39153     39155
     39150     39153     39156     39151     39150     39152     39151     39150     39153
     39152     39150     39153     39153     39156     39157     39153     39156     39158
     39153     39156     39159     39154     39153     39155     39154     39153     39156
     39155     39153     39156     39156     39159     39160     39156     39159     39161
     39156     39159     39162     39157     39156     39158     39157     39156     39159
     39158     39156     39159     39159     39162     39163     39159     39162     39164
     39159     39162     39165     39160     39159     39161     39160     39159     39162
     39161     39159     39162     39163     39162     39164     39163     39162     39165
     39164     39162     39165     39166     39169     39170     39166     39169     39171
     39166     39169     39172     39167     39166     39168     39167     39166     39169
     39168     39166     39169     39169     39172     39173     39169     39172     39174
     39169     39172     39175     39170     39169     39171     39170     39169     39172
     39171     39169     39172     39172     39175     39176     39172     39175     39177
     39172     39175     39178     39173     39172     39174     39173     39172     39175
     39174     39172     39175     39175     39178     39179     39175     39178     39180
     39175     39178     39181     39176     39175     39177     39176     39175     39178
     39177     39175     39178     39178     39181     39182     39178     39181     39183
     39178     39181     39184     39179     39178     39180     39179     39178     39181
     39180     39178     39181     39181     39184     39185     39181     39184     39186
     39181     39184     39187     39182     39181     39183     39182     39181     39184
     39183     39181     39184     39184     39187     39188     39184     39187     39189
     39184     39187     39190     39185     39184     39186     39185     39184     39187
     39186     39184     39187     39187     39190     39191     39187     39190     39192
     39187     39190     39193     39188     39187     39189     39188     39187     39190
     39189     39187     39190     39190     39193     39194     39190     39193     39195
     39190     39193     39196     39191     39190     39192     39191     39190     39193
     39192     39190     39193     39193     39196     39197     39193     39196     39198
     39193     39196     39199     39194     39193     39195     39194     39193     39196
     39195     39193     39196     39196     39199     39200     39196     39199     39201
     39196     39199     39202     39197     39196     39198     39197     39196     39199
     39198     39196     39199     39199     39202     39203     39199     39202     39204
     39199     39202     39205     39200     39199     39201     39200     39199     39202
     39201     39199     39202     39202     39205     39206     39202     39205     39207
     39202     39205     39208     39203     39202     39204     39203     39202     39205
     39204     39202     39205     39206     39205     39207     39206     39205     39208
     39207     39205     39208     39209     39213     39214     39209     39213     39215
     39209     39213     39216     39210     39209     39211     39210     39209     39212
     39210     39209     39213     39211     39209     39212     39211     39209     39213
     39212     39209     39213     39213     39216     39217     39213     39216     39218
     39213     39216     39223     39214     39213     39215     39214     39213     39216
     39215     39213     39216     39216     39223     39219     39217     39216     39218
     39217     39216     39223     39218     39216     39223     39219     39222     39224
     39220     39219     39221     39220     39219     39222     39220     39219     39223
     39221     39219     39222     39221     39219     39223     39222     39219     39223
     39222     39224     39225     39222     39224     39226     39222     39224     39227
     39224     39227     39228     39224     39227     39229     39224     39227     39235
     39225     39224     39226     39225     39224     39227     39226     39224     39227
     39227     39229     39230     39227     39235     39236     39227     39235     39237
     39227     39235     39238     39228     39227     39229     39228     39227     39235
     39229     39227     39235     39229     39230     39231     39229     39230     39232
     39230     39232     39233     39230     39232     39234     39230     39232     39244
     39231     39230     39232     39232     39244     39245     39232     39244     39246
     39232     39244     39247     39233     39232     39234     39233     39232     39244
     39234     39232     39244     39235     39238     39239     39236     39235     39237
     39236     39235     39238     39237     39235     39238     39238     39239     39240
     39238     39239     39241     39239     39241     39242     39239     39241     39243
     39239     39241     39288     39240     39239     39241     39241     39288     39289
     39241     39288     39290     39241     39288     39291     39242     39241     39243
     39242     39241     39288     39243     39241     39288     39244     39247     39248
     39244     39247     39249     39244     39247     39250     39245     39244     39246
     39245     39244     39247     39246     39244     39247     39247     39250     39251
     39247     39250     39252     39247     39250     39253     39248     39247     39249
     39248     39247     39250     39249     39247     39250     39250     39253     39254
     39250     39253     39255     39250     39253     39256     39251     39250     39252
     39251     39250     39253     39252     39250     39253     39253     39256     39257
     39253     39256     39258     39253     39256     39259     39254     39253     39255
     39254     39253     39256     39255     39253     39256     39256     39259     39260
     39256     39259     39261     39256     39259     39262     39257     39256     39258
     39257     39256     39259     39258     39256     39259     39259     39262     39263
     39259     39262     39264     39259     39262     39267     39260     39259     39261
     39260     39259     39262     39261     39259     39262     39262     39264     39265
     39262     39264     39266     39262     39264     39267     39262     39267     39264
     39262     39267     39268     39262     39267     39269     39263     39262     39264
     39263     39262     39267     39264     39262     39267     39264     39267     39268
     39264     39267     39269     39265     39264     39266     39265     39264     39267
     39266     39264     39267     39267     39269     39270     39267     39269     39271
     39267     39269     39272     39268     39267     39269     39269     39272     39273
     39269     39272     39274     39269     39272     39275     39270     39269     39271
     39270     39269     39272     39271     39269     39272     39272     39275     39276
     39272     39275     39277     39272     39275     39278     39273     39272     39274
     39273     39272     39275     39274     39272     39275     39275     39278     39279
     39275     39278     39280     39275     39278     39281     39276     39275     39277
     39276     39275     39278     39277     39275     39278     39278     39281     39282
     39278     39281     39283     39278     39281     39284     39279     39278     39280
     39279     39278     39281     39280     39278     39281     39281     39284     39285
     39281     39284     39286     39281     39284     39287     39282     39281     39283
     39282     39281     39284     39283     39281     39284     39285     39284     39286
     39285     39284     39287     39286     39284     39287     39288     39291     39292
     39288     39291     39293     39288     39291     39294     39289     39288     39290
     39289     39288     39291     39290     39288     39291     39291     39294     39295
     39291     39294     39296     39291     39294     39297     39292     39291     39293
     39292     39291     39294     39293     39291     39294     39294     39297     39298
     39294     39297     39299     39294     39297     39300     39295     39294     39296
     39295     39294     39297     39296     39294     39297     39297     39300     39301
     39297     39300     39302     39297     39300     39303     39298     39297     39299
     39298     39297     39300     39299     39297     39300     39300     39303     39304
     39300     39303     39305     39300     39303     39306     39301     39300     39302
     39301     39300     39303     39302     39300     39303     39303     39306     39307
     39303     39306     39308     39303     39306     39309     39304     39303     39305
     39304     39303     39306     39305     39303     39306     39306     39309     39310
     39306     39309     39311     39306     39309     39312     39307     39306     39308
     39307     39306     39309     39308     39306     39309     39309     39312     39313
     39309     39312     39314     39309     39312     39315     39310     39309     39311
     39310     39309     39312     39311     39309     39312     39312     39315     39316
     39312     39315     39317     39312     39315     39318     39313     39312     39314
     39313     39312     39315     39314     39312     39315     39315     39318     39319
     39315     39318     39320     39315     39318     39321     39316     39315     39317
     39316     39315     39318     39317     39315     39318     39318     39321     39322
     39318     39321     39323     39318     39321     39324     39319     39318     39320
     39319     39318     39321     39320     39318     39321     39321     39324     39325
     39321     39324     39326     39321     39324     39327     39322     39321     39323
     39322     39321     39324     39323     39321     39324     39324     39327     39328
     39324     39327     39329     39324     39327     39330     39325     39324     39326
     39325     39324     39327     39326     39324     39327     39328     39327     39329
     39328     39327     39330     39329     39327     39330     39331     39334     39335
     39331     39336     39337     39331     39336     39338     39331     39336     39340
     39332     39331     39333     39332     39331     39334     39332     39331     39336
     39333     39331     39334     39333     39331     39336     39334     39331     39336
     39336     39338     39339     39336     39340     39341     39336     39340     39342
     39336     39340     39347     39337     39336     39338     39337     39336     39340
     39338     39336     39340     39340     39347     39343     39341     39340     39342
     39341     39340     39347     39342     39340     39347     39343     39346     39348
     39344     39343     39345     39344     39343     39346     39344     39343     39347
     39345     39343     39346     39345     39343     39347     39346     39343     39347
     39346     39348     39349     39346     39348     39350     39346     39348     39351
     39348     39351     39352     39348     39351     39353     39348     39351     39359
     39349     39348     39350     39349     39348     39351     39350     39348     39351
     39351     39353     39354     39351     39359     39360     39351     39359     39361
     39351     39359     39362     39352     39351     39353     39352     39351     39359
     39353     39351     39359     39353     39354     39355     39353     39354     39356
     39354     39356     39357     39354     39356     39358     39354     39356     39368
     39355     39354     39356     39356     39368     39369     39356     39368     39370
     39356     39368     39371     39357     39356     39358     39357     39356     39368
     39358     39356     39368     39359     39362     39363     39360     39359     39361
     39360     39359     39362     39361     39359     39362     39362     39363     39364
     39362     39363     39365     39363     39365     39366     39363     39365     39367
     39363     39365     39412     39364     39363     39365     39365     39412     39413
     39365     39412     39414     39365     39412     39415     39366     39365     39367
     39366     39365     39412     39367     39365     39412     39368     39371     39372
     39368     39371     39373     39368     39371     39374     39369     39368     39370
     39369     39368     39371     39370     39368     39371     39371     39374     39375
     39371     39374     39376     39371     39374     39377     39372     39371     39373
     39372     39371     39374     39373     39371     39374     39374     39377     39378
     39374     39377     39379     39374     39377     39380     39375     39374     39376
     39375     39374     39377     39376     39374     39377     39377     39380     39381
     39377     39380     39382     39377     39380     39383     39378     39377     39379
     39378     39377     39380     39379     39377     39380     39380     39383     39384
     39380     39383     39385     39380     39383     39386     39381     39380     39382
     39381     39380     39383     39382     39380     39383     39383     39386     39387
     39383     39386     39388     39383     39386     39391     39384     39383     39385
     39384     39383     39386     39385     39383     39386     39386     39388     39389
     39386     39388     39390     39386     39388     39391     39386     39391     39388
     39386     39391     39392     39386     39391     39393     39387     39386     39388
     39387     39386     39391     39388     39386     39391     39388     39391     39392
     39388     39391     39393     39389     39388     39390     39389     39388     39391
     39390     39388     39391     39391     39393     39394     39391     39393     39395
     39391     39393     39396     39392     39391     39393     39393     39396     39397
     39393     39396     39398     39393     39396     39399     39394     39393     39395
     39394     39393     39396     39395     39393     39396     39396     39399     39400
     39396     39399     39401     39396     39399     39402     39397     39396     39398
     39397     39396     39399     39398     39396     39399     39399     39402     39403
     39399     39402     39404     39399     39402     39405     39400     39399     39401
     39400     39399     39402     39401     39399     39402     39402     39405     39406
     39402     39405     39407     39402     39405     39408     39403     39402     39404
     39403     39402     39405     39404     39402     39405     39405     39408     39409
     39405     39408     39410     39405     39408     39411     39406     39405     39407
     39406     39405     39408     39407     39405     39408     39409     39408     39410
     39409     39408     39411     39410     39408     39411     39412     39415     39416
     39412     39415     39417     39412     39415     39418     39413     39412     39414
     39413     39412     39415     39414     39412     39415     39415     39418     39419
     39415     39418     39420     39415     39418     39421     39416     39415     39417
     39416     39415     39418     39417     39415     39418     39418     39421     39422
     39418     39421     39423     39418     39421     39424     39419     39418     39420
     39419     39418     39421     39420     39418     39421     39421     39424     39425
     39421     39424     39426     39421     39424     39427     39422     39421     39423
     39422     39421     39424     39423     39421     39424     39424     39427     39428
     39424     39427     39429     39424     39427     39430     39425     39424     39426
     39425     39424     39427     39426     39424     39427     39427     39430     39431
     39427     39430     39432     39427     39430     39433     39428     39427     39429
     39428     39427     39430     39429     39427     39430     39430     39433     39434
     39430     39433     39435     39430     39433     39436     39431     39430     39432
     39431     39430     39433     39432     39430     39433     39433     39436     39437
     39433     39436     39438     39433     39436     39439     39434     39433     39435
     39434     39433     39436     39435     39433     39436     39436     39439     39440
     39436     39439     39441     39436     39439     39442     39437     39436     39438
     39437     39436     39439     39438     39436     39439     39439     39442     39443
     39439     39442     39444     39439     39442     39445     39440     39439     39441
     39440     39439     39442     39441     39439     39442     39442     39445     39446
     39442     39445     39447     39442     39445     39448     39443     39442     39444
     39443     39442     39445     39444     39442     39445     39445     39448     39449
     39445     39448     39450     39445     39448     39451     39446     39445     39447
     39446     39445     39448     39447     39445     39448     39448     39451     39452
     39448     39451     39453     39448     39451     39454     39449     39448     39450
     39449     39448     39451     39450     39448     39451     39452     39451     39453
     39452     39451     39454     39453     39451     39454     39455     39458     39459
     39455     39460     39461     39455     39460     39462     39455     39460     39464
     39456     39455     39457     39456     39455     39458     39456     39455     39460
     39457     39455     39458     39457     39455     39460     39458     39455     39460
     39460     39462     39463     39460     39464     39465     39460     39464     39466
     39460     39464     39471     39461     39460     39462     39461     39460     39464
     39462     39460     39464     39464     39471     39467     39465     39464     39466
     39465     39464     39471     39466     39464     39471     39467     39470     39472
     39468     39467     39469     39468     39467     39470     39468     39467     39471
     39469     39467     39470     39469     39467     39471     39470     39467     39471
     39470     39472     39473     39470     39472     39474     39470     39472     39475
     39472     39475     39476     39472     39475     39477     39472     39475     39483
     39473     39472     39474     39473     39472     39475     39474     39472     39475
     39475     39477     39478     39475     39483     39484     39475     39483     39485
     39475     39483     39486     39476     39475     39477     39476     39475     39483
     39477     39475     39483     39477     39478     39479     39477     39478     39480
     39478     39480     39481     39478     39480     39482     39478     39480     39492
     39479     39478     39480     39480     39492     39493     39480     39492     39494
     39480     39492     39495     39481     39480     39482     39481     39480     39492
     39482     39480     39492     39483     39486     39487     39484     39483     39485
     39484     39483     39486     39485     39483     39486     39486     39487     39488
     39486     39487     39489     39487     39489     39490     39487     39489     39491
     39487     39489     39533     39488     39487     39489     39489     39533     39534
     39489     39533     39535     39489     39533     39536     39490     39489     39491
     39490     39489     39533     39491     39489     39533     39492     39495     39496
     39492     39495     39497     39492     39495     39498     39493     39492     39494
     39493     39492     39495     39494     39492     39495     39495     39498     39499
     39495     39498     39500     39495     39498     39501     39496     39495     39497
     39496     39495     39498     39497     39495     39498     39498     39501     39502
     39498     39501     39503     39498     39501     39504     39499     39498     39500
     39499     39498     39501     39500     39498     39501     39501     39504     39505
     39501     39504     39506     39501     39504     39507     39502     39501     39503
     39502     39501     39504     39503     39501     39504     39504     39507     39508
     39504     39507     39509     39504     39507     39510     39505     39504     39506
     39505     39504     39507     39506     39504     39507     39507     39510     39511
     39507     39510     39512     39508     39507     39509     39508     39507     39510
     39509     39507     39510     39510     39512     39513     39510     39512     39514
     39511     39510     39512     39512     39514     39515     39512     39514     39516
     39512     39514     39517     39513     39512     39514     39514     39517     39518
     39514     39517     39519     39514     39517     39520     39515     39514     39516
     39515     39514     39517     39516     39514     39517     39517     39520     39521
     39517     39520     39522     39517     39520     39523     39518     39517     39519
     39518     39517     39520     39519     39517     39520     39520     39523     39524
     39520     39523     39525     39520     39523     39526     39521     39520     39522
     39521     39520     39523     39522     39520     39523     39523     39526     39527
     39523     39526     39528     39523     39526     39529     39524     39523     39525
     39524     39523     39526     39525     39523     39526     39526     39529     39530
     39526     39529     39531     39526     39529     39532     39527     39526     39528
     39527     39526     39529     39528     39526     39529     39530     39529     39531
     39530     39529     39532     39531     39529     39532     39533     39536     39537
     39533     39536     39538     39533     39536     39539     39534     39533     39535
     39534     39533     39536     39535     39533     39536     39536     39539     39540
     39536     39539     39541     39536     39539     39542     39537     39536     39538
     39537     39536     39539     39538     39536     39539     39539     39542     39543
     39539     39542     39544     39539     39542     39545     39540     39539     39541
     39540     39539     39542     39541     39539     39542     39542     39545     39546
     39542     39545     39547     39542     39545     39548     39543     39542     39544
     39543     39542     39545     39544     39542     39545     39545     39548     39549
     39545     39548     39550     39545     39548     39551     39546     39545     39547
     39546     39545     39548     39547     39545     39548     39548     39551     39552
     39548     39551     39553     39548     39551     39554     39549     39548     39550
     39549     39548     39551     39550     39548     39551     39551     39554     39555
     39551     39554     39556     39551     39554     39557     39552     39551     39553
     39552     39551     39554     39553     39551     39554     39554     39557     39558
     39554     39557     39559     39554     39557     39560     39555     39554     39556
     39555     39554     39557     39556     39554     39557     39557     39560     39561
     39557     39560     39562     39557     39560     39563     39558     39557     39559
     39558     39557     39560     39559     39557     39560     39560     39563     39564
     39560     39563     39565     39560     39563     39566     39561     39560     39562
     39561     39560     39563     39562     39560     39563     39563     39566     39567
     39563     39566     39568     39563     39566     39569     39564     39563     39565
     39564     39563     39566     39565     39563     39566     39566     39569     39570
     39566     39569     39571     39566     39569     39572     39567     39566     39568
     39567     39566     39569     39568     39566     39569     39569     39572     39573
     39569     39572     39574     39569     39572     39575     39570     39569     39571
     39570     39569     39572     39571     39569     39572     39573     39572     39574
     39573     39572     39575     39574     39572     39575     39576     39582     39579
     39576     39587     39588     39576     39587     39589     39576     39587     39591
     39577     39576     39578     39577     39576     39582     39577     39576     39587
     39578     39576     39582     39578     39576     39587     39579     39583     39584
     39580     39579     39581     39580     39579     39582     39580     39579     39583
     39581     39579     39582     39581     39579     39583     39582     39576     39587
     39582     39579     39583     39583     39584     39585     39583     39584     39586
     39583     39584     39619     39584     39619     39620     39584     39619     39621
     39584     39619     39627     39585     39584     39586     39585     39584     39619
     39586     39584     39619     39587     39589     39590     39587     39591     39592
     39587     39591     39593     39587     39591     39597     39588     39587     39589
     39588     39587     39591     39589     39587     39591     39591     39597     39594
     39592     39591     39593     39592     39591     39597     39593     39591     39597
     39594     39598     39599     39595     39594     39596     39595     39594     39597
     39595     39594     39598     39596     39594     39597     39596     39594     39598
     39597     39594     39598     39598     39599     39600     39598     39599     39601
     39598     39599     39602     39599     39602     39603     39599     39602     39604
     39599     39602     39610     39600     39599     39601     39600     39599     39602
     39601     39599     39602     39602     39604     39605     39602     39610     39611
     39602     39610     39612     39602     39610     39613     39603     39602     39604
     39603     39602     39610     39604     39602     39610     39604     39605     39606
     39604     39605     39607     39605     39607     39608     39605     39607     39609
     39605     39607     39636     39606     39605     39607     39607     39636     39637
     39607     39636     39638     39607     39636     39639     39608     39607     39609
     39608     39607     39636     39609     39607     39636     39610     39613     39614
     39611     39610     39612     39611     39610     39613     39612     39610     39613
     39613     39614     39615     39613     39614     39616     39614     39616     39617
     39614     39616     39618     39614     39616     39683     39615     39614     39616
     39616     39683     39684     39616     39683     39685     39616     39683     39686
     39617     39616     39618     39617     39616     39683     39618     39616     39683
     39619     39621     39622     39619     39627     39628     39619     39627     39629
     39619     39627     39630     39620     39619     39621     39620     39619     39627
     39621     39619     39627     39621     39622     39623     39621     39622     39624
     39622     39624     39625     39622     39624     39626     39622     39624     39726
     39623     39622     39624     39624     39726     39727     39624     39726     39728
     39624     39726     39729     39625     39624     39626     39625     39624     39726
     39626     39624     39726     39627     39630     39631     39628     39627     39629
     39628     39627     39630     39629     39627     39630     39630     39631     39632
     39630     39631     39633     39631     39633     39634     39631     39633     39635
     39631     39633     39773     39632     39631     39633     39633     39773     39774
     39633     39773     39775     39633     39773     39776     39634     39633     39635
     39634     39633     39773     39635     39633     39773     39636     39639     39640
     39636     39639     39641     39636     39639     39642     39637     39636     39638
     39637     39636     39639     39638     39636     39639     39639     39642     39643
     39639     39642     39644     39639     39642     39645     39640     39639     39641
     39640     39639     39642     39641     39639     39642     39642     39645     39646
     39642     39645     39647     39642     39645     39648     39643     39642     39644
     39643     39642     39645     39644     39642     39645     39645     39648     39649
     39645     39648     39650     39645     39648     39651     39646     39645     39647
     39646     39645     39648     39647     39645     39648     39648     39651     39652
     39648     39651     39653     39648     39651     39654     39649     39648     39650
     39649     39648     39651     39650     39648     39651     39651     39654     39655
     39651     39654     39656     39651     39654     39657     39652     39651     39653
     39652     39651     39654     39653     39651     39654     39654     39657     39658
     39654     39657     39659     39654     39657     39660     39655     39654     39656
     39655     39654     39657     39656     39654     39657     39657     39660     39661
     39657     39660     39662     39658     39657     39659     39658     39657     39660
     39659     39657     39660     39660     39662     39663     39660     39662     39664
     39661     39660     39662     39662     39664     39665     39662     39664     39666
     39662     39664     39667     39663     39662     39664     39664     39667     39668
     39664     39667     39669     39664     39667     39670     39665     39664     39666
     39665     39664     39667     39666     39664     39667     39667     39670     39671
     39667     39670     39672     39667     39670     39673     39668     39667     39669
     39668     39667     39670     39669     39667     39670     39670     39673     39674
     39670     39673     39675     39670     39673     39676     39671     39670     39672
     39671     39670     39673     39672     39670     39673     39673     39676     39677
     39673     39676     39678     39673     39676     39679     39674     39673     39675
     39674     39673     39676     39675     39673     39676     39676     39679     39680
     39676     39679     39681     39676     39679     39682     39677     39676     39678
     39677     39676     39679     39678     39676     39679     39680     39679     39681
     39680     39679     39682     39681     39679     39682     39683     39686     39687
     39683     39686     39688     39683     39686     39689     39684     39683     39685
     39684     39683     39686     39685     39683     39686     39686     39689     39690
     39686     39689     39691     39686     39689     39692     39687     39686     39688
     39687     39686     39689     39688     39686     39689     39689     39692     39693
     39689     39692     39694     39689     39692     39695     39690     39689     39691
     39690     39689     39692     39691     39689     39692     39692     39695     39696
     39692     39695     39697     39692     39695     39698     39693     39692     39694
     39693     39692     39695     39694     39692     39695     39695     39698     39699
     39695     39698     39700     39695     39698     39701     39696     39695     39697
     39696     39695     39698     39697     39695     39698     39698     39701     39702
     39698     39701     39703     39698     39701     39704     39699     39698     39700
     39699     39698     39701     39700     39698     39701     39701     39704     39705
     39701     39704     39706     39701     39704     39707     39702     39701     39703
     39702     39701     39704     39703     39701     39704     39704     39707     39708
     39704     39707     39709     39704     39707     39710     39705     39704     39706
     39705     39704     39707     39706     39704     39707     39707     39710     39711
     39707     39710     39712     39707     39710     39713     39708     39707     39709
     39708     39707     39710     39709     39707     39710     39710     39713     39714
     39710     39713     39715     39710     39713     39716     39711     39710     39712
     39711     39710     39713     39712     39710     39713     39713     39716     39717
     39713     39716     39718     39713     39716     39719     39714     39713     39715
     39714     39713     39716     39715     39713     39716     39716     39719     39720
     39716     39719     39721     39716     39719     39722     39717     39716     39718
     39717     39716     39719     39718     39716     39719     39719     39722     39723
     39719     39722     39724     39719     39722     39725     39720     39719     39721
     39720     39719     39722     39721     39719     39722     39723     39722     39724
     39723     39722     39725     39724     39722     39725     39726     39729     39730
     39726     39729     39731     39726     39729     39732     39727     39726     39728
     39727     39726     39729     39728     39726     39729     39729     39732     39733
     39729     39732     39734     39729     39732     39735     39730     39729     39731
     39730     39729     39732     39731     39729     39732     39732     39735     39736
     39732     39735     39737     39732     39735     39738     39733     39732     39734
     39733     39732     39735     39734     39732     39735     39735     39738     39739
     39735     39738     39740     39735     39738     39741     39736     39735     39737
     39736     39735     39738     39737     39735     39738     39738     39741     39742
     39738     39741     39743     39738     39741     39744     39739     39738     39740
     39739     39738     39741     39740     39738     39741     39741     39744     39745
     39741     39744     39746     39741     39744     39747     39742     39741     39743
     39742     39741     39744     39743     39741     39744     39744     39747     39748
     39744     39747     39749     39744     39747     39750     39745     39744     39746
     39745     39744     39747     39746     39744     39747     39747     39750     39751
     39747     39750     39752     39748     39747     39749     39748     39747     39750
     39749     39747     39750     39750     39752     39753     39750     39752     39754
     39751     39750     39752     39752     39754     39755     39752     39754     39756
     39752     39754     39757     39753     39752     39754     39754     39757     39758
     39754     39757     39759     39754     39757     39760     39755     39754     39756
     39755     39754     39757     39756     39754     39757     39757     39760     39761
     39757     39760     39762     39757     39760     39763     39758     39757     39759
     39758     39757     39760     39759     39757     39760     39760     39763     39764
     39760     39763     39765     39760     39763     39766     39761     39760     39762
     39761     39760     39763     39762     39760     39763     39763     39766     39767
     39763     39766     39768     39763     39766     39769     39764     39763     39765
     39764     39763     39766     39765     39763     39766     39766     39769     39770
     39766     39769     39771     39766     39769     39772     39767     39766     39768
     39767     39766     39769     39768     39766     39769     39770     39769     39771
     39770     39769     39772     39771     39769     39772     39773     39776     39777
     39773     39776     39778     39773     39776     39779     39774     39773     39775
     39774     39773     39776     39775     39773     39776     39776     39779     39780
     39776     39779     39781     39776     39779     39782     39777     39776     39778
     39777     39776     39779     39778     39776     39779     39779     39782     39783
     39779     39782     39784     39779     39782     39785     39780     39779     39781
     39780     39779     39782     39781     39779     39782     39782     39785     39786
     39782     39785     39787     39782     39785     39788     39783     39782     39784
     39783     39782     39785     39784     39782     39785     39785     39788     39789
     39785     39788     39790     39785     39788     39791     39786     39785     39787
     39786     39785     39788     39787     39785     39788     39788     39791     39792
     39788     39791     39793     39788     39791     39794     39789     39788     39790
     39789     39788     39791     39790     39788     39791     39791     39794     39795
     39791     39794     39796     39791     39794     39797     39792     39791     39793
     39792     39791     39794     39793     39791     39794     39794     39797     39798
     39794     39797     39799     39794     39797     39800     39795     39794     39796
     39795     39794     39797     39796     39794     39797     39797     39800     39801
     39797     39800     39802     39797     39800     39803     39798     39797     39799
     39798     39797     39800     39799     39797     39800     39800     39803     39804
     39800     39803     39805     39800     39803     39806     39801     39800     39802
     39801     39800     39803     39802     39800     39803     39803     39806     39807
     39803     39806     39808     39803     39806     39809     39804     39803     39805
     39804     39803     39806     39805     39803     39806     39806     39809     39810
     39806     39809     39811     39806     39809     39812     39807     39806     39808
     39807     39806     39809     39808     39806     39809     39809     39812     39813
     39809     39812     39814     39809     39812     39815     39810     39809     39811
     39810     39809     39812     39811     39809     39812     39813     39812     39814
     39813     39812     39815     39814     39812     39815     39816     39820     39821
     39816     39820     39822     39816     39820     39823     39817     39816     39818
     39817     39816     39819     39817     39816     39820     39818     39816     39819
     39818     39816     39820     39819     39816     39820     39820     39823     39824
     39820     39823     39825     39820     39823     39830     39821     39820     39822
     39821     39820     39823     39822     39820     39823     39823     39830     39826
     39824     39823     39825     39824     39823     39830     39825     39823     39830
     39826     39829     39831     39827     39826     39828     39827     39826     39829
     39827     39826     39830     39828     39826     39829     39828     39826     39830
     39829     39826     39830     39829     39831     39832     39829     39831     39833
     39829     39831     39834     39831     39834     39835     39831     39834     39836
     39831     39834     39842     39832     39831     39833     39832     39831     39834
     39833     39831     39834     39834     39836     39837     39834     39842     39843
     39834     39842     39844     39834     39842     39845     39835     39834     39836
     39835     39834     39842     39836     39834     39842     39836     39837     39838
     39836     39837     39839     39837     39839     39840     39837     39839     39841
     39837     39839     39851     39838     39837     39839     39839     39851     39852
     39839     39851     39853     39839     39851     39854     39840     39839     39841
     39840     39839     39851     39841     39839     39851     39842     39845     39846
     39843     39842     39844     39843     39842     39845     39844     39842     39845
     39845     39846     39847     39845     39846     39848     39846     39848     39849
     39846     39848     39850     39846     39848     39895     39847     39846     39848
     39848     39895     39896     39848     39895     39897     39848     39895     39898
     39849     39848     39850     39849     39848     39895     39850     39848     39895
     39851     39854     39855     39851     39854     39856     39851     39854     39857
     39852     39851     39853     39852     39851     39854     39853     39851     39854
     39854     39857     39858     39854     39857     39859     39854     39857     39860
     39855     39854     39856     39855     39854     39857     39856     39854     39857
     39857     39860     39861     39857     39860     39862     39857     39860     39863
     39858     39857     39859     39858     39857     39860     39859     39857     39860
     39860     39863     39864     39860     39863     39865     39860     39863     39866
     39861     39860     39862     39861     39860     39863     39862     39860     39863
     39863     39866     39867     39863     39866     39868     39863     39866     39869
     39864     39863     39865     39864     39863     39866     39865     39863     39866
     39866     39869     39870     39866     39869     39871     39866     39869     39874
     39867     39866     39868     39867     39866     39869     39868     39866     39869
     39869     39871     39872     39869     39871     39873     39869     39871     39874
     39869     39874     39871     39869     39874     39875     39869     39874     39876
     39870     39869     39871     39870     39869     39874     39871     39869     39874
     39871     39874     39875     39871     39874     39876     39872     39871     39873
     39872     39871     39874     39873     39871     39874     39874     39876     39877
     39874     39876     39878     39874     39876     39879     39875     39874     39876
     39876     39879     39880     39876     39879     39881     39876     39879     39882
     39877     39876     39878     39877     39876     39879     39878     39876     39879
     39879     39882     39883     39879     39882     39884     39879     39882     39885
     39880     39879     39881     39880     39879     39882     39881     39879     39882
     39882     39885     39886     39882     39885     39887     39882     39885     39888
     39883     39882     39884     39883     39882     39885     39884     39882     39885
     39885     39888     39889     39885     39888     39890     39885     39888     39891
     39886     39885     39887     39886     39885     39888     39887     39885     39888
     39888     39891     39892     39888     39891     39893     39888     39891     39894
     39889     39888     39890     39889     39888     39891     39890     39888     39891
     39892     39891     39893     39892     39891     39894     39893     39891     39894
     39895     39898     39899     39895     39898     39900     39895     39898     39901
     39896     39895     39897     39896     39895     39898     39897     39895     39898
     39898     39901     39902     39898     39901     39903     39898     39901     39904
     39899     39898     39900     39899     39898     39901     39900     39898     39901
     39901     39904     39905     39901     39904     39906     39901     39904     39907
     39902     39901     39903     39902     39901     39904     39903     39901     39904
     39904     39907     39908     39904     39907     39909     39904     39907     39910
     39905     39904     39906     39905     39904     39907     39906     39904     39907
     39907     39910     39911     39907     39910     39912     39907     39910     39913
     39908     39907     39909     39908     39907     39910     39909     39907     39910
     39910     39913     39914     39910     39913     39915     39910     39913     39916
     39911     39910     39912     39911     39910     39913     39912     39910     39913
     39913     39916     39917     39913     39916     39918     39913     39916     39919
     39914     39913     39915     39914     39913     39916     39915     39913     39916
     39916     39919     39920     39916     39919     39921     39916     39919     39922
     39917     39916     39918     39917     39916     39919     39918     39916     39919
     39919     39922     39923     39919     39922     39924     39919     39922     39925
     39920     39919     39921     39920     39919     39922     39921     39919     39922
     39922     39925     39926     39922     39925     39927     39922     39925     39928
     39923     39922     39924     39923     39922     39925     39924     39922     39925
     39925     39928     39929     39925     39928     39930     39925     39928     39931
     39926     39925     39927     39926     39925     39928     39927     39925     39928
     39928     39931     39932     39928     39931     39933     39928     39931     39934
     39929     39928     39930     39929     39928     39931     39930     39928     39931
     39932     39931     39933     39932     39931     39934     39933     39931     39934
     39935     39938     39939     39935     39940     39941     39935     39940     39942
     39935     39940     39944     39936     39935     39937     39936     39935     39938
     39936     39935     39940     39937     39935     39938     39937     39935     39940
     39938     39935     39940     39940     39942     39943     39940     39944     39945
     39940     39944     39946     39940     39944     39951     39941     39940     39942
     39941     39940     39944     39942     39940     39944     39944     39951     39947
     39945     39944     39946     39945     39944     39951     39946     39944     39951
     39947     39950     39952     39948     39947     39949     39948     39947     39950
     39948     39947     39951     39949     39947     39950     39949     39947     39951
     39950     39947     39951     39950     39952     39953     39950     39952     39954
     39950     39952     39955     39952     39955     39956     39952     39955     39957
     39952     39955     39963     39953     39952     39954     39953     39952     39955
     39954     39952     39955     39955     39957     39958     39955     39963     39964
     39955     39963     39965     39955     39963     39966     39956     39955     39957
     39956     39955     39963     39957     39955     39963     39957     39958     39959
     39957     39958     39960     39958     39960     39961     39958     39960     39962
     39958     39960     39972     39959     39958     39960     39960     39972     39973
     39960     39972     39974     39960     39972     39975     39961     39960     39962
     39961     39960     39972     39962     39960     39972     39963     39966     39967
     39964     39963     39965     39964     39963     39966     39965     39963     39966
     39966     39967     39968     39966     39967     39969     39967     39969     39970
     39967     39969     39971     39967     39969     40016     39968     39967     39969
     39969     40016     40017     39969     40016     40018     39969     40016     40019
     39970     39969     39971     39970     39969     40016     39971     39969     40016
     39972     39975     39976     39972     39975     39977     39972     39975     39978
     39973     39972     39974     39973     39972     39975     39974     39972     39975
     39975     39978     39979     39975     39978     39980     39975     39978     39981
     39976     39975     39977     39976     39975     39978     39977     39975     39978
     39978     39981     39982     39978     39981     39983     39978     39981     39984
     39979     39978     39980     39979     39978     39981     39980     39978     39981
     39981     39984     39985     39981     39984     39986     39981     39984     39987
     39982     39981     39983     39982     39981     39984     39983     39981     39984
     39984     39987     39988     39984     39987     39989     39984     39987     39990
     39985     39984     39986     39985     39984     39987     39986     39984     39987
     39987     39990     39991     39987     39990     39992     39987     39990     39995
     39988     39987     39989     39988     39987     39990     39989     39987     39990
     39990     39992     39993     39990     39992     39994     39990     39992     39995
     39990     39995     39992     39990     39995     39996     39990     39995     39997
     39991     39990     39992     39991     39990     39995     39992     39990     39995
     39992     39995     39996     39992     39995     39997     39993     39992     39994
     39993     39992     39995     39994     39992     39995     39995     39997     39998
     39995     39997     39999     39995     39997     40000     39996     39995     39997
     39997     40000     40001     39997     40000     40002     39997     40000     40003
     39998     39997     39999     39998     39997     40000     39999     39997     40000
     40000     40003     40004     40000     40003     40005     40000     40003     40006
     40001     40000     40002     40001     40000     40003     40002     40000     40003
     40003     40006     40007     40003     40006     40008     40003     40006     40009
     40004     40003     40005     40004     40003     40006     40005     40003     40006
     40006     40009     40010     40006     40009     40011     40006     40009     40012
     40007     40006     40008     40007     40006     40009     40008     40006     40009
     40009     40012     40013     40009     40012     40014     40009     40012     40015
     40010     40009     40011     40010     40009     40012     40011     40009     40012
     40013     40012     40014     40013     40012     40015     40014     40012     40015
     40016     40019     40020     40016     40019     40021     40016     40019     40022
     40017     40016     40018     40017     40016     40019     40018     40016     40019
     40019     40022     40023     40019     40022     40024     40019     40022     40025
     40020     40019     40021     40020     40019     40022     40021     40019     40022
     40022     40025     40026     40022     40025     40027     40022     40025     40028
     40023     40022     40024     40023     40022     40025     40024     40022     40025
     40025     40028     40029     40025     40028     40030     40025     40028     40031
     40026     40025     40027     40026     40025     40028     40027     40025     40028
     40028     40031     40032     40028     40031     40033     40028     40031     40034
     40029     40028     40030     40029     40028     40031     40030     40028     40031
     40031     40034     40035     40031     40034     40036     40031     40034     40037
     40032     40031     40033     40032     40031     40034     40033     40031     40034
     40034     40037     40038     40034     40037     40039     40034     40037     40040
     40035     40034     40036     40035     40034     40037     40036     40034     40037
     40037     40040     40041     40037     40040     40042     40037     40040     40043
     40038     40037     40039     40038     40037     40040     40039     40037     40040
     40040     40043     40044     40040     40043     40045     40040     40043     40046
     40041     40040     40042     40041     40040     40043     40042     40040     40043
     40043     40046     40047     40043     40046     40048     40043     40046     40049
     40044     40043     40045     40044     40043     40046     40045     40043     40046
     40046     40049     40050     40046     40049     40051     40046     40049     40052
     40047     40046     40048     40047     40046     40049     40048     40046     40049
     40049     40052     40053     40049     40052     40054     40049     40052     40055
     40050     40049     40051     40050     40049     40052     40051     40049     40052
     40052     40055     40056     40052     40055     40057     40052     40055     40058
     40053     40052     40054     40053     40052     40055     40054     40052     40055
     40056     40055     40057     40056     40055     40058     40057     40055     40058
     40059     40063     40064     40059     40063     40065     40059     40063     40066
     40060     40059     40061     40060     40059     40062     40060     40059     40063
     40061     40059     40062     40061     40059     40063     40062     40059     40063
     40063     40066     40067     40063     40066     40068     40063     40066     40073
     40064     40063     40065     40064     40063     40066     40065     40063     40066
     40066     40073     40069     40067     40066     40068     40067     40066     40073
     40068     40066     40073     40069     40072     40074     40070     40069     40071
     40070     40069     40072     40070     40069     40073     40071     40069     40072
     40071     40069     40073     40072     40069     40073     40072     40074     40075
     40072     40074     40076     40072     40074     40077     40074     40077     40078
     40074     40077     40079     40074     40077     40085     40075     40074     40076
     40075     40074     40077     40076     40074     40077     40077     40079     40080
     40077     40085     40086     40077     40085     40087     40077     40085     40088
     40078     40077     40079     40078     40077     40085     40079     40077     40085
     40079     40080     40081     40079     40080     40082     40080     40082     40083
     40080     40082     40084     40080     40082     40094     40081     40080     40082
     40082     40094     40095     40082     40094     40096     40082     40094     40097
     40083     40082     40084     40083     40082     40094     40084     40082     40094
     40085     40088     40089     40086     40085     40087     40086     40085     40088
     40087     40085     40088     40088     40089     40090     40088     40089     40091
     40089     40091     40092     40089     40091     40093     40089     40091     40138
     40090     40089     40091     40091     40138     40139     40091     40138     40140
     40091     40138     40141     40092     40091     40093     40092     40091     40138
     40093     40091     40138     40094     40097     40098     40094     40097     40099
     40094     40097     40100     40095     40094     40096     40095     40094     40097
     40096     40094     40097     40097     40100     40101     40097     40100     40102
     40097     40100     40103     40098     40097     40099     40098     40097     40100
     40099     40097     40100     40100     40103     40104     40100     40103     40105
     40100     40103     40106     40101     40100     40102     40101     40100     40103
     40102     40100     40103     40103     40106     40107     40103     40106     40108
     40103     40106     40109     40104     40103     40105     40104     40103     40106
     40105     40103     40106     40106     40109     40110     40106     40109     40111
     40106     40109     40112     40107     40106     40108     40107     40106     40109
     40108     40106     40109     40109     40112     40113     40109     40112     40114
     40109     40112     40117     40110     40109     40111     40110     40109     40112
     40111     40109     40112     40112     40114     40115     40112     40114     40116
     40112     40114     40117     40112     40117     40114     40112     40117     40118
     40112     40117     40119     40113     40112     40114     40113     40112     40117
     40114     40112     40117     40114     40117     40118     40114     40117     40119
     40115     40114     40116     40115     40114     40117     40116     40114     40117
     40117     40119     40120     40117     40119     40121     40117     40119     40122
     40118     40117     40119     40119     40122     40123     40119     40122     40124
     40119     40122     40125     40120     40119     40121     40120     40119     40122
     40121     40119     40122     40122     40125     40126     40122     40125     40127
     40122     40125     40128     40123     40122     40124     40123     40122     40125
     40124     40122     40125     40125     40128     40129     40125     40128     40130
     40125     40128     40131     40126     40125     40127     40126     40125     40128
     40127     40125     40128     40128     40131     40132     40128     40131     40133
     40128     40131     40134     40129     40128     40130     40129     40128     40131
     40130     40128     40131     40131     40134     40135     40131     40134     40136
     40131     40134     40137     40132     40131     40133     40132     40131     40134
     40133     40131     40134     40135     40134     40136     40135     40134     40137
     40136     40134     40137     40138     40141     40142     40138     40141     40143
     40138     40141     40144     40139     40138     40140     40139     40138     40141
     40140     40138     40141     40141     40144     40145     40141     40144     40146
     40141     40144     40147     40142     40141     40143     40142     40141     40144
     40143     40141     40144     40144     40147     40148     40144     40147     40149
     40144     40147     40150     40145     40144     40146     40145     40144     40147
     40146     40144     40147     40147     40150     40151     40147     40150     40152
     40147     40150     40153     40148     40147     40149     40148     40147     40150
     40149     40147     40150     40150     40153     40154     40150     40153     40155
     40150     40153     40156     40151     40150     40152     40151     40150     40153
     40152     40150     40153     40153     40156     40157     40153     40156     40158
     40153     40156     40159     40154     40153     40155     40154     40153     40156
     40155     40153     40156     40156     40159     40160     40156     40159     40161
     40156     40159     40162     40157     40156     40158     40157     40156     40159
     40158     40156     40159     40159     40162     40163     40159     40162     40164
     40159     40162     40165     40160     40159     40161     40160     40159     40162
     40161     40159     40162     40162     40165     40166     40162     40165     40167
     40162     40165     40168     40163     40162     40164     40163     40162     40165
     40164     40162     40165     40165     40168     40169     40165     40168     40170
     40165     40168     40171     40166     40165     40167     40166     40165     40168
     40167     40165     40168     40168     40171     40172     40168     40171     40173
     40168     40171     40174     40169     40168     40170     40169     40168     40171
     40170     40168     40171     40171     40174     40175     40171     40174     40176
     40171     40174     40177     40172     40171     40173     40172     40171     40174
     40173     40171     40174     40174     40177     40178     40174     40177     40179
     40174     40177     40180     40175     40174     40176     40175     40174     40177
     40176     40174     40177     40178     40177     40179     40178     40177     40180
     40179     40177     40180     40181     40185     40186     40181     40185     40187
     40181     40185     40188     40182     40181     40183     40182     40181     40184
     40182     40181     40185     40183     40181     40184     40183     40181     40185
     40184     40181     40185     40185     40188     40189     40185     40188     40190
     40185     40188     40195     40186     40185     40187     40186     40185     40188
     40187     40185     40188     40188     40195     40191     40189     40188     40190
     40189     40188     40195     40190     40188     40195     40191     40194     40196
     40192     40191     40193     40192     40191     40194     40192     40191     40195
     40193     40191     40194     40193     40191     40195     40194     40191     40195
     40194     40196     40197     40194     40196     40198     40194     40196     40199
     40196     40199     40200     40196     40199     40201     40196     40199     40207
     40197     40196     40198     40197     40196     40199     40198     40196     40199
     40199     40201     40202     40199     40207     40208     40199     40207     40209
     40199     40207     40210     40200     40199     40201     40200     40199     40207
     40201     40199     40207     40201     40202     40203     40201     40202     40204
     40202     40204     40205     40202     40204     40206     40202     40204     40216
     40203     40202     40204     40204     40216     40217     40204     40216     40218
     40204     40216     40219     40205     40204     40206     40205     40204     40216
     40206     40204     40216     40207     40210     40211     40208     40207     40209
     40208     40207     40210     40209     40207     40210     40210     40211     40212
     40210     40211     40213     40211     40213     40214     40211     40213     40215
     40211     40213     40260     40212     40211     40213     40213     40260     40261
     40213     40260     40262     40213     40260     40263     40214     40213     40215
     40214     40213     40260     40215     40213     40260     40216     40219     40220
     40216     40219     40221     40216     40219     40222     40217     40216     40218
     40217     40216     40219     40218     40216     40219     40219     40222     40223
     40219     40222     40224     40219     40222     40225     40220     40219     40221
     40220     40219     40222     40221     40219     40222     40222     40225     40226
     40222     40225     40227     40222     40225     40228     40223     40222     40224
     40223     40222     40225     40224     40222     40225     40225     40228     40229
     40225     40228     40230     40225     40228     40231     40226     40225     40227
     40226     40225     40228     40227     40225     40228     40228     40231     40232
     40228     40231     40233     40228     40231     40234     40229     40228     40230
     40229     40228     40231     40230     40228     40231     40231     40234     40235
     40231     40234     40236     40231     40234     40239     40232     40231     40233
     40232     40231     40234     40233     40231     40234     40234     40236     40237
     40234     40236     40238     40234     40236     40239     40234     40239     40236
     40234     40239     40240     40234     40239     40241     40235     40234     40236
     40235     40234     40239     40236     40234     40239     40236     40239     40240
     40236     40239     40241     40237     40236     40238     40237     40236     40239
     40238     40236     40239     40239     40241     40242     40239     40241     40243
     40239     40241     40244     40240     40239     40241     40241     40244     40245
     40241     40244     40246     40241     40244     40247     40242     40241     40243
     40242     40241     40244     40243     40241     40244     40244     40247     40248
     40244     40247     40249     40244     40247     40250     40245     40244     40246
     40245     40244     40247     40246     40244     40247     40247     40250     40251
     40247     40250     40252     40247     40250     40253     40248     40247     40249
     40248     40247     40250     40249     40247     40250     40250     40253     40254
     40250     40253     40255     40250     40253     40256     40251     40250     40252
     40251     40250     40253     40252     40250     40253     40253     40256     40257
     40253     40256     40258     40253     40256     40259     40254     40253     40255
     40254     40253     40256     40255     40253     40256     40257     40256     40258
     40257     40256     40259     40258     40256     40259     40260     40263     40264
     40260     40263     40265     40260     40263     40266     40261     40260     40262
     40261     40260     40263     40262     40260     40263     40263     40266     40267
     40263     40266     40268     40263     40266     40269     40264     40263     40265
     40264     40263     40266     40265     40263     40266     40266     40269     40270
     40266     40269     40271     40266     40269     40272     40267     40266     40268
     40267     40266     40269     40268     40266     40269     40269     40272     40273
     40269     40272     40274     40269     40272     40275     40270     40269     40271
     40270     40269     40272     40271     40269     40272     40272     40275     40276
     40272     40275     40277     40272     40275     40278     40273     40272     40274
     40273     40272     40275     40274     40272     40275     40275     40278     40279
     40275     40278     40280     40275     40278     40281     40276     40275     40277
     40276     40275     40278     40277     40275     40278     40278     40281     40282
     40278     40281     40283     40278     40281     40284     40279     40278     40280
     40279     40278     40281     40280     40278     40281     40281     40284     40285
     40281     40284     40286     40281     40284     40287     40282     40281     40283
     40282     40281     40284     40283     40281     40284     40284     40287     40288
     40284     40287     40289     40284     40287     40290     40285     40284     40286
     40285     40284     40287     40286     40284     40287     40287     40290     40291
     40287     40290     40292     40287     40290     40293     40288     40287     40289
     40288     40287     40290     40289     40287     40290     40290     40293     40294
     40290     40293     40295     40290     40293     40296     40291     40290     40292
     40291     40290     40293     40292     40290     40293     40293     40296     40297
     40293     40296     40298     40293     40296     40299     40294     40293     40295
     40294     40293     40296     40295     40293     40296     40296     40299     40300
     40296     40299     40301     40296     40299     40302     40297     40296     40298
     40297     40296     40299     40298     40296     40299     40300     40299     40301
     40300     40299     40302     40301     40299     40302     40303     40307     40308
     40303     40307     40309     40303     40307     40310     40304     40303     40305
     40304     40303     40306     40304     40303     40307     40305     40303     40306
     40305     40303     40307     40306     40303     40307     40307     40310     40311
     40307     40310     40312     40307     40310     40317     40308     40307     40309
     40308     40307     40310     40309     40307     40310     40310     40317     40313
     40311     40310     40312     40311     40310     40317     40312     40310     40317
     40313     40316     40318     40314     40313     40315     40314     40313     40316
     40314     40313     40317     40315     40313     40316     40315     40313     40317
     40316     40313     40317     40316     40318     40319     40316     40318     40320
     40316     40318     40321     40318     40321     40322     40318     40321     40323
     40318     40321     40329     40319     40318     40320     40319     40318     40321
     40320     40318     40321     40321     40323     40324     40321     40329     40330
     40321     40329     40331     40321     40329     40332     40322     40321     40323
     40322     40321     40329     40323     40321     40329     40323     40324     40325
     40323     40324     40326     40324     40326     40327     40324     40326     40328
     40324     40326     40338     40325     40324     40326     40326     40338     40339
     40326     40338     40340     40326     40338     40341     40327     40326     40328
     40327     40326     40338     40328     40326     40338     40329     40332     40333
     40330     40329     40331     40330     40329     40332     40331     40329     40332
     40332     40333     40334     40332     40333     40335     40333     40335     40336
     40333     40335     40337     40333     40335     40382     40334     40333     40335
     40335     40382     40383     40335     40382     40384     40335     40382     40385
     40336     40335     40337     40336     40335     40382     40337     40335     40382
     40338     40341     40342     40338     40341     40343     40338     40341     40344
     40339     40338     40340     40339     40338     40341     40340     40338     40341
     40341     40344     40345     40341     40344     40346     40341     40344     40347
     40342     40341     40343     40342     40341     40344     40343     40341     40344
     40344     40347     40348     40344     40347     40349     40344     40347     40350
     40345     40344     40346     40345     40344     40347     40346     40344     40347
     40347     40350     40351     40347     40350     40352     40347     40350     40353
     40348     40347     40349     40348     40347     40350     40349     40347     40350
     40350     40353     40354     40350     40353     40355     40350     40353     40356
     40351     40350     40352     40351     40350     40353     40352     40350     40353
     40353     40356     40357     40353     40356     40358     40353     40356     40361
     40354     40353     40355     40354     40353     40356     40355     40353     40356
     40356     40358     40359     40356     40358     40360     40356     40358     40361
     40356     40361     40358     40356     40361     40362     40356     40361     40363
     40357     40356     40358     40357     40356     40361     40358     40356     40361
     40358     40361     40362     40358     40361     40363     40359     40358     40360
     40359     40358     40361     40360     40358     40361     40361     40363     40364
     40361     40363     40365     40361     40363     40366     40362     40361     40363
     40363     40366     40367     40363     40366     40368     40363     40366     40369
     40364     40363     40365     40364     40363     40366     40365     40363     40366
     40366     40369     40370     40366     40369     40371     40366     40369     40372
     40367     40366     40368     40367     40366     40369     40368     40366     40369
     40369     40372     40373     40369     40372     40374     40369     40372     40375
     40370     40369     40371     40370     40369     40372     40371     40369     40372
     40372     40375     40376     40372     40375     40377     40372     40375     40378
     40373     40372     40374     40373     40372     40375     40374     40372     40375
     40375     40378     40379     40375     40378     40380     40375     40378     40381
     40376     40375     40377     40376     40375     40378     40377     40375     40378
     40379     40378     40380     40379     40378     40381     40380     40378     40381
     40382     40385     40386     40382     40385     40387     40382     40385     40388
     40383     40382     40384     40383     40382     40385     40384     40382     40385
     40385     40388     40389     40385     40388     40390     40385     40388     40391
     40386     40385     40387     40386     40385     40388     40387     40385     40388
     40388     40391     40392     40388     40391     40393     40388     40391     40394
     40389     40388     40390     40389     40388     40391     40390     40388     40391
     40391     40394     40395     40391     40394     40396     40391     40394     40397
     40392     40391     40393     40392     40391     40394     40393     40391     40394
     40394     40397     40398     40394     40397     40399     40394     40397     40400
     40395     40394     40396     40395     40394     40397     40396     40394     40397
     40397     40400     40401     40397     40400     40402     40397     40400     40403
     40398     40397     40399     40398     40397     40400     40399     40397     40400
     40400     40403     40404     40400     40403     40405     40400     40403     40406
     40401     40400     40402     40401     40400     40403     40402     40400     40403
     40403     40406     40407     40403     40406     40408     40403     40406     40409
     40404     40403     40405     40404     40403     40406     40405     40403     40406
     40406     40409     40410     40406     40409     40411     40406     40409     40412
     40407     40406     40408     40407     40406     40409     40408     40406     40409
     40409     40412     40413     40409     40412     40414     40409     40412     40415
     40410     40409     40411     40410     40409     40412     40411     40409     40412
     40412     40415     40416     40412     40415     40417     40412     40415     40418
     40413     40412     40414     40413     40412     40415     40414     40412     40415
     40415     40418     40419     40415     40418     40420     40415     40418     40421
     40416     40415     40417     40416     40415     40418     40417     40415     40418
     40419     40418     40420     40419     40418     40421     40420     40418     40421
     40422     40425     40426     40422     40427     40428     40422     40427     40429
     40422     40427     40431     40423     40422     40424     40423     40422     40425
     40423     40422     40427     40424     40422     40425     40424     40422     40427
     40425     40422     40427     40427     40429     40430     40427     40431     40432
     40427     40431     40433     40427     40431     40438     40428     40427     40429
     40428     40427     40431     40429     40427     40431     40431     40438     40434
     40432     40431     40433     40432     40431     40438     40433     40431     40438
     40434     40437     40439     40435     40434     40436     40435     40434     40437
     40435     40434     40438     40436     40434     40437     40436     40434     40438
     40437     40434     40438     40437     40439     40440     40437     40439     40441
     40437     40439     40442     40439     40442     40443     40439     40442     40444
     40439     40442     40450     40440     40439     40441     40440     40439     40442
     40441     40439     40442     40442     40444     40445     40442     40450     40451
     40442     40450     40452     40442     40450     40453     40443     40442     40444
     40443     40442     40450     40444     40442     40450     40444     40445     40446
     40444     40445     40447     40445     40447     40448     40445     40447     40449
     40445     40447     40459     40446     40445     40447     40447     40459     40460
     40447     40459     40461     40447     40459     40462     40448     40447     40449
     40448     40447     40459     40449     40447     40459     40450     40453     40454
     40451     40450     40452     40451     40450     40453     40452     40450     40453
     40453     40454     40455     40453     40454     40456     40454     40456     40457
     40454     40456     40458     40454     40456     40500     40455     40454     40456
     40456     40500     40501     40456     40500     40502     40456     40500     40503
     40457     40456     40458     40457     40456     40500     40458     40456     40500
     40459     40462     40463     40459     40462     40464     40459     40462     40465
     40460     40459     40461     40460     40459     40462     40461     40459     40462
     40462     40465     40466     40462     40465     40467     40462     40465     40468
     40463     40462     40464     40463     40462     40465     40464     40462     40465
     40465     40468     40469     40465     40468     40470     40465     40468     40471
     40466     40465     40467     40466     40465     40468     40467     40465     40468
     40468     40471     40472     40468     40471     40473     40468     40471     40474
     40469     40468     40470     40469     40468     40471     40470     40468     40471
     40471     40474     40475     40471     40474     40476     40471     40474     40477
     40472     40471     40473     40472     40471     40474     40473     40471     40474
     40474     40477     40478     40474     40477     40479     40475     40474     40476
     40475     40474     40477     40476     40474     40477     40477     40479     40480
     40477     40479     40481     40478     40477     40479     40479     40481     40482
     40479     40481     40483     40479     40481     40484     40480     40479     40481
     40481     40484     40485     40481     40484     40486     40481     40484     40487
     40482     40481     40483     40482     40481     40484     40483     40481     40484
     40484     40487     40488     40484     40487     40489     40484     40487     40490
     40485     40484     40486     40485     40484     40487     40486     40484     40487
     40487     40490     40491     40487     40490     40492     40487     40490     40493
     40488     40487     40489     40488     40487     40490     40489     40487     40490
     40490     40493     40494     40490     40493     40495     40490     40493     40496
     40491     40490     40492     40491     40490     40493     40492     40490     40493
     40493     40496     40497     40493     40496     40498     40493     40496     40499
     40494     40493     40495     40494     40493     40496     40495     40493     40496
     40497     40496     40498     40497     40496     40499     40498     40496     40499
     40500     40503     40504     40500     40503     40505     40500     40503     40506
     40501     40500     40502     40501     40500     40503     40502     40500     40503
     40503     40506     40507     40503     40506     40508     40503     40506     40509
     40504     40503     40505     40504     40503     40506     40505     40503     40506
     40506     40509     40510     40506     40509     40511     40506     40509     40512
     40507     40506     40508     40507     40506     40509     40508     40506     40509
     40509     40512     40513     40509     40512     40514     40509     40512     40515
     40510     40509     40511     40510     40509     40512     40511     40509     40512
     40512     40515     40516     40512     40515     40517     40512     40515     40518
     40513     40512     40514     40513     40512     40515     40514     40512     40515
     40515     40518     40519     40515     40518     40520     40515     40518     40521
     40516     40515     40517     40516     40515     40518     40517     40515     40518
     40518     40521     40522     40518     40521     40523     40518     40521     40524
     40519     40518     40520     40519     40518     40521     40520     40518     40521
     40521     40524     40525     40521     40524     40526     40521     40524     40527
     40522     40521     40523     40522     40521     40524     40523     40521     40524
     40524     40527     40528     40524     40527     40529     40524     40527     40530
     40525     40524     40526     40525     40524     40527     40526     40524     40527
     40527     40530     40531     40527     40530     40532     40527     40530     40533
     40528     40527     40529     40528     40527     40530     40529     40527     40530
     40530     40533     40534     40530     40533     40535     40530     40533     40536
     40531     40530     40532     40531     40530     40533     40532     40530     40533
     40533     40536     40537     40533     40536     40538     40533     40536     40539
     40534     40533     40535     40534     40533     40536     40535     40533     40536
     40536     40539     40540     40536     40539     40541     40536     40539     40542
     40537     40536     40538     40537     40536     40539     40538     40536     40539
     40540     40539     40541     40540     40539     40542     40541     40539     40542
     40543     40547     40548     40543     40547     40549     40543     40547     40550
     40544     40543     40545     40544     40543     40546     40544     40543     40547
     40545     40543     40546     40545     40543     40547     40546     40543     40547
     40547     40550     40551     40547     40550     40552     40547     40550     40557
     40548     40547     40549     40548     40547     40550     40549     40547     40550
     40550     40557     40553     40551     40550     40552     40551     40550     40557
     40552     40550     40557     40553     40556     40558     40554     40553     40555
     40554     40553     40556     40554     40553     40557     40555     40553     40556
     40555     40553     40557     40556     40553     40557     40556     40558     40559
     40556     40558     40560     40556     40558     40561     40558     40561     40562
     40558     40561     40563     40558     40561     40569     40559     40558     40560
     40559     40558     40561     40560     40558     40561     40561     40563     40564
     40561     40569     40570     40561     40569     40571     40561     40569     40572
     40562     40561     40563     40562     40561     40569     40563     40561     40569
     40563     40564     40565     40563     40564     40566     40564     40566     40567
     40564     40566     40568     40564     40566     40578     40565     40564     40566
     40566     40578     40579     40566     40578     40580     40566     40578     40581
     40567     40566     40568     40567     40566     40578     40568     40566     40578
     40569     40572     40573     40570     40569     40571     40570     40569     40572
     40571     40569     40572     40572     40573     40574     40572     40573     40575
     40573     40575     40576     40573     40575     40577     40573     40575     40622
     40574     40573     40575     40575     40622     40623     40575     40622     40624
     40575     40622     40625     40576     40575     40577     40576     40575     40622
     40577     40575     40622     40578     40581     40582     40578     40581     40583
     40578     40581     40584     40579     40578     40580     40579     40578     40581
     40580     40578     40581     40581     40584     40585     40581     40584     40586
     40581     40584     40587     40582     40581     40583     40582     40581     40584
     40583     40581     40584     40584     40587     40588     40584     40587     40589
     40584     40587     40590     40585     40584     40586     40585     40584     40587
     40586     40584     40587     40587     40590     40591     40587     40590     40592
     40587     40590     40593     40588     40587     40589     40588     40587     40590
     40589     40587     40590     40590     40593     40594     40590     40593     40595
     40590     40593     40596     40591     40590     40592     40591     40590     40593
     40592     40590     40593     40593     40596     40597     40593     40596     40598
     40593     40596     40601     40594     40593     40595     40594     40593     40596
     40595     40593     40596     40596     40598     40599     40596     40598     40600
     40596     40598     40601     40596     40601     40598     40596     40601     40602
     40596     40601     40603     40597     40596     40598     40597     40596     40601
     40598     40596     40601     40598     40601     40602     40598     40601     40603
     40599     40598     40600     40599     40598     40601     40600     40598     40601
     40601     40603     40604     40601     40603     40605     40601     40603     40606
     40602     40601     40603     40603     40606     40607     40603     40606     40608
     40603     40606     40609     40604     40603     40605     40604     40603     40606
     40605     40603     40606     40606     40609     40610     40606     40609     40611
     40606     40609     40612     40607     40606     40608     40607     40606     40609
     40608     40606     40609     40609     40612     40613     40609     40612     40614
     40609     40612     40615     40610     40609     40611     40610     40609     40612
     40611     40609     40612     40612     40615     40616     40612     40615     40617
     40612     40615     40618     40613     40612     40614     40613     40612     40615
     40614     40612     40615     40615     40618     40619     40615     40618     40620
     40615     40618     40621     40616     40615     40617     40616     40615     40618
     40617     40615     40618     40619     40618     40620     40619     40618     40621
     40620     40618     40621     40622     40625     40626     40622     40625     40627
     40622     40625     40628     40623     40622     40624     40623     40622     40625
     40624     40622     40625     40625     40628     40629     40625     40628     40630
     40625     40628     40631     40626     40625     40627     40626     40625     40628
     40627     40625     40628     40628     40631     40632     40628     40631     40633
     40628     40631     40634     40629     40628     40630     40629     40628     40631
     40630     40628     40631     40631     40634     40635     40631     40634     40636
     40631     40634     40637     40632     40631     40633     40632     40631     40634
     40633     40631     40634     40634     40637     40638     40634     40637     40639
     40634     40637     40640     40635     40634     40636     40635     40634     40637
     40636     40634     40637     40637     40640     40641     40637     40640     40642
     40637     40640     40643     40638     40637     40639     40638     40637     40640
     40639     40637     40640     40640     40643     40644     40640     40643     40645
     40640     40643     40646     40641     40640     40642     40641     40640     40643
     40642     40640     40643     40643     40646     40647     40643     40646     40648
     40643     40646     40649     40644     40643     40645     40644     40643     40646
     40645     40643     40646     40646     40649     40650     40646     40649     40651
     40646     40649     40652     40647     40646     40648     40647     40646     40649
     40648     40646     40649     40649     40652     40653     40649     40652     40654
     40649     40652     40655     40650     40649     40651     40650     40649     40652
     40651     40649     40652     40652     40655     40656     40652     40655     40657
     40652     40655     40658     40653     40652     40654     40653     40652     40655
     40654     40652     40655     40655     40658     40659     40655     40658     40660
     40655     40658     40661     40656     40655     40657     40656     40655     40658
     40657     40655     40658     40659     40658     40660     40659     40658     40661
     40660     40658     40661     40662     40665     40666     40662     40667     40668
     40662     40667     40669     40662     40667     40671     40663     40662     40664
     40663     40662     40665     40663     40662     40667     40664     40662     40665
     40664     40662     40667     40665     40662     40667     40667     40669     40670
     40667     40671     40672     40667     40671     40673     40667     40671     40678
     40668     40667     40669     40668     40667     40671     40669     40667     40671
     40671     40678     40674     40672     40671     40673     40672     40671     40678
     40673     40671     40678     40674     40677     40679     40675     40674     40676
     40675     40674     40677     40675     40674     40678     40676     40674     40677
     40676     40674     40678     40677     40674     40678     40677     40679     40680
     40677     40679     40681     40677     40679     40682     40679     40682     40683
     40679     40682     40684     40679     40682     40690     40680     40679     40681
     40680     40679     40682     40681     40679     40682     40682     40684     40685
     40682     40690     40691     40682     40690     40692     40682     40690     40693
     40683     40682     40684     40683     40682     40690     40684     40682     40690
     40684     40685     40686     40684     40685     40687     40685     40687     40688
     40685     40687     40689     40685     40687     40699     40686     40685     40687
     40687     40699     40700     40687     40699     40701     40687     40699     40702
     40688     40687     40689     40688     40687     40699     40689     40687     40699
     40690     40693     40694     40691     40690     40692     40691     40690     40693
     40692     40690     40693     40693     40694     40695     40693     40694     40696
     40694     40696     40697     40694     40696     40698     40694     40696     40740
     40695     40694     40696     40696     40740     40741     40696     40740     40742
     40696     40740     40743     40697     40696     40698     40697     40696     40740
     40698     40696     40740     40699     40702     40703     40699     40702     40704
     40699     40702     40705     40700     40699     40701     40700     40699     40702
     40701     40699     40702     40702     40705     40706     40702     40705     40707
     40702     40705     40708     40703     40702     40704     40703     40702     40705
     40704     40702     40705     40705     40708     40709     40705     40708     40710
     40705     40708     40711     40706     40705     40707     40706     40705     40708
     40707     40705     40708     40708     40711     40712     40708     40711     40713
     40708     40711     40714     40709     40708     40710     40709     40708     40711
     40710     40708     40711     40711     40714     40715     40711     40714     40716
     40711     40714     40717     40712     40711     40713     40712     40711     40714
     40713     40711     40714     40714     40717     40718     40714     40717     40719
     40715     40714     40716     40715     40714     40717     40716     40714     40717
     40717     40719     40720     40717     40719     40721     40718     40717     40719
     40719     40721     40722     40719     40721     40723     40719     40721     40724
     40720     40719     40721     40721     40724     40725     40721     40724     40726
     40721     40724     40727     40722     40721     40723     40722     40721     40724
     40723     40721     40724     40724     40727     40728     40724     40727     40729
     40724     40727     40730     40725     40724     40726     40725     40724     40727
     40726     40724     40727     40727     40730     40731     40727     40730     40732
     40727     40730     40733     40728     40727     40729     40728     40727     40730
     40729     40727     40730     40730     40733     40734     40730     40733     40735
     40730     40733     40736     40731     40730     40732     40731     40730     40733
     40732     40730     40733     40733     40736     40737     40733     40736     40738
     40733     40736     40739     40734     40733     40735     40734     40733     40736
     40735     40733     40736     40737     40736     40738     40737     40736     40739
     40738     40736     40739     40740     40743     40744     40740     40743     40745
     40740     40743     40746     40741     40740     40742     40741     40740     40743
     40742     40740     40743     40743     40746     40747     40743     40746     40748
     40743     40746     40749     40744     40743     40745     40744     40743     40746
     40745     40743     40746     40746     40749     40750     40746     40749     40751
     40746     40749     40752     40747     40746     40748     40747     40746     40749
     40748     40746     40749     40749     40752     40753     40749     40752     40754
     40749     40752     40755     40750     40749     40751     40750     40749     40752
     40751     40749     40752     40752     40755     40756     40752     40755     40757
     40752     40755     40758     40753     40752     40754     40753     40752     40755
     40754     40752     40755     40755     40758     40759     40755     40758     40760
     40755     40758     40761     40756     40755     40757     40756     40755     40758
     40757     40755     40758     40758     40761     40762     40758     40761     40763
     40758     40761     40764     40759     40758     40760     40759     40758     40761
     40760     40758     40761     40761     40764     40765     40761     40764     40766
     40761     40764     40767     40762     40761     40763     40762     40761     40764
     40763     40761     40764     40764     40767     40768     40764     40767     40769
     40764     40767     40770     40765     40764     40766     40765     40764     40767
     40766     40764     40767     40767     40770     40771     40767     40770     40772
     40767     40770     40773     40768     40767     40769     40768     40767     40770
     40769     40767     40770     40770     40773     40774     40770     40773     40775
     40770     40773     40776     40771     40770     40772     40771     40770     40773
     40772     40770     40773     40773     40776     40777     40773     40776     40778
     40773     40776     40779     40774     40773     40775     40774     40773     40776
     40775     40773     40776     40776     40779     40780     40776     40779     40781
     40776     40779     40782     40777     40776     40778     40777     40776     40779
     40778     40776     40779     40780     40779     40781     40780     40779     40782
     40781     40779     40782     40783     40786     40787     40783     40788     40789
     40783     40788     40790     40783     40788     40792     40784     40783     40785
     40784     40783     40786     40784     40783     40788     40785     40783     40786
     40785     40783     40788     40786     40783     40788     40788     40790     40791
     40788     40792     40793     40788     40792     40794     40788     40792     40799
     40789     40788     40790     40789     40788     40792     40790     40788     40792
     40792     40799     40795     40793     40792     40794     40793     40792     40799
     40794     40792     40799     40795     40798     40800     40796     40795     40797
     40796     40795     40798     40796     40795     40799     40797     40795     40798
     40797     40795     40799     40798     40795     40799     40798     40800     40801
     40798     40800     40802     40798     40800     40803     40800     40803     40804
     40800     40803     40805     40800     40803     40811     40801     40800     40802
     40801     40800     40803     40802     40800     40803     40803     40805     40806
     40803     40811     40812     40803     40811     40813     40803     40811     40814
     40804     40803     40805     40804     40803     40811     40805     40803     40811
     40805     40806     40807     40805     40806     40808     40806     40808     40809
     40806     40808     40810     40806     40808     40820     40807     40806     40808
     40808     40820     40821     40808     40820     40822     40808     40820     40823
     40809     40808     40810     40809     40808     40820     40810     40808     40820
     40811     40814     40815     40812     40811     40813     40812     40811     40814
     40813     40811     40814     40814     40815     40816     40814     40815     40817
     40815     40817     40818     40815     40817     40819     40815     40817     40864
     40816     40815     40817     40817     40864     40865     40817     40864     40866
     40817     40864     40867     40818     40817     40819     40818     40817     40864
     40819     40817     40864     40820     40823     40824     40820     40823     40825
     40820     40823     40826     40821     40820     40822     40821     40820     40823
     40822     40820     40823     40823     40826     40827     40823     40826     40828
     40823     40826     40829     40824     40823     40825     40824     40823     40826
     40825     40823     40826     40826     40829     40830     40826     40829     40831
     40826     40829     40832     40827     40826     40828     40827     40826     40829
     40828     40826     40829     40829     40832     40833     40829     40832     40834
     40829     40832     40835     40830     40829     40831     40830     40829     40832
     40831     40829     40832     40832     40835     40836     40832     40835     40837
     40832     40835     40838     40833     40832     40834     40833     40832     40835
     40834     40832     40835     40835     40838     40839     40835     40838     40840
     40835     40838     40843     40836     40835     40837     40836     40835     40838
     40837     40835     40838     40838     40840     40841     40838     40840     40842
     40838     40840     40843     40838     40843     40840     40838     40843     40844
     40838     40843     40845     40839     40838     40840     40839     40838     40843
     40840     40838     40843     40840     40843     40844     40840     40843     40845
     40841     40840     40842     40841     40840     40843     40842     40840     40843
     40843     40845     40846     40843     40845     40847     40843     40845     40848
     40844     40843     40845     40845     40848     40849     40845     40848     40850
     40845     40848     40851     40846     40845     40847     40846     40845     40848
     40847     40845     40848     40848     40851     40852     40848     40851     40853
     40848     40851     40854     40849     40848     40850     40849     40848     40851
     40850     40848     40851     40851     40854     40855     40851     40854     40856
     40851     40854     40857     40852     40851     40853     40852     40851     40854
     40853     40851     40854     40854     40857     40858     40854     40857     40859
     40854     40857     40860     40855     40854     40856     40855     40854     40857
     40856     40854     40857     40857     40860     40861     40857     40860     40862
     40857     40860     40863     40858     40857     40859     40858     40857     40860
     40859     40857     40860     40861     40860     40862     40861     40860     40863
     40862     40860     40863     40864     40867     40868     40864     40867     40869
     40864     40867     40870     40865     40864     40866     40865     40864     40867
     40866     40864     40867     40867     40870     40871     40867     40870     40872
     40867     40870     40873     40868     40867     40869     40868     40867     40870
     40869     40867     40870     40870     40873     40874     40870     40873     40875
     40870     40873     40876     40871     40870     40872     40871     40870     40873
     40872     40870     40873     40873     40876     40877     40873     40876     40878
     40873     40876     40879     40874     40873     40875     40874     40873     40876
     40875     40873     40876     40876     40879     40880     40876     40879     40881
     40876     40879     40882     40877     40876     40878     40877     40876     40879
     40878     40876     40879     40879     40882     40883     40879     40882     40884
     40879     40882     40885     40880     40879     40881     40880     40879     40882
     40881     40879     40882     40882     40885     40886     40882     40885     40887
     40882     40885     40888     40883     40882     40884     40883     40882     40885
     40884     40882     40885     40885     40888     40889     40885     40888     40890
     40885     40888     40891     40886     40885     40887     40886     40885     40888
     40887     40885     40888     40888     40891     40892     40888     40891     40893
     40888     40891     40894     40889     40888     40890     40889     40888     40891
     40890     40888     40891     40891     40894     40895     40891     40894     40896
     40891     40894     40897     40892     40891     40893     40892     40891     40894
     40893     40891     40894     40894     40897     40898     40894     40897     40899
     40894     40897     40900     40895     40894     40896     40895     40894     40897
     40896     40894     40897     40897     40900     40901     40897     40900     40902
     40897     40900     40903     40898     40897     40899     40898     40897     40900
     40899     40897     40900     40900     40903     40904     40900     40903     40905
     40900     40903     40906     40901     40900     40902     40901     40900     40903
     40902     40900     40903     40904     40903     40905     40904     40903     40906
     40905     40903     40906     40907     40911     40912     40907     40911     40913
     40907     40911     40914     40908     40907     40909     40908     40907     40910
     40908     40907     40911     40909     40907     40910     40909     40907     40911
     40910     40907     40911     40911     40914     40915     40911     40914     40916
     40911     40914     40921     40912     40911     40913     40912     40911     40914
     40913     40911     40914     40914     40921     40917     40915     40914     40916
     40915     40914     40921     40916     40914     40921     40917     40920     40922
     40918     40917     40919     40918     40917     40920     40918     40917     40921
     40919     40917     40920     40919     40917     40921     40920     40917     40921
     40920     40922     40923     40920     40922     40924     40920     40922     40925
     40922     40925     40926     40922     40925     40927     40922     40925     40933
     40923     40922     40924     40923     40922     40925     40924     40922     40925
     40925     40927     40928     40925     40933     40934     40925     40933     40935
     40925     40933     40936     40926     40925     40927     40926     40925     40933
     40927     40925     40933     40927     40928     40929     40927     40928     40930
     40928     40930     40931     40928     40930     40932     40928     40930     40942
     40929     40928     40930     40930     40942     40943     40930     40942     40944
     40930     40942     40945     40931     40930     40932     40931     40930     40942
     40932     40930     40942     40933     40936     40937     40934     40933     40935
     40934     40933     40936     40935     40933     40936     40936     40937     40938
     40936     40937     40939     40937     40939     40940     40937     40939     40941
     40937     40939     40986     40938     40937     40939     40939     40986     40987
     40939     40986     40988     40939     40986     40989     40940     40939     40941
     40940     40939     40986     40941     40939     40986     40942     40945     40946
     40942     40945     40947     40942     40945     40948     40943     40942     40944
     40943     40942     40945     40944     40942     40945     40945     40948     40949
     40945     40948     40950     40945     40948     40951     40946     40945     40947
     40946     40945     40948     40947     40945     40948     40948     40951     40952
     40948     40951     40953     40948     40951     40954     40949     40948     40950
     40949     40948     40951     40950     40948     40951     40951     40954     40955
     40951     40954     40956     40951     40954     40957     40952     40951     40953
     40952     40951     40954     40953     40951     40954     40954     40957     40958
     40954     40957     40959     40954     40957     40960     40955     40954     40956
     40955     40954     40957     40956     40954     40957     40957     40960     40961
     40957     40960     40962     40957     40960     40965     40958     40957     40959
     40958     40957     40960     40959     40957     40960     40960     40962     40963
     40960     40962     40964     40960     40962     40965     40960     40965     40962
     40960     40965     40966     40960     40965     40967     40961     40960     40962
     40961     40960     40965     40962     40960     40965     40962     40965     40966
     40962     40965     40967     40963     40962     40964     40963     40962     40965
     40964     40962     40965     40965     40967     40968     40965     40967     40969
     40965     40967     40970     40966     40965     40967     40967     40970     40971
     40967     40970     40972     40967     40970     40973     40968     40967     40969
     40968     40967     40970     40969     40967     40970     40970     40973     40974
     40970     40973     40975     40970     40973     40976     40971     40970     40972
     40971     40970     40973     40972     40970     40973     40973     40976     40977
     40973     40976     40978     40973     40976     40979     40974     40973     40975
     40974     40973     40976     40975     40973     40976     40976     40979     40980
     40976     40979     40981     40976     40979     40982     40977     40976     40978
     40977     40976     40979     40978     40976     40979     40979     40982     40983
     40979     40982     40984     40979     40982     40985     40980     40979     40981
     40980     40979     40982     40981     40979     40982     40983     40982     40984
     40983     40982     40985     40984     40982     40985     40986     40989     40990
     40986     40989     40991     40986     40989     40992     40987     40986     40988
     40987     40986     40989     40988     40986     40989     40989     40992     40993
     40989     40992     40994     40989     40992     40995     40990     40989     40991
     40990     40989     40992     40991     40989     40992     40992     40995     40996
     40992     40995     40997     40992     40995     40998     40993     40992     40994
     40993     40992     40995     40994     40992     40995     40995     40998     40999
     40995     40998     41000     40995     40998     41001     40996     40995     40997
     40996     40995     40998     40997     40995     40998     40998     41001     41002
     40998     41001     41003     40998     41001     41004     40999     40998     41000
     40999     40998     41001     41000     40998     41001     41001     41004     41005
     41001     41004     41006     41001     41004     41007     41002     41001     41003
     41002     41001     41004     41003     41001     41004     41004     41007     41008
     41004     41007     41009     41004     41007     41010     41005     41004     41006
     41005     41004     41007     41006     41004     41007     41007     41010     41011
     41007     41010     41012     41007     41010     41013     41008     41007     41009
     41008     41007     41010     41009     41007     41010     41010     41013     41014
     41010     41013     41015     41010     41013     41016     41011     41010     41012
     41011     41010     41013     41012     41010     41013     41013     41016     41017
     41013     41016     41018     41013     41016     41019     41014     41013     41015
     41014     41013     41016     41015     41013     41016     41016     41019     41020
     41016     41019     41021     41016     41019     41022     41017     41016     41018
     41017     41016     41019     41018     41016     41019     41019     41022     41023
     41019     41022     41024     41019     41022     41025     41020     41019     41021
     41020     41019     41022     41021     41019     41022     41022     41025     41026
     41022     41025     41027     41022     41025     41028     41023     41022     41024
     41023     41022     41025     41024     41022     41025     41026     41025     41027
     41026     41025     41028     41027     41025     41028     41029     41033     41034
     41029     41033     41035     41029     41033     41036     41030     41029     41031
     41030     41029     41032     41030     41029     41033     41031     41029     41032
     41031     41029     41033     41032     41029     41033     41033     41036     41037
     41033     41036     41038     41033     41036     41043     41034     41033     41035
     41034     41033     41036     41035     41033     41036     41036     41043     41039
     41037     41036     41038     41037     41036     41043     41038     41036     41043
     41039     41042     41044     41040     41039     41041     41040     41039     41042
     41040     41039     41043     41041     41039     41042     41041     41039     41043
     41042     41039     41043     41042     41044     41045     41042     41044     41046
     41042     41044     41047     41044     41047     41048     41044     41047     41049
     41044     41047     41055     41045     41044     41046     41045     41044     41047
     41046     41044     41047     41047     41049     41050     41047     41055     41056
     41047     41055     41057     41047     41055     41058     41048     41047     41049
     41048     41047     41055     41049     41047     41055     41049     41050     41051
     41049     41050     41052     41050     41052     41053     41050     41052     41054
     41050     41052     41064     41051     41050     41052     41052     41064     41065
     41052     41064     41066     41052     41064     41067     41053     41052     41054
     41053     41052     41064     41054     41052     41064     41055     41058     41059
     41056     41055     41057     41056     41055     41058     41057     41055     41058
     41058     41059     41060     41058     41059     41061     41059     41061     41062
     41059     41061     41063     41059     41061     41105     41060     41059     41061
     41061     41105     41106     41061     41105     41107     41061     41105     41108
     41062     41061     41063     41062     41061     41105     41063     41061     41105
     41064     41067     41068     41064     41067     41069     41064     41067     41070
     41065     41064     41066     41065     41064     41067     41066     41064     41067
     41067     41070     41071     41067     41070     41072     41067     41070     41073
     41068     41067     41069     41068     41067     41070     41069     41067     41070
     41070     41073     41074     41070     41073     41075     41070     41073     41076
     41071     41070     41072     41071     41070     41073     41072     41070     41073
     41073     41076     41077     41073     41076     41078     41073     41076     41079
     41074     41073     41075     41074     41073     41076     41075     41073     41076
     41076     41079     41080     41076     41079     41081     41076     41079     41082
     41077     41076     41078     41077     41076     41079     41078     41076     41079
     41079     41082     41083     41079     41082     41084     41080     41079     41081
     41080     41079     41082     41081     41079     41082     41082     41084     41085
     41082     41084     41086     41083     41082     41084     41084     41086     41087
     41084     41086     41088     41084     41086     41089     41085     41084     41086
     41086     41089     41090     41086     41089     41091     41086     41089     41092
     41087     41086     41088     41087     41086     41089     41088     41086     41089
     41089     41092     41093     41089     41092     41094     41089     41092     41095
     41090     41089     41091     41090     41089     41092     41091     41089     41092
     41092     41095     41096     41092     41095     41097     41092     41095     41098
     41093     41092     41094     41093     41092     41095     41094     41092     41095
     41095     41098     41099     41095     41098     41100     41095     41098     41101
     41096     41095     41097     41096     41095     41098     41097     41095     41098
     41098     41101     41102     41098     41101     41103     41098     41101     41104
     41099     41098     41100     41099     41098     41101     41100     41098     41101
     41102     41101     41103     41102     41101     41104     41103     41101     41104
     41105     41108     41109     41105     41108     41110     41105     41108     41111
     41106     41105     41107     41106     41105     41108     41107     41105     41108
     41108     41111     41112     41108     41111     41113     41108     41111     41114
     41109     41108     41110     41109     41108     41111     41110     41108     41111
     41111     41114     41115     41111     41114     41116     41111     41114     41117
     41112     41111     41113     41112     41111     41114     41113     41111     41114
     41114     41117     41118     41114     41117     41119     41114     41117     41120
     41115     41114     41116     41115     41114     41117     41116     41114     41117
     41117     41120     41121     41117     41120     41122     41117     41120     41123
     41118     41117     41119     41118     41117     41120     41119     41117     41120
     41120     41123     41124     41120     41123     41125     41121     41120     41122
     41121     41120     41123     41122     41120     41123     41123     41125     41126
     41123     41125     41127     41124     41123     41125     41125     41127     41128
     41125     41127     41129     41125     41127     41130     41126     41125     41127
     41127     41130     41131     41127     41130     41132     41127     41130     41133
     41128     41127     41129     41128     41127     41130     41129     41127     41130
     41130     41133     41134     41130     41133     41135     41130     41133     41136
     41131     41130     41132     41131     41130     41133     41132     41130     41133
     41133     41136     41137     41133     41136     41138     41133     41136     41139
     41134     41133     41135     41134     41133     41136     41135     41133     41136
     41136     41139     41140     41136     41139     41141     41136     41139     41142
     41137     41136     41138     41137     41136     41139     41138     41136     41139
     41139     41142     41143     41139     41142     41144     41139     41142     41145
     41140     41139     41141     41140     41139     41142     41141     41139     41142
     41142     41145     41146     41142     41145     41147     41142     41145     41148
     41143     41142     41144     41143     41142     41145     41144     41142     41145
     41145     41148     41149     41145     41148     41150     41145     41148     41151
     41146     41145     41147     41146     41145     41148     41147     41145     41148
     41149     41148     41150     41149     41148     41151     41150     41148     41151
     41152     41156     41157     41152     41156     41158     41152     41156     41159
     41153     41152     41154     41153     41152     41155     41153     41152     41156
     41154     41152     41155     41154     41152     41156     41155     41152     41156
     41156     41159     41160     41156     41159     41161     41156     41159     41166
     41157     41156     41158     41157     41156     41159     41158     41156     41159
     41159     41166     41162     41160     41159     41161     41160     41159     41166
     41161     41159     41166     41162     41165     41167     41163     41162     41164
     41163     41162     41165     41163     41162     41166     41164     41162     41165
     41164     41162     41166     41165     41162     41166     41165     41167     41168
     41165     41167     41169     41165     41167     41170     41167     41170     41171
     41167     41170     41172     41167     41170     41178     41168     41167     41169
     41168     41167     41170     41169     41167     41170     41170     41172     41173
     41170     41178     41179     41170     41178     41180     41170     41178     41181
     41171     41170     41172     41171     41170     41178     41172     41170     41178
     41172     41173     41174     41172     41173     41175     41173     41175     41176
     41173     41175     41177     41173     41175     41187     41174     41173     41175
     41175     41187     41188     41175     41187     41189     41175     41187     41190
     41176     41175     41177     41176     41175     41187     41177     41175     41187
     41178     41181     41182     41179     41178     41180     41179     41178     41181
     41180     41178     41181     41181     41182     41183     41181     41182     41184
     41182     41184     41185     41182     41184     41186     41182     41184     41228
     41183     41182     41184     41184     41228     41229     41184     41228     41230
     41184     41228     41231     41185     41184     41186     41185     41184     41228
     41186     41184     41228     41187     41190     41191     41187     41190     41192
     41187     41190     41193     41188     41187     41189     41188     41187     41190
     41189     41187     41190     41190     41193     41194     41190     41193     41195
     41190     41193     41196     41191     41190     41192     41191     41190     41193
     41192     41190     41193     41193     41196     41197     41193     41196     41198
     41193     41196     41199     41194     41193     41195     41194     41193     41196
     41195     41193     41196     41196     41199     41200     41196     41199     41201
     41196     41199     41202     41197     41196     41198     41197     41196     41199
     41198     41196     41199     41199     41202     41203     41199     41202     41204
     41199     41202     41205     41200     41199     41201     41200     41199     41202
     41201     41199     41202     41202     41205     41206     41202     41205     41207
     41203     41202     41204     41203     41202     41205     41204     41202     41205
     41205     41207     41208     41205     41207     41209     41206     41205     41207
     41207     41209     41210     41207     41209     41211     41207     41209     41212
     41208     41207     41209     41209     41212     41213     41209     41212     41214
     41209     41212     41215     41210     41209     41211     41210     41209     41212
     41211     41209     41212     41212     41215     41216     41212     41215     41217
     41212     41215     41218     41213     41212     41214     41213     41212     41215
     41214     41212     41215     41215     41218     41219     41215     41218     41220
     41215     41218     41221     41216     41215     41217     41216     41215     41218
     41217     41215     41218     41218     41221     41222     41218     41221     41223
     41218     41221     41224     41219     41218     41220     41219     41218     41221
     41220     41218     41221     41221     41224     41225     41221     41224     41226
     41221     41224     41227     41222     41221     41223     41222     41221     41224
     41223     41221     41224     41225     41224     41226     41225     41224     41227
     41226     41224     41227     41228     41231     41232     41228     41231     41233
     41228     41231     41234     41229     41228     41230     41229     41228     41231
     41230     41228     41231     41231     41234     41235     41231     41234     41236
     41231     41234     41237     41232     41231     41233     41232     41231     41234
     41233     41231     41234     41234     41237     41238     41234     41237     41239
     41234     41237     41240     41235     41234     41236     41235     41234     41237
     41236     41234     41237     41237     41240     41241     41237     41240     41242
     41237     41240     41243     41238     41237     41239     41238     41237     41240
     41239     41237     41240     41240     41243     41244     41240     41243     41245
     41240     41243     41246     41241     41240     41242     41241     41240     41243
     41242     41240     41243     41243     41246     41247     41243     41246     41248
     41244     41243     41245     41244     41243     41246     41245     41243     41246
     41246     41248     41249     41246     41248     41250     41247     41246     41248
     41248     41250     41251     41248     41250     41252     41248     41250     41253
     41249     41248     41250     41250     41253     41254     41250     41253     41255
     41250     41253     41256     41251     41250     41252     41251     41250     41253
     41252     41250     41253     41253     41256     41257     41253     41256     41258
     41253     41256     41259     41254     41253     41255     41254     41253     41256
     41255     41253     41256     41256     41259     41260     41256     41259     41261
     41256     41259     41262     41257     41256     41258     41257     41256     41259
     41258     41256     41259     41259     41262     41263     41259     41262     41264
     41259     41262     41265     41260     41259     41261     41260     41259     41262
     41261     41259     41262     41262     41265     41266     41262     41265     41267
     41262     41265     41268     41263     41262     41264     41263     41262     41265
     41264     41262     41265     41265     41268     41269     41265     41268     41270
     41265     41268     41271     41266     41265     41267     41266     41265     41268
     41267     41265     41268     41268     41271     41272     41268     41271     41273
     41268     41271     41274     41269     41268     41270     41269     41268     41271
     41270     41268     41271     41272     41271     41273     41272     41271     41274
     41273     41271     41274     41275     41279     41280     41275     41279     41281
     41275     41279     41282     41276     41275     41277     41276     41275     41278
     41276     41275     41279     41277     41275     41278     41277     41275     41279
     41278     41275     41279     41279     41282     41283     41279     41282     41284
     41279     41282     41289     41280     41279     41281     41280     41279     41282
     41281     41279     41282     41282     41289     41285     41283     41282     41284
     41283     41282     41289     41284     41282     41289     41285     41288     41290
     41286     41285     41287     41286     41285     41288     41286     41285     41289
     41287     41285     41288     41287     41285     41289     41288     41285     41289
     41288     41290     41291     41288     41290     41292     41288     41290     41293
     41290     41293     41294     41290     41293     41295     41290     41293     41301
     41291     41290     41292     41291     41290     41293     41292     41290     41293
     41293     41295     41296     41293     41301     41302     41293     41301     41303
     41293     41301     41304     41294     41293     41295     41294     41293     41301
     41295     41293     41301     41295     41296     41297     41295     41296     41298
     41296     41298     41299     41296     41298     41300     41296     41298     41310
     41297     41296     41298     41298     41310     41311     41298     41310     41312
     41298     41310     41313     41299     41298     41300     41299     41298     41310
     41300     41298     41310     41301     41304     41305     41302     41301     41303
     41302     41301     41304     41303     41301     41304     41304     41305     41306
     41304     41305     41307     41305     41307     41308     41305     41307     41309
     41305     41307     41354     41306     41305     41307     41307     41354     41355
     41307     41354     41356     41307     41354     41357     41308     41307     41309
     41308     41307     41354     41309     41307     41354     41310     41313     41314
     41310     41313     41315     41310     41313     41316     41311     41310     41312
     41311     41310     41313     41312     41310     41313     41313     41316     41317
     41313     41316     41318     41313     41316     41319     41314     41313     41315
     41314     41313     41316     41315     41313     41316     41316     41319     41320
     41316     41319     41321     41316     41319     41322     41317     41316     41318
     41317     41316     41319     41318     41316     41319     41319     41322     41323
     41319     41322     41324     41319     41322     41325     41320     41319     41321
     41320     41319     41322     41321     41319     41322     41322     41325     41326
     41322     41325     41327     41322     41325     41328     41323     41322     41324
     41323     41322     41325     41324     41322     41325     41325     41328     41329
     41325     41328     41330     41325     41328     41333     41326     41325     41327
     41326     41325     41328     41327     41325     41328     41328     41330     41331
     41328     41330     41332     41328     41330     41333     41328     41333     41330
     41328     41333     41334     41328     41333     41335     41329     41328     41330
     41329     41328     41333     41330     41328     41333     41330     41333     41334
     41330     41333     41335     41331     41330     41332     41331     41330     41333
     41332     41330     41333     41333     41335     41336     41333     41335     41337
     41333     41335     41338     41334     41333     41335     41335     41338     41339
     41335     41338     41340     41335     41338     41341     41336     41335     41337
     41336     41335     41338     41337     41335     41338     41338     41341     41342
     41338     41341     41343     41338     41341     41344     41339     41338     41340
     41339     41338     41341     41340     41338     41341     41341     41344     41345
     41341     41344     41346     41341     41344     41347     41342     41341     41343
     41342     41341     41344     41343     41341     41344     41344     41347     41348
     41344     41347     41349     41344     41347     41350     41345     41344     41346
     41345     41344     41347     41346     41344     41347     41347     41350     41351
     41347     41350     41352     41347     41350     41353     41348     41347     41349
     41348     41347     41350     41349     41347     41350     41351     41350     41352
     41351     41350     41353     41352     41350     41353     41354     41357     41358
     41354     41357     41359     41354     41357     41360     41355     41354     41356
     41355     41354     41357     41356     41354     41357     41357     41360     41361
     41357     41360     41362     41357     41360     41363     41358     41357     41359
     41358     41357     41360     41359     41357     41360     41360     41363     41364
     41360     41363     41365     41360     41363     41366     41361     41360     41362
     41361     41360     41363     41362     41360     41363     41363     41366     41367
     41363     41366     41368     41363     41366     41369     41364     41363     41365
     41364     41363     41366     41365     41363     41366     41366     41369     41370
     41366     41369     41371     41366     41369     41372     41367     41366     41368
     41367     41366     41369     41368     41366     41369     41369     41372     41373
     41369     41372     41374     41369     41372     41375     41370     41369     41371
     41370     41369     41372     41371     41369     41372     41372     41375     41376
     41372     41375     41377     41372     41375     41378     41373     41372     41374
     41373     41372     41375     41374     41372     41375     41375     41378     41379
     41375     41378     41380     41375     41378     41381     41376     41375     41377
     41376     41375     41378     41377     41375     41378     41378     41381     41382
     41378     41381     41383     41378     41381     41384     41379     41378     41380
     41379     41378     41381     41380     41378     41381     41381     41384     41385
     41381     41384     41386     41381     41384     41387     41382     41381     41383
     41382     41381     41384     41383     41381     41384     41384     41387     41388
     41384     41387     41389     41384     41387     41390     41385     41384     41386
     41385     41384     41387     41386     41384     41387     41387     41390     41391
     41387     41390     41392     41387     41390     41393     41388     41387     41389
     41388     41387     41390     41389     41387     41390     41391     41390     41392
     41391     41390     41393     41392     41390     41393     41394     41398     41399
     41394     41398     41400     41394     41398     41401     41395     41394     41396
     41395     41394     41397     41395     41394     41398     41396     41394     41397
     41396     41394     41398     41397     41394     41398     41398     41401     41402
     41398     41401     41403     41398     41401     41408     41399     41398     41400
     41399     41398     41401     41400     41398     41401     41401     41408     41404
     41402     41401     41403     41402     41401     41408     41403     41401     41408
     41404     41407     41409     41405     41404     41406     41405     41404     41407
     41405     41404     41408     41406     41404     41407     41406     41404     41408
     41407     41404     41408     41407     41409     41410     41407     41409     41411
     41407     41409     41412     41409     41412     41413     41409     41412     41414
     41409     41412     41420     41410     41409     41411     41410     41409     41412
     41411     41409     41412     41412     41414     41415     41412     41420     41421
     41412     41420     41422     41412     41420     41423     41413     41412     41414
     41413     41412     41420     41414     41412     41420     41414     41415     41416
     41414     41415     41417     41415     41417     41418     41415     41417     41419
     41415     41417     41429     41416     41415     41417     41417     41429     41430
     41417     41429     41431     41417     41429     41432     41418     41417     41419
     41418     41417     41429     41419     41417     41429     41420     41423     41424
     41421     41420     41422     41421     41420     41423     41422     41420     41423
     41423     41424     41425     41423     41424     41426     41424     41426     41427
     41424     41426     41428     41424     41426     41470     41425     41424     41426
     41426     41470     41471     41426     41470     41472     41426     41470     41473
     41427     41426     41428     41427     41426     41470     41428     41426     41470
     41429     41432     41433     41429     41432     41434     41429     41432     41435
     41430     41429     41431     41430     41429     41432     41431     41429     41432
     41432     41435     41436     41432     41435     41437     41432     41435     41438
     41433     41432     41434     41433     41432     41435     41434     41432     41435
     41435     41438     41439     41435     41438     41440     41435     41438     41441
     41436     41435     41437     41436     41435     41438     41437     41435     41438
     41438     41441     41442     41438     41441     41443     41438     41441     41444
     41439     41438     41440     41439     41438     41441     41440     41438     41441
     41441     41444     41445     41441     41444     41446     41441     41444     41447
     41442     41441     41443     41442     41441     41444     41443     41441     41444
     41444     41447     41448     41444     41447     41449     41445     41444     41446
     41445     41444     41447     41446     41444     41447     41447     41449     41450
     41447     41449     41451     41448     41447     41449     41449     41451     41452
     41449     41451     41453     41449     41451     41454     41450     41449     41451
     41451     41454     41455     41451     41454     41456     41451     41454     41457
     41452     41451     41453     41452     41451     41454     41453     41451     41454
     41454     41457     41458     41454     41457     41459     41454     41457     41460
     41455     41454     41456     41455     41454     41457     41456     41454     41457
     41457     41460     41461     41457     41460     41462     41457     41460     41463
     41458     41457     41459     41458     41457     41460     41459     41457     41460
     41460     41463     41464     41460     41463     41465     41460     41463     41466
     41461     41460     41462     41461     41460     41463     41462     41460     41463
     41463     41466     41467     41463     41466     41468     41463     41466     41469
     41464     41463     41465     41464     41463     41466     41465     41463     41466
     41467     41466     41468     41467     41466     41469     41468     41466     41469
     41470     41473     41474     41470     41473     41475     41470     41473     41476
     41471     41470     41472     41471     41470     41473     41472     41470     41473
     41473     41476     41477     41473     41476     41478     41473     41476     41479
     41474     41473     41475     41474     41473     41476     41475     41473     41476
     41476     41479     41480     41476     41479     41481     41476     41479     41482
     41477     41476     41478     41477     41476     41479     41478     41476     41479
     41479     41482     41483     41479     41482     41484     41479     41482     41485
     41480     41479     41481     41480     41479     41482     41481     41479     41482
     41482     41485     41486     41482     41485     41487     41482     41485     41488
     41483     41482     41484     41483     41482     41485     41484     41482     41485
     41485     41488     41489     41485     41488     41490     41486     41485     41487
     41486     41485     41488     41487     41485     41488     41488     41490     41491
     41488     41490     41492     41489     41488     41490     41490     41492     41493
     41490     41492     41494     41490     41492     41495     41491     41490     41492
     41492     41495     41496     41492     41495     41497     41492     41495     41498
     41493     41492     41494     41493     41492     41495     41494     41492     41495
     41495     41498     41499     41495     41498     41500     41495     41498     41501
     41496     41495     41497     41496     41495     41498     41497     41495     41498
     41498     41501     41502     41498     41501     41503     41498     41501     41504
     41499     41498     41500     41499     41498     41501     41500     41498     41501
     41501     41504     41505     41501     41504     41506     41501     41504     41507
     41502     41501     41503     41502     41501     41504     41503     41501     41504
     41504     41507     41508     41504     41507     41509     41504     41507     41510
     41505     41504     41506     41505     41504     41507     41506     41504     41507
     41507     41510     41511     41507     41510     41512     41507     41510     41513
     41508     41507     41509     41508     41507     41510     41509     41507     41510
     41510     41513     41514     41510     41513     41515     41510     41513     41516
     41511     41510     41512     41511     41510     41513     41512     41510     41513
     41514     41513     41515     41514     41513     41516     41515     41513     41516
     41517     41520     41521     41517     41522     41523     41517     41522     41524
     41517     41522     41526     41518     41517     41519     41518     41517     41520
     41518     41517     41522     41519     41517     41520     41519     41517     41522
     41520     41517     41522     41522     41524     41525     41522     41526     41527
     41522     41526     41528     41522     41526     41533     41523     41522     41524
     41523     41522     41526     41524     41522     41526     41526     41533     41529
     41527     41526     41528     41527     41526     41533     41528     41526     41533
     41529     41532     41534     41530     41529     41531     41530     41529     41532
     41530     41529     41533     41531     41529     41532     41531     41529     41533
     41532     41529     41533     41532     41534     41535     41532     41534     41536
     41532     41534     41537     41534     41537     41538     41534     41537     41539
     41534     41537     41545     41535     41534     41536     41535     41534     41537
     41536     41534     41537     41537     41539     41540     41537     41545     41546
     41537     41545     41547     41537     41545     41548     41538     41537     41539
     41538     41537     41545     41539     41537     41545     41539     41540     41541
     41539     41540     41542     41540     41542     41543     41540     41542     41544
     41540     41542     41554     41541     41540     41542     41542     41554     41555
     41542     41554     41556     41542     41554     41557     41543     41542     41544
     41543     41542     41554     41544     41542     41554     41545     41548     41549
     41546     41545     41547     41546     41545     41548     41547     41545     41548
     41548     41549     41550     41548     41549     41551     41549     41551     41552
     41549     41551     41553     41549     41551     41598     41550     41549     41551
     41551     41598     41599     41551     41598     41600     41551     41598     41601
     41552     41551     41553     41552     41551     41598     41553     41551     41598
     41554     41557     41558     41554     41557     41559     41554     41557     41560
     41555     41554     41556     41555     41554     41557     41556     41554     41557
     41557     41560     41561     41557     41560     41562     41557     41560     41563
     41558     41557     41559     41558     41557     41560     41559     41557     41560
     41560     41563     41564     41560     41563     41565     41560     41563     41566
     41561     41560     41562     41561     41560     41563     41562     41560     41563
     41563     41566     41567     41563     41566     41568     41563     41566     41569
     41564     41563     41565     41564     41563     41566     41565     41563     41566
     41566     41569     41570     41566     41569     41571     41566     41569     41572
     41567     41566     41568     41567     41566     41569     41568     41566     41569
     41569     41572     41573     41569     41572     41574     41569     41572     41577
     41570     41569     41571     41570     41569     41572     41571     41569     41572
     41572     41574     41575     41572     41574     41576     41572     41574     41577
     41572     41577     41574     41572     41577     41578     41572     41577     41579
     41573     41572     41574     41573     41572     41577     41574     41572     41577
     41574     41577     41578     41574     41577     41579     41575     41574     41576
     41575     41574     41577     41576     41574     41577     41577     41579     41580
     41577     41579     41581     41577     41579     41582     41578     41577     41579
     41579     41582     41583     41579     41582     41584     41579     41582     41585
     41580     41579     41581     41580     41579     41582     41581     41579     41582
     41582     41585     41586     41582     41585     41587     41582     41585     41588
     41583     41582     41584     41583     41582     41585     41584     41582     41585
     41585     41588     41589     41585     41588     41590     41585     41588     41591
     41586     41585     41587     41586     41585     41588     41587     41585     41588
     41588     41591     41592     41588     41591     41593     41588     41591     41594
     41589     41588     41590     41589     41588     41591     41590     41588     41591
     41591     41594     41595     41591     41594     41596     41591     41594     41597
     41592     41591     41593     41592     41591     41594     41593     41591     41594
     41595     41594     41596     41595     41594     41597     41596     41594     41597
     41598     41601     41602     41598     41601     41603     41598     41601     41604
     41599     41598     41600     41599     41598     41601     41600     41598     41601
     41601     41604     41605     41601     41604     41606     41601     41604     41607
     41602     41601     41603     41602     41601     41604     41603     41601     41604
     41604     41607     41608     41604     41607     41609     41604     41607     41610
     41605     41604     41606     41605     41604     41607     41606     41604     41607
     41607     41610     41611     41607     41610     41612     41607     41610     41613
     41608     41607     41609     41608     41607     41610     41609     41607     41610
     41610     41613     41614     41610     41613     41615     41610     41613     41616
     41611     41610     41612     41611     41610     41613     41612     41610     41613
     41613     41616     41617     41613     41616     41618     41613     41616     41619
     41614     41613     41615     41614     41613     41616     41615     41613     41616
     41616     41619     41620     41616     41619     41621     41616     41619     41622
     41617     41616     41618     41617     41616     41619     41618     41616     41619
     41619     41622     41623     41619     41622     41624     41619     41622     41625
     41620     41619     41621     41620     41619     41622     41621     41619     41622
     41622     41625     41626     41622     41625     41627     41622     41625     41628
     41623     41622     41624     41623     41622     41625     41624     41622     41625
     41625     41628     41629     41625     41628     41630     41625     41628     41631
     41626     41625     41627     41626     41625     41628     41627     41625     41628
     41628     41631     41632     41628     41631     41633     41628     41631     41634
     41629     41628     41630     41629     41628     41631     41630     41628     41631
     41631     41634     41635     41631     41634     41636     41631     41634     41637
     41632     41631     41633     41632     41631     41634     41633     41631     41634
     41634     41637     41638     41634     41637     41639     41634     41637     41640
     41635     41634     41636     41635     41634     41637     41636     41634     41637
     41638     41637     41639     41638     41637     41640     41639     41637     41640
     41641     41645     41646     41641     41645     41647     41641     41645     41648
     41642     41641     41643     41642     41641     41644     41642     41641     41645
     41643     41641     41644     41643     41641     41645     41644     41641     41645
     41645     41648     41649     41645     41648     41650     41645     41648     41655
     41646     41645     41647     41646     41645     41648     41647     41645     41648
     41648     41655     41651     41649     41648     41650     41649     41648     41655
     41650     41648     41655     41651     41654     41656     41652     41651     41653
     41652     41651     41654     41652     41651     41655     41653     41651     41654
     41653     41651     41655     41654     41651     41655     41654     41656     41657
     41654     41656     41658     41654     41656     41659     41656     41659     41660
     41656     41659     41661     41656     41659     41667     41657     41656     41658
     41657     41656     41659     41658     41656     41659     41659     41661     41662
     41659     41667     41668     41659     41667     41669     41659     41667     41670
     41660     41659     41661     41660     41659     41667     41661     41659     41667
     41661     41662     41663     41661     41662     41664     41662     41664     41665
     41662     41664     41666     41662     41664     41676     41663     41662     41664
     41664     41676     41677     41664     41676     41678     41664     41676     41679
     41665     41664     41666     41665     41664     41676     41666     41664     41676
     41667     41670     41671     41668     41667     41669     41668     41667     41670
     41669     41667     41670     41670     41671     41672     41670     41671     41673
     41671     41673     41674     41671     41673     41675     41671     41673     41720
     41672     41671     41673     41673     41720     41721     41673     41720     41722
     41673     41720     41723     41674     41673     41675     41674     41673     41720
     41675     41673     41720     41676     41679     41680     41676     41679     41681
     41676     41679     41682     41677     41676     41678     41677     41676     41679
     41678     41676     41679     41679     41682     41683     41679     41682     41684
     41679     41682     41685     41680     41679     41681     41680     41679     41682
     41681     41679     41682     41682     41685     41686     41682     41685     41687
     41682     41685     41688     41683     41682     41684     41683     41682     41685
     41684     41682     41685     41685     41688     41689     41685     41688     41690
     41685     41688     41691     41686     41685     41687     41686     41685     41688
     41687     41685     41688     41688     41691     41692     41688     41691     41693
     41688     41691     41694     41689     41688     41690     41689     41688     41691
     41690     41688     41691     41691     41694     41695     41691     41694     41696
     41691     41694     41699     41692     41691     41693     41692     41691     41694
     41693     41691     41694     41694     41696     41697     41694     41696     41698
     41694     41696     41699     41694     41699     41696     41694     41699     41700
     41694     41699     41701     41695     41694     41696     41695     41694     41699
     41696     41694     41699     41696     41699     41700     41696     41699     41701
     41697     41696     41698     41697     41696     41699     41698     41696     41699
     41699     41701     41702     41699     41701     41703     41699     41701     41704
     41700     41699     41701     41701     41704     41705     41701     41704     41706
     41701     41704     41707     41702     41701     41703     41702     41701     41704
     41703     41701     41704     41704     41707     41708     41704     41707     41709
     41704     41707     41710     41705     41704     41706     41705     41704     41707
     41706     41704     41707     41707     41710     41711     41707     41710     41712
     41707     41710     41713     41708     41707     41709     41708     41707     41710
     41709     41707     41710     41710     41713     41714     41710     41713     41715
     41710     41713     41716     41711     41710     41712     41711     41710     41713
     41712     41710     41713     41713     41716     41717     41713     41716     41718
     41713     41716     41719     41714     41713     41715     41714     41713     41716
     41715     41713     41716     41717     41716     41718     41717     41716     41719
     41718     41716     41719     41720     41723     41724     41720     41723     41725
     41720     41723     41726     41721     41720     41722     41721     41720     41723
     41722     41720     41723     41723     41726     41727     41723     41726     41728
     41723     41726     41729     41724     41723     41725     41724     41723     41726
     41725     41723     41726     41726     41729     41730     41726     41729     41731
     41726     41729     41732     41727     41726     41728     41727     41726     41729
     41728     41726     41729     41729     41732     41733     41729     41732     41734
     41729     41732     41735     41730     41729     41731     41730     41729     41732
     41731     41729     41732     41732     41735     41736     41732     41735     41737
     41732     41735     41738     41733     41732     41734     41733     41732     41735
     41734     41732     41735     41735     41738     41739     41735     41738     41740
     41735     41738     41741     41736     41735     41737     41736     41735     41738
     41737     41735     41738     41738     41741     41742     41738     41741     41743
     41738     41741     41744     41739     41738     41740     41739     41738     41741
     41740     41738     41741     41741     41744     41745     41741     41744     41746
     41741     41744     41747     41742     41741     41743     41742     41741     41744
     41743     41741     41744     41744     41747     41748     41744     41747     41749
     41744     41747     41750     41745     41744     41746     41745     41744     41747
     41746     41744     41747     41747     41750     41751     41747     41750     41752
     41747     41750     41753     41748     41747     41749     41748     41747     41750
     41749     41747     41750     41750     41753     41754     41750     41753     41755
     41750     41753     41756     41751     41750     41752     41751     41750     41753
     41752     41750     41753     41753     41756     41757     41753     41756     41758
     41753     41756     41759     41754     41753     41755     41754     41753     41756
     41755     41753     41756     41757     41756     41758     41757     41756     41759
     41758     41756     41759     41760     41764     41765     41760     41764     41766
     41760     41764     41767     41761     41760     41762     41761     41760     41763
     41761     41760     41764     41762     41760     41763     41762     41760     41764
     41763     41760     41764     41764     41767     41768     41764     41767     41769
     41764     41767     41774     41765     41764     41766     41765     41764     41767
     41766     41764     41767     41767     41774     41770     41768     41767     41769
     41768     41767     41774     41769     41767     41774     41770     41773     41775
     41771     41770     41772     41771     41770     41773     41771     41770     41774
     41772     41770     41773     41772     41770     41774     41773     41770     41774
     41773     41775     41776     41773     41775     41777     41773     41775     41778
     41775     41778     41779     41775     41778     41780     41775     41778     41786
     41776     41775     41777     41776     41775     41778     41777     41775     41778
     41778     41780     41781     41778     41786     41787     41778     41786     41788
     41778     41786     41789     41779     41778     41780     41779     41778     41786
     41780     41778     41786     41780     41781     41782     41780     41781     41783
     41781     41783     41784     41781     41783     41785     41781     41783     41795
     41782     41781     41783     41783     41795     41796     41783     41795     41797
     41783     41795     41798     41784     41783     41785     41784     41783     41795
     41785     41783     41795     41786     41789     41790     41787     41786     41788
     41787     41786     41789     41788     41786     41789     41789     41790     41791
     41789     41790     41792     41790     41792     41793     41790     41792     41794
     41790     41792     41839     41791     41790     41792     41792     41839     41840
     41792     41839     41841     41792     41839     41842     41793     41792     41794
     41793     41792     41839     41794     41792     41839     41795     41798     41799
     41795     41798     41800     41795     41798     41801     41796     41795     41797
     41796     41795     41798     41797     41795     41798     41798     41801     41802
     41798     41801     41803     41798     41801     41804     41799     41798     41800
     41799     41798     41801     41800     41798     41801     41801     41804     41805
     41801     41804     41806     41801     41804     41807     41802     41801     41803
     41802     41801     41804     41803     41801     41804     41804     41807     41808
     41804     41807     41809     41804     41807     41810     41805     41804     41806
     41805     41804     41807     41806     41804     41807     41807     41810     41811
     41807     41810     41812     41807     41810     41813     41808     41807     41809
     41808     41807     41810     41809     41807     41810     41810     41813     41814
     41810     41813     41815     41810     41813     41818     41811     41810     41812
     41811     41810     41813     41812     41810     41813     41813     41815     41816
     41813     41815     41817     41813     41815     41818     41813     41818     41815
     41813     41818     41819     41813     41818     41820     41814     41813     41815
     41814     41813     41818     41815     41813     41818     41815     41818     41819
     41815     41818     41820     41816     41815     41817     41816     41815     41818
     41817     41815     41818     41818     41820     41821     41818     41820     41822
     41818     41820     41823     41819     41818     41820     41820     41823     41824
     41820     41823     41825     41820     41823     41826     41821     41820     41822
     41821     41820     41823     41822     41820     41823     41823     41826     41827
     41823     41826     41828     41823     41826     41829     41824     41823     41825
     41824     41823     41826     41825     41823     41826     41826     41829     41830
     41826     41829     41831     41826     41829     41832     41827     41826     41828
     41827     41826     41829     41828     41826     41829     41829     41832     41833
     41829     41832     41834     41829     41832     41835     41830     41829     41831
     41830     41829     41832     41831     41829     41832     41832     41835     41836
     41832     41835     41837     41832     41835     41838     41833     41832     41834
     41833     41832     41835     41834     41832     41835     41836     41835     41837
     41836     41835     41838     41837     41835     41838     41839     41842     41843
     41839     41842     41844     41839     41842     41845     41840     41839     41841
     41840     41839     41842     41841     41839     41842     41842     41845     41846
     41842     41845     41847     41842     41845     41848     41843     41842     41844
     41843     41842     41845     41844     41842     41845     41845     41848     41849
     41845     41848     41850     41845     41848     41851     41846     41845     41847
     41846     41845     41848     41847     41845     41848     41848     41851     41852
     41848     41851     41853     41848     41851     41854     41849     41848     41850
     41849     41848     41851     41850     41848     41851     41851     41854     41855
     41851     41854     41856     41851     41854     41857     41852     41851     41853
     41852     41851     41854     41853     41851     41854     41854     41857     41858
     41854     41857     41859     41854     41857     41860     41855     41854     41856
     41855     41854     41857     41856     41854     41857     41857     41860     41861
     41857     41860     41862     41857     41860     41863     41858     41857     41859
     41858     41857     41860     41859     41857     41860     41860     41863     41864
     41860     41863     41865     41860     41863     41866     41861     41860     41862
     41861     41860     41863     41862     41860     41863     41863     41866     41867
     41863     41866     41868     41863     41866     41869     41864     41863     41865
     41864     41863     41866     41865     41863     41866     41866     41869     41870
     41866     41869     41871     41866     41869     41872     41867     41866     41868
     41867     41866     41869     41868     41866     41869     41869     41872     41873
     41869     41872     41874     41869     41872     41875     41870     41869     41871
     41870     41869     41872     41871     41869     41872     41872     41875     41876
     41872     41875     41877     41872     41875     41878     41873     41872     41874
     41873     41872     41875     41874     41872     41875     41875     41878     41879
     41875     41878     41880     41875     41878     41881     41876     41875     41877
     41876     41875     41878     41877     41875     41878     41879     41878     41880
     41879     41878     41881     41880     41878     41881     41882     41886     41887
     41882     41886     41888     41882     41886     41889     41883     41882     41884
     41883     41882     41885     41883     41882     41886     41884     41882     41885
     41884     41882     41886     41885     41882     41886     41886     41889     41890
     41886     41889     41891     41886     41889     41896     41887     41886     41888
     41887     41886     41889     41888     41886     41889     41889     41896     41892
     41890     41889     41891     41890     41889     41896     41891     41889     41896
     41892     41895     41897     41893     41892     41894     41893     41892     41895
     41893     41892     41896     41894     41892     41895     41894     41892     41896
     41895     41892     41896     41895     41897     41898     41895     41897     41899
     41895     41897     41900     41897     41900     41901     41897     41900     41902
     41897     41900     41908     41898     41897     41899     41898     41897     41900
     41899     41897     41900     41900     41902     41903     41900     41908     41909
     41900     41908     41910     41900     41908     41911     41901     41900     41902
     41901     41900     41908     41902     41900     41908     41902     41903     41904
     41902     41903     41905     41903     41905     41906     41903     41905     41907
     41903     41905     41917     41904     41903     41905     41905     41917     41918
     41905     41917     41919     41905     41917     41920     41906     41905     41907
     41906     41905     41917     41907     41905     41917     41908     41911     41912
     41909     41908     41910     41909     41908     41911     41910     41908     41911
     41911     41912     41913     41911     41912     41914     41912     41914     41915
     41912     41914     41916     41912     41914     41964     41913     41912     41914
     41914     41964     41965     41914     41964     41966     41914     41964     41967
     41915     41914     41916     41915     41914     41964     41916     41914     41964
     41917     41920     41921     41917     41920     41922     41917     41920     41923
     41918     41917     41919     41918     41917     41920     41919     41917     41920
     41920     41923     41924     41920     41923     41925     41920     41923     41926
     41921     41920     41922     41921     41920     41923     41922     41920     41923
     41923     41926     41927     41923     41926     41928     41923     41926     41929
     41924     41923     41925     41924     41923     41926     41925     41923     41926
     41926     41929     41930     41926     41929     41931     41926     41929     41932
     41927     41926     41928     41927     41926     41929     41928     41926     41929
     41929     41932     41933     41929     41932     41934     41929     41932     41935
     41930     41929     41931     41930     41929     41932     41931     41929     41932
     41932     41935     41936     41932     41935     41937     41933     41932     41934
     41933     41932     41935     41934     41932     41935     41935     41937     41938
     41935     41937     41939     41936     41935     41937     41937     41939     41940
     41937     41939     41941     41937     41939     41942     41938     41937     41939
     41939     41942     41943     41939     41942     41944     41939     41942     41945
     41940     41939     41941     41940     41939     41942     41941     41939     41942
     41942     41945     41946     41942     41945     41947     41942     41945     41948
     41943     41942     41944     41943     41942     41945     41944     41942     41945
     41945     41948     41949     41945     41948     41950     41945     41948     41951
     41946     41945     41947     41946     41945     41948     41947     41945     41948
     41948     41951     41952     41948     41951     41953     41948     41951     41954
     41949     41948     41950     41949     41948     41951     41950     41948     41951
     41951     41954     41955     41951     41954     41956     41951     41954     41957
     41952     41951     41953     41952     41951     41954     41953     41951     41954
     41954     41957     41958     41954     41957     41959     41954     41957     41960
     41955     41954     41956     41955     41954     41957     41956     41954     41957
     41957     41960     41961     41957     41960     41962     41957     41960     41963
     41958     41957     41959     41958     41957     41960     41959     41957     41960
     41961     41960     41962     41961     41960     41963     41962     41960     41963
     41964     41967     41968     41964     41967     41969     41964     41967     41970
     41965     41964     41966     41965     41964     41967     41966     41964     41967
     41967     41970     41971     41967     41970     41972     41967     41970     41973
     41968     41967     41969     41968     41967     41970     41969     41967     41970
     41970     41973     41974     41970     41973     41975     41970     41973     41976
     41971     41970     41972     41971     41970     41973     41972     41970     41973
     41973     41976     41977     41973     41976     41978     41973     41976     41979
     41974     41973     41975     41974     41973     41976     41975     41973     41976
     41976     41979     41980     41976     41979     41981     41976     41979     41982
     41977     41976     41978     41977     41976     41979     41978     41976     41979
     41979     41982     41983     41979     41982     41984     41979     41982     41985
     41980     41979     41981     41980     41979     41982     41981     41979     41982
     41982     41985     41986     41982     41985     41987     41982     41985     41988
     41983     41982     41984     41983     41982     41985     41984     41982     41985
     41985     41988     41989     41985     41988     41990     41985     41988     41991
     41986     41985     41987     41986     41985     41988     41987     41985     41988
     41988     41991     41992     41988     41991     41993     41988     41991     41994
     41989     41988     41990     41989     41988     41991     41990     41988     41991
     41991     41994     41995     41991     41994     41996     41991     41994     41997
     41992     41991     41993     41992     41991     41994     41993     41991     41994
     41994     41997     41998     41994     41997     41999     41994     41997     42000
     41995     41994     41996     41995     41994     41997     41996     41994     41997
     41997     42000     42001     41997     42000     42002     41997     42000     42003
     41998     41997     41999     41998     41997     42000     41999     41997     42000
     42000     42003     42004     42000     42003     42005     42000     42003     42006
     42001     42000     42002     42001     42000     42003     42002     42000     42003
     42004     42003     42005     42004     42003     42006     42005     42003     42006
     42007     42011     42012     42007     42011     42013     42007     42011     42014
     42008     42007     42009     42008     42007     42010     42008     42007     42011
     42009     42007     42010     42009     42007     42011     42010     42007     42011
     42011     42014     42015     42011     42014     42016     42011     42014     42021
     42012     42011     42013     42012     42011     42014     42013     42011     42014
     42014     42021     42017     42015     42014     42016     42015     42014     42021
     42016     42014     42021     42017     42020     42022     42018     42017     42019
     42018     42017     42020     42018     42017     42021     42019     42017     42020
     42019     42017     42021     42020     42017     42021     42020     42022     42023
     42020     42022     42024     42020     42022     42025     42022     42025     42026
     42022     42025     42027     42022     42025     42033     42023     42022     42024
     42023     42022     42025     42024     42022     42025     42025     42027     42028
     42025     42033     42034     42025     42033     42035     42025     42033     42036
     42026     42025     42027     42026     42025     42033     42027     42025     42033
     42027     42028     42029     42027     42028     42030     42028     42030     42031
     42028     42030     42032     42028     42030     42042     42029     42028     42030
     42030     42042     42043     42030     42042     42044     42030     42042     42045
     42031     42030     42032     42031     42030     42042     42032     42030     42042
     42033     42036     42037     42034     42033     42035     42034     42033     42036
     42035     42033     42036     42036     42037     42038     42036     42037     42039
     42037     42039     42040     42037     42039     42041     42037     42039     42089
     42038     42037     42039     42039     42089     42090     42039     42089     42091
     42039     42089     42092     42040     42039     42041     42040     42039     42089
     42041     42039     42089     42042     42045     42046     42042     42045     42047
     42042     42045     42048     42043     42042     42044     42043     42042     42045
     42044     42042     42045     42045     42048     42049     42045     42048     42050
     42045     42048     42051     42046     42045     42047     42046     42045     42048
     42047     42045     42048     42048     42051     42052     42048     42051     42053
     42048     42051     42054     42049     42048     42050     42049     42048     42051
     42050     42048     42051     42051     42054     42055     42051     42054     42056
     42051     42054     42057     42052     42051     42053     42052     42051     42054
     42053     42051     42054     42054     42057     42058     42054     42057     42059
     42054     42057     42060     42055     42054     42056     42055     42054     42057
     42056     42054     42057     42057     42060     42061     42057     42060     42062
     42058     42057     42059     42058     42057     42060     42059     42057     42060
     42060     42062     42063     42060     42062     42064     42061     42060     42062
     42062     42064     42065     42062     42064     42066     42062     42064     42067
     42063     42062     42064     42064     42067     42068     42064     42067     42069
     42064     42067     42070     42065     42064     42066     42065     42064     42067
     42066     42064     42067     42067     42070     42071     42067     42070     42072
     42067     42070     42073     42068     42067     42069     42068     42067     42070
     42069     42067     42070     42070     42073     42074     42070     42073     42075
     42070     42073     42076     42071     42070     42072     42071     42070     42073
     42072     42070     42073     42073     42076     42077     42073     42076     42078
     42073     42076     42079     42074     42073     42075     42074     42073     42076
     42075     42073     42076     42076     42079     42080     42076     42079     42081
     42076     42079     42082     42077     42076     42078     42077     42076     42079
     42078     42076     42079     42079     42082     42083     42079     42082     42084
     42079     42082     42085     42080     42079     42081     42080     42079     42082
     42081     42079     42082     42082     42085     42086     42082     42085     42087
     42082     42085     42088     42083     42082     42084     42083     42082     42085
     42084     42082     42085     42086     42085     42087     42086     42085     42088
     42087     42085     42088     42089     42092     42093     42089     42092     42094
     42089     42092     42095     42090     42089     42091     42090     42089     42092
     42091     42089     42092     42092     42095     42096     42092     42095     42097
     42092     42095     42098     42093     42092     42094     42093     42092     42095
     42094     42092     42095     42095     42098     42099     42095     42098     42100
     42095     42098     42101     42096     42095     42097     42096     42095     42098
     42097     42095     42098     42098     42101     42102     42098     42101     42103
     42098     42101     42104     42099     42098     42100     42099     42098     42101
     42100     42098     42101     42101     42104     42105     42101     42104     42106
     42101     42104     42107     42102     42101     42103     42102     42101     42104
     42103     42101     42104     42104     42107     42108     42104     42107     42109
     42104     42107     42110     42105     42104     42106     42105     42104     42107
     42106     42104     42107     42107     42110     42111     42107     42110     42112
     42107     42110     42113     42108     42107     42109     42108     42107     42110
     42109     42107     42110     42110     42113     42114     42110     42113     42115
     42110     42113     42116     42111     42110     42112     42111     42110     42113
     42112     42110     42113     42113     42116     42117     42113     42116     42118
     42113     42116     42119     42114     42113     42115     42114     42113     42116
     42115     42113     42116     42116     42119     42120     42116     42119     42121
     42116     42119     42122     42117     42116     42118     42117     42116     42119
     42118     42116     42119     42119     42122     42123     42119     42122     42124
     42119     42122     42125     42120     42119     42121     42120     42119     42122
     42121     42119     42122     42122     42125     42126     42122     42125     42127
     42122     42125     42128     42123     42122     42124     42123     42122     42125
     42124     42122     42125     42125     42128     42129     42125     42128     42130
     42125     42128     42131     42126     42125     42127     42126     42125     42128
     42127     42125     42128     42129     42128     42130     42129     42128     42131
     42130     42128     42131     42132     42136     42137     42132     42136     42138
     42132     42136     42139     42133     42132     42134     42133     42132     42135
     42133     42132     42136     42134     42132     42135     42134     42132     42136
     42135     42132     42136     42136     42139     42140     42136     42139     42141
     42136     42139     42146     42137     42136     42138     42137     42136     42139
     42138     42136     42139     42139     42146     42142     42140     42139     42141
     42140     42139     42146     42141     42139     42146     42142     42145     42147
     42143     42142     42144     42143     42142     42145     42143     42142     42146
     42144     42142     42145     42144     42142     42146     42145     42142     42146
     42145     42147     42148     42145     42147     42149     42145     42147     42150
     42147     42150     42151     42147     42150     42152     42147     42150     42158
     42148     42147     42149     42148     42147     42150     42149     42147     42150
     42150     42152     42153     42150     42158     42159     42150     42158     42160
     42150     42158     42161     42151     42150     42152     42151     42150     42158
     42152     42150     42158     42152     42153     42154     42152     42153     42155
     42153     42155     42156     42153     42155     42157     42153     42155     42167
     42154     42153     42155     42155     42167     42168     42155     42167     42169
     42155     42167     42170     42156     42155     42157     42156     42155     42167
     42157     42155     42167     42158     42161     42162     42159     42158     42160
     42159     42158     42161     42160     42158     42161     42161     42162     42163
     42161     42162     42164     42162     42164     42165     42162     42164     42166
     42162     42164     42211     42163     42162     42164     42164     42211     42212
     42164     42211     42213     42164     42211     42214     42165     42164     42166
     42165     42164     42211     42166     42164     42211     42167     42170     42171
     42167     42170     42172     42167     42170     42173     42168     42167     42169
     42168     42167     42170     42169     42167     42170     42170     42173     42174
     42170     42173     42175     42170     42173     42176     42171     42170     42172
     42171     42170     42173     42172     42170     42173     42173     42176     42177
     42173     42176     42178     42173     42176     42179     42174     42173     42175
     42174     42173     42176     42175     42173     42176     42176     42179     42180
     42176     42179     42181     42176     42179     42182     42177     42176     42178
     42177     42176     42179     42178     42176     42179     42179     42182     42183
     42179     42182     42184     42179     42182     42185     42180     42179     42181
     42180     42179     42182     42181     42179     42182     42182     42185     42186
     42182     42185     42187     42182     42185     42190     42183     42182     42184
     42183     42182     42185     42184     42182     42185     42185     42187     42188
     42185     42187     42189     42185     42187     42190     42185     42190     42187
     42185     42190     42191     42185     42190     42192     42186     42185     42187
     42186     42185     42190     42187     42185     42190     42187     42190     42191
     42187     42190     42192     42188     42187     42189     42188     42187     42190
     42189     42187     42190     42190     42192     42193     42190     42192     42194
     42190     42192     42195     42191     42190     42192     42192     42195     42196
     42192     42195     42197     42192     42195     42198     42193     42192     42194
     42193     42192     42195     42194     42192     42195     42195     42198     42199
     42195     42198     42200     42195     42198     42201     42196     42195     42197
     42196     42195     42198     42197     42195     42198     42198     42201     42202
     42198     42201     42203     42198     42201     42204     42199     42198     42200
     42199     42198     42201     42200     42198     42201     42201     42204     42205
     42201     42204     42206     42201     42204     42207     42202     42201     42203
     42202     42201     42204     42203     42201     42204     42204     42207     42208
     42204     42207     42209     42204     42207     42210     42205     42204     42206
     42205     42204     42207     42206     42204     42207     42208     42207     42209
     42208     42207     42210     42209     42207     42210     42211     42214     42215
     42211     42214     42216     42211     42214     42217     42212     42211     42213
     42212     42211     42214     42213     42211     42214     42214     42217     42218
     42214     42217     42219     42214     42217     42220     42215     42214     42216
     42215     42214     42217     42216     42214     42217     42217     42220     42221
     42217     42220     42222     42217     42220     42223     42218     42217     42219
     42218     42217     42220     42219     42217     42220     42220     42223     42224
     42220     42223     42225     42220     42223     42226     42221     42220     42222
     42221     42220     42223     42222     42220     42223     42223     42226     42227
     42223     42226     42228     42223     42226     42229     42224     42223     42225
     42224     42223     42226     42225     42223     42226     42226     42229     42230
     42226     42229     42231     42226     42229     42232     42227     42226     42228
     42227     42226     42229     42228     42226     42229     42229     42232     42233
     42229     42232     42234     42229     42232     42235     42230     42229     42231
     42230     42229     42232     42231     42229     42232     42232     42235     42236
     42232     42235     42237     42232     42235     42238     42233     42232     42234
     42233     42232     42235     42234     42232     42235     42235     42238     42239
     42235     42238     42240     42235     42238     42241     42236     42235     42237
     42236     42235     42238     42237     42235     42238     42238     42241     42242
     42238     42241     42243     42238     42241     42244     42239     42238     42240
     42239     42238     42241     42240     42238     42241     42241     42244     42245
     42241     42244     42246     42241     42244     42247     42242     42241     42243
     42242     42241     42244     42243     42241     42244     42244     42247     42248
     42244     42247     42249     42244     42247     42250     42245     42244     42246
     42245     42244     42247     42246     42244     42247     42247     42250     42251
     42247     42250     42252     42247     42250     42253     42248     42247     42249
     42248     42247     42250     42249     42247     42250     42251     42250     42252
     42251     42250     42253     42252     42250     42253     42254     42258     42259
     42254     42258     42260     42254     42258     42261     42255     42254     42256
     42255     42254     42257     42255     42254     42258     42256     42254     42257
     42256     42254     42258     42257     42254     42258     42258     42261     42262
     42258     42261     42263     42258     42261     42268     42259     42258     42260
     42259     42258     42261     42260     42258     42261     42261     42268     42264
     42262     42261     42263     42262     42261     42268     42263     42261     42268
     42264     42267     42269     42265     42264     42266     42265     42264     42267
     42265     42264     42268     42266     42264     42267     42266     42264     42268
     42267     42264     42268     42267     42269     42270     42267     42269     42271
     42267     42269     42272     42269     42272     42273     42269     42272     42274
     42269     42272     42280     42270     42269     42271     42270     42269     42272
     42271     42269     42272     42272     42274     42275     42272     42280     42281
     42272     42280     42282     42272     42280     42283     42273     42272     42274
     42273     42272     42280     42274     42272     42280     42274     42275     42276
     42274     42275     42277     42275     42277     42278     42275     42277     42279
     42275     42277     42289     42276     42275     42277     42277     42289     42290
     42277     42289     42291     42277     42289     42292     42278     42277     42279
     42278     42277     42289     42279     42277     42289     42280     42283     42284
     42281     42280     42282     42281     42280     42283     42282     42280     42283
     42283     42284     42285     42283     42284     42286     42284     42286     42287
     42284     42286     42288     42284     42286     42333     42285     42284     42286
     42286     42333     42334     42286     42333     42335     42286     42333     42336
     42287     42286     42288     42287     42286     42333     42288     42286     42333
     42289     42292     42293     42289     42292     42294     42289     42292     42295
     42290     42289     42291     42290     42289     42292     42291     42289     42292
     42292     42295     42296     42292     42295     42297     42292     42295     42298
     42293     42292     42294     42293     42292     42295     42294     42292     42295
     42295     42298     42299     42295     42298     42300     42295     42298     42301
     42296     42295     42297     42296     42295     42298     42297     42295     42298
     42298     42301     42302     42298     42301     42303     42298     42301     42304
     42299     42298     42300     42299     42298     42301     42300     42298     42301
     42301     42304     42305     42301     42304     42306     42301     42304     42307
     42302     42301     42303     42302     42301     42304     42303     42301     42304
     42304     42307     42308     42304     42307     42309     42304     42307     42312
     42305     42304     42306     42305     42304     42307     42306     42304     42307
     42307     42309     42310     42307     42309     42311     42307     42309     42312
     42307     42312     42309     42307     42312     42313     42307     42312     42314
     42308     42307     42309     42308     42307     42312     42309     42307     42312
     42309     42312     42313     42309     42312     42314     42310     42309     42311
     42310     42309     42312     42311     42309     42312     42312     42314     42315
     42312     42314     42316     42312     42314     42317     42313     42312     42314
     42314     42317     42318     42314     42317     42319     42314     42317     42320
     42315     42314     42316     42315     42314     42317     42316     42314     42317
     42317     42320     42321     42317     42320     42322     42317     42320     42323
     42318     42317     42319     42318     42317     42320     42319     42317     42320
     42320     42323     42324     42320     42323     42325     42320     42323     42326
     42321     42320     42322     42321     42320     42323     42322     42320     42323
     42323     42326     42327     42323     42326     42328     42323     42326     42329
     42324     42323     42325     42324     42323     42326     42325     42323     42326
     42326     42329     42330     42326     42329     42331     42326     42329     42332
     42327     42326     42328     42327     42326     42329     42328     42326     42329
     42330     42329     42331     42330     42329     42332     42331     42329     42332
     42333     42336     42337     42333     42336     42338     42333     42336     42339
     42334     42333     42335     42334     42333     42336     42335     42333     42336
     42336     42339     42340     42336     42339     42341     42336     42339     42342
     42337     42336     42338     42337     42336     42339     42338     42336     42339
     42339     42342     42343     42339     42342     42344     42339     42342     42345
     42340     42339     42341     42340     42339     42342     42341     42339     42342
     42342     42345     42346     42342     42345     42347     42342     42345     42348
     42343     42342     42344     42343     42342     42345     42344     42342     42345
     42345     42348     42349     42345     42348     42350     42345     42348     42351
     42346     42345     42347     42346     42345     42348     42347     42345     42348
     42348     42351     42352     42348     42351     42353     42348     42351     42354
     42349     42348     42350     42349     42348     42351     42350     42348     42351
     42351     42354     42355     42351     42354     42356     42351     42354     42357
     42352     42351     42353     42352     42351     42354     42353     42351     42354
     42354     42357     42358     42354     42357     42359     42354     42357     42360
     42355     42354     42356     42355     42354     42357     42356     42354     42357
     42357     42360     42361     42357     42360     42362     42357     42360     42363
     42358     42357     42359     42358     42357     42360     42359     42357     42360
     42360     42363     42364     42360     42363     42365     42360     42363     42366
     42361     42360     42362     42361     42360     42363     42362     42360     42363
     42363     42366     42367     42363     42366     42368     42363     42366     42369
     42364     42363     42365     42364     42363     42366     42365     42363     42366
     42366     42369     42370     42366     42369     42371     42366     42369     42372
     42367     42366     42368     42367     42366     42369     42368     42366     42369
     42369     42372     42373     42369     42372     42374     42369     42372     42375
     42370     42369     42371     42370     42369     42372     42371     42369     42372
     42373     42372     42374     42373     42372     42375     42374     42372     42375
     42376     42380     42381     42376     42380     42382     42376     42380     42383
     42377     42376     42378     42377     42376     42379     42377     42376     42380
     42378     42376     42379     42378     42376     42380     42379     42376     42380
     42380     42383     42384     42380     42383     42385     42380     42383     42390
     42381     42380     42382     42381     42380     42383     42382     42380     42383
     42383     42390     42386     42384     42383     42385     42384     42383     42390
     42385     42383     42390     42386     42389     42391     42387     42386     42388
     42387     42386     42389     42387     42386     42390     42388     42386     42389
     42388     42386     42390     42389     42386     42390     42389     42391     42392
     42389     42391     42393     42389     42391     42394     42391     42394     42395
     42391     42394     42396     42391     42394     42402     42392     42391     42393
     42392     42391     42394     42393     42391     42394     42394     42396     42397
     42394     42402     42403     42394     42402     42404     42394     42402     42405
     42395     42394     42396     42395     42394     42402     42396     42394     42402
     42396     42397     42398     42396     42397     42399     42397     42399     42400
     42397     42399     42401     42397     42399     42411     42398     42397     42399
     42399     42411     42412     42399     42411     42413     42399     42411     42414
     42400     42399     42401     42400     42399     42411     42401     42399     42411
     42402     42405     42406     42403     42402     42404     42403     42402     42405
     42404     42402     42405     42405     42406     42407     42405     42406     42408
     42406     42408     42409     42406     42408     42410     42406     42408     42455
     42407     42406     42408     42408     42455     42456     42408     42455     42457
     42408     42455     42458     42409     42408     42410     42409     42408     42455
     42410     42408     42455     42411     42414     42415     42411     42414     42416
     42411     42414     42417     42412     42411     42413     42412     42411     42414
     42413     42411     42414     42414     42417     42418     42414     42417     42419
     42414     42417     42420     42415     42414     42416     42415     42414     42417
     42416     42414     42417     42417     42420     42421     42417     42420     42422
     42417     42420     42423     42418     42417     42419     42418     42417     42420
     42419     42417     42420     42420     42423     42424     42420     42423     42425
     42420     42423     42426     42421     42420     42422     42421     42420     42423
     42422     42420     42423     42423     42426     42427     42423     42426     42428
     42423     42426     42429     42424     42423     42425     42424     42423     42426
     42425     42423     42426     42426     42429     42430     42426     42429     42431
     42426     42429     42434     42427     42426     42428     42427     42426     42429
     42428     42426     42429     42429     42431     42432     42429     42431     42433
     42429     42431     42434     42429     42434     42431     42429     42434     42435
     42429     42434     42436     42430     42429     42431     42430     42429     42434
     42431     42429     42434     42431     42434     42435     42431     42434     42436
     42432     42431     42433     42432     42431     42434     42433     42431     42434
     42434     42436     42437     42434     42436     42438     42434     42436     42439
     42435     42434     42436     42436     42439     42440     42436     42439     42441
     42436     42439     42442     42437     42436     42438     42437     42436     42439
     42438     42436     42439     42439     42442     42443     42439     42442     42444
     42439     42442     42445     42440     42439     42441     42440     42439     42442
     42441     42439     42442     42442     42445     42446     42442     42445     42447
     42442     42445     42448     42443     42442     42444     42443     42442     42445
     42444     42442     42445     42445     42448     42449     42445     42448     42450
     42445     42448     42451     42446     42445     42447     42446     42445     42448
     42447     42445     42448     42448     42451     42452     42448     42451     42453
     42448     42451     42454     42449     42448     42450     42449     42448     42451
     42450     42448     42451     42452     42451     42453     42452     42451     42454
     42453     42451     42454     42455     42458     42459     42455     42458     42460
     42455     42458     42461     42456     42455     42457     42456     42455     42458
     42457     42455     42458     42458     42461     42462     42458     42461     42463
     42458     42461     42464     42459     42458     42460     42459     42458     42461
     42460     42458     42461     42461     42464     42465     42461     42464     42466
     42461     42464     42467     42462     42461     42463     42462     42461     42464
     42463     42461     42464     42464     42467     42468     42464     42467     42469
     42464     42467     42470     42465     42464     42466     42465     42464     42467
     42466     42464     42467     42467     42470     42471     42467     42470     42472
     42467     42470     42473     42468     42467     42469     42468     42467     42470
     42469     42467     42470     42470     42473     42474     42470     42473     42475
     42470     42473     42476     42471     42470     42472     42471     42470     42473
     42472     42470     42473     42473     42476     42477     42473     42476     42478
     42473     42476     42479     42474     42473     42475     42474     42473     42476
     42475     42473     42476     42476     42479     42480     42476     42479     42481
     42476     42479     42482     42477     42476     42478     42477     42476     42479
     42478     42476     42479     42479     42482     42483     42479     42482     42484
     42479     42482     42485     42480     42479     42481     42480     42479     42482
     42481     42479     42482     42482     42485     42486     42482     42485     42487
     42482     42485     42488     42483     42482     42484     42483     42482     42485
     42484     42482     42485     42485     42488     42489     42485     42488     42490
     42485     42488     42491     42486     42485     42487     42486     42485     42488
     42487     42485     42488     42488     42491     42492     42488     42491     42493
     42488     42491     42494     42489     42488     42490     42489     42488     42491
     42490     42488     42491     42491     42494     42495     42491     42494     42496
     42491     42494     42497     42492     42491     42493     42492     42491     42494
     42493     42491     42494     42495     42494     42496     42495     42494     42497
     42496     42494     42497     42498     42502     42503     42498     42502     42504
     42498     42502     42505     42499     42498     42500     42499     42498     42501
     42499     42498     42502     42500     42498     42501     42500     42498     42502
     42501     42498     42502     42502     42505     42506     42502     42505     42507
     42502     42505     42512     42503     42502     42504     42503     42502     42505
     42504     42502     42505     42505     42512     42508     42506     42505     42507
     42506     42505     42512     42507     42505     42512     42508     42511     42513
     42509     42508     42510     42509     42508     42511     42509     42508     42512
     42510     42508     42511     42510     42508     42512     42511     42508     42512
     42511     42513     42514     42511     42513     42515     42511     42513     42516
     42513     42516     42517     42513     42516     42518     42513     42516     42524
     42514     42513     42515     42514     42513     42516     42515     42513     42516
     42516     42518     42519     42516     42524     42525     42516     42524     42526
     42516     42524     42527     42517     42516     42518     42517     42516     42524
     42518     42516     42524     42518     42519     42520     42518     42519     42521
     42519     42521     42522     42519     42521     42523     42519     42521     42533
     42520     42519     42521     42521     42533     42534     42521     42533     42535
     42521     42533     42536     42522     42521     42523     42522     42521     42533
     42523     42521     42533     42524     42527     42528     42525     42524     42526
     42525     42524     42527     42526     42524     42527     42527     42528     42529
     42527     42528     42530     42528     42530     42531     42528     42530     42532
     42528     42530     42577     42529     42528     42530     42530     42577     42578
     42530     42577     42579     42530     42577     42580     42531     42530     42532
     42531     42530     42577     42532     42530     42577     42533     42536     42537
     42533     42536     42538     42533     42536     42539     42534     42533     42535
     42534     42533     42536     42535     42533     42536     42536     42539     42540
     42536     42539     42541     42536     42539     42542     42537     42536     42538
     42537     42536     42539     42538     42536     42539     42539     42542     42543
     42539     42542     42544     42539     42542     42545     42540     42539     42541
     42540     42539     42542     42541     42539     42542     42542     42545     42546
     42542     42545     42547     42542     42545     42548     42543     42542     42544
     42543     42542     42545     42544     42542     42545     42545     42548     42549
     42545     42548     42550     42545     42548     42551     42546     42545     42547
     42546     42545     42548     42547     42545     42548     42548     42551     42552
     42548     42551     42553     42548     42551     42556     42549     42548     42550
     42549     42548     42551     42550     42548     42551     42551     42553     42554
     42551     42553     42555     42551     42553     42556     42551     42556     42553
     42551     42556     42557     42551     42556     42558     42552     42551     42553
     42552     42551     42556     42553     42551     42556     42553     42556     42557
     42553     42556     42558     42554     42553     42555     42554     42553     42556
     42555     42553     42556     42556     42558     42559     42556     42558     42560
     42556     42558     42561     42557     42556     42558     42558     42561     42562
     42558     42561     42563     42558     42561     42564     42559     42558     42560
     42559     42558     42561     42560     42558     42561     42561     42564     42565
     42561     42564     42566     42561     42564     42567     42562     42561     42563
     42562     42561     42564     42563     42561     42564     42564     42567     42568
     42564     42567     42569     42564     42567     42570     42565     42564     42566
     42565     42564     42567     42566     42564     42567     42567     42570     42571
     42567     42570     42572     42567     42570     42573     42568     42567     42569
     42568     42567     42570     42569     42567     42570     42570     42573     42574
     42570     42573     42575     42570     42573     42576     42571     42570     42572
     42571     42570     42573     42572     42570     42573     42574     42573     42575
     42574     42573     42576     42575     42573     42576     42577     42580     42581
     42577     42580     42582     42577     42580     42583     42578     42577     42579
     42578     42577     42580     42579     42577     42580     42580     42583     42584
     42580     42583     42585     42580     42583     42586     42581     42580     42582
     42581     42580     42583     42582     42580     42583     42583     42586     42587
     42583     42586     42588     42583     42586     42589     42584     42583     42585
     42584     42583     42586     42585     42583     42586     42586     42589     42590
     42586     42589     42591     42586     42589     42592     42587     42586     42588
     42587     42586     42589     42588     42586     42589     42589     42592     42593
     42589     42592     42594     42589     42592     42595     42590     42589     42591
     42590     42589     42592     42591     42589     42592     42592     42595     42596
     42592     42595     42597     42592     42595     42598     42593     42592     42594
     42593     42592     42595     42594     42592     42595     42595     42598     42599
     42595     42598     42600     42595     42598     42601     42596     42595     42597
     42596     42595     42598     42597     42595     42598     42598     42601     42602
     42598     42601     42603     42598     42601     42604     42599     42598     42600
     42599     42598     42601     42600     42598     42601     42601     42604     42605
     42601     42604     42606     42601     42604     42607     42602     42601     42603
     42602     42601     42604     42603     42601     42604     42604     42607     42608
     42604     42607     42609     42604     42607     42610     42605     42604     42606
     42605     42604     42607     42606     42604     42607     42607     42610     42611
     42607     42610     42612     42607     42610     42613     42608     42607     42609
     42608     42607     42610     42609     42607     42610     42610     42613     42614
     42610     42613     42615     42610     42613     42616     42611     42610     42612
     42611     42610     42613     42612     42610     42613     42613     42616     42617
     42613     42616     42618     42613     42616     42619     42614     42613     42615
     42614     42613     42616     42615     42613     42616     42617     42616     42618
     42617     42616     42619     42618     42616     42619     42620     42624     42625
     42620     42624     42626     42620     42624     42627     42621     42620     42622
     42621     42620     42623     42621     42620     42624     42622     42620     42623
     42622     42620     42624     42623     42620     42624     42624     42627     42628
     42624     42627     42629     42624     42627     42634     42625     42624     42626
     42625     42624     42627     42626     42624     42627     42627     42634     42630
     42628     42627     42629     42628     42627     42634     42629     42627     42634
     42630     42633     42635     42631     42630     42632     42631     42630     42633
     42631     42630     42634     42632     42630     42633     42632     42630     42634
     42633     42630     42634     42633     42635     42636     42633     42635     42637
     42633     42635     42638     42635     42638     42639     42635     42638     42640
     42635     42638     42646     42636     42635     42637     42636     42635     42638
     42637     42635     42638     42638     42640     42641     42638     42646     42647
     42638     42646     42648     42638     42646     42649     42639     42638     42640
     42639     42638     42646     42640     42638     42646     42640     42641     42642
     42640     42641     42643     42641     42643     42644     42641     42643     42645
     42641     42643     42655     42642     42641     42643     42643     42655     42656
     42643     42655     42657     42643     42655     42658     42644     42643     42645
     42644     42643     42655     42645     42643     42655     42646     42649     42650
     42647     42646     42648     42647     42646     42649     42648     42646     42649
     42649     42650     42651     42649     42650     42652     42650     42652     42653
     42650     42652     42654     42650     42652     42699     42651     42650     42652
     42652     42699     42700     42652     42699     42701     42652     42699     42702
     42653     42652     42654     42653     42652     42699     42654     42652     42699
     42655     42658     42659     42655     42658     42660     42655     42658     42661
     42656     42655     42657     42656     42655     42658     42657     42655     42658
     42658     42661     42662     42658     42661     42663     42658     42661     42664
     42659     42658     42660     42659     42658     42661     42660     42658     42661
     42661     42664     42665     42661     42664     42666     42661     42664     42667
     42662     42661     42663     42662     42661     42664     42663     42661     42664
     42664     42667     42668     42664     42667     42669     42664     42667     42670
     42665     42664     42666     42665     42664     42667     42666     42664     42667
     42667     42670     42671     42667     42670     42672     42667     42670     42673
     42668     42667     42669     42668     42667     42670     42669     42667     42670
     42670     42673     42674     42670     42673     42675     42670     42673     42678
     42671     42670     42672     42671     42670     42673     42672     42670     42673
     42673     42675     42676     42673     42675     42677     42673     42675     42678
     42673     42678     42675     42673     42678     42679     42673     42678     42680
     42674     42673     42675     42674     42673     42678     42675     42673     42678
     42675     42678     42679     42675     42678     42680     42676     42675     42677
     42676     42675     42678     42677     42675     42678     42678     42680     42681
     42678     42680     42682     42678     42680     42683     42679     42678     42680
     42680     42683     42684     42680     42683     42685     42680     42683     42686
     42681     42680     42682     42681     42680     42683     42682     42680     42683
     42683     42686     42687     42683     42686     42688     42683     42686     42689
     42684     42683     42685     42684     42683     42686     42685     42683     42686
     42686     42689     42690     42686     42689     42691     42686     42689     42692
     42687     42686     42688     42687     42686     42689     42688     42686     42689
     42689     42692     42693     42689     42692     42694     42689     42692     42695
     42690     42689     42691     42690     42689     42692     42691     42689     42692
     42692     42695     42696     42692     42695     42697     42692     42695     42698
     42693     42692     42694     42693     42692     42695     42694     42692     42695
     42696     42695     42697     42696     42695     42698     42697     42695     42698
     42699     42702     42703     42699     42702     42704     42699     42702     42705
     42700     42699     42701     42700     42699     42702     42701     42699     42702
     42702     42705     42706     42702     42705     42707     42702     42705     42708
     42703     42702     42704     42703     42702     42705     42704     42702     42705
     42705     42708     42709     42705     42708     42710     42705     42708     42711
     42706     42705     42707     42706     42705     42708     42707     42705     42708
     42708     42711     42712     42708     42711     42713     42708     42711     42714
     42709     42708     42710     42709     42708     42711     42710     42708     42711
     42711     42714     42715     42711     42714     42716     42711     42714     42717
     42712     42711     42713     42712     42711     42714     42713     42711     42714
     42714     42717     42718     42714     42717     42719     42714     42717     42720
     42715     42714     42716     42715     42714     42717     42716     42714     42717
     42717     42720     42721     42717     42720     42722     42717     42720     42723
     42718     42717     42719     42718     42717     42720     42719     42717     42720
     42720     42723     42724     42720     42723     42725     42720     42723     42726
     42721     42720     42722     42721     42720     42723     42722     42720     42723
     42723     42726     42727     42723     42726     42728     42723     42726     42729
     42724     42723     42725     42724     42723     42726     42725     42723     42726
     42726     42729     42730     42726     42729     42731     42726     42729     42732
     42727     42726     42728     42727     42726     42729     42728     42726     42729
     42729     42732     42733     42729     42732     42734     42729     42732     42735
     42730     42729     42731     42730     42729     42732     42731     42729     42732
     42732     42735     42736     42732     42735     42737     42732     42735     42738
     42733     42732     42734     42733     42732     42735     42734     42732     42735
     42736     42735     42737     42736     42735     42738     42737     42735     42738
     42739     42743     42744     42739     42743     42745     42739     42743     42746
     42740     42739     42741     42740     42739     42742     42740     42739     42743
     42741     42739     42742     42741     42739     42743     42742     42739     42743
     42743     42746     42747     42743     42746     42748     42743     42746     42753
     42744     42743     42745     42744     42743     42746     42745     42743     42746
     42746     42753     42749     42747     42746     42748     42747     42746     42753
     42748     42746     42753     42749     42752     42754     42750     42749     42751
     42750     42749     42752     42750     42749     42753     42751     42749     42752
     42751     42749     42753     42752     42749     42753     42752     42754     42755
     42752     42754     42756     42752     42754     42757     42754     42757     42758
     42754     42757     42759     42754     42757     42765     42755     42754     42756
     42755     42754     42757     42756     42754     42757     42757     42759     42760
     42757     42765     42766     42757     42765     42767     42757     42765     42768
     42758     42757     42759     42758     42757     42765     42759     42757     42765
     42759     42760     42761     42759     42760     42762     42760     42762     42763
     42760     42762     42764     42760     42762     42774     42761     42760     42762
     42762     42774     42775     42762     42774     42776     42762     42774     42777
     42763     42762     42764     42763     42762     42774     42764     42762     42774
     42765     42768     42769     42766     42765     42767     42766     42765     42768
     42767     42765     42768     42768     42769     42770     42768     42769     42771
     42769     42771     42772     42769     42771     42773     42769     42771     42815
     42770     42769     42771     42771     42815     42816     42771     42815     42817
     42771     42815     42818     42772     42771     42773     42772     42771     42815
     42773     42771     42815     42774     42777     42778     42774     42777     42779
     42774     42777     42780     42775     42774     42776     42775     42774     42777
     42776     42774     42777     42777     42780     42781     42777     42780     42782
     42777     42780     42783     42778     42777     42779     42778     42777     42780
     42779     42777     42780     42780     42783     42784     42780     42783     42785
     42780     42783     42786     42781     42780     42782     42781     42780     42783
     42782     42780     42783     42783     42786     42787     42783     42786     42788
     42783     42786     42789     42784     42783     42785     42784     42783     42786
     42785     42783     42786     42786     42789     42790     42786     42789     42791
     42786     42789     42792     42787     42786     42788     42787     42786     42789
     42788     42786     42789     42789     42792     42793     42789     42792     42794
     42790     42789     42791     42790     42789     42792     42791     42789     42792
     42792     42794     42795     42792     42794     42796     42793     42792     42794
     42794     42796     42797     42794     42796     42798     42794     42796     42799
     42795     42794     42796     42796     42799     42800     42796     42799     42801
     42796     42799     42802     42797     42796     42798     42797     42796     42799
     42798     42796     42799     42799     42802     42803     42799     42802     42804
     42799     42802     42805     42800     42799     42801     42800     42799     42802
     42801     42799     42802     42802     42805     42806     42802     42805     42807
     42802     42805     42808     42803     42802     42804     42803     42802     42805
     42804     42802     42805     42805     42808     42809     42805     42808     42810
     42805     42808     42811     42806     42805     42807     42806     42805     42808
     42807     42805     42808     42808     42811     42812     42808     42811     42813
     42808     42811     42814     42809     42808     42810     42809     42808     42811
     42810     42808     42811     42812     42811     42813     42812     42811     42814
     42813     42811     42814     42815     42818     42819     42815     42818     42820
     42815     42818     42821     42816     42815     42817     42816     42815     42818
     42817     42815     42818     42818     42821     42822     42818     42821     42823
     42818     42821     42824     42819     42818     42820     42819     42818     42821
     42820     42818     42821     42821     42824     42825     42821     42824     42826
     42821     42824     42827     42822     42821     42823     42822     42821     42824
     42823     42821     42824     42824     42827     42828     42824     42827     42829
     42824     42827     42830     42825     42824     42826     42825     42824     42827
     42826     42824     42827     42827     42830     42831     42827     42830     42832
     42827     42830     42833     42828     42827     42829     42828     42827     42830
     42829     42827     42830     42830     42833     42834     42830     42833     42835
     42831     42830     42832     42831     42830     42833     42832     42830     42833
     42833     42835     42836     42833     42835     42837     42834     42833     42835
     42835     42837     42838     42835     42837     42839     42835     42837     42840
     42836     42835     42837     42837     42840     42841     42837     42840     42842
     42837     42840     42843     42838     42837     42839     42838     42837     42840
     42839     42837     42840     42840     42843     42844     42840     42843     42845
     42840     42843     42846     42841     42840     42842     42841     42840     42843
     42842     42840     42843     42843     42846     42847     42843     42846     42848
     42843     42846     42849     42844     42843     42845     42844     42843     42846
     42845     42843     42846     42846     42849     42850     42846     42849     42851
     42846     42849     42852     42847     42846     42848     42847     42846     42849
     42848     42846     42849     42849     42852     42853     42849     42852     42854
     42849     42852     42855     42850     42849     42851     42850     42849     42852
     42851     42849     42852     42852     42855     42856     42852     42855     42857
     42852     42855     42858     42853     42852     42854     42853     42852     42855
     42854     42852     42855     42855     42858     42859     42855     42858     42860
     42855     42858     42861     42856     42855     42857     42856     42855     42858
     42857     42855     42858     42859     42858     42860     42859     42858     42861
     42860     42858     42861     42862     42866     42867     42862     42866     42868
     42862     42866     42869     42863     42862     42864     42863     42862     42865
     42863     42862     42866     42864     42862     42865     42864     42862     42866
     42865     42862     42866     42866     42869     42870     42866     42869     42871
     42866     42869     42876     42867     42866     42868     42867     42866     42869
     42868     42866     42869     42869     42876     42872     42870     42869     42871
     42870     42869     42876     42871     42869     42876     42872     42875     42877
     42873     42872     42874     42873     42872     42875     42873     42872     42876
     42874     42872     42875     42874     42872     42876     42875     42872     42876
     42875     42877     42878     42875     42877     42879     42875     42877     42880
     42877     42880     42881     42877     42880     42882     42877     42880     42888
     42878     42877     42879     42878     42877     42880     42879     42877     42880
     42880     42882     42883     42880     42888     42889     42880     42888     42890
     42880     42888     42891     42881     42880     42882     42881     42880     42888
     42882     42880     42888     42882     42883     42884     42882     42883     42885
     42883     42885     42886     42883     42885     42887     42883     42885     42897
     42884     42883     42885     42885     42897     42898     42885     42897     42899
     42885     42897     42900     42886     42885     42887     42886     42885     42897
     42887     42885     42897     42888     42891     42892     42889     42888     42890
     42889     42888     42891     42890     42888     42891     42891     42892     42893
     42891     42892     42894     42892     42894     42895     42892     42894     42896
     42892     42894     42944     42893     42892     42894     42894     42944     42945
     42894     42944     42946     42894     42944     42947     42895     42894     42896
     42895     42894     42944     42896     42894     42944     42897     42900     42901
     42897     42900     42902     42897     42900     42903     42898     42897     42899
     42898     42897     42900     42899     42897     42900     42900     42903     42904
     42900     42903     42905     42900     42903     42906     42901     42900     42902
     42901     42900     42903     42902     42900     42903     42903     42906     42907
     42903     42906     42908     42903     42906     42909     42904     42903     42905
     42904     42903     42906     42905     42903     42906     42906     42909     42910
     42906     42909     42911     42906     42909     42912     42907     42906     42908
     42907     42906     42909     42908     42906     42909     42909     42912     42913
     42909     42912     42914     42909     42912     42915     42910     42909     42911
     42910     42909     42912     42911     42909     42912     42912     42915     42916
     42912     42915     42917     42913     42912     42914     42913     42912     42915
     42914     42912     42915     42915     42917     42918     42915     42917     42919
     42916     42915     42917     42917     42919     42920     42917     42919     42921
     42917     42919     42922     42918     42917     42919     42919     42922     42923
     42919     42922     42924     42919     42922     42925     42920     42919     42921
     42920     42919     42922     42921     42919     42922     42922     42925     42926
     42922     42925     42927     42922     42925     42928     42923     42922     42924
     42923     42922     42925     42924     42922     42925     42925     42928     42929
     42925     42928     42930     42925     42928     42931     42926     42925     42927
     42926     42925     42928     42927     42925     42928     42928     42931     42932
     42928     42931     42933     42928     42931     42934     42929     42928     42930
     42929     42928     42931     42930     42928     42931     42931     42934     42935
     42931     42934     42936     42931     42934     42937     42932     42931     42933
     42932     42931     42934     42933     42931     42934     42934     42937     42938
     42934     42937     42939     42934     42937     42940     42935     42934     42936
     42935     42934     42937     42936     42934     42937     42937     42940     42941
     42937     42940     42942     42937     42940     42943     42938     42937     42939
     42938     42937     42940     42939     42937     42940     42941     42940     42942
     42941     42940     42943     42942     42940     42943     42944     42947     42948
     42944     42947     42949     42944     42947     42950     42945     42944     42946
     42945     42944     42947     42946     42944     42947     42947     42950     42951
     42947     42950     42952     42947     42950     42953     42948     42947     42949
     42948     42947     42950     42949     42947     42950     42950     42953     42954
     42950     42953     42955     42950     42953     42956     42951     42950     42952
     42951     42950     42953     42952     42950     42953     42953     42956     42957
     42953     42956     42958     42953     42956     42959     42954     42953     42955
     42954     42953     42956     42955     42953     42956     42956     42959     42960
     42956     42959     42961     42956     42959     42962     42957     42956     42958
     42957     42956     42959     42958     42956     42959     42959     42962     42963
     42959     42962     42964     42959     42962     42965     42960     42959     42961
     42960     42959     42962     42961     42959     42962     42962     42965     42966
     42962     42965     42967     42962     42965     42968     42963     42962     42964
     42963     42962     42965     42964     42962     42965     42965     42968     42969
     42965     42968     42970     42965     42968     42971     42966     42965     42967
     42966     42965     42968     42967     42965     42968     42968     42971     42972
     42968     42971     42973     42968     42971     42974     42969     42968     42970
     42969     42968     42971     42970     42968     42971     42971     42974     42975
     42971     42974     42976     42971     42974     42977     42972     42971     42973
     42972     42971     42974     42973     42971     42974     42974     42977     42978
     42974     42977     42979     42974     42977     42980     42975     42974     42976
     42975     42974     42977     42976     42974     42977     42977     42980     42981
     42977     42980     42982     42977     42980     42983     42978     42977     42979
     42978     42977     42980     42979     42977     42980     42980     42983     42984
     42980     42983     42985     42980     42983     42986     42981     42980     42982
     42981     42980     42983     42982     42980     42983     42984     42983     42985
     42984     42983     42986     42985     42983     42986     42987     42991     42992
     42987     42991     42993     42987     42991     42994     42988     42987     42989
     42988     42987     42990     42988     42987     42991     42989     42987     42990
     42989     42987     42991     42990     42987     42991     42991     42994     42995
     42991     42994     42996     42991     42994     43001     42992     42991     42993
     42992     42991     42994     42993     42991     42994     42994     43001     42997
     42995     42994     42996     42995     42994     43001     42996     42994     43001
     42997     43000     43002     42998     42997     42999     42998     42997     43000
     42998     42997     43001     42999     42997     43000     42999     42997     43001
     43000     42997     43001     43000     43002     43003     43000     43002     43004
     43000     43002     43005     43002     43005     43006     43002     43005     43007
     43002     43005     43013     43003     43002     43004     43003     43002     43005
     43004     43002     43005     43005     43007     43008     43005     43013     43014
     43005     43013     43015     43005     43013     43016     43006     43005     43007
     43006     43005     43013     43007     43005     43013     43007     43008     43009
     43007     43008     43010     43008     43010     43011     43008     43010     43012
     43008     43010     43022     43009     43008     43010     43010     43022     43023
     43010     43022     43024     43010     43022     43025     43011     43010     43012
     43011     43010     43022     43012     43010     43022     43013     43016     43017
     43014     43013     43015     43014     43013     43016     43015     43013     43016
     43016     43017     43018     43016     43017     43019     43017     43019     43020
     43017     43019     43021     43017     43019     43069     43018     43017     43019
     43019     43069     43070     43019     43069     43071     43019     43069     43072
     43020     43019     43021     43020     43019     43069     43021     43019     43069
     43022     43025     43026     43022     43025     43027     43022     43025     43028
     43023     43022     43024     43023     43022     43025     43024     43022     43025
     43025     43028     43029     43025     43028     43030     43025     43028     43031
     43026     43025     43027     43026     43025     43028     43027     43025     43028
     43028     43031     43032     43028     43031     43033     43028     43031     43034
     43029     43028     43030     43029     43028     43031     43030     43028     43031
     43031     43034     43035     43031     43034     43036     43031     43034     43037
     43032     43031     43033     43032     43031     43034     43033     43031     43034
     43034     43037     43038     43034     43037     43039     43034     43037     43040
     43035     43034     43036     43035     43034     43037     43036     43034     43037
     43037     43040     43041     43037     43040     43042     43038     43037     43039
     43038     43037     43040     43039     43037     43040     43040     43042     43043
     43040     43042     43044     43041     43040     43042     43042     43044     43045
     43042     43044     43046     43042     43044     43047     43043     43042     43044
     43044     43047     43048     43044     43047     43049     43044     43047     43050
     43045     43044     43046     43045     43044     43047     43046     43044     43047
     43047     43050     43051     43047     43050     43052     43047     43050     43053
     43048     43047     43049     43048     43047     43050     43049     43047     43050
     43050     43053     43054     43050     43053     43055     43050     43053     43056
     43051     43050     43052     43051     43050     43053     43052     43050     43053
     43053     43056     43057     43053     43056     43058     43053     43056     43059
     43054     43053     43055     43054     43053     43056     43055     43053     43056
     43056     43059     43060     43056     43059     43061     43056     43059     43062
     43057     43056     43058     43057     43056     43059     43058     43056     43059
     43059     43062     43063     43059     43062     43064     43059     43062     43065
     43060     43059     43061     43060     43059     43062     43061     43059     43062
     43062     43065     43066     43062     43065     43067     43062     43065     43068
     43063     43062     43064     43063     43062     43065     43064     43062     43065
     43066     43065     43067     43066     43065     43068     43067     43065     43068
     43069     43072     43073     43069     43072     43074     43069     43072     43075
     43070     43069     43071     43070     43069     43072     43071     43069     43072
     43072     43075     43076     43072     43075     43077     43072     43075     43078
     43073     43072     43074     43073     43072     43075     43074     43072     43075
     43075     43078     43079     43075     43078     43080     43075     43078     43081
     43076     43075     43077     43076     43075     43078     43077     43075     43078
     43078     43081     43082     43078     43081     43083     43078     43081     43084
     43079     43078     43080     43079     43078     43081     43080     43078     43081
     43081     43084     43085     43081     43084     43086     43081     43084     43087
     43082     43081     43083     43082     43081     43084     43083     43081     43084
     43084     43087     43088     43084     43087     43089     43084     43087     43090
     43085     43084     43086     43085     43084     43087     43086     43084     43087
     43087     43090     43091     43087     43090     43092     43087     43090     43093
     43088     43087     43089     43088     43087     43090     43089     43087     43090
     43090     43093     43094     43090     43093     43095     43090     43093     43096
     43091     43090     43092     43091     43090     43093     43092     43090     43093
     43093     43096     43097     43093     43096     43098     43093     43096     43099
     43094     43093     43095     43094     43093     43096     43095     43093     43096
     43096     43099     43100     43096     43099     43101     43096     43099     43102
     43097     43096     43098     43097     43096     43099     43098     43096     43099
     43099     43102     43103     43099     43102     43104     43099     43102     43105
     43100     43099     43101     43100     43099     43102     43101     43099     43102
     43102     43105     43106     43102     43105     43107     43102     43105     43108
     43103     43102     43104     43103     43102     43105     43104     43102     43105
     43105     43108     43109     43105     43108     43110     43105     43108     43111
     43106     43105     43107     43106     43105     43108     43107     43105     43108
     43109     43108     43110     43109     43108     43111     43110     43108     43111
     43112     43115     43116     43112     43117     43118     43112     43117     43119
     43112     43117     43121     43113     43112     43114     43113     43112     43115
     43113     43112     43117     43114     43112     43115     43114     43112     43117
     43115     43112     43117     43117     43119     43120     43117     43121     43122
     43117     43121     43123     43117     43121     43128     43118     43117     43119
     43118     43117     43121     43119     43117     43121     43121     43128     43124
     43122     43121     43123     43122     43121     43128     43123     43121     43128
     43124     43127     43129     43125     43124     43126     43125     43124     43127
     43125     43124     43128     43126     43124     43127     43126     43124     43128
     43127     43124     43128     43127     43129     43130     43127     43129     43131
     43127     43129     43132     43129     43132     43133     43129     43132     43134
     43129     43132     43140     43130     43129     43131     43130     43129     43132
     43131     43129     43132     43132     43134     43135     43132     43140     43141
     43132     43140     43142     43132     43140     43143     43133     43132     43134
     43133     43132     43140     43134     43132     43140     43134     43135     43136
     43134     43135     43137     43135     43137     43138     43135     43137     43139
     43135     43137     43149     43136     43135     43137     43137     43149     43150
     43137     43149     43151     43137     43149     43152     43138     43137     43139
     43138     43137     43149     43139     43137     43149     43140     43143     43144
     43141     43140     43142     43141     43140     43143     43142     43140     43143
     43143     43144     43145     43143     43144     43146     43144     43146     43147
     43144     43146     43148     43144     43146     43190     43145     43144     43146
     43146     43190     43191     43146     43190     43192     43146     43190     43193
     43147     43146     43148     43147     43146     43190     43148     43146     43190
     43149     43152     43153     43149     43152     43154     43149     43152     43155
     43150     43149     43151     43150     43149     43152     43151     43149     43152
     43152     43155     43156     43152     43155     43157     43152     43155     43158
     43153     43152     43154     43153     43152     43155     43154     43152     43155
     43155     43158     43159     43155     43158     43160     43155     43158     43161
     43156     43155     43157     43156     43155     43158     43157     43155     43158
     43158     43161     43162     43158     43161     43163     43158     43161     43164
     43159     43158     43160     43159     43158     43161     43160     43158     43161
     43161     43164     43165     43161     43164     43166     43161     43164     43167
     43162     43161     43163     43162     43161     43164     43163     43161     43164
     43164     43167     43168     43164     43167     43169     43165     43164     43166
     43165     43164     43167     43166     43164     43167     43167     43169     43170
     43167     43169     43171     43168     43167     43169     43169     43171     43172
     43169     43171     43173     43169     43171     43174     43170     43169     43171
     43171     43174     43175     43171     43174     43176     43171     43174     43177
     43172     43171     43173     43172     43171     43174     43173     43171     43174
     43174     43177     43178     43174     43177     43179     43174     43177     43180
     43175     43174     43176     43175     43174     43177     43176     43174     43177
     43177     43180     43181     43177     43180     43182     43177     43180     43183
     43178     43177     43179     43178     43177     43180     43179     43177     43180
     43180     43183     43184     43180     43183     43185     43180     43183     43186
     43181     43180     43182     43181     43180     43183     43182     43180     43183
     43183     43186     43187     43183     43186     43188     43183     43186     43189
     43184     43183     43185     43184     43183     43186     43185     43183     43186
     43187     43186     43188     43187     43186     43189     43188     43186     43189
     43190     43193     43194     43190     43193     43195     43190     43193     43196
     43191     43190     43192     43191     43190     43193     43192     43190     43193
     43193     43196     43197     43193     43196     43198     43193     43196     43199
     43194     43193     43195     43194     43193     43196     43195     43193     43196
     43196     43199     43200     43196     43199     43201     43196     43199     43202
     43197     43196     43198     43197     43196     43199     43198     43196     43199
     43199     43202     43203     43199     43202     43204     43199     43202     43205
     43200     43199     43201     43200     43199     43202     43201     43199     43202
     43202     43205     43206     43202     43205     43207     43202     43205     43208
     43203     43202     43204     43203     43202     43205     43204     43202     43205
     43205     43208     43209     43205     43208     43210     43205     43208     43211
     43206     43205     43207     43206     43205     43208     43207     43205     43208
     43208     43211     43212     43208     43211     43213     43208     43211     43214
     43209     43208     43210     43209     43208     43211     43210     43208     43211
     43211     43214     43215     43211     43214     43216     43211     43214     43217
     43212     43211     43213     43212     43211     43214     43213     43211     43214
     43214     43217     43218     43214     43217     43219     43214     43217     43220
     43215     43214     43216     43215     43214     43217     43216     43214     43217
     43217     43220     43221     43217     43220     43222     43217     43220     43223
     43218     43217     43219     43218     43217     43220     43219     43217     43220
     43220     43223     43224     43220     43223     43225     43220     43223     43226
     43221     43220     43222     43221     43220     43223     43222     43220     43223
     43223     43226     43227     43223     43226     43228     43223     43226     43229
     43224     43223     43225     43224     43223     43226     43225     43223     43226
     43226     43229     43230     43226     43229     43231     43226     43229     43232
     43227     43226     43228     43227     43226     43229     43228     43226     43229
     43230     43229     43231     43230     43229     43232     43231     43229     43232
     43233     43237     43238     43233     43237     43239     43233     43237     43240
     43234     43233     43235     43234     43233     43236     43234     43233     43237
     43235     43233     43236     43235     43233     43237     43236     43233     43237
     43237     43240     43241     43237     43240     43242     43237     43240     43247
     43238     43237     43239     43238     43237     43240     43239     43237     43240
     43240     43247     43243     43241     43240     43242     43241     43240     43247
     43242     43240     43247     43243     43246     43248     43244     43243     43245
     43244     43243     43246     43244     43243     43247     43245     43243     43246
     43245     43243     43247     43246     43243     43247     43246     43248     43249
     43246     43248     43250     43246     43248     43251     43248     43251     43252
     43248     43251     43253     43248     43251     43259     43249     43248     43250
     43249     43248     43251     43250     43248     43251     43251     43253     43254
     43251     43259     43260     43251     43259     43261     43251     43259     43262
     43252     43251     43253     43252     43251     43259     43253     43251     43259
     43253     43254     43255     43253     43254     43256     43254     43256     43257
     43254     43256     43258     43254     43256     43268     43255     43254     43256
     43256     43268     43269     43256     43268     43270     43256     43268     43271
     43257     43256     43258     43257     43256     43268     43258     43256     43268
     43259     43262     43263     43260     43259     43261     43260     43259     43262
     43261     43259     43262     43262     43263     43264     43262     43263     43265
     43263     43265     43266     43263     43265     43267     43263     43265     43312
     43264     43263     43265     43265     43312     43313     43265     43312     43314
     43265     43312     43315     43266     43265     43267     43266     43265     43312
     43267     43265     43312     43268     43271     43272     43268     43271     43273
     43268     43271     43274     43269     43268     43270     43269     43268     43271
     43270     43268     43271     43271     43274     43275     43271     43274     43276
     43271     43274     43277     43272     43271     43273     43272     43271     43274
     43273     43271     43274     43274     43277     43278     43274     43277     43279
     43274     43277     43280     43275     43274     43276     43275     43274     43277
     43276     43274     43277     43277     43280     43281     43277     43280     43282
     43277     43280     43283     43278     43277     43279     43278     43277     43280
     43279     43277     43280     43280     43283     43284     43280     43283     43285
     43280     43283     43286     43281     43280     43282     43281     43280     43283
     43282     43280     43283     43283     43286     43287     43283     43286     43288
     43283     43286     43291     43284     43283     43285     43284     43283     43286
     43285     43283     43286     43286     43288     43289     43286     43288     43290
     43286     43288     43291     43286     43291     43288     43286     43291     43292
     43286     43291     43293     43287     43286     43288     43287     43286     43291
     43288     43286     43291     43288     43291     43292     43288     43291     43293
     43289     43288     43290     43289     43288     43291     43290     43288     43291
     43291     43293     43294     43291     43293     43295     43291     43293     43296
     43292     43291     43293     43293     43296     43297     43293     43296     43298
     43293     43296     43299     43294     43293     43295     43294     43293     43296
     43295     43293     43296     43296     43299     43300     43296     43299     43301
     43296     43299     43302     43297     43296     43298     43297     43296     43299
     43298     43296     43299     43299     43302     43303     43299     43302     43304
     43299     43302     43305     43300     43299     43301     43300     43299     43302
     43301     43299     43302     43302     43305     43306     43302     43305     43307
     43302     43305     43308     43303     43302     43304     43303     43302     43305
     43304     43302     43305     43305     43308     43309     43305     43308     43310
     43305     43308     43311     43306     43305     43307     43306     43305     43308
     43307     43305     43308     43309     43308     43310     43309     43308     43311
     43310     43308     43311     43312     43315     43316     43312     43315     43317
     43312     43315     43318     43313     43312     43314     43313     43312     43315
     43314     43312     43315     43315     43318     43319     43315     43318     43320
     43315     43318     43321     43316     43315     43317     43316     43315     43318
     43317     43315     43318     43318     43321     43322     43318     43321     43323
     43318     43321     43324     43319     43318     43320     43319     43318     43321
     43320     43318     43321     43321     43324     43325     43321     43324     43326
     43321     43324     43327     43322     43321     43323     43322     43321     43324
     43323     43321     43324     43324     43327     43328     43324     43327     43329
     43324     43327     43330     43325     43324     43326     43325     43324     43327
     43326     43324     43327     43327     43330     43331     43327     43330     43332
     43327     43330     43333     43328     43327     43329     43328     43327     43330
     43329     43327     43330     43330     43333     43334     43330     43333     43335
     43330     43333     43336     43331     43330     43332     43331     43330     43333
     43332     43330     43333     43333     43336     43337     43333     43336     43338
     43333     43336     43339     43334     43333     43335     43334     43333     43336
     43335     43333     43336     43336     43339     43340     43336     43339     43341
     43336     43339     43342     43337     43336     43338     43337     43336     43339
     43338     43336     43339     43339     43342     43343     43339     43342     43344
     43339     43342     43345     43340     43339     43341     43340     43339     43342
     43341     43339     43342     43342     43345     43346     43342     43345     43347
     43342     43345     43348     43343     43342     43344     43343     43342     43345
     43344     43342     43345     43345     43348     43349     43345     43348     43350
     43345     43348     43351     43346     43345     43347     43346     43345     43348
     43347     43345     43348     43348     43351     43352     43348     43351     43353
     43348     43351     43354     43349     43348     43350     43349     43348     43351
     43350     43348     43351     43352     43351     43353     43352     43351     43354
     43353     43351     43354     43355     43359     43360     43355     43359     43361
     43355     43359     43362     43356     43355     43357     43356     43355     43358
     43356     43355     43359     43357     43355     43358     43357     43355     43359
     43358     43355     43359     43359     43362     43363     43359     43362     43364
     43359     43362     43369     43360     43359     43361     43360     43359     43362
     43361     43359     43362     43362     43369     43365     43363     43362     43364
     43363     43362     43369     43364     43362     43369     43365     43368     43370
     43366     43365     43367     43366     43365     43368     43366     43365     43369
     43367     43365     43368     43367     43365     43369     43368     43365     43369
     43368     43370     43371     43368     43370     43372     43368     43370     43373
     43370     43373     43374     43370     43373     43375     43370     43373     43381
     43371     43370     43372     43371     43370     43373     43372     43370     43373
     43373     43375     43376     43373     43381     43382     43373     43381     43383
     43373     43381     43384     43374     43373     43375     43374     43373     43381
     43375     43373     43381     43375     43376     43377     43375     43376     43378
     43376     43378     43379     43376     43378     43380     43376     43378     43390
     43377     43376     43378     43378     43390     43391     43378     43390     43392
     43378     43390     43393     43379     43378     43380     43379     43378     43390
     43380     43378     43390     43381     43384     43385     43382     43381     43383
     43382     43381     43384     43383     43381     43384     43384     43385     43386
     43384     43385     43387     43385     43387     43388     43385     43387     43389
     43385     43387     43437     43386     43385     43387     43387     43437     43438
     43387     43437     43439     43387     43437     43440     43388     43387     43389
     43388     43387     43437     43389     43387     43437     43390     43393     43394
     43390     43393     43395     43390     43393     43396     43391     43390     43392
     43391     43390     43393     43392     43390     43393     43393     43396     43397
     43393     43396     43398     43393     43396     43399     43394     43393     43395
     43394     43393     43396     43395     43393     43396     43396     43399     43400
     43396     43399     43401     43396     43399     43402     43397     43396     43398
     43397     43396     43399     43398     43396     43399     43399     43402     43403
     43399     43402     43404     43399     43402     43405     43400     43399     43401
     43400     43399     43402     43401     43399     43402     43402     43405     43406
     43402     43405     43407     43402     43405     43408     43403     43402     43404
     43403     43402     43405     43404     43402     43405     43405     43408     43409
     43405     43408     43410     43406     43405     43407     43406     43405     43408
     43407     43405     43408     43408     43410     43411     43408     43410     43412
     43409     43408     43410     43410     43412     43413     43410     43412     43414
     43410     43412     43415     43411     43410     43412     43412     43415     43416
     43412     43415     43417     43412     43415     43418     43413     43412     43414
     43413     43412     43415     43414     43412     43415     43415     43418     43419
     43415     43418     43420     43415     43418     43421     43416     43415     43417
     43416     43415     43418     43417     43415     43418     43418     43421     43422
     43418     43421     43423     43418     43421     43424     43419     43418     43420
     43419     43418     43421     43420     43418     43421     43421     43424     43425
     43421     43424     43426     43421     43424     43427     43422     43421     43423
     43422     43421     43424     43423     43421     43424     43424     43427     43428
     43424     43427     43429     43424     43427     43430     43425     43424     43426
     43425     43424     43427     43426     43424     43427     43427     43430     43431
     43427     43430     43432     43427     43430     43433     43428     43427     43429
     43428     43427     43430     43429     43427     43430     43430     43433     43434
     43430     43433     43435     43430     43433     43436     43431     43430     43432
     43431     43430     43433     43432     43430     43433     43434     43433     43435
     43434     43433     43436     43435     43433     43436     43437     43440     43441
     43437     43440     43442     43437     43440     43443     43438     43437     43439
     43438     43437     43440     43439     43437     43440     43440     43443     43444
     43440     43443     43445     43440     43443     43446     43441     43440     43442
     43441     43440     43443     43442     43440     43443     43443     43446     43447
     43443     43446     43448     43443     43446     43449     43444     43443     43445
     43444     43443     43446     43445     43443     43446     43446     43449     43450
     43446     43449     43451     43446     43449     43452     43447     43446     43448
     43447     43446     43449     43448     43446     43449     43449     43452     43453
     43449     43452     43454     43449     43452     43455     43450     43449     43451
     43450     43449     43452     43451     43449     43452     43452     43455     43456
     43452     43455     43457     43452     43455     43458     43453     43452     43454
     43453     43452     43455     43454     43452     43455     43455     43458     43459
     43455     43458     43460     43455     43458     43461     43456     43455     43457
     43456     43455     43458     43457     43455     43458     43458     43461     43462
     43458     43461     43463     43458     43461     43464     43459     43458     43460
     43459     43458     43461     43460     43458     43461     43461     43464     43465
     43461     43464     43466     43461     43464     43467     43462     43461     43463
     43462     43461     43464     43463     43461     43464     43464     43467     43468
     43464     43467     43469     43464     43467     43470     43465     43464     43466
     43465     43464     43467     43466     43464     43467     43467     43470     43471
     43467     43470     43472     43467     43470     43473     43468     43467     43469
     43468     43467     43470     43469     43467     43470     43470     43473     43474
     43470     43473     43475     43470     43473     43476     43471     43470     43472
     43471     43470     43473     43472     43470     43473     43473     43476     43477
     43473     43476     43478     43473     43476     43479     43474     43473     43475
     43474     43473     43476     43475     43473     43476     43477     43476     43478
     43477     43476     43479     43478     43476     43479     43480     43484     43485
     43480     43484     43486     43480     43484     43487     43481     43480     43482
     43481     43480     43483     43481     43480     43484     43482     43480     43483
     43482     43480     43484     43483     43480     43484     43484     43487     43488
     43484     43487     43489     43484     43487     43494     43485     43484     43486
     43485     43484     43487     43486     43484     43487     43487     43494     43490
     43488     43487     43489     43488     43487     43494     43489     43487     43494
     43490     43493     43495     43491     43490     43492     43491     43490     43493
     43491     43490     43494     43492     43490     43493     43492     43490     43494
     43493     43490     43494     43493     43495     43496     43493     43495     43497
     43493     43495     43498     43495     43498     43499     43495     43498     43500
     43495     43498     43506     43496     43495     43497     43496     43495     43498
     43497     43495     43498     43498     43500     43501     43498     43506     43507
     43498     43506     43508     43498     43506     43509     43499     43498     43500
     43499     43498     43506     43500     43498     43506     43500     43501     43502
     43500     43501     43503     43501     43503     43504     43501     43503     43505
     43501     43503     43515     43502     43501     43503     43503     43515     43516
     43503     43515     43517     43503     43515     43518     43504     43503     43505
     43504     43503     43515     43505     43503     43515     43506     43509     43510
     43507     43506     43508     43507     43506     43509     43508     43506     43509
     43509     43510     43511     43509     43510     43512     43510     43512     43513
     43510     43512     43514     43510     43512     43559     43511     43510     43512
     43512     43559     43560     43512     43559     43561     43512     43559     43562
     43513     43512     43514     43513     43512     43559     43514     43512     43559
     43515     43518     43519     43515     43518     43520     43515     43518     43521
     43516     43515     43517     43516     43515     43518     43517     43515     43518
     43518     43521     43522     43518     43521     43523     43518     43521     43524
     43519     43518     43520     43519     43518     43521     43520     43518     43521
     43521     43524     43525     43521     43524     43526     43521     43524     43527
     43522     43521     43523     43522     43521     43524     43523     43521     43524
     43524     43527     43528     43524     43527     43529     43524     43527     43530
     43525     43524     43526     43525     43524     43527     43526     43524     43527
     43527     43530     43531     43527     43530     43532     43527     43530     43533
     43528     43527     43529     43528     43527     43530     43529     43527     43530
     43530     43533     43534     43530     43533     43535     43530     43533     43538
     43531     43530     43532     43531     43530     43533     43532     43530     43533
     43533     43535     43536     43533     43535     43537     43533     43535     43538
     43533     43538     43535     43533     43538     43539     43533     43538     43540
     43534     43533     43535     43534     43533     43538     43535     43533     43538
     43535     43538     43539     43535     43538     43540     43536     43535     43537
     43536     43535     43538     43537     43535     43538     43538     43540     43541
     43538     43540     43542     43538     43540     43543     43539     43538     43540
     43540     43543     43544     43540     43543     43545     43540     43543     43546
     43541     43540     43542     43541     43540     43543     43542     43540     43543
     43543     43546     43547     43543     43546     43548     43543     43546     43549
     43544     43543     43545     43544     43543     43546     43545     43543     43546
     43546     43549     43550     43546     43549     43551     43546     43549     43552
     43547     43546     43548     43547     43546     43549     43548     43546     43549
     43549     43552     43553     43549     43552     43554     43549     43552     43555
     43550     43549     43551     43550     43549     43552     43551     43549     43552
     43552     43555     43556     43552     43555     43557     43552     43555     43558
     43553     43552     43554     43553     43552     43555     43554     43552     43555
     43556     43555     43557     43556     43555     43558     43557     43555     43558
     43559     43562     43563     43559     43562     43564     43559     43562     43565
     43560     43559     43561     43560     43559     43562     43561     43559     43562
     43562     43565     43566     43562     43565     43567     43562     43565     43568
     43563     43562     43564     43563     43562     43565     43564     43562     43565
     43565     43568     43569     43565     43568     43570     43565     43568     43571
     43566     43565     43567     43566     43565     43568     43567     43565     43568
     43568     43571     43572     43568     43571     43573     43568     43571     43574
     43569     43568     43570     43569     43568     43571     43570     43568     43571
     43571     43574     43575     43571     43574     43576     43571     43574     43577
     43572     43571     43573     43572     43571     43574     43573     43571     43574
     43574     43577     43578     43574     43577     43579     43574     43577     43580
     43575     43574     43576     43575     43574     43577     43576     43574     43577
     43577     43580     43581     43577     43580     43582     43577     43580     43583
     43578     43577     43579     43578     43577     43580     43579     43577     43580
     43580     43583     43584     43580     43583     43585     43580     43583     43586
     43581     43580     43582     43581     43580     43583     43582     43580     43583
     43583     43586     43587     43583     43586     43588     43583     43586     43589
     43584     43583     43585     43584     43583     43586     43585     43583     43586
     43586     43589     43590     43586     43589     43591     43586     43589     43592
     43587     43586     43588     43587     43586     43589     43588     43586     43589
     43589     43592     43593     43589     43592     43594     43589     43592     43595
     43590     43589     43591     43590     43589     43592     43591     43589     43592
     43592     43595     43596     43592     43595     43597     43592     43595     43598
     43593     43592     43594     43593     43592     43595     43594     43592     43595
     43596     43595     43597     43596     43595     43598     43597     43595     43598
     43599     43603     43604     43599     43603     43605     43599     43603     43606
     43600     43599     43601     43600     43599     43602     43600     43599     43603
     43601     43599     43602     43601     43599     43603     43602     43599     43603
     43603     43606     43607     43603     43606     43608     43603     43606     43613
     43604     43603     43605     43604     43603     43606     43605     43603     43606
     43606     43613     43609     43607     43606     43608     43607     43606     43613
     43608     43606     43613     43609     43612     43614     43610     43609     43611
     43610     43609     43612     43610     43609     43613     43611     43609     43612
     43611     43609     43613     43612     43609     43613     43612     43614     43615
     43612     43614     43616     43612     43614     43617     43614     43617     43618
     43614     43617     43619     43614     43617     43625     43615     43614     43616
     43615     43614     43617     43616     43614     43617     43617     43619     43620
     43617     43625     43626     43617     43625     43627     43617     43625     43628
     43618     43617     43619     43618     43617     43625     43619     43617     43625
     43619     43620     43621     43619     43620     43622     43620     43622     43623
     43620     43622     43624     43620     43622     43634     43621     43620     43622
     43622     43634     43635     43622     43634     43636     43622     43634     43637
     43623     43622     43624     43623     43622     43634     43624     43622     43634
     43625     43628     43629     43626     43625     43627     43626     43625     43628
     43627     43625     43628     43628     43629     43630     43628     43629     43631
     43629     43631     43632     43629     43631     43633     43629     43631     43681
     43630     43629     43631     43631     43681     43682     43631     43681     43683
     43631     43681     43684     43632     43631     43633     43632     43631     43681
     43633     43631     43681     43634     43637     43638     43634     43637     43639
     43634     43637     43640     43635     43634     43636     43635     43634     43637
     43636     43634     43637     43637     43640     43641     43637     43640     43642
     43637     43640     43643     43638     43637     43639     43638     43637     43640
     43639     43637     43640     43640     43643     43644     43640     43643     43645
     43640     43643     43646     43641     43640     43642     43641     43640     43643
     43642     43640     43643     43643     43646     43647     43643     43646     43648
     43643     43646     43649     43644     43643     43645     43644     43643     43646
     43645     43643     43646     43646     43649     43650     43646     43649     43651
     43646     43649     43652     43647     43646     43648     43647     43646     43649
     43648     43646     43649     43649     43652     43653     43649     43652     43654
     43650     43649     43651     43650     43649     43652     43651     43649     43652
     43652     43654     43655     43652     43654     43656     43653     43652     43654
     43654     43656     43657     43654     43656     43658     43654     43656     43659
     43655     43654     43656     43656     43659     43660     43656     43659     43661
     43656     43659     43662     43657     43656     43658     43657     43656     43659
     43658     43656     43659     43659     43662     43663     43659     43662     43664
     43659     43662     43665     43660     43659     43661     43660     43659     43662
     43661     43659     43662     43662     43665     43666     43662     43665     43667
     43662     43665     43668     43663     43662     43664     43663     43662     43665
     43664     43662     43665     43665     43668     43669     43665     43668     43670
     43665     43668     43671     43666     43665     43667     43666     43665     43668
     43667     43665     43668     43668     43671     43672     43668     43671     43673
     43668     43671     43674     43669     43668     43670     43669     43668     43671
     43670     43668     43671     43671     43674     43675     43671     43674     43676
     43671     43674     43677     43672     43671     43673     43672     43671     43674
     43673     43671     43674     43674     43677     43678     43674     43677     43679
     43674     43677     43680     43675     43674     43676     43675     43674     43677
     43676     43674     43677     43678     43677     43679     43678     43677     43680
     43679     43677     43680     43681     43684     43685     43681     43684     43686
     43681     43684     43687     43682     43681     43683     43682     43681     43684
     43683     43681     43684     43684     43687     43688     43684     43687     43689
     43684     43687     43690     43685     43684     43686     43685     43684     43687
     43686     43684     43687     43687     43690     43691     43687     43690     43692
     43687     43690     43693     43688     43687     43689     43688     43687     43690
     43689     43687     43690     43690     43693     43694     43690     43693     43695
     43690     43693     43696     43691     43690     43692     43691     43690     43693
     43692     43690     43693     43693     43696     43697     43693     43696     43698
     43693     43696     43699     43694     43693     43695     43694     43693     43696
     43695     43693     43696     43696     43699     43700     43696     43699     43701
     43696     43699     43702     43697     43696     43698     43697     43696     43699
     43698     43696     43699     43699     43702     43703     43699     43702     43704
     43699     43702     43705     43700     43699     43701     43700     43699     43702
     43701     43699     43702     43702     43705     43706     43702     43705     43707
     43702     43705     43708     43703     43702     43704     43703     43702     43705
     43704     43702     43705     43705     43708     43709     43705     43708     43710
     43705     43708     43711     43706     43705     43707     43706     43705     43708
     43707     43705     43708     43708     43711     43712     43708     43711     43713
     43708     43711     43714     43709     43708     43710     43709     43708     43711
     43710     43708     43711     43711     43714     43715     43711     43714     43716
     43711     43714     43717     43712     43711     43713     43712     43711     43714
     43713     43711     43714     43714     43717     43718     43714     43717     43719
     43714     43717     43720     43715     43714     43716     43715     43714     43717
     43716     43714     43717     43717     43720     43721     43717     43720     43722
     43717     43720     43723     43718     43717     43719     43718     43717     43720
     43719     43717     43720     43721     43720     43722     43721     43720     43723
     43722     43720     43723     43724     43728     43729     43724     43728     43730
     43724     43728     43731     43725     43724     43726     43725     43724     43727
     43725     43724     43728     43726     43724     43727     43726     43724     43728
     43727     43724     43728     43728     43731     43732     43728     43731     43733
     43728     43731     43738     43729     43728     43730     43729     43728     43731
     43730     43728     43731     43731     43738     43734     43732     43731     43733
     43732     43731     43738     43733     43731     43738     43734     43737     43739
     43735     43734     43736     43735     43734     43737     43735     43734     43738
     43736     43734     43737     43736     43734     43738     43737     43734     43738
     43737     43739     43740     43737     43739     43741     43737     43739     43742
     43739     43742     43743     43739     43742     43744     43739     43742     43750
     43740     43739     43741     43740     43739     43742     43741     43739     43742
     43742     43744     43745     43742     43750     43751     43742     43750     43752
     43742     43750     43753     43743     43742     43744     43743     43742     43750
     43744     43742     43750     43744     43745     43746     43744     43745     43747
     43745     43747     43748     43745     43747     43749     43745     43747     43759
     43746     43745     43747     43747     43759     43760     43747     43759     43761
     43747     43759     43762     43748     43747     43749     43748     43747     43759
     43749     43747     43759     43750     43753     43754     43751     43750     43752
     43751     43750     43753     43752     43750     43753     43753     43754     43755
     43753     43754     43756     43754     43756     43757     43754     43756     43758
     43754     43756     43803     43755     43754     43756     43756     43803     43804
     43756     43803     43805     43756     43803     43806     43757     43756     43758
     43757     43756     43803     43758     43756     43803     43759     43762     43763
     43759     43762     43764     43759     43762     43765     43760     43759     43761
     43760     43759     43762     43761     43759     43762     43762     43765     43766
     43762     43765     43767     43762     43765     43768     43763     43762     43764
     43763     43762     43765     43764     43762     43765     43765     43768     43769
     43765     43768     43770     43765     43768     43771     43766     43765     43767
     43766     43765     43768     43767     43765     43768     43768     43771     43772
     43768     43771     43773     43768     43771     43774     43769     43768     43770
     43769     43768     43771     43770     43768     43771     43771     43774     43775
     43771     43774     43776     43771     43774     43777     43772     43771     43773
     43772     43771     43774     43773     43771     43774     43774     43777     43778
     43774     43777     43779     43774     43777     43782     43775     43774     43776
     43775     43774     43777     43776     43774     43777     43777     43779     43780
     43777     43779     43781     43777     43779     43782     43777     43782     43779
     43777     43782     43783     43777     43782     43784     43778     43777     43779
     43778     43777     43782     43779     43777     43782     43779     43782     43783
     43779     43782     43784     43780     43779     43781     43780     43779     43782
     43781     43779     43782     43782     43784     43785     43782     43784     43786
     43782     43784     43787     43783     43782     43784     43784     43787     43788
     43784     43787     43789     43784     43787     43790     43785     43784     43786
     43785     43784     43787     43786     43784     43787     43787     43790     43791
     43787     43790     43792     43787     43790     43793     43788     43787     43789
     43788     43787     43790     43789     43787     43790     43790     43793     43794
     43790     43793     43795     43790     43793     43796     43791     43790     43792
     43791     43790     43793     43792     43790     43793     43793     43796     43797
     43793     43796     43798     43793     43796     43799     43794     43793     43795
     43794     43793     43796     43795     43793     43796     43796     43799     43800
     43796     43799     43801     43796     43799     43802     43797     43796     43798
     43797     43796     43799     43798     43796     43799     43800     43799     43801
     43800     43799     43802     43801     43799     43802     43803     43806     43807
     43803     43806     43808     43803     43806     43809     43804     43803     43805
     43804     43803     43806     43805     43803     43806     43806     43809     43810
     43806     43809     43811     43806     43809     43812     43807     43806     43808
     43807     43806     43809     43808     43806     43809     43809     43812     43813
     43809     43812     43814     43809     43812     43815     43810     43809     43811
     43810     43809     43812     43811     43809     43812     43812     43815     43816
     43812     43815     43817     43812     43815     43818     43813     43812     43814
     43813     43812     43815     43814     43812     43815     43815     43818     43819
     43815     43818     43820     43815     43818     43821     43816     43815     43817
     43816     43815     43818     43817     43815     43818     43818     43821     43822
     43818     43821     43823     43818     43821     43824     43819     43818     43820
     43819     43818     43821     43820     43818     43821     43821     43824     43825
     43821     43824     43826     43821     43824     43827     43822     43821     43823
     43822     43821     43824     43823     43821     43824     43824     43827     43828
     43824     43827     43829     43824     43827     43830     43825     43824     43826
     43825     43824     43827     43826     43824     43827     43827     43830     43831
     43827     43830     43832     43827     43830     43833     43828     43827     43829
     43828     43827     43830     43829     43827     43830     43830     43833     43834
     43830     43833     43835     43830     43833     43836     43831     43830     43832
     43831     43830     43833     43832     43830     43833     43833     43836     43837
     43833     43836     43838     43833     43836     43839     43834     43833     43835
     43834     43833     43836     43835     43833     43836     43836     43839     43840
     43836     43839     43841     43836     43839     43842     43837     43836     43838
     43837     43836     43839     43838     43836     43839     43839     43842     43843
     43839     43842     43844     43839     43842     43845     43840     43839     43841
     43840     43839     43842     43841     43839     43842     43843     43842     43844
     43843     43842     43845     43844     43842     43845     43846     43849     43850
     43846     43851     43852     43846     43851     43853     43846     43851     43855
     43847     43846     43848     43847     43846     43849     43847     43846     43851
     43848     43846     43849     43848     43846     43851     43849     43846     43851
     43851     43853     43854     43851     43855     43856     43851     43855     43857
     43851     43855     43862     43852     43851     43853     43852     43851     43855
     43853     43851     43855     43855     43862     43858     43856     43855     43857
     43856     43855     43862     43857     43855     43862     43858     43861     43863
     43859     43858     43860     43859     43858     43861     43859     43858     43862
     43860     43858     43861     43860     43858     43862     43861     43858     43862
     43861     43863     43864     43861     43863     43865     43861     43863     43866
     43863     43866     43867     43863     43866     43868     43863     43866     43874
     43864     43863     43865     43864     43863     43866     43865     43863     43866
     43866     43868     43869     43866     43874     43875     43866     43874     43876
     43866     43874     43877     43867     43866     43868     43867     43866     43874
     43868     43866     43874     43868     43869     43870     43868     43869     43871
     43869     43871     43872     43869     43871     43873     43869     43871     43883
     43870     43869     43871     43871     43883     43884     43871     43883     43885
     43871     43883     43886     43872     43871     43873     43872     43871     43883
     43873     43871     43883     43874     43877     43878     43875     43874     43876
     43875     43874     43877     43876     43874     43877     43877     43878     43879
     43877     43878     43880     43878     43880     43881     43878     43880     43882
     43878     43880     43927     43879     43878     43880     43880     43927     43928
     43880     43927     43929     43880     43927     43930     43881     43880     43882
     43881     43880     43927     43882     43880     43927     43883     43886     43887
     43883     43886     43888     43883     43886     43889     43884     43883     43885
     43884     43883     43886     43885     43883     43886     43886     43889     43890
     43886     43889     43891     43886     43889     43892     43887     43886     43888
     43887     43886     43889     43888     43886     43889     43889     43892     43893
     43889     43892     43894     43889     43892     43895     43890     43889     43891
     43890     43889     43892     43891     43889     43892     43892     43895     43896
     43892     43895     43897     43892     43895     43898     43893     43892     43894
     43893     43892     43895     43894     43892     43895     43895     43898     43899
     43895     43898     43900     43895     43898     43901     43896     43895     43897
     43896     43895     43898     43897     43895     43898     43898     43901     43902
     43898     43901     43903     43898     43901     43906     43899     43898     43900
     43899     43898     43901     43900     43898     43901     43901     43903     43904
     43901     43903     43905     43901     43903     43906     43901     43906     43903
     43901     43906     43907     43901     43906     43908     43902     43901     43903
     43902     43901     43906     43903     43901     43906     43903     43906     43907
     43903     43906     43908     43904     43903     43905     43904     43903     43906
     43905     43903     43906     43906     43908     43909     43906     43908     43910
     43906     43908     43911     43907     43906     43908     43908     43911     43912
     43908     43911     43913     43908     43911     43914     43909     43908     43910
     43909     43908     43911     43910     43908     43911     43911     43914     43915
     43911     43914     43916     43911     43914     43917     43912     43911     43913
     43912     43911     43914     43913     43911     43914     43914     43917     43918
     43914     43917     43919     43914     43917     43920     43915     43914     43916
     43915     43914     43917     43916     43914     43917     43917     43920     43921
     43917     43920     43922     43917     43920     43923     43918     43917     43919
     43918     43917     43920     43919     43917     43920     43920     43923     43924
     43920     43923     43925     43920     43923     43926     43921     43920     43922
     43921     43920     43923     43922     43920     43923     43924     43923     43925
     43924     43923     43926     43925     43923     43926     43927     43930     43931
     43927     43930     43932     43927     43930     43933     43928     43927     43929
     43928     43927     43930     43929     43927     43930     43930     43933     43934
     43930     43933     43935     43930     43933     43936     43931     43930     43932
     43931     43930     43933     43932     43930     43933     43933     43936     43937
     43933     43936     43938     43933     43936     43939     43934     43933     43935
     43934     43933     43936     43935     43933     43936     43936     43939     43940
     43936     43939     43941     43936     43939     43942     43937     43936     43938
     43937     43936     43939     43938     43936     43939     43939     43942     43943
     43939     43942     43944     43939     43942     43945     43940     43939     43941
     43940     43939     43942     43941     43939     43942     43942     43945     43946
     43942     43945     43947     43942     43945     43948     43943     43942     43944
     43943     43942     43945     43944     43942     43945     43945     43948     43949
     43945     43948     43950     43945     43948     43951     43946     43945     43947
     43946     43945     43948     43947     43945     43948     43948     43951     43952
     43948     43951     43953     43948     43951     43954     43949     43948     43950
     43949     43948     43951     43950     43948     43951     43951     43954     43955
     43951     43954     43956     43951     43954     43957     43952     43951     43953
     43952     43951     43954     43953     43951     43954     43954     43957     43958
     43954     43957     43959     43954     43957     43960     43955     43954     43956
     43955     43954     43957     43956     43954     43957     43957     43960     43961
     43957     43960     43962     43957     43960     43963     43958     43957     43959
     43958     43957     43960     43959     43957     43960     43960     43963     43964
     43960     43963     43965     43960     43963     43966     43961     43960     43962
     43961     43960     43963     43962     43960     43963     43963     43966     43967
     43963     43966     43968     43963     43966     43969     43964     43963     43965
     43964     43963     43966     43965     43963     43966     43967     43966     43968
     43967     43966     43969     43968     43966     43969     43970     43974     43975
     43970     43974     43976     43970     43974     43977     43971     43970     43972
     43971     43970     43973     43971     43970     43974     43972     43970     43973
     43972     43970     43974     43973     43970     43974     43974     43977     43978
     43974     43977     43979     43974     43977     43984     43975     43974     43976
     43975     43974     43977     43976     43974     43977     43977     43984     43980
     43978     43977     43979     43978     43977     43984     43979     43977     43984
     43980     43983     43985     43981     43980     43982     43981     43980     43983
     43981     43980     43984     43982     43980     43983     43982     43980     43984
     43983     43980     43984     43983     43985     43986     43983     43985     43987
     43983     43985     43988     43985     43988     43989     43985     43988     43990
     43985     43988     43996     43986     43985     43987     43986     43985     43988
     43987     43985     43988     43988     43990     43991     43988     43996     43997
     43988     43996     43998     43988     43996     43999     43989     43988     43990
     43989     43988     43996     43990     43988     43996     43990     43991     43992
     43990     43991     43993     43991     43993     43994     43991     43993     43995
     43991     43993     44005     43992     43991     43993     43993     44005     44006
     43993     44005     44007     43993     44005     44008     43994     43993     43995
     43994     43993     44005     43995     43993     44005     43996     43999     44000
     43997     43996     43998     43997     43996     43999     43998     43996     43999
     43999     44000     44001     43999     44000     44002     44000     44002     44003
     44000     44002     44004     44000     44002     44049     44001     44000     44002
     44002     44049     44050     44002     44049     44051     44002     44049     44052
     44003     44002     44004     44003     44002     44049     44004     44002     44049
     44005     44008     44009     44005     44008     44010     44005     44008     44011
     44006     44005     44007     44006     44005     44008     44007     44005     44008
     44008     44011     44012     44008     44011     44013     44008     44011     44014
     44009     44008     44010     44009     44008     44011     44010     44008     44011
     44011     44014     44015     44011     44014     44016     44011     44014     44017
     44012     44011     44013     44012     44011     44014     44013     44011     44014
     44014     44017     44018     44014     44017     44019     44014     44017     44020
     44015     44014     44016     44015     44014     44017     44016     44014     44017
     44017     44020     44021     44017     44020     44022     44017     44020     44023
     44018     44017     44019     44018     44017     44020     44019     44017     44020
     44020     44023     44024     44020     44023     44025     44020     44023     44028
     44021     44020     44022     44021     44020     44023     44022     44020     44023
     44023     44025     44026     44023     44025     44027     44023     44025     44028
     44023     44028     44025     44023     44028     44029     44023     44028     44030
     44024     44023     44025     44024     44023     44028     44025     44023     44028
     44025     44028     44029     44025     44028     44030     44026     44025     44027
     44026     44025     44028     44027     44025     44028     44028     44030     44031
     44028     44030     44032     44028     44030     44033     44029     44028     44030
     44030     44033     44034     44030     44033     44035     44030     44033     44036
     44031     44030     44032     44031     44030     44033     44032     44030     44033
     44033     44036     44037     44033     44036     44038     44033     44036     44039
     44034     44033     44035     44034     44033     44036     44035     44033     44036
     44036     44039     44040     44036     44039     44041     44036     44039     44042
     44037     44036     44038     44037     44036     44039     44038     44036     44039
     44039     44042     44043     44039     44042     44044     44039     44042     44045
     44040     44039     44041     44040     44039     44042     44041     44039     44042
     44042     44045     44046     44042     44045     44047     44042     44045     44048
     44043     44042     44044     44043     44042     44045     44044     44042     44045
     44046     44045     44047     44046     44045     44048     44047     44045     44048
     44049     44052     44053     44049     44052     44054     44049     44052     44055
     44050     44049     44051     44050     44049     44052     44051     44049     44052
     44052     44055     44056     44052     44055     44057     44052     44055     44058
     44053     44052     44054     44053     44052     44055     44054     44052     44055
     44055     44058     44059     44055     44058     44060     44055     44058     44061
     44056     44055     44057     44056     44055     44058     44057     44055     44058
     44058     44061     44062     44058     44061     44063     44058     44061     44064
     44059     44058     44060     44059     44058     44061     44060     44058     44061
     44061     44064     44065     44061     44064     44066     44061     44064     44067
     44062     44061     44063     44062     44061     44064     44063     44061     44064
     44064     44067     44068     44064     44067     44069     44064     44067     44070
     44065     44064     44066     44065     44064     44067     44066     44064     44067
     44067     44070     44071     44067     44070     44072     44067     44070     44073
     44068     44067     44069     44068     44067     44070     44069     44067     44070
     44070     44073     44074     44070     44073     44075     44070     44073     44076
     44071     44070     44072     44071     44070     44073     44072     44070     44073
     44073     44076     44077     44073     44076     44078     44073     44076     44079
     44074     44073     44075     44074     44073     44076     44075     44073     44076
     44076     44079     44080     44076     44079     44081     44076     44079     44082
     44077     44076     44078     44077     44076     44079     44078     44076     44079
     44079     44082     44083     44079     44082     44084     44079     44082     44085
     44080     44079     44081     44080     44079     44082     44081     44079     44082
     44082     44085     44086     44082     44085     44087     44082     44085     44088
     44083     44082     44084     44083     44082     44085     44084     44082     44085
     44085     44088     44089     44085     44088     44090     44085     44088     44091
     44086     44085     44087     44086     44085     44088     44087     44085     44088
     44089     44088     44090     44089     44088     44091     44090     44088     44091
     44092     44095     44096     44092     44097     44098     44092     44097     44099
     44092     44097     44101     44093     44092     44094     44093     44092     44095
     44093     44092     44097     44094     44092     44095     44094     44092     44097
     44095     44092     44097     44097     44099     44100     44097     44101     44102
     44097     44101     44103     44097     44101     44108     44098     44097     44099
     44098     44097     44101     44099     44097     44101     44101     44108     44104
     44102     44101     44103     44102     44101     44108     44103     44101     44108
     44104     44107     44109     44105     44104     44106     44105     44104     44107
     44105     44104     44108     44106     44104     44107     44106     44104     44108
     44107     44104     44108     44107     44109     44110     44107     44109     44111
     44107     44109     44112     44109     44112     44113     44109     44112     44114
     44109     44112     44120     44110     44109     44111     44110     44109     44112
     44111     44109     44112     44112     44114     44115     44112     44120     44121
     44112     44120     44122     44112     44120     44123     44113     44112     44114
     44113     44112     44120     44114     44112     44120     44114     44115     44116
     44114     44115     44117     44115     44117     44118     44115     44117     44119
     44115     44117     44129     44116     44115     44117     44117     44129     44130
     44117     44129     44131     44117     44129     44132     44118     44117     44119
     44118     44117     44129     44119     44117     44129     44120     44123     44124
     44121     44120     44122     44121     44120     44123     44122     44120     44123
     44123     44124     44125     44123     44124     44126     44124     44126     44127
     44124     44126     44128     44124     44126     44170     44125     44124     44126
     44126     44170     44171     44126     44170     44172     44126     44170     44173
     44127     44126     44128     44127     44126     44170     44128     44126     44170
     44129     44132     44133     44129     44132     44134     44129     44132     44135
     44130     44129     44131     44130     44129     44132     44131     44129     44132
     44132     44135     44136     44132     44135     44137     44132     44135     44138
     44133     44132     44134     44133     44132     44135     44134     44132     44135
     44135     44138     44139     44135     44138     44140     44135     44138     44141
     44136     44135     44137     44136     44135     44138     44137     44135     44138
     44138     44141     44142     44138     44141     44143     44138     44141     44144
     44139     44138     44140     44139     44138     44141     44140     44138     44141
     44141     44144     44145     44141     44144     44146     44141     44144     44147
     44142     44141     44143     44142     44141     44144     44143     44141     44144
     44144     44147     44148     44144     44147     44149     44145     44144     44146
     44145     44144     44147     44146     44144     44147     44147     44149     44150
     44147     44149     44151     44148     44147     44149     44149     44151     44152
     44149     44151     44153     44149     44151     44154     44150     44149     44151
     44151     44154     44155     44151     44154     44156     44151     44154     44157
     44152     44151     44153     44152     44151     44154     44153     44151     44154
     44154     44157     44158     44154     44157     44159     44154     44157     44160
     44155     44154     44156     44155     44154     44157     44156     44154     44157
     44157     44160     44161     44157     44160     44162     44157     44160     44163
     44158     44157     44159     44158     44157     44160     44159     44157     44160
     44160     44163     44164     44160     44163     44165     44160     44163     44166
     44161     44160     44162     44161     44160     44163     44162     44160     44163
     44163     44166     44167     44163     44166     44168     44163     44166     44169
     44164     44163     44165     44164     44163     44166     44165     44163     44166
     44167     44166     44168     44167     44166     44169     44168     44166     44169
     44170     44173     44174     44170     44173     44175     44170     44173     44176
     44171     44170     44172     44171     44170     44173     44172     44170     44173
     44173     44176     44177     44173     44176     44178     44173     44176     44179
     44174     44173     44175     44174     44173     44176     44175     44173     44176
     44176     44179     44180     44176     44179     44181     44176     44179     44182
     44177     44176     44178     44177     44176     44179     44178     44176     44179
     44179     44182     44183     44179     44182     44184     44179     44182     44185
     44180     44179     44181     44180     44179     44182     44181     44179     44182
     44182     44185     44186     44182     44185     44187     44182     44185     44188
     44183     44182     44184     44183     44182     44185     44184     44182     44185
     44185     44188     44189     44185     44188     44190     44185     44188     44191
     44186     44185     44187     44186     44185     44188     44187     44185     44188
     44188     44191     44192     44188     44191     44193     44188     44191     44194
     44189     44188     44190     44189     44188     44191     44190     44188     44191
     44191     44194     44195     44191     44194     44196     44191     44194     44197
     44192     44191     44193     44192     44191     44194     44193     44191     44194
     44194     44197     44198     44194     44197     44199     44194     44197     44200
     44195     44194     44196     44195     44194     44197     44196     44194     44197
     44197     44200     44201     44197     44200     44202     44197     44200     44203
     44198     44197     44199     44198     44197     44200     44199     44197     44200
     44200     44203     44204     44200     44203     44205     44200     44203     44206
     44201     44200     44202     44201     44200     44203     44202     44200     44203
     44203     44206     44207     44203     44206     44208     44203     44206     44209
     44204     44203     44205     44204     44203     44206     44205     44203     44206
     44206     44209     44210     44206     44209     44211     44206     44209     44212
     44207     44206     44208     44207     44206     44209     44208     44206     44209
     44210     44209     44211     44210     44209     44212     44211     44209     44212
     44213     44217     44218     44213     44217     44219     44213     44217     44220
     44214     44213     44215     44214     44213     44216     44214     44213     44217
     44215     44213     44216     44215     44213     44217     44216     44213     44217
     44217     44220     44221     44217     44220     44222     44217     44220     44227
     44218     44217     44219     44218     44217     44220     44219     44217     44220
     44220     44227     44223     44221     44220     44222     44221     44220     44227
     44222     44220     44227     44223     44226     44228     44224     44223     44225
     44224     44223     44226     44224     44223     44227     44225     44223     44226
     44225     44223     44227     44226     44223     44227     44226     44228     44229
     44226     44228     44230     44226     44228     44231     44228     44231     44232
     44228     44231     44233     44228     44231     44239     44229     44228     44230
     44229     44228     44231     44230     44228     44231     44231     44233     44234
     44231     44239     44240     44231     44239     44241     44231     44239     44242
     44232     44231     44233     44232     44231     44239     44233     44231     44239
     44233     44234     44235     44233     44234     44236     44234     44236     44237
     44234     44236     44238     44234     44236     44248     44235     44234     44236
     44236     44248     44249     44236     44248     44250     44236     44248     44251
     44237     44236     44238     44237     44236     44248     44238     44236     44248
     44239     44242     44243     44240     44239     44241     44240     44239     44242
     44241     44239     44242     44242     44243     44244     44242     44243     44245
     44243     44245     44246     44243     44245     44247     44243     44245     44292
     44244     44243     44245     44245     44292     44293     44245     44292     44294
     44245     44292     44295     44246     44245     44247     44246     44245     44292
     44247     44245     44292     44248     44251     44252     44248     44251     44253
     44248     44251     44254     44249     44248     44250     44249     44248     44251
     44250     44248     44251     44251     44254     44255     44251     44254     44256
     44251     44254     44257     44252     44251     44253     44252     44251     44254
     44253     44251     44254     44254     44257     44258     44254     44257     44259
     44254     44257     44260     44255     44254     44256     44255     44254     44257
     44256     44254     44257     44257     44260     44261     44257     44260     44262
     44257     44260     44263     44258     44257     44259     44258     44257     44260
     44259     44257     44260     44260     44263     44264     44260     44263     44265
     44260     44263     44266     44261     44260     44262     44261     44260     44263
     44262     44260     44263     44263     44266     44267     44263     44266     44268
     44263     44266     44271     44264     44263     44265     44264     44263     44266
     44265     44263     44266     44266     44268     44269     44266     44268     44270
     44266     44268     44271     44266     44271     44268     44266     44271     44272
     44266     44271     44273     44267     44266     44268     44267     44266     44271
     44268     44266     44271     44268     44271     44272     44268     44271     44273
     44269     44268     44270     44269     44268     44271     44270     44268     44271
     44271     44273     44274     44271     44273     44275     44271     44273     44276
     44272     44271     44273     44273     44276     44277     44273     44276     44278
     44273     44276     44279     44274     44273     44275     44274     44273     44276
     44275     44273     44276     44276     44279     44280     44276     44279     44281
     44276     44279     44282     44277     44276     44278     44277     44276     44279
     44278     44276     44279     44279     44282     44283     44279     44282     44284
     44279     44282     44285     44280     44279     44281     44280     44279     44282
     44281     44279     44282     44282     44285     44286     44282     44285     44287
     44282     44285     44288     44283     44282     44284     44283     44282     44285
     44284     44282     44285     44285     44288     44289     44285     44288     44290
     44285     44288     44291     44286     44285     44287     44286     44285     44288
     44287     44285     44288     44289     44288     44290     44289     44288     44291
     44290     44288     44291     44292     44295     44296     44292     44295     44297
     44292     44295     44298     44293     44292     44294     44293     44292     44295
     44294     44292     44295     44295     44298     44299     44295     44298     44300
     44295     44298     44301     44296     44295     44297     44296     44295     44298
     44297     44295     44298     44298     44301     44302     44298     44301     44303
     44298     44301     44304     44299     44298     44300     44299     44298     44301
     44300     44298     44301     44301     44304     44305     44301     44304     44306
     44301     44304     44307     44302     44301     44303     44302     44301     44304
     44303     44301     44304     44304     44307     44308     44304     44307     44309
     44304     44307     44310     44305     44304     44306     44305     44304     44307
     44306     44304     44307     44307     44310     44311     44307     44310     44312
     44307     44310     44313     44308     44307     44309     44308     44307     44310
     44309     44307     44310     44310     44313     44314     44310     44313     44315
     44310     44313     44316     44311     44310     44312     44311     44310     44313
     44312     44310     44313     44313     44316     44317     44313     44316     44318
     44313     44316     44319     44314     44313     44315     44314     44313     44316
     44315     44313     44316     44316     44319     44320     44316     44319     44321
     44316     44319     44322     44317     44316     44318     44317     44316     44319
     44318     44316     44319     44319     44322     44323     44319     44322     44324
     44319     44322     44325     44320     44319     44321     44320     44319     44322
     44321     44319     44322     44322     44325     44326     44322     44325     44327
     44322     44325     44328     44323     44322     44324     44323     44322     44325
     44324     44322     44325     44325     44328     44329     44325     44328     44330
     44325     44328     44331     44326     44325     44327     44326     44325     44328
     44327     44325     44328     44328     44331     44332     44328     44331     44333
     44328     44331     44334     44329     44328     44330     44329     44328     44331
     44330     44328     44331     44332     44331     44333     44332     44331     44334
     44333     44331     44334     44335     44338     44339     44335     44340     44341
     44335     44340     44342     44335     44340     44344     44336     44335     44337
     44336     44335     44338     44336     44335     44340     44337     44335     44338
     44337     44335     44340     44338     44335     44340     44340     44342     44343
     44340     44344     44345     44340     44344     44346     44340     44344     44351
     44341     44340     44342     44341     44340     44344     44342     44340     44344
     44344     44351     44347     44345     44344     44346     44345     44344     44351
     44346     44344     44351     44347     44350     44352     44348     44347     44349
     44348     44347     44350     44348     44347     44351     44349     44347     44350
     44349     44347     44351     44350     44347     44351     44350     44352     44353
     44350     44352     44354     44350     44352     44355     44352     44355     44356
     44352     44355     44357     44352     44355     44363     44353     44352     44354
     44353     44352     44355     44354     44352     44355     44355     44357     44358
     44355     44363     44364     44355     44363     44365     44355     44363     44366
     44356     44355     44357     44356     44355     44363     44357     44355     44363
     44357     44358     44359     44357     44358     44360     44358     44360     44361
     44358     44360     44362     44358     44360     44372     44359     44358     44360
     44360     44372     44373     44360     44372     44374     44360     44372     44375
     44361     44360     44362     44361     44360     44372     44362     44360     44372
     44363     44366     44367     44364     44363     44365     44364     44363     44366
     44365     44363     44366     44366     44367     44368     44366     44367     44369
     44367     44369     44370     44367     44369     44371     44367     44369     44416
     44368     44367     44369     44369     44416     44417     44369     44416     44418
     44369     44416     44419     44370     44369     44371     44370     44369     44416
     44371     44369     44416     44372     44375     44376     44372     44375     44377
     44372     44375     44378     44373     44372     44374     44373     44372     44375
     44374     44372     44375     44375     44378     44379     44375     44378     44380
     44375     44378     44381     44376     44375     44377     44376     44375     44378
     44377     44375     44378     44378     44381     44382     44378     44381     44383
     44378     44381     44384     44379     44378     44380     44379     44378     44381
     44380     44378     44381     44381     44384     44385     44381     44384     44386
     44381     44384     44387     44382     44381     44383     44382     44381     44384
     44383     44381     44384     44384     44387     44388     44384     44387     44389
     44384     44387     44390     44385     44384     44386     44385     44384     44387
     44386     44384     44387     44387     44390     44391     44387     44390     44392
     44387     44390     44395     44388     44387     44389     44388     44387     44390
     44389     44387     44390     44390     44392     44393     44390     44392     44394
     44390     44392     44395     44390     44395     44392     44390     44395     44396
     44390     44395     44397     44391     44390     44392     44391     44390     44395
     44392     44390     44395     44392     44395     44396     44392     44395     44397
     44393     44392     44394     44393     44392     44395     44394     44392     44395
     44395     44397     44398     44395     44397     44399     44395     44397     44400
     44396     44395     44397     44397     44400     44401     44397     44400     44402
     44397     44400     44403     44398     44397     44399     44398     44397     44400
     44399     44397     44400     44400     44403     44404     44400     44403     44405
     44400     44403     44406     44401     44400     44402     44401     44400     44403
     44402     44400     44403     44403     44406     44407     44403     44406     44408
     44403     44406     44409     44404     44403     44405     44404     44403     44406
     44405     44403     44406     44406     44409     44410     44406     44409     44411
     44406     44409     44412     44407     44406     44408     44407     44406     44409
     44408     44406     44409     44409     44412     44413     44409     44412     44414
     44409     44412     44415     44410     44409     44411     44410     44409     44412
     44411     44409     44412     44413     44412     44414     44413     44412     44415
     44414     44412     44415     44416     44419     44420     44416     44419     44421
     44416     44419     44422     44417     44416     44418     44417     44416     44419
     44418     44416     44419     44419     44422     44423     44419     44422     44424
     44419     44422     44425     44420     44419     44421     44420     44419     44422
     44421     44419     44422     44422     44425     44426     44422     44425     44427
     44422     44425     44428     44423     44422     44424     44423     44422     44425
     44424     44422     44425     44425     44428     44429     44425     44428     44430
     44425     44428     44431     44426     44425     44427     44426     44425     44428
     44427     44425     44428     44428     44431     44432     44428     44431     44433
     44428     44431     44434     44429     44428     44430     44429     44428     44431
     44430     44428     44431     44431     44434     44435     44431     44434     44436
     44431     44434     44437     44432     44431     44433     44432     44431     44434
     44433     44431     44434     44434     44437     44438     44434     44437     44439
     44434     44437     44440     44435     44434     44436     44435     44434     44437
     44436     44434     44437     44437     44440     44441     44437     44440     44442
     44437     44440     44443     44438     44437     44439     44438     44437     44440
     44439     44437     44440     44440     44443     44444     44440     44443     44445
     44440     44443     44446     44441     44440     44442     44441     44440     44443
     44442     44440     44443     44443     44446     44447     44443     44446     44448
     44443     44446     44449     44444     44443     44445     44444     44443     44446
     44445     44443     44446     44446     44449     44450     44446     44449     44451
     44446     44449     44452     44447     44446     44448     44447     44446     44449
     44448     44446     44449     44449     44452     44453     44449     44452     44454
     44449     44452     44455     44450     44449     44451     44450     44449     44452
     44451     44449     44452     44452     44455     44456     44452     44455     44457
     44452     44455     44458     44453     44452     44454     44453     44452     44455
     44454     44452     44455     44456     44455     44457     44456     44455     44458
     44457     44455     44458     44459     44463     44464     44459     44463     44465
     44459     44463     44466     44460     44459     44461     44460     44459     44462
     44460     44459     44463     44461     44459     44462     44461     44459     44463
     44462     44459     44463     44463     44466     44467     44463     44466     44468
     44463     44466     44473     44464     44463     44465     44464     44463     44466
     44465     44463     44466     44466     44473     44469     44467     44466     44468
     44467     44466     44473     44468     44466     44473     44469     44472     44474
     44470     44469     44471     44470     44469     44472     44470     44469     44473
     44471     44469     44472     44471     44469     44473     44472     44469     44473
     44472     44474     44475     44472     44474     44476     44472     44474     44477
     44474     44477     44478     44474     44477     44479     44474     44477     44485
     44475     44474     44476     44475     44474     44477     44476     44474     44477
     44477     44479     44480     44477     44485     44486     44477     44485     44487
     44477     44485     44488     44478     44477     44479     44478     44477     44485
     44479     44477     44485     44479     44480     44481     44479     44480     44482
     44480     44482     44483     44480     44482     44484     44480     44482     44494
     44481     44480     44482     44482     44494     44495     44482     44494     44496
     44482     44494     44497     44483     44482     44484     44483     44482     44494
     44484     44482     44494     44485     44488     44489     44486     44485     44487
     44486     44485     44488     44487     44485     44488     44488     44489     44490
     44488     44489     44491     44489     44491     44492     44489     44491     44493
     44489     44491     44538     44490     44489     44491     44491     44538     44539
     44491     44538     44540     44491     44538     44541     44492     44491     44493
     44492     44491     44538     44493     44491     44538     44494     44497     44498
     44494     44497     44499     44494     44497     44500     44495     44494     44496
     44495     44494     44497     44496     44494     44497     44497     44500     44501
     44497     44500     44502     44497     44500     44503     44498     44497     44499
     44498     44497     44500     44499     44497     44500     44500     44503     44504
     44500     44503     44505     44500     44503     44506     44501     44500     44502
     44501     44500     44503     44502     44500     44503     44503     44506     44507
     44503     44506     44508     44503     44506     44509     44504     44503     44505
     44504     44503     44506     44505     44503     44506     44506     44509     44510
     44506     44509     44511     44506     44509     44512     44507     44506     44508
     44507     44506     44509     44508     44506     44509     44509     44512     44513
     44509     44512     44514     44509     44512     44517     44510     44509     44511
     44510     44509     44512     44511     44509     44512     44512     44514     44515
     44512     44514     44516     44512     44514     44517     44512     44517     44514
     44512     44517     44518     44512     44517     44519     44513     44512     44514
     44513     44512     44517     44514     44512     44517     44514     44517     44518
     44514     44517     44519     44515     44514     44516     44515     44514     44517
     44516     44514     44517     44517     44519     44520     44517     44519     44521
     44517     44519     44522     44518     44517     44519     44519     44522     44523
     44519     44522     44524     44519     44522     44525     44520     44519     44521
     44520     44519     44522     44521     44519     44522     44522     44525     44526
     44522     44525     44527     44522     44525     44528     44523     44522     44524
     44523     44522     44525     44524     44522     44525     44525     44528     44529
     44525     44528     44530     44525     44528     44531     44526     44525     44527
     44526     44525     44528     44527     44525     44528     44528     44531     44532
     44528     44531     44533     44528     44531     44534     44529     44528     44530
     44529     44528     44531     44530     44528     44531     44531     44534     44535
     44531     44534     44536     44531     44534     44537     44532     44531     44533
     44532     44531     44534     44533     44531     44534     44535     44534     44536
     44535     44534     44537     44536     44534     44537     44538     44541     44542
     44538     44541     44543     44538     44541     44544     44539     44538     44540
     44539     44538     44541     44540     44538     44541     44541     44544     44545
     44541     44544     44546     44541     44544     44547     44542     44541     44543
     44542     44541     44544     44543     44541     44544     44544     44547     44548
     44544     44547     44549     44544     44547     44550     44545     44544     44546
     44545     44544     44547     44546     44544     44547     44547     44550     44551
     44547     44550     44552     44547     44550     44553     44548     44547     44549
     44548     44547     44550     44549     44547     44550     44550     44553     44554
     44550     44553     44555     44550     44553     44556     44551     44550     44552
     44551     44550     44553     44552     44550     44553     44553     44556     44557
     44553     44556     44558     44553     44556     44559     44554     44553     44555
     44554     44553     44556     44555     44553     44556     44556     44559     44560
     44556     44559     44561     44556     44559     44562     44557     44556     44558
     44557     44556     44559     44558     44556     44559     44559     44562     44563
     44559     44562     44564     44559     44562     44565     44560     44559     44561
     44560     44559     44562     44561     44559     44562     44562     44565     44566
     44562     44565     44567     44562     44565     44568     44563     44562     44564
     44563     44562     44565     44564     44562     44565     44565     44568     44569
     44565     44568     44570     44565     44568     44571     44566     44565     44567
     44566     44565     44568     44567     44565     44568     44568     44571     44572
     44568     44571     44573     44568     44571     44574     44569     44568     44570
     44569     44568     44571     44570     44568     44571     44571     44574     44575
     44571     44574     44576     44571     44574     44577     44572     44571     44573
     44572     44571     44574     44573     44571     44574     44574     44577     44578
     44574     44577     44579     44574     44577     44580     44575     44574     44576
     44575     44574     44577     44576     44574     44577     44578     44577     44579
     44578     44577     44580     44579     44577     44580     44581     44585     44586
     44581     44585     44587     44581     44585     44588     44582     44581     44583
     44582     44581     44584     44582     44581     44585     44583     44581     44584
     44583     44581     44585     44584     44581     44585     44585     44588     44589
     44585     44588     44590     44585     44588     44595     44586     44585     44587
     44586     44585     44588     44587     44585     44588     44588     44595     44591
     44589     44588     44590     44589     44588     44595     44590     44588     44595
     44591     44594     44596     44592     44591     44593     44592     44591     44594
     44592     44591     44595     44593     44591     44594     44593     44591     44595
     44594     44591     44595     44594     44596     44597     44594     44596     44598
     44594     44596     44599     44596     44599     44600     44596     44599     44601
     44596     44599     44607     44597     44596     44598     44597     44596     44599
     44598     44596     44599     44599     44601     44602     44599     44607     44608
     44599     44607     44609     44599     44607     44610     44600     44599     44601
     44600     44599     44607     44601     44599     44607     44601     44602     44603
     44601     44602     44604     44602     44604     44605     44602     44604     44606
     44602     44604     44616     44603     44602     44604     44604     44616     44617
     44604     44616     44618     44604     44616     44619     44605     44604     44606
     44605     44604     44616     44606     44604     44616     44607     44610     44611
     44608     44607     44609     44608     44607     44610     44609     44607     44610
     44610     44611     44612     44610     44611     44613     44611     44613     44614
     44611     44613     44615     44611     44613     44660     44612     44611     44613
     44613     44660     44661     44613     44660     44662     44613     44660     44663
     44614     44613     44615     44614     44613     44660     44615     44613     44660
     44616     44619     44620     44616     44619     44621     44616     44619     44622
     44617     44616     44618     44617     44616     44619     44618     44616     44619
     44619     44622     44623     44619     44622     44624     44619     44622     44625
     44620     44619     44621     44620     44619     44622     44621     44619     44622
     44622     44625     44626     44622     44625     44627     44622     44625     44628
     44623     44622     44624     44623     44622     44625     44624     44622     44625
     44625     44628     44629     44625     44628     44630     44625     44628     44631
     44626     44625     44627     44626     44625     44628     44627     44625     44628
     44628     44631     44632     44628     44631     44633     44628     44631     44634
     44629     44628     44630     44629     44628     44631     44630     44628     44631
     44631     44634     44635     44631     44634     44636     44631     44634     44639
     44632     44631     44633     44632     44631     44634     44633     44631     44634
     44634     44636     44637     44634     44636     44638     44634     44636     44639
     44634     44639     44636     44634     44639     44640     44634     44639     44641
     44635     44634     44636     44635     44634     44639     44636     44634     44639
     44636     44639     44640     44636     44639     44641     44637     44636     44638
     44637     44636     44639     44638     44636     44639     44639     44641     44642
     44639     44641     44643     44639     44641     44644     44640     44639     44641
     44641     44644     44645     44641     44644     44646     44641     44644     44647
     44642     44641     44643     44642     44641     44644     44643     44641     44644
     44644     44647     44648     44644     44647     44649     44644     44647     44650
     44645     44644     44646     44645     44644     44647     44646     44644     44647
     44647     44650     44651     44647     44650     44652     44647     44650     44653
     44648     44647     44649     44648     44647     44650     44649     44647     44650
     44650     44653     44654     44650     44653     44655     44650     44653     44656
     44651     44650     44652     44651     44650     44653     44652     44650     44653
     44653     44656     44657     44653     44656     44658     44653     44656     44659
     44654     44653     44655     44654     44653     44656     44655     44653     44656
     44657     44656     44658     44657     44656     44659     44658     44656     44659
     44660     44663     44664     44660     44663     44665     44660     44663     44666
     44661     44660     44662     44661     44660     44663     44662     44660     44663
     44663     44666     44667     44663     44666     44668     44663     44666     44669
     44664     44663     44665     44664     44663     44666     44665     44663     44666
     44666     44669     44670     44666     44669     44671     44666     44669     44672
     44667     44666     44668     44667     44666     44669     44668     44666     44669
     44669     44672     44673     44669     44672     44674     44669     44672     44675
     44670     44669     44671     44670     44669     44672     44671     44669     44672
     44672     44675     44676     44672     44675     44677     44672     44675     44678
     44673     44672     44674     44673     44672     44675     44674     44672     44675
     44675     44678     44679     44675     44678     44680     44675     44678     44681
     44676     44675     44677     44676     44675     44678     44677     44675     44678
     44678     44681     44682     44678     44681     44683     44678     44681     44684
     44679     44678     44680     44679     44678     44681     44680     44678     44681
     44681     44684     44685     44681     44684     44686     44681     44684     44687
     44682     44681     44683     44682     44681     44684     44683     44681     44684
     44684     44687     44688     44684     44687     44689     44684     44687     44690
     44685     44684     44686     44685     44684     44687     44686     44684     44687
     44687     44690     44691     44687     44690     44692     44687     44690     44693
     44688     44687     44689     44688     44687     44690     44689     44687     44690
     44690     44693     44694     44690     44693     44695     44690     44693     44696
     44691     44690     44692     44691     44690     44693     44692     44690     44693
     44693     44696     44697     44693     44696     44698     44693     44696     44699
     44694     44693     44695     44694     44693     44696     44695     44693     44696
     44696     44699     44700     44696     44699     44701     44696     44699     44702
     44697     44696     44698     44697     44696     44699     44698     44696     44699
     44700     44699     44701     44700     44699     44702     44701     44699     44702
     44703     44706     44707     44703     44708     44709     44703     44708     44710
     44703     44708     44712     44704     44703     44705     44704     44703     44706
     44704     44703     44708     44705     44703     44706     44705     44703     44708
     44706     44703     44708     44708     44710     44711     44708     44712     44713
     44708     44712     44714     44708     44712     44719     44709     44708     44710
     44709     44708     44712     44710     44708     44712     44712     44719     44715
     44713     44712     44714     44713     44712     44719     44714     44712     44719
     44715     44718     44720     44716     44715     44717     44716     44715     44718
     44716     44715     44719     44717     44715     44718     44717     44715     44719
     44718     44715     44719     44718     44720     44721     44718     44720     44722
     44718     44720     44723     44720     44723     44724     44720     44723     44725
     44720     44723     44731     44721     44720     44722     44721     44720     44723
     44722     44720     44723     44723     44725     44726     44723     44731     44732
     44723     44731     44733     44723     44731     44734     44724     44723     44725
     44724     44723     44731     44725     44723     44731     44725     44726     44727
     44725     44726     44728     44726     44728     44729     44726     44728     44730
     44726     44728     44740     44727     44726     44728     44728     44740     44741
     44728     44740     44742     44728     44740     44743     44729     44728     44730
     44729     44728     44740     44730     44728     44740     44731     44734     44735
     44732     44731     44733     44732     44731     44734     44733     44731     44734
     44734     44735     44736     44734     44735     44737     44735     44737     44738
     44735     44737     44739     44735     44737     44781     44736     44735     44737
     44737     44781     44782     44737     44781     44783     44737     44781     44784
     44738     44737     44739     44738     44737     44781     44739     44737     44781
     44740     44743     44744     44740     44743     44745     44740     44743     44746
     44741     44740     44742     44741     44740     44743     44742     44740     44743
     44743     44746     44747     44743     44746     44748     44743     44746     44749
     44744     44743     44745     44744     44743     44746     44745     44743     44746
     44746     44749     44750     44746     44749     44751     44746     44749     44752
     44747     44746     44748     44747     44746     44749     44748     44746     44749
     44749     44752     44753     44749     44752     44754     44749     44752     44755
     44750     44749     44751     44750     44749     44752     44751     44749     44752
     44752     44755     44756     44752     44755     44757     44752     44755     44758
     44753     44752     44754     44753     44752     44755     44754     44752     44755
     44755     44758     44759     44755     44758     44760     44756     44755     44757
     44756     44755     44758     44757     44755     44758     44758     44760     44761
     44758     44760     44762     44759     44758     44760     44760     44762     44763
     44760     44762     44764     44760     44762     44765     44761     44760     44762
     44762     44765     44766     44762     44765     44767     44762     44765     44768
     44763     44762     44764     44763     44762     44765     44764     44762     44765
     44765     44768     44769     44765     44768     44770     44765     44768     44771
     44766     44765     44767     44766     44765     44768     44767     44765     44768
     44768     44771     44772     44768     44771     44773     44768     44771     44774
     44769     44768     44770     44769     44768     44771     44770     44768     44771
     44771     44774     44775     44771     44774     44776     44771     44774     44777
     44772     44771     44773     44772     44771     44774     44773     44771     44774
     44774     44777     44778     44774     44777     44779     44774     44777     44780
     44775     44774     44776     44775     44774     44777     44776     44774     44777
     44778     44777     44779     44778     44777     44780     44779     44777     44780
     44781     44784     44785     44781     44784     44786     44781     44784     44787
     44782     44781     44783     44782     44781     44784     44783     44781     44784
     44784     44787     44788     44784     44787     44789     44784     44787     44790
     44785     44784     44786     44785     44784     44787     44786     44784     44787
     44787     44790     44791     44787     44790     44792     44787     44790     44793
     44788     44787     44789     44788     44787     44790     44789     44787     44790
     44790     44793     44794     44790     44793     44795     44790     44793     44796
     44791     44790     44792     44791     44790     44793     44792     44790     44793
     44793     44796     44797     44793     44796     44798     44793     44796     44799
     44794     44793     44795     44794     44793     44796     44795     44793     44796
     44796     44799     44800     44796     44799     44801     44796     44799     44802
     44797     44796     44798     44797     44796     44799     44798     44796     44799
     44799     44802     44803     44799     44802     44804     44799     44802     44805
     44800     44799     44801     44800     44799     44802     44801     44799     44802
     44802     44805     44806     44802     44805     44807     44802     44805     44808
     44803     44802     44804     44803     44802     44805     44804     44802     44805
     44805     44808     44809     44805     44808     44810     44805     44808     44811
     44806     44805     44807     44806     44805     44808     44807     44805     44808
     44808     44811     44812     44808     44811     44813     44808     44811     44814
     44809     44808     44810     44809     44808     44811     44810     44808     44811
     44811     44814     44815     44811     44814     44816     44811     44814     44817
     44812     44811     44813     44812     44811     44814     44813     44811     44814
     44814     44817     44818     44814     44817     44819     44814     44817     44820
     44815     44814     44816     44815     44814     44817     44816     44814     44817
     44817     44820     44821     44817     44820     44822     44817     44820     44823
     44818     44817     44819     44818     44817     44820     44819     44817     44820
     44821     44820     44822     44821     44820     44823     44822     44820     44823
     44824     44828     44829     44824     44828     44830     44824     44828     44831
     44825     44824     44826     44825     44824     44827     44825     44824     44828
     44826     44824     44827     44826     44824     44828     44827     44824     44828
     44828     44831     44832     44828     44831     44833     44828     44831     44838
     44829     44828     44830     44829     44828     44831     44830     44828     44831
     44831     44838     44834     44832     44831     44833     44832     44831     44838
     44833     44831     44838     44834     44837     44839     44835     44834     44836
     44835     44834     44837     44835     44834     44838     44836     44834     44837
     44836     44834     44838     44837     44834     44838     44837     44839     44840
     44837     44839     44841     44837     44839     44842     44839     44842     44843
     44839     44842     44844     44839     44842     44850     44840     44839     44841
     44840     44839     44842     44841     44839     44842     44842     44844     44845
     44842     44850     44851     44842     44850     44852     44842     44850     44853
     44843     44842     44844     44843     44842     44850     44844     44842     44850
     44844     44845     44846     44844     44845     44847     44845     44847     44848
     44845     44847     44849     44845     44847     44859     44846     44845     44847
     44847     44859     44860     44847     44859     44861     44847     44859     44862
     44848     44847     44849     44848     44847     44859     44849     44847     44859
     44850     44853     44854     44851     44850     44852     44851     44850     44853
     44852     44850     44853     44853     44854     44855     44853     44854     44856
     44854     44856     44857     44854     44856     44858     44854     44856     44903
     44855     44854     44856     44856     44903     44904     44856     44903     44905
     44856     44903     44906     44857     44856     44858     44857     44856     44903
     44858     44856     44903     44859     44862     44863     44859     44862     44864
     44859     44862     44865     44860     44859     44861     44860     44859     44862
     44861     44859     44862     44862     44865     44866     44862     44865     44867
     44862     44865     44868     44863     44862     44864     44863     44862     44865
     44864     44862     44865     44865     44868     44869     44865     44868     44870
     44865     44868     44871     44866     44865     44867     44866     44865     44868
     44867     44865     44868     44868     44871     44872     44868     44871     44873
     44868     44871     44874     44869     44868     44870     44869     44868     44871
     44870     44868     44871     44871     44874     44875     44871     44874     44876
     44871     44874     44877     44872     44871     44873     44872     44871     44874
     44873     44871     44874     44874     44877     44878     44874     44877     44879
     44874     44877     44882     44875     44874     44876     44875     44874     44877
     44876     44874     44877     44877     44879     44880     44877     44879     44881
     44877     44879     44882     44877     44882     44879     44877     44882     44883
     44877     44882     44884     44878     44877     44879     44878     44877     44882
     44879     44877     44882     44879     44882     44883     44879     44882     44884
     44880     44879     44881     44880     44879     44882     44881     44879     44882
     44882     44884     44885     44882     44884     44886     44882     44884     44887
     44883     44882     44884     44884     44887     44888     44884     44887     44889
     44884     44887     44890     44885     44884     44886     44885     44884     44887
     44886     44884     44887     44887     44890     44891     44887     44890     44892
     44887     44890     44893     44888     44887     44889     44888     44887     44890
     44889     44887     44890     44890     44893     44894     44890     44893     44895
     44890     44893     44896     44891     44890     44892     44891     44890     44893
     44892     44890     44893     44893     44896     44897     44893     44896     44898
     44893     44896     44899     44894     44893     44895     44894     44893     44896
     44895     44893     44896     44896     44899     44900     44896     44899     44901
     44896     44899     44902     44897     44896     44898     44897     44896     44899
     44898     44896     44899     44900     44899     44901     44900     44899     44902
     44901     44899     44902     44903     44906     44907     44903     44906     44908
     44903     44906     44909     44904     44903     44905     44904     44903     44906
     44905     44903     44906     44906     44909     44910     44906     44909     44911
     44906     44909     44912     44907     44906     44908     44907     44906     44909
     44908     44906     44909     44909     44912     44913     44909     44912     44914
     44909     44912     44915     44910     44909     44911     44910     44909     44912
     44911     44909     44912     44912     44915     44916     44912     44915     44917
     44912     44915     44918     44913     44912     44914     44913     44912     44915
     44914     44912     44915     44915     44918     44919     44915     44918     44920
     44915     44918     44921     44916     44915     44917     44916     44915     44918
     44917     44915     44918     44918     44921     44922     44918     44921     44923
     44918     44921     44924     44919     44918     44920     44919     44918     44921
     44920     44918     44921     44921     44924     44925     44921     44924     44926
     44921     44924     44927     44922     44921     44923     44922     44921     44924
     44923     44921     44924     44924     44927     44928     44924     44927     44929
     44924     44927     44930     44925     44924     44926     44925     44924     44927
     44926     44924     44927     44927     44930     44931     44927     44930     44932
     44927     44930     44933     44928     44927     44929     44928     44927     44930
     44929     44927     44930     44930     44933     44934     44930     44933     44935
     44930     44933     44936     44931     44930     44932     44931     44930     44933
     44932     44930     44933     44933     44936     44937     44933     44936     44938
     44933     44936     44939     44934     44933     44935     44934     44933     44936
     44935     44933     44936     44936     44939     44940     44936     44939     44941
     44936     44939     44942     44937     44936     44938     44937     44936     44939
     44938     44936     44939     44939     44942     44943     44939     44942     44944
     44939     44942     44945     44940     44939     44941     44940     44939     44942
     44941     44939     44942     44943     44942     44944     44943     44942     44945
     44944     44942     44945     44946     44950     44951     44946     44950     44952
     44946     44950     44953     44947     44946     44948     44947     44946     44949
     44947     44946     44950     44948     44946     44949     44948     44946     44950
     44949     44946     44950     44950     44953     44954     44950     44953     44955
     44950     44953     44960     44951     44950     44952     44951     44950     44953
     44952     44950     44953     44953     44960     44956     44954     44953     44955
     44954     44953     44960     44955     44953     44960     44956     44959     44961
     44957     44956     44958     44957     44956     44959     44957     44956     44960
     44958     44956     44959     44958     44956     44960     44959     44956     44960
     44959     44961     44962     44959     44961     44963     44959     44961     44964
     44961     44964     44965     44961     44964     44966     44961     44964     44972
     44962     44961     44963     44962     44961     44964     44963     44961     44964
     44964     44966     44967     44964     44972     44973     44964     44972     44974
     44964     44972     44975     44965     44964     44966     44965     44964     44972
     44966     44964     44972     44966     44967     44968     44966     44967     44969
     44967     44969     44970     44967     44969     44971     44967     44969     44981
     44968     44967     44969     44969     44981     44982     44969     44981     44983
     44969     44981     44984     44970     44969     44971     44970     44969     44981
     44971     44969     44981     44972     44975     44976     44973     44972     44974
     44973     44972     44975     44974     44972     44975     44975     44976     44977
     44975     44976     44978     44976     44978     44979     44976     44978     44980
     44976     44978     45025     44977     44976     44978     44978     45025     45026
     44978     45025     45027     44978     45025     45028     44979     44978     44980
     44979     44978     45025     44980     44978     45025     44981     44984     44985
     44981     44984     44986     44981     44984     44987     44982     44981     44983
     44982     44981     44984     44983     44981     44984     44984     44987     44988
     44984     44987     44989     44984     44987     44990     44985     44984     44986
     44985     44984     44987     44986     44984     44987     44987     44990     44991
     44987     44990     44992     44987     44990     44993     44988     44987     44989
     44988     44987     44990     44989     44987     44990     44990     44993     44994
     44990     44993     44995     44990     44993     44996     44991     44990     44992
     44991     44990     44993     44992     44990     44993     44993     44996     44997
     44993     44996     44998     44993     44996     44999     44994     44993     44995
     44994     44993     44996     44995     44993     44996     44996     44999     45000
     44996     44999     45001     44996     44999     45004     44997     44996     44998
     44997     44996     44999     44998     44996     44999     44999     45001     45002
     44999     45001     45003     44999     45001     45004     44999     45004     45001
     44999     45004     45005     44999     45004     45006     45000     44999     45001
     45000     44999     45004     45001     44999     45004     45001     45004     45005
     45001     45004     45006     45002     45001     45003     45002     45001     45004
     45003     45001     45004     45004     45006     45007     45004     45006     45008
     45004     45006     45009     45005     45004     45006     45006     45009     45010
     45006     45009     45011     45006     45009     45012     45007     45006     45008
     45007     45006     45009     45008     45006     45009     45009     45012     45013
     45009     45012     45014     45009     45012     45015     45010     45009     45011
     45010     45009     45012     45011     45009     45012     45012     45015     45016
     45012     45015     45017     45012     45015     45018     45013     45012     45014
     45013     45012     45015     45014     45012     45015     45015     45018     45019
     45015     45018     45020     45015     45018     45021     45016     45015     45017
     45016     45015     45018     45017     45015     45018     45018     45021     45022
     45018     45021     45023     45018     45021     45024     45019     45018     45020
     45019     45018     45021     45020     45018     45021     45022     45021     45023
     45022     45021     45024     45023     45021     45024     45025     45028     45029
     45025     45028     45030     45025     45028     45031     45026     45025     45027
     45026     45025     45028     45027     45025     45028     45028     45031     45032
     45028     45031     45033     45028     45031     45034     45029     45028     45030
     45029     45028     45031     45030     45028     45031     45031     45034     45035
     45031     45034     45036     45031     45034     45037     45032     45031     45033
     45032     45031     45034     45033     45031     45034     45034     45037     45038
     45034     45037     45039     45034     45037     45040     45035     45034     45036
     45035     45034     45037     45036     45034     45037     45037     45040     45041
     45037     45040     45042     45037     45040     45043     45038     45037     45039
     45038     45037     45040     45039     45037     45040     45040     45043     45044
     45040     45043     45045     45040     45043     45046     45041     45040     45042
     45041     45040     45043     45042     45040     45043     45043     45046     45047
     45043     45046     45048     45043     45046     45049     45044     45043     45045
     45044     45043     45046     45045     45043     45046     45046     45049     45050
     45046     45049     45051     45046     45049     45052     45047     45046     45048
     45047     45046     45049     45048     45046     45049     45049     45052     45053
     45049     45052     45054     45049     45052     45055     45050     45049     45051
     45050     45049     45052     45051     45049     45052     45052     45055     45056
     45052     45055     45057     45052     45055     45058     45053     45052     45054
     45053     45052     45055     45054     45052     45055     45055     45058     45059
     45055     45058     45060     45055     45058     45061     45056     45055     45057
     45056     45055     45058     45057     45055     45058     45058     45061     45062
     45058     45061     45063     45058     45061     45064     45059     45058     45060
     45059     45058     45061     45060     45058     45061     45061     45064     45065
     45061     45064     45066     45061     45064     45067     45062     45061     45063
     45062     45061     45064     45063     45061     45064     45065     45064     45066
     45065     45064     45067     45066     45064     45067     45068     45072     45073
     45068     45072     45074     45068     45072     45075     45069     45068     45070
     45069     45068     45071     45069     45068     45072     45070     45068     45071
     45070     45068     45072     45071     45068     45072     45072     45075     45076
     45072     45075     45077     45072     45075     45082     45073     45072     45074
     45073     45072     45075     45074     45072     45075     45075     45082     45078
     45076     45075     45077     45076     45075     45082     45077     45075     45082
     45078     45081     45083     45079     45078     45080     45079     45078     45081
     45079     45078     45082     45080     45078     45081     45080     45078     45082
     45081     45078     45082     45081     45083     45084     45081     45083     45085
     45081     45083     45086     45083     45086     45087     45083     45086     45088
     45083     45086     45094     45084     45083     45085     45084     45083     45086
     45085     45083     45086     45086     45088     45089     45086     45094     45095
     45086     45094     45096     45086     45094     45097     45087     45086     45088
     45087     45086     45094     45088     45086     45094     45088     45089     45090
     45088     45089     45091     45089     45091     45092     45089     45091     45093
     45089     45091     45103     45090     45089     45091     45091     45103     45104
     45091     45103     45105     45091     45103     45106     45092     45091     45093
     45092     45091     45103     45093     45091     45103     45094     45097     45098
     45095     45094     45096     45095     45094     45097     45096     45094     45097
     45097     45098     45099     45097     45098     45100     45098     45100     45101
     45098     45100     45102     45098     45100     45147     45099     45098     45100
     45100     45147     45148     45100     45147     45149     45100     45147     45150
     45101     45100     45102     45101     45100     45147     45102     45100     45147
     45103     45106     45107     45103     45106     45108     45103     45106     45109
     45104     45103     45105     45104     45103     45106     45105     45103     45106
     45106     45109     45110     45106     45109     45111     45106     45109     45112
     45107     45106     45108     45107     45106     45109     45108     45106     45109
     45109     45112     45113     45109     45112     45114     45109     45112     45115
     45110     45109     45111     45110     45109     45112     45111     45109     45112
     45112     45115     45116     45112     45115     45117     45112     45115     45118
     45113     45112     45114     45113     45112     45115     45114     45112     45115
     45115     45118     45119     45115     45118     45120     45115     45118     45121
     45116     45115     45117     45116     45115     45118     45117     45115     45118
     45118     45121     45122     45118     45121     45123     45118     45121     45126
     45119     45118     45120     45119     45118     45121     45120     45118     45121
     45121     45123     45124     45121     45123     45125     45121     45123     45126
     45121     45126     45123     45121     45126     45127     45121     45126     45128
     45122     45121     45123     45122     45121     45126     45123     45121     45126
     45123     45126     45127     45123     45126     45128     45124     45123     45125
     45124     45123     45126     45125     45123     45126     45126     45128     45129
     45126     45128     45130     45126     45128     45131     45127     45126     45128
     45128     45131     45132     45128     45131     45133     45128     45131     45134
     45129     45128     45130     45129     45128     45131     45130     45128     45131
     45131     45134     45135     45131     45134     45136     45131     45134     45137
     45132     45131     45133     45132     45131     45134     45133     45131     45134
     45134     45137     45138     45134     45137     45139     45134     45137     45140
     45135     45134     45136     45135     45134     45137     45136     45134     45137
     45137     45140     45141     45137     45140     45142     45137     45140     45143
     45138     45137     45139     45138     45137     45140     45139     45137     45140
     45140     45143     45144     45140     45143     45145     45140     45143     45146
     45141     45140     45142     45141     45140     45143     45142     45140     45143
     45144     45143     45145     45144     45143     45146     45145     45143     45146
     45147     45150     45151     45147     45150     45152     45147     45150     45153
     45148     45147     45149     45148     45147     45150     45149     45147     45150
     45150     45153     45154     45150     45153     45155     45150     45153     45156
     45151     45150     45152     45151     45150     45153     45152     45150     45153
     45153     45156     45157     45153     45156     45158     45153     45156     45159
     45154     45153     45155     45154     45153     45156     45155     45153     45156
     45156     45159     45160     45156     45159     45161     45156     45159     45162
     45157     45156     45158     45157     45156     45159     45158     45156     45159
     45159     45162     45163     45159     45162     45164     45159     45162     45165
     45160     45159     45161     45160     45159     45162     45161     45159     45162
     45162     45165     45166     45162     45165     45167     45162     45165     45168
     45163     45162     45164     45163     45162     45165     45164     45162     45165
     45165     45168     45169     45165     45168     45170     45165     45168     45171
     45166     45165     45167     45166     45165     45168     45167     45165     45168
     45168     45171     45172     45168     45171     45173     45168     45171     45174
     45169     45168     45170     45169     45168     45171     45170     45168     45171
     45171     45174     45175     45171     45174     45176     45171     45174     45177
     45172     45171     45173     45172     45171     45174     45173     45171     45174
     45174     45177     45178     45174     45177     45179     45174     45177     45180
     45175     45174     45176     45175     45174     45177     45176     45174     45177
     45177     45180     45181     45177     45180     45182     45177     45180     45183
     45178     45177     45179     45178     45177     45180     45179     45177     45180
     45180     45183     45184     45180     45183     45185     45180     45183     45186
     45181     45180     45182     45181     45180     45183     45182     45180     45183
     45183     45186     45187     45183     45186     45188     45183     45186     45189
     45184     45183     45185     45184     45183     45186     45185     45183     45186
     45187     45186     45188     45187     45186     45189     45188     45186     45189
     45190     45194     45195     45190     45194     45196     45190     45194     45197
     45191     45190     45192     45191     45190     45193     45191     45190     45194
     45192     45190     45193     45192     45190     45194     45193     45190     45194
     45194     45197     45198     45194     45197     45199     45194     45197     45204
     45195     45194     45196     45195     45194     45197     45196     45194     45197
     45197     45204     45200     45198     45197     45199     45198     45197     45204
     45199     45197     45204     45200     45203     45205     45201     45200     45202
     45201     45200     45203     45201     45200     45204     45202     45200     45203
     45202     45200     45204     45203     45200     45204     45203     45205     45206
     45203     45205     45207     45203     45205     45208     45205     45208     45209
     45205     45208     45210     45205     45208     45216     45206     45205     45207
     45206     45205     45208     45207     45205     45208     45208     45210     45211
     45208     45216     45217     45208     45216     45218     45208     45216     45219
     45209     45208     45210     45209     45208     45216     45210     45208     45216
     45210     45211     45212     45210     45211     45213     45211     45213     45214
     45211     45213     45215     45211     45213     45225     45212     45211     45213
     45213     45225     45226     45213     45225     45227     45213     45225     45228
     45214     45213     45215     45214     45213     45225     45215     45213     45225
     45216     45219     45220     45217     45216     45218     45217     45216     45219
     45218     45216     45219     45219     45220     45221     45219     45220     45222
     45220     45222     45223     45220     45222     45224     45220     45222     45269
     45221     45220     45222     45222     45269     45270     45222     45269     45271
     45222     45269     45272     45223     45222     45224     45223     45222     45269
     45224     45222     45269     45225     45228     45229     45225     45228     45230
     45225     45228     45231     45226     45225     45227     45226     45225     45228
     45227     45225     45228     45228     45231     45232     45228     45231     45233
     45228     45231     45234     45229     45228     45230     45229     45228     45231
     45230     45228     45231     45231     45234     45235     45231     45234     45236
     45231     45234     45237     45232     45231     45233     45232     45231     45234
     45233     45231     45234     45234     45237     45238     45234     45237     45239
     45234     45237     45240     45235     45234     45236     45235     45234     45237
     45236     45234     45237     45237     45240     45241     45237     45240     45242
     45237     45240     45243     45238     45237     45239     45238     45237     45240
     45239     45237     45240     45240     45243     45244     45240     45243     45245
     45240     45243     45248     45241     45240     45242     45241     45240     45243
     45242     45240     45243     45243     45245     45246     45243     45245     45247
     45243     45245     45248     45243     45248     45245     45243     45248     45249
     45243     45248     45250     45244     45243     45245     45244     45243     45248
     45245     45243     45248     45245     45248     45249     45245     45248     45250
     45246     45245     45247     45246     45245     45248     45247     45245     45248
     45248     45250     45251     45248     45250     45252     45248     45250     45253
     45249     45248     45250     45250     45253     45254     45250     45253     45255
     45250     45253     45256     45251     45250     45252     45251     45250     45253
     45252     45250     45253     45253     45256     45257     45253     45256     45258
     45253     45256     45259     45254     45253     45255     45254     45253     45256
     45255     45253     45256     45256     45259     45260     45256     45259     45261
     45256     45259     45262     45257     45256     45258     45257     45256     45259
     45258     45256     45259     45259     45262     45263     45259     45262     45264
     45259     45262     45265     45260     45259     45261     45260     45259     45262
     45261     45259     45262     45262     45265     45266     45262     45265     45267
     45262     45265     45268     45263     45262     45264     45263     45262     45265
     45264     45262     45265     45266     45265     45267     45266     45265     45268
     45267     45265     45268     45269     45272     45273     45269     45272     45274
     45269     45272     45275     45270     45269     45271     45270     45269     45272
     45271     45269     45272     45272     45275     45276     45272     45275     45277
     45272     45275     45278     45273     45272     45274     45273     45272     45275
     45274     45272     45275     45275     45278     45279     45275     45278     45280
     45275     45278     45281     45276     45275     45277     45276     45275     45278
     45277     45275     45278     45278     45281     45282     45278     45281     45283
     45278     45281     45284     45279     45278     45280     45279     45278     45281
     45280     45278     45281     45281     45284     45285     45281     45284     45286
     45281     45284     45287     45282     45281     45283     45282     45281     45284
     45283     45281     45284     45284     45287     45288     45284     45287     45289
     45284     45287     45290     45285     45284     45286     45285     45284     45287
     45286     45284     45287     45287     45290     45291     45287     45290     45292
     45287     45290     45293     45288     45287     45289     45288     45287     45290
     45289     45287     45290     45290     45293     45294     45290     45293     45295
     45290     45293     45296     45291     45290     45292     45291     45290     45293
     45292     45290     45293     45293     45296     45297     45293     45296     45298
     45293     45296     45299     45294     45293     45295     45294     45293     45296
     45295     45293     45296     45296     45299     45300     45296     45299     45301
     45296     45299     45302     45297     45296     45298     45297     45296     45299
     45298     45296     45299     45299     45302     45303     45299     45302     45304
     45299     45302     45305     45300     45299     45301     45300     45299     45302
     45301     45299     45302     45302     45305     45306     45302     45305     45307
     45302     45305     45308     45303     45302     45304     45303     45302     45305
     45304     45302     45305     45305     45308     45309     45305     45308     45310
     45305     45308     45311     45306     45305     45307     45306     45305     45308
     45307     45305     45308     45309     45308     45310     45309     45308     45311
     45310     45308     45311     45312     45316     45317     45312     45316     45318
     45312     45316     45319     45313     45312     45314     45313     45312     45315
     45313     45312     45316     45314     45312     45315     45314     45312     45316
     45315     45312     45316     45316     45319     45320     45316     45319     45321
     45316     45319     45326     45317     45316     45318     45317     45316     45319
     45318     45316     45319     45319     45326     45322     45320     45319     45321
     45320     45319     45326     45321     45319     45326     45322     45325     45327
     45323     45322     45324     45323     45322     45325     45323     45322     45326
     45324     45322     45325     45324     45322     45326     45325     45322     45326
     45325     45327     45328     45325     45327     45329     45325     45327     45330
     45327     45330     45331     45327     45330     45332     45327     45330     45338
     45328     45327     45329     45328     45327     45330     45329     45327     45330
     45330     45332     45333     45330     45338     45339     45330     45338     45340
     45330     45338     45341     45331     45330     45332     45331     45330     45338
     45332     45330     45338     45332     45333     45334     45332     45333     45335
     45333     45335     45336     45333     45335     45337     45333     45335     45347
     45334     45333     45335     45335     45347     45348     45335     45347     45349
     45335     45347     45350     45336     45335     45337     45336     45335     45347
     45337     45335     45347     45338     45341     45342     45339     45338     45340
     45339     45338     45341     45340     45338     45341     45341     45342     45343
     45341     45342     45344     45342     45344     45345     45342     45344     45346
     45342     45344     45394     45343     45342     45344     45344     45394     45395
     45344     45394     45396     45344     45394     45397     45345     45344     45346
     45345     45344     45394     45346     45344     45394     45347     45350     45351
     45347     45350     45352     45347     45350     45353     45348     45347     45349
     45348     45347     45350     45349     45347     45350     45350     45353     45354
     45350     45353     45355     45350     45353     45356     45351     45350     45352
     45351     45350     45353     45352     45350     45353     45353     45356     45357
     45353     45356     45358     45353     45356     45359     45354     45353     45355
     45354     45353     45356     45355     45353     45356     45356     45359     45360
     45356     45359     45361     45356     45359     45362     45357     45356     45358
     45357     45356     45359     45358     45356     45359     45359     45362     45363
     45359     45362     45364     45359     45362     45365     45360     45359     45361
     45360     45359     45362     45361     45359     45362     45362     45365     45366
     45362     45365     45367     45363     45362     45364     45363     45362     45365
     45364     45362     45365     45365     45367     45368     45365     45367     45369
     45366     45365     45367     45367     45369     45370     45367     45369     45371
     45367     45369     45372     45368     45367     45369     45369     45372     45373
     45369     45372     45374     45369     45372     45375     45370     45369     45371
     45370     45369     45372     45371     45369     45372     45372     45375     45376
     45372     45375     45377     45372     45375     45378     45373     45372     45374
     45373     45372     45375     45374     45372     45375     45375     45378     45379
     45375     45378     45380     45375     45378     45381     45376     45375     45377
     45376     45375     45378     45377     45375     45378     45378     45381     45382
     45378     45381     45383     45378     45381     45384     45379     45378     45380
     45379     45378     45381     45380     45378     45381     45381     45384     45385
     45381     45384     45386     45381     45384     45387     45382     45381     45383
     45382     45381     45384     45383     45381     45384     45384     45387     45388
     45384     45387     45389     45384     45387     45390     45385     45384     45386
     45385     45384     45387     45386     45384     45387     45387     45390     45391
     45387     45390     45392     45387     45390     45393     45388     45387     45389
     45388     45387     45390     45389     45387     45390     45391     45390     45392
     45391     45390     45393     45392     45390     45393     45394     45397     45398
     45394     45397     45399     45394     45397     45400     45395     45394     45396
     45395     45394     45397     45396     45394     45397     45397     45400     45401
     45397     45400     45402     45397     45400     45403     45398     45397     45399
     45398     45397     45400     45399     45397     45400     45400     45403     45404
     45400     45403     45405     45400     45403     45406     45401     45400     45402
     45401     45400     45403     45402     45400     45403     45403     45406     45407
     45403     45406     45408     45403     45406     45409     45404     45403     45405
     45404     45403     45406     45405     45403     45406     45406     45409     45410
     45406     45409     45411     45406     45409     45412     45407     45406     45408
     45407     45406     45409     45408     45406     45409     45409     45412     45413
     45409     45412     45414     45409     45412     45415     45410     45409     45411
     45410     45409     45412     45411     45409     45412     45412     45415     45416
     45412     45415     45417     45412     45415     45418     45413     45412     45414
     45413     45412     45415     45414     45412     45415     45415     45418     45419
     45415     45418     45420     45415     45418     45421     45416     45415     45417
     45416     45415     45418     45417     45415     45418     45418     45421     45422
     45418     45421     45423     45418     45421     45424     45419     45418     45420
     45419     45418     45421     45420     45418     45421     45421     45424     45425
     45421     45424     45426     45421     45424     45427     45422     45421     45423
     45422     45421     45424     45423     45421     45424     45424     45427     45428
     45424     45427     45429     45424     45427     45430     45425     45424     45426
     45425     45424     45427     45426     45424     45427     45427     45430     45431
     45427     45430     45432     45427     45430     45433     45428     45427     45429
     45428     45427     45430     45429     45427     45430     45430     45433     45434
     45430     45433     45435     45430     45433     45436     45431     45430     45432
     45431     45430     45433     45432     45430     45433     45434     45433     45435
     45434     45433     45436     45435     45433     45436     45437     45441     45442
     45437     45441     45443     45437     45441     45444     45438     45437     45439
     45438     45437     45440     45438     45437     45441     45439     45437     45440
     45439     45437     45441     45440     45437     45441     45441     45444     45445
     45441     45444     45446     45441     45444     45451     45442     45441     45443
     45442     45441     45444     45443     45441     45444     45444     45451     45447
     45445     45444     45446     45445     45444     45451     45446     45444     45451
     45447     45450     45452     45448     45447     45449     45448     45447     45450
     45448     45447     45451     45449     45447     45450     45449     45447     45451
     45450     45447     45451     45450     45452     45453     45450     45452     45454
     45450     45452     45455     45452     45455     45456     45452     45455     45457
     45452     45455     45463     45453     45452     45454     45453     45452     45455
     45454     45452     45455     45455     45457     45458     45455     45463     45464
     45455     45463     45465     45455     45463     45466     45456     45455     45457
     45456     45455     45463     45457     45455     45463     45457     45458     45459
     45457     45458     45460     45458     45460     45461     45458     45460     45462
     45458     45460     45472     45459     45458     45460     45460     45472     45473
     45460     45472     45474     45460     45472     45475     45461     45460     45462
     45461     45460     45472     45462     45460     45472     45463     45466     45467
     45464     45463     45465     45464     45463     45466     45465     45463     45466
     45466     45467     45468     45466     45467     45469     45467     45469     45470
     45467     45469     45471     45467     45469     45516     45468     45467     45469
     45469     45516     45517     45469     45516     45518     45469     45516     45519
     45470     45469     45471     45470     45469     45516     45471     45469     45516
     45472     45475     45476     45472     45475     45477     45472     45475     45478
     45473     45472     45474     45473     45472     45475     45474     45472     45475
     45475     45478     45479     45475     45478     45480     45475     45478     45481
     45476     45475     45477     45476     45475     45478     45477     45475     45478
     45478     45481     45482     45478     45481     45483     45478     45481     45484
     45479     45478     45480     45479     45478     45481     45480     45478     45481
     45481     45484     45485     45481     45484     45486     45481     45484     45487
     45482     45481     45483     45482     45481     45484     45483     45481     45484
     45484     45487     45488     45484     45487     45489     45484     45487     45490
     45485     45484     45486     45485     45484     45487     45486     45484     45487
     45487     45490     45491     45487     45490     45492     45487     45490     45495
     45488     45487     45489     45488     45487     45490     45489     45487     45490
     45490     45492     45493     45490     45492     45494     45490     45492     45495
     45490     45495     45492     45490     45495     45496     45490     45495     45497
     45491     45490     45492     45491     45490     45495     45492     45490     45495
     45492     45495     45496     45492     45495     45497     45493     45492     45494
     45493     45492     45495     45494     45492     45495     45495     45497     45498
     45495     45497     45499     45495     45497     45500     45496     45495     45497
     45497     45500     45501     45497     45500     45502     45497     45500     45503
     45498     45497     45499     45498     45497     45500     45499     45497     45500
     45500     45503     45504     45500     45503     45505     45500     45503     45506
     45501     45500     45502     45501     45500     45503     45502     45500     45503
     45503     45506     45507     45503     45506     45508     45503     45506     45509
     45504     45503     45505     45504     45503     45506     45505     45503     45506
     45506     45509     45510     45506     45509     45511     45506     45509     45512
     45507     45506     45508     45507     45506     45509     45508     45506     45509
     45509     45512     45513     45509     45512     45514     45509     45512     45515
     45510     45509     45511     45510     45509     45512     45511     45509     45512
     45513     45512     45514     45513     45512     45515     45514     45512     45515
     45516     45519     45520     45516     45519     45521     45516     45519     45522
     45517     45516     45518     45517     45516     45519     45518     45516     45519
     45519     45522     45523     45519     45522     45524     45519     45522     45525
     45520     45519     45521     45520     45519     45522     45521     45519     45522
     45522     45525     45526     45522     45525     45527     45522     45525     45528
     45523     45522     45524     45523     45522     45525     45524     45522     45525
     45525     45528     45529     45525     45528     45530     45525     45528     45531
     45526     45525     45527     45526     45525     45528     45527     45525     45528
     45528     45531     45532     45528     45531     45533     45528     45531     45534
     45529     45528     45530     45529     45528     45531     45530     45528     45531
     45531     45534     45535     45531     45534     45536     45531     45534     45537
     45532     45531     45533     45532     45531     45534     45533     45531     45534
     45534     45537     45538     45534     45537     45539     45534     45537     45540
     45535     45534     45536     45535     45534     45537     45536     45534     45537
     45537     45540     45541     45537     45540     45542     45537     45540     45543
     45538     45537     45539     45538     45537     45540     45539     45537     45540
     45540     45543     45544     45540     45543     45545     45540     45543     45546
     45541     45540     45542     45541     45540     45543     45542     45540     45543
     45543     45546     45547     45543     45546     45548     45543     45546     45549
     45544     45543     45545     45544     45543     45546     45545     45543     45546
     45546     45549     45550     45546     45549     45551     45546     45549     45552
     45547     45546     45548     45547     45546     45549     45548     45546     45549
     45549     45552     45553     45549     45552     45554     45549     45552     45555
     45550     45549     45551     45550     45549     45552     45551     45549     45552
     45552     45555     45556     45552     45555     45557     45552     45555     45558
     45553     45552     45554     45553     45552     45555     45554     45552     45555
     45556     45555     45557     45556     45555     45558     45557     45555     45558
     45559     45563     45564     45559     45563     45565     45559     45563     45566
     45560     45559     45561     45560     45559     45562     45560     45559     45563
     45561     45559     45562     45561     45559     45563     45562     45559     45563
     45563     45566     45567     45563     45566     45568     45563     45566     45573
     45564     45563     45565     45564     45563     45566     45565     45563     45566
     45566     45573     45569     45567     45566     45568     45567     45566     45573
     45568     45566     45573     45569     45572     45574     45570     45569     45571
     45570     45569     45572     45570     45569     45573     45571     45569     45572
     45571     45569     45573     45572     45569     45573     45572     45574     45575
     45572     45574     45576     45572     45574     45577     45574     45577     45578
     45574     45577     45579     45574     45577     45585     45575     45574     45576
     45575     45574     45577     45576     45574     45577     45577     45579     45580
     45577     45585     45586     45577     45585     45587     45577     45585     45588
     45578     45577     45579     45578     45577     45585     45579     45577     45585
     45579     45580     45581     45579     45580     45582     45580     45582     45583
     45580     45582     45584     45580     45582     45594     45581     45580     45582
     45582     45594     45595     45582     45594     45596     45582     45594     45597
     45583     45582     45584     45583     45582     45594     45584     45582     45594
     45585     45588     45589     45586     45585     45587     45586     45585     45588
     45587     45585     45588     45588     45589     45590     45588     45589     45591
     45589     45591     45592     45589     45591     45593     45589     45591     45638
     45590     45589     45591     45591     45638     45639     45591     45638     45640
     45591     45638     45641     45592     45591     45593     45592     45591     45638
     45593     45591     45638     45594     45597     45598     45594     45597     45599
     45594     45597     45600     45595     45594     45596     45595     45594     45597
     45596     45594     45597     45597     45600     45601     45597     45600     45602
     45597     45600     45603     45598     45597     45599     45598     45597     45600
     45599     45597     45600     45600     45603     45604     45600     45603     45605
     45600     45603     45606     45601     45600     45602     45601     45600     45603
     45602     45600     45603     45603     45606     45607     45603     45606     45608
     45603     45606     45609     45604     45603     45605     45604     45603     45606
     45605     45603     45606     45606     45609     45610     45606     45609     45611
     45606     45609     45612     45607     45606     45608     45607     45606     45609
     45608     45606     45609     45609     45612     45613     45609     45612     45614
     45609     45612     45617     45610     45609     45611     45610     45609     45612
     45611     45609     45612     45612     45614     45615     45612     45614     45616
     45612     45614     45617     45612     45617     45614     45612     45617     45618
     45612     45617     45619     45613     45612     45614     45613     45612     45617
     45614     45612     45617     45614     45617     45618     45614     45617     45619
     45615     45614     45616     45615     45614     45617     45616     45614     45617
     45617     45619     45620     45617     45619     45621     45617     45619     45622
     45618     45617     45619     45619     45622     45623     45619     45622     45624
     45619     45622     45625     45620     45619     45621     45620     45619     45622
     45621     45619     45622     45622     45625     45626     45622     45625     45627
     45622     45625     45628     45623     45622     45624     45623     45622     45625
     45624     45622     45625     45625     45628     45629     45625     45628     45630
     45625     45628     45631     45626     45625     45627     45626     45625     45628
     45627     45625     45628     45628     45631     45632     45628     45631     45633
     45628     45631     45634     45629     45628     45630     45629     45628     45631
     45630     45628     45631     45631     45634     45635     45631     45634     45636
     45631     45634     45637     45632     45631     45633     45632     45631     45634
     45633     45631     45634     45635     45634     45636     45635     45634     45637
     45636     45634     45637     45638     45641     45642     45638     45641     45643
     45638     45641     45644     45639     45638     45640     45639     45638     45641
     45640     45638     45641     45641     45644     45645     45641     45644     45646
     45641     45644     45647     45642     45641     45643     45642     45641     45644
     45643     45641     45644     45644     45647     45648     45644     45647     45649
     45644     45647     45650     45645     45644     45646     45645     45644     45647
     45646     45644     45647     45647     45650     45651     45647     45650     45652
     45647     45650     45653     45648     45647     45649     45648     45647     45650
     45649     45647     45650     45650     45653     45654     45650     45653     45655
     45650     45653     45656     45651     45650     45652     45651     45650     45653
     45652     45650     45653     45653     45656     45657     45653     45656     45658
     45653     45656     45659     45654     45653     45655     45654     45653     45656
     45655     45653     45656     45656     45659     45660     45656     45659     45661
     45656     45659     45662     45657     45656     45658     45657     45656     45659
     45658     45656     45659     45659     45662     45663     45659     45662     45664
     45659     45662     45665     45660     45659     45661     45660     45659     45662
     45661     45659     45662     45662     45665     45666     45662     45665     45667
     45662     45665     45668     45663     45662     45664     45663     45662     45665
     45664     45662     45665     45665     45668     45669     45665     45668     45670
     45665     45668     45671     45666     45665     45667     45666     45665     45668
     45667     45665     45668     45668     45671     45672     45668     45671     45673
     45668     45671     45674     45669     45668     45670     45669     45668     45671
     45670     45668     45671     45671     45674     45675     45671     45674     45676
     45671     45674     45677     45672     45671     45673     45672     45671     45674
     45673     45671     45674     45674     45677     45678     45674     45677     45679
     45674     45677     45680     45675     45674     45676     45675     45674     45677
     45676     45674     45677     45678     45677     45679     45678     45677     45680
     45679     45677     45680     45681     45685     45686     45681     45685     45687
     45681     45685     45688     45682     45681     45683     45682     45681     45684
     45682     45681     45685     45683     45681     45684     45683     45681     45685
     45684     45681     45685     45685     45688     45689     45685     45688     45690
     45685     45688     45695     45686     45685     45687     45686     45685     45688
     45687     45685     45688     45688     45695     45691     45689     45688     45690
     45689     45688     45695     45690     45688     45695     45691     45694     45696
     45692     45691     45693     45692     45691     45694     45692     45691     45695
     45693     45691     45694     45693     45691     45695     45694     45691     45695
     45694     45696     45697     45694     45696     45698     45694     45696     45699
     45696     45699     45700     45696     45699     45701     45696     45699     45707
     45697     45696     45698     45697     45696     45699     45698     45696     45699
     45699     45701     45702     45699     45707     45708     45699     45707     45709
     45699     45707     45710     45700     45699     45701     45700     45699     45707
     45701     45699     45707     45701     45702     45703     45701     45702     45704
     45702     45704     45705     45702     45704     45706     45702     45704     45716
     45703     45702     45704     45704     45716     45717     45704     45716     45718
     45704     45716     45719     45705     45704     45706     45705     45704     45716
     45706     45704     45716     45707     45710     45711     45708     45707     45709
     45708     45707     45710     45709     45707     45710     45710     45711     45712
     45710     45711     45713     45711     45713     45714     45711     45713     45715
     45711     45713     45763     45712     45711     45713     45713     45763     45764
     45713     45763     45765     45713     45763     45766     45714     45713     45715
     45714     45713     45763     45715     45713     45763     45716     45719     45720
     45716     45719     45721     45716     45719     45722     45717     45716     45718
     45717     45716     45719     45718     45716     45719     45719     45722     45723
     45719     45722     45724     45719     45722     45725     45720     45719     45721
     45720     45719     45722     45721     45719     45722     45722     45725     45726
     45722     45725     45727     45722     45725     45728     45723     45722     45724
     45723     45722     45725     45724     45722     45725     45725     45728     45729
     45725     45728     45730     45725     45728     45731     45726     45725     45727
     45726     45725     45728     45727     45725     45728     45728     45731     45732
     45728     45731     45733     45728     45731     45734     45729     45728     45730
     45729     45728     45731     45730     45728     45731     45731     45734     45735
     45731     45734     45736     45732     45731     45733     45732     45731     45734
     45733     45731     45734     45734     45736     45737     45734     45736     45738
     45735     45734     45736     45736     45738     45739     45736     45738     45740
     45736     45738     45741     45737     45736     45738     45738     45741     45742
     45738     45741     45743     45738     45741     45744     45739     45738     45740
     45739     45738     45741     45740     45738     45741     45741     45744     45745
     45741     45744     45746     45741     45744     45747     45742     45741     45743
     45742     45741     45744     45743     45741     45744     45744     45747     45748
     45744     45747     45749     45744     45747     45750     45745     45744     45746
     45745     45744     45747     45746     45744     45747     45747     45750     45751
     45747     45750     45752     45747     45750     45753     45748     45747     45749
     45748     45747     45750     45749     45747     45750     45750     45753     45754
     45750     45753     45755     45750     45753     45756     45751     45750     45752
     45751     45750     45753     45752     45750     45753     45753     45756     45757
     45753     45756     45758     45753     45756     45759     45754     45753     45755
     45754     45753     45756     45755     45753     45756     45756     45759     45760
     45756     45759     45761     45756     45759     45762     45757     45756     45758
     45757     45756     45759     45758     45756     45759     45760     45759     45761
     45760     45759     45762     45761     45759     45762     45763     45766     45767
     45763     45766     45768     45763     45766     45769     45764     45763     45765
     45764     45763     45766     45765     45763     45766     45766     45769     45770
     45766     45769     45771     45766     45769     45772     45767     45766     45768
     45767     45766     45769     45768     45766     45769     45769     45772     45773
     45769     45772     45774     45769     45772     45775     45770     45769     45771
     45770     45769     45772     45771     45769     45772     45772     45775     45776
     45772     45775     45777     45772     45775     45778     45773     45772     45774
     45773     45772     45775     45774     45772     45775     45775     45778     45779
     45775     45778     45780     45775     45778     45781     45776     45775     45777
     45776     45775     45778     45777     45775     45778     45778     45781     45782
     45778     45781     45783     45778     45781     45784     45779     45778     45780
     45779     45778     45781     45780     45778     45781     45781     45784     45785
     45781     45784     45786     45781     45784     45787     45782     45781     45783
     45782     45781     45784     45783     45781     45784     45784     45787     45788
     45784     45787     45789     45784     45787     45790     45785     45784     45786
     45785     45784     45787     45786     45784     45787     45787     45790     45791
     45787     45790     45792     45787     45790     45793     45788     45787     45789
     45788     45787     45790     45789     45787     45790     45790     45793     45794
     45790     45793     45795     45790     45793     45796     45791     45790     45792
     45791     45790     45793     45792     45790     45793     45793     45796     45797
     45793     45796     45798     45793     45796     45799     45794     45793     45795
     45794     45793     45796     45795     45793     45796     45796     45799     45800
     45796     45799     45801     45796     45799     45802     45797     45796     45798
     45797     45796     45799     45798     45796     45799     45799     45802     45803
     45799     45802     45804     45799     45802     45805     45800     45799     45801
     45800     45799     45802     45801     45799     45802     45803     45802     45804
     45803     45802     45805     45804     45802     45805     45806     45810     45811
     45806     45810     45812     45806     45810     45813     45807     45806     45808
     45807     45806     45809     45807     45806     45810     45808     45806     45809
     45808     45806     45810     45809     45806     45810     45810     45813     45814
     45810     45813     45815     45810     45813     45820     45811     45810     45812
     45811     45810     45813     45812     45810     45813     45813     45820     45816
     45814     45813     45815     45814     45813     45820     45815     45813     45820
     45816     45819     45821     45817     45816     45818     45817     45816     45819
     45817     45816     45820     45818     45816     45819     45818     45816     45820
     45819     45816     45820     45819     45821     45822     45819     45821     45823
     45819     45821     45824     45821     45824     45825     45821     45824     45826
     45821     45824     45832     45822     45821     45823     45822     45821     45824
     45823     45821     45824     45824     45826     45827     45824     45832     45833
     45824     45832     45834     45824     45832     45835     45825     45824     45826
     45825     45824     45832     45826     45824     45832     45826     45827     45828
     45826     45827     45829     45827     45829     45830     45827     45829     45831
     45827     45829     45841     45828     45827     45829     45829     45841     45842
     45829     45841     45843     45829     45841     45844     45830     45829     45831
     45830     45829     45841     45831     45829     45841     45832     45835     45836
     45833     45832     45834     45833     45832     45835     45834     45832     45835
     45835     45836     45837     45835     45836     45838     45836     45838     45839
     45836     45838     45840     45836     45838     45885     45837     45836     45838
     45838     45885     45886     45838     45885     45887     45838     45885     45888
     45839     45838     45840     45839     45838     45885     45840     45838     45885
     45841     45844     45845     45841     45844     45846     45841     45844     45847
     45842     45841     45843     45842     45841     45844     45843     45841     45844
     45844     45847     45848     45844     45847     45849     45844     45847     45850
     45845     45844     45846     45845     45844     45847     45846     45844     45847
     45847     45850     45851     45847     45850     45852     45847     45850     45853
     45848     45847     45849     45848     45847     45850     45849     45847     45850
     45850     45853     45854     45850     45853     45855     45850     45853     45856
     45851     45850     45852     45851     45850     45853     45852     45850     45853
     45853     45856     45857     45853     45856     45858     45853     45856     45859
     45854     45853     45855     45854     45853     45856     45855     45853     45856
     45856     45859     45860     45856     45859     45861     45856     45859     45864
     45857     45856     45858     45857     45856     45859     45858     45856     45859
     45859     45861     45862     45859     45861     45863     45859     45861     45864
     45859     45864     45861     45859     45864     45865     45859     45864     45866
     45860     45859     45861     45860     45859     45864     45861     45859     45864
     45861     45864     45865     45861     45864     45866     45862     45861     45863
     45862     45861     45864     45863     45861     45864     45864     45866     45867
     45864     45866     45868     45864     45866     45869     45865     45864     45866
     45866     45869     45870     45866     45869     45871     45866     45869     45872
     45867     45866     45868     45867     45866     45869     45868     45866     45869
     45869     45872     45873     45869     45872     45874     45869     45872     45875
     45870     45869     45871     45870     45869     45872     45871     45869     45872
     45872     45875     45876     45872     45875     45877     45872     45875     45878
     45873     45872     45874     45873     45872     45875     45874     45872     45875
     45875     45878     45879     45875     45878     45880     45875     45878     45881
     45876     45875     45877     45876     45875     45878     45877     45875     45878
     45878     45881     45882     45878     45881     45883     45878     45881     45884
     45879     45878     45880     45879     45878     45881     45880     45878     45881
     45882     45881     45883     45882     45881     45884     45883     45881     45884
     45885     45888     45889     45885     45888     45890     45885     45888     45891
     45886     45885     45887     45886     45885     45888     45887     45885     45888
     45888     45891     45892     45888     45891     45893     45888     45891     45894
     45889     45888     45890     45889     45888     45891     45890     45888     45891
     45891     45894     45895     45891     45894     45896     45891     45894     45897
     45892     45891     45893     45892     45891     45894     45893     45891     45894
     45894     45897     45898     45894     45897     45899     45894     45897     45900
     45895     45894     45896     45895     45894     45897     45896     45894     45897
     45897     45900     45901     45897     45900     45902     45897     45900     45903
     45898     45897     45899     45898     45897     45900     45899     45897     45900
     45900     45903     45904     45900     45903     45905     45900     45903     45906
     45901     45900     45902     45901     45900     45903     45902     45900     45903
     45903     45906     45907     45903     45906     45908     45903     45906     45909
     45904     45903     45905     45904     45903     45906     45905     45903     45906
     45906     45909     45910     45906     45909     45911     45906     45909     45912
     45907     45906     45908     45907     45906     45909     45908     45906     45909
     45909     45912     45913     45909     45912     45914     45909     45912     45915
     45910     45909     45911     45910     45909     45912     45911     45909     45912
     45912     45915     45916     45912     45915     45917     45912     45915     45918
     45913     45912     45914     45913     45912     45915     45914     45912     45915
     45915     45918     45919     45915     45918     45920     45915     45918     45921
     45916     45915     45917     45916     45915     45918     45917     45915     45918
     45918     45921     45922     45918     45921     45923     45918     45921     45924
     45919     45918     45920     45919     45918     45921     45920     45918     45921
     45921     45924     45925     45921     45924     45926     45921     45924     45927
     45922     45921     45923     45922     45921     45924     45923     45921     45924
     45925     45924     45926     45925     45924     45927     45926     45924     45927
     45928     45932     45933     45928     45932     45934     45928     45932     45935
     45929     45928     45930     45929     45928     45931     45929     45928     45932
     45930     45928     45931     45930     45928     45932     45931     45928     45932
     45932     45935     45936     45932     45935     45937     45932     45935     45942
     45933     45932     45934     45933     45932     45935     45934     45932     45935
     45935     45942     45938     45936     45935     45937     45936     45935     45942
     45937     45935     45942     45938     45941     45943     45939     45938     45940
     45939     45938     45941     45939     45938     45942     45940     45938     45941
     45940     45938     45942     45941     45938     45942     45941     45943     45944
     45941     45943     45945     45941     45943     45946     45943     45946     45947
     45943     45946     45948     45943     45946     45954     45944     45943     45945
     45944     45943     45946     45945     45943     45946     45946     45948     45949
     45946     45954     45955     45946     45954     45956     45946     45954     45957
     45947     45946     45948     45947     45946     45954     45948     45946     45954
     45948     45949     45950     45948     45949     45951     45949     45951     45952
     45949     45951     45953     45949     45951     45963     45950     45949     45951
     45951     45963     45964     45951     45963     45965     45951     45963     45966
     45952     45951     45953     45952     45951     45963     45953     45951     45963
     45954     45957     45958     45955     45954     45956     45955     45954     45957
     45956     45954     45957     45957     45958     45959     45957     45958     45960
     45958     45960     45961     45958     45960     45962     45958     45960     46007
     45959     45958     45960     45960     46007     46008     45960     46007     46009
     45960     46007     46010     45961     45960     45962     45961     45960     46007
     45962     45960     46007     45963     45966     45967     45963     45966     45968
     45963     45966     45969     45964     45963     45965     45964     45963     45966
     45965     45963     45966     45966     45969     45970     45966     45969     45971
     45966     45969     45972     45967     45966     45968     45967     45966     45969
     45968     45966     45969     45969     45972     45973     45969     45972     45974
     45969     45972     45975     45970     45969     45971     45970     45969     45972
     45971     45969     45972     45972     45975     45976     45972     45975     45977
     45972     45975     45978     45973     45972     45974     45973     45972     45975
     45974     45972     45975     45975     45978     45979     45975     45978     45980
     45975     45978     45981     45976     45975     45977     45976     45975     45978
     45977     45975     45978     45978     45981     45982     45978     45981     45983
     45978     45981     45986     45979     45978     45980     45979     45978     45981
     45980     45978     45981     45981     45983     45984     45981     45983     45985
     45981     45983     45986     45981     45986     45983     45981     45986     45987
     45981     45986     45988     45982     45981     45983     45982     45981     45986
     45983     45981     45986     45983     45986     45987     45983     45986     45988
     45984     45983     45985     45984     45983     45986     45985     45983     45986
     45986     45988     45989     45986     45988     45990     45986     45988     45991
     45987     45986     45988     45988     45991     45992     45988     45991     45993
     45988     45991     45994     45989     45988     45990     45989     45988     45991
     45990     45988     45991     45991     45994     45995     45991     45994     45996
     45991     45994     45997     45992     45991     45993     45992     45991     45994
     45993     45991     45994     45994     45997     45998     45994     45997     45999
     45994     45997     46000     45995     45994     45996     45995     45994     45997
     45996     45994     45997     45997     46000     46001     45997     46000     46002
     45997     46000     46003     45998     45997     45999     45998     45997     46000
     45999     45997     46000     46000     46003     46004     46000     46003     46005
     46000     46003     46006     46001     46000     46002     46001     46000     46003
     46002     46000     46003     46004     46003     46005     46004     46003     46006
     46005     46003     46006     46007     46010     46011     46007     46010     46012
     46007     46010     46013     46008     46007     46009     46008     46007     46010
     46009     46007     46010     46010     46013     46014     46010     46013     46015
     46010     46013     46016     46011     46010     46012     46011     46010     46013
     46012     46010     46013     46013     46016     46017     46013     46016     46018
     46013     46016     46019     46014     46013     46015     46014     46013     46016
     46015     46013     46016     46016     46019     46020     46016     46019     46021
     46016     46019     46022     46017     46016     46018     46017     46016     46019
     46018     46016     46019     46019     46022     46023     46019     46022     46024
     46019     46022     46025     46020     46019     46021     46020     46019     46022
     46021     46019     46022     46022     46025     46026     46022     46025     46027
     46022     46025     46028     46023     46022     46024     46023     46022     46025
     46024     46022     46025     46025     46028     46029     46025     46028     46030
     46025     46028     46031     46026     46025     46027     46026     46025     46028
     46027     46025     46028     46028     46031     46032     46028     46031     46033
     46028     46031     46034     46029     46028     46030     46029     46028     46031
     46030     46028     46031     46031     46034     46035     46031     46034     46036
     46031     46034     46037     46032     46031     46033     46032     46031     46034
     46033     46031     46034     46034     46037     46038     46034     46037     46039
     46034     46037     46040     46035     46034     46036     46035     46034     46037
     46036     46034     46037     46037     46040     46041     46037     46040     46042
     46037     46040     46043     46038     46037     46039     46038     46037     46040
     46039     46037     46040     46040     46043     46044     46040     46043     46045
     46040     46043     46046     46041     46040     46042     46041     46040     46043
     46042     46040     46043     46043     46046     46047     46043     46046     46048
     46043     46046     46049     46044     46043     46045     46044     46043     46046
     46045     46043     46046     46047     46046     46048     46047     46046     46049
     46048     46046     46049     46050     46054     46055     46050     46054     46056
     46050     46054     46057     46051     46050     46052     46051     46050     46053
     46051     46050     46054     46052     46050     46053     46052     46050     46054
     46053     46050     46054     46054     46057     46058     46054     46057     46059
     46054     46057     46064     46055     46054     46056     46055     46054     46057
     46056     46054     46057     46057     46064     46060     46058     46057     46059
     46058     46057     46064     46059     46057     46064     46060     46063     46065
     46061     46060     46062     46061     46060     46063     46061     46060     46064
     46062     46060     46063     46062     46060     46064     46063     46060     46064
     46063     46065     46066     46063     46065     46067     46063     46065     46068
     46065     46068     46069     46065     46068     46070     46065     46068     46076
     46066     46065     46067     46066     46065     46068     46067     46065     46068
     46068     46070     46071     46068     46076     46077     46068     46076     46078
     46068     46076     46079     46069     46068     46070     46069     46068     46076
     46070     46068     46076     46070     46071     46072     46070     46071     46073
     46071     46073     46074     46071     46073     46075     46071     46073     46085
     46072     46071     46073     46073     46085     46086     46073     46085     46087
     46073     46085     46088     46074     46073     46075     46074     46073     46085
     46075     46073     46085     46076     46079     46080     46077     46076     46078
     46077     46076     46079     46078     46076     46079     46079     46080     46081
     46079     46080     46082     46080     46082     46083     46080     46082     46084
     46080     46082     46132     46081     46080     46082     46082     46132     46133
     46082     46132     46134     46082     46132     46135     46083     46082     46084
     46083     46082     46132     46084     46082     46132     46085     46088     46089
     46085     46088     46090     46085     46088     46091     46086     46085     46087
     46086     46085     46088     46087     46085     46088     46088     46091     46092
     46088     46091     46093     46088     46091     46094     46089     46088     46090
     46089     46088     46091     46090     46088     46091     46091     46094     46095
     46091     46094     46096     46091     46094     46097     46092     46091     46093
     46092     46091     46094     46093     46091     46094     46094     46097     46098
     46094     46097     46099     46094     46097     46100     46095     46094     46096
     46095     46094     46097     46096     46094     46097     46097     46100     46101
     46097     46100     46102     46097     46100     46103     46098     46097     46099
     46098     46097     46100     46099     46097     46100     46100     46103     46104
     46100     46103     46105     46101     46100     46102     46101     46100     46103
     46102     46100     46103     46103     46105     46106     46103     46105     46107
     46104     46103     46105     46105     46107     46108     46105     46107     46109
     46105     46107     46110     46106     46105     46107     46107     46110     46111
     46107     46110     46112     46107     46110     46113     46108     46107     46109
     46108     46107     46110     46109     46107     46110     46110     46113     46114
     46110     46113     46115     46110     46113     46116     46111     46110     46112
     46111     46110     46113     46112     46110     46113     46113     46116     46117
     46113     46116     46118     46113     46116     46119     46114     46113     46115
     46114     46113     46116     46115     46113     46116     46116     46119     46120
     46116     46119     46121     46116     46119     46122     46117     46116     46118
     46117     46116     46119     46118     46116     46119     46119     46122     46123
     46119     46122     46124     46119     46122     46125     46120     46119     46121
     46120     46119     46122     46121     46119     46122     46122     46125     46126
     46122     46125     46127     46122     46125     46128     46123     46122     46124
     46123     46122     46125     46124     46122     46125     46125     46128     46129
     46125     46128     46130     46125     46128     46131     46126     46125     46127
     46126     46125     46128     46127     46125     46128     46129     46128     46130
     46129     46128     46131     46130     46128     46131     46132     46135     46136
     46132     46135     46137     46132     46135     46138     46133     46132     46134
     46133     46132     46135     46134     46132     46135     46135     46138     46139
     46135     46138     46140     46135     46138     46141     46136     46135     46137
     46136     46135     46138     46137     46135     46138     46138     46141     46142
     46138     46141     46143     46138     46141     46144     46139     46138     46140
     46139     46138     46141     46140     46138     46141     46141     46144     46145
     46141     46144     46146     46141     46144     46147     46142     46141     46143
     46142     46141     46144     46143     46141     46144     46144     46147     46148
     46144     46147     46149     46144     46147     46150     46145     46144     46146
     46145     46144     46147     46146     46144     46147     46147     46150     46151
     46147     46150     46152     46147     46150     46153     46148     46147     46149
     46148     46147     46150     46149     46147     46150     46150     46153     46154
     46150     46153     46155     46150     46153     46156     46151     46150     46152
     46151     46150     46153     46152     46150     46153     46153     46156     46157
     46153     46156     46158     46153     46156     46159     46154     46153     46155
     46154     46153     46156     46155     46153     46156     46156     46159     46160
     46156     46159     46161     46156     46159     46162     46157     46156     46158
     46157     46156     46159     46158     46156     46159     46159     46162     46163
     46159     46162     46164     46159     46162     46165     46160     46159     46161
     46160     46159     46162     46161     46159     46162     46162     46165     46166
     46162     46165     46167     46162     46165     46168     46163     46162     46164
     46163     46162     46165     46164     46162     46165     46165     46168     46169
     46165     46168     46170     46165     46168     46171     46166     46165     46167
     46166     46165     46168     46167     46165     46168     46168     46171     46172
     46168     46171     46173     46168     46171     46174     46169     46168     46170
     46169     46168     46171     46170     46168     46171     46172     46171     46173
     46172     46171     46174     46173     46171     46174     46175     46179     46180
     46175     46179     46181     46175     46179     46182     46176     46175     46177
     46176     46175     46178     46176     46175     46179     46177     46175     46178
     46177     46175     46179     46178     46175     46179     46179     46182     46183
     46179     46182     46184     46179     46182     46189     46180     46179     46181
     46180     46179     46182     46181     46179     46182     46182     46189     46185
     46183     46182     46184     46183     46182     46189     46184     46182     46189
     46185     46188     46190     46186     46185     46187     46186     46185     46188
     46186     46185     46189     46187     46185     46188     46187     46185     46189
     46188     46185     46189     46188     46190     46191     46188     46190     46192
     46188     46190     46193     46190     46193     46194     46190     46193     46195
     46190     46193     46201     46191     46190     46192     46191     46190     46193
     46192     46190     46193     46193     46195     46196     46193     46201     46202
     46193     46201     46203     46193     46201     46204     46194     46193     46195
     46194     46193     46201     46195     46193     46201     46195     46196     46197
     46195     46196     46198     46196     46198     46199     46196     46198     46200
     46196     46198     46210     46197     46196     46198     46198     46210     46211
     46198     46210     46212     46198     46210     46213     46199     46198     46200
     46199     46198     46210     46200     46198     46210     46201     46204     46205
     46202     46201     46203     46202     46201     46204     46203     46201     46204
     46204     46205     46206     46204     46205     46207     46205     46207     46208
     46205     46207     46209     46205     46207     46254     46206     46205     46207
     46207     46254     46255     46207     46254     46256     46207     46254     46257
     46208     46207     46209     46208     46207     46254     46209     46207     46254
     46210     46213     46214     46210     46213     46215     46210     46213     46216
     46211     46210     46212     46211     46210     46213     46212     46210     46213
     46213     46216     46217     46213     46216     46218     46213     46216     46219
     46214     46213     46215     46214     46213     46216     46215     46213     46216
     46216     46219     46220     46216     46219     46221     46216     46219     46222
     46217     46216     46218     46217     46216     46219     46218     46216     46219
     46219     46222     46223     46219     46222     46224     46219     46222     46225
     46220     46219     46221     46220     46219     46222     46221     46219     46222
     46222     46225     46226     46222     46225     46227     46222     46225     46228
     46223     46222     46224     46223     46222     46225     46224     46222     46225
     46225     46228     46229     46225     46228     46230     46225     46228     46233
     46226     46225     46227     46226     46225     46228     46227     46225     46228
     46228     46230     46231     46228     46230     46232     46228     46230     46233
     46228     46233     46230     46228     46233     46234     46228     46233     46235
     46229     46228     46230     46229     46228     46233     46230     46228     46233
     46230     46233     46234     46230     46233     46235     46231     46230     46232
     46231     46230     46233     46232     46230     46233     46233     46235     46236
     46233     46235     46237     46233     46235     46238     46234     46233     46235
     46235     46238     46239     46235     46238     46240     46235     46238     46241
     46236     46235     46237     46236     46235     46238     46237     46235     46238
     46238     46241     46242     46238     46241     46243     46238     46241     46244
     46239     46238     46240     46239     46238     46241     46240     46238     46241
     46241     46244     46245     46241     46244     46246     46241     46244     46247
     46242     46241     46243     46242     46241     46244     46243     46241     46244
     46244     46247     46248     46244     46247     46249     46244     46247     46250
     46245     46244     46246     46245     46244     46247     46246     46244     46247
     46247     46250     46251     46247     46250     46252     46247     46250     46253
     46248     46247     46249     46248     46247     46250     46249     46247     46250
     46251     46250     46252     46251     46250     46253     46252     46250     46253
     46254     46257     46258     46254     46257     46259     46254     46257     46260
     46255     46254     46256     46255     46254     46257     46256     46254     46257
     46257     46260     46261     46257     46260     46262     46257     46260     46263
     46258     46257     46259     46258     46257     46260     46259     46257     46260
     46260     46263     46264     46260     46263     46265     46260     46263     46266
     46261     46260     46262     46261     46260     46263     46262     46260     46263
     46263     46266     46267     46263     46266     46268     46263     46266     46269
     46264     46263     46265     46264     46263     46266     46265     46263     46266
     46266     46269     46270     46266     46269     46271     46266     46269     46272
     46267     46266     46268     46267     46266     46269     46268     46266     46269
     46269     46272     46273     46269     46272     46274     46269     46272     46275
     46270     46269     46271     46270     46269     46272     46271     46269     46272
     46272     46275     46276     46272     46275     46277     46272     46275     46278
     46273     46272     46274     46273     46272     46275     46274     46272     46275
     46275     46278     46279     46275     46278     46280     46275     46278     46281
     46276     46275     46277     46276     46275     46278     46277     46275     46278
     46278     46281     46282     46278     46281     46283     46278     46281     46284
     46279     46278     46280     46279     46278     46281     46280     46278     46281
     46281     46284     46285     46281     46284     46286     46281     46284     46287
     46282     46281     46283     46282     46281     46284     46283     46281     46284
     46284     46287     46288     46284     46287     46289     46284     46287     46290
     46285     46284     46286     46285     46284     46287     46286     46284     46287
     46287     46290     46291     46287     46290     46292     46287     46290     46293
     46288     46287     46289     46288     46287     46290     46289     46287     46290
     46290     46293     46294     46290     46293     46295     46290     46293     46296
     46291     46290     46292     46291     46290     46293     46292     46290     46293
     46294     46293     46295     46294     46293     46296     46295     46293     46296
     46297     46300     46301     46297     46302     46303     46297     46302     46304
     46297     46302     46306     46298     46297     46299     46298     46297     46300
     46298     46297     46302     46299     46297     46300     46299     46297     46302
     46300     46297     46302     46302     46304     46305     46302     46306     46307
     46302     46306     46308     46302     46306     46313     46303     46302     46304
     46303     46302     46306     46304     46302     46306     46306     46313     46309
     46307     46306     46308     46307     46306     46313     46308     46306     46313
     46309     46312     46314     46310     46309     46311     46310     46309     46312
     46310     46309     46313     46311     46309     46312     46311     46309     46313
     46312     46309     46313     46312     46314     46315     46312     46314     46316
     46312     46314     46317     46314     46317     46318     46314     46317     46319
     46314     46317     46325     46315     46314     46316     46315     46314     46317
     46316     46314     46317     46317     46319     46320     46317     46325     46326
     46317     46325     46327     46317     46325     46328     46318     46317     46319
     46318     46317     46325     46319     46317     46325     46319     46320     46321
     46319     46320     46322     46320     46322     46323     46320     46322     46324
     46320     46322     46334     46321     46320     46322     46322     46334     46335
     46322     46334     46336     46322     46334     46337     46323     46322     46324
     46323     46322     46334     46324     46322     46334     46325     46328     46329
     46326     46325     46327     46326     46325     46328     46327     46325     46328
     46328     46329     46330     46328     46329     46331     46329     46331     46332
     46329     46331     46333     46329     46331     46375     46330     46329     46331
     46331     46375     46376     46331     46375     46377     46331     46375     46378
     46332     46331     46333     46332     46331     46375     46333     46331     46375
     46334     46337     46338     46334     46337     46339     46334     46337     46340
     46335     46334     46336     46335     46334     46337     46336     46334     46337
     46337     46340     46341     46337     46340     46342     46337     46340     46343
     46338     46337     46339     46338     46337     46340     46339     46337     46340
     46340     46343     46344     46340     46343     46345     46340     46343     46346
     46341     46340     46342     46341     46340     46343     46342     46340     46343
     46343     46346     46347     46343     46346     46348     46343     46346     46349
     46344     46343     46345     46344     46343     46346     46345     46343     46346
     46346     46349     46350     46346     46349     46351     46346     46349     46352
     46347     46346     46348     46347     46346     46349     46348     46346     46349
     46349     46352     46353     46349     46352     46354     46350     46349     46351
     46350     46349     46352     46351     46349     46352     46352     46354     46355
     46352     46354     46356     46353     46352     46354     46354     46356     46357
     46354     46356     46358     46354     46356     46359     46355     46354     46356
     46356     46359     46360     46356     46359     46361     46356     46359     46362
     46357     46356     46358     46357     46356     46359     46358     46356     46359
     46359     46362     46363     46359     46362     46364     46359     46362     46365
     46360     46359     46361     46360     46359     46362     46361     46359     46362
     46362     46365     46366     46362     46365     46367     46362     46365     46368
     46363     46362     46364     46363     46362     46365     46364     46362     46365
     46365     46368     46369     46365     46368     46370     46365     46368     46371
     46366     46365     46367     46366     46365     46368     46367     46365     46368
     46368     46371     46372     46368     46371     46373     46368     46371     46374
     46369     46368     46370     46369     46368     46371     46370     46368     46371
     46372     46371     46373     46372     46371     46374     46373     46371     46374
     46375     46378     46379     46375     46378     46380     46375     46378     46381
     46376     46375     46377     46376     46375     46378     46377     46375     46378
     46378     46381     46382     46378     46381     46383     46378     46381     46384
     46379     46378     46380     46379     46378     46381     46380     46378     46381
     46381     46384     46385     46381     46384     46386     46381     46384     46387
     46382     46381     46383     46382     46381     46384     46383     46381     46384
     46384     46387     46388     46384     46387     46389     46384     46387     46390
     46385     46384     46386     46385     46384     46387     46386     46384     46387
     46387     46390     46391     46387     46390     46392     46387     46390     46393
     46388     46387     46389     46388     46387     46390     46389     46387     46390
     46390     46393     46394     46390     46393     46395     46390     46393     46396
     46391     46390     46392     46391     46390     46393     46392     46390     46393
     46393     46396     46397     46393     46396     46398     46393     46396     46399
     46394     46393     46395     46394     46393     46396     46395     46393     46396
     46396     46399     46400     46396     46399     46401     46396     46399     46402
     46397     46396     46398     46397     46396     46399     46398     46396     46399
     46399     46402     46403     46399     46402     46404     46399     46402     46405
     46400     46399     46401     46400     46399     46402     46401     46399     46402
     46402     46405     46406     46402     46405     46407     46402     46405     46408
     46403     46402     46404     46403     46402     46405     46404     46402     46405
     46405     46408     46409     46405     46408     46410     46405     46408     46411
     46406     46405     46407     46406     46405     46408     46407     46405     46408
     46408     46411     46412     46408     46411     46413     46408     46411     46414
     46409     46408     46410     46409     46408     46411     46410     46408     46411
     46411     46414     46415     46411     46414     46416     46411     46414     46417
     46412     46411     46413     46412     46411     46414     46413     46411     46414
     46415     46414     46416     46415     46414     46417     46416     46414     46417
     46418     46422     46423     46418     46422     46424     46418     46422     46425
     46419     46418     46420     46419     46418     46421     46419     46418     46422
     46420     46418     46421     46420     46418     46422     46421     46418     46422
     46422     46425     46426     46422     46425     46427     46422     46425     46432
     46423     46422     46424     46423     46422     46425     46424     46422     46425
     46425     46432     46428     46426     46425     46427     46426     46425     46432
     46427     46425     46432     46428     46431     46433     46429     46428     46430
     46429     46428     46431     46429     46428     46432     46430     46428     46431
     46430     46428     46432     46431     46428     46432     46431     46433     46434
     46431     46433     46435     46431     46433     46436     46433     46436     46437
     46433     46436     46438     46433     46436     46444     46434     46433     46435
     46434     46433     46436     46435     46433     46436     46436     46438     46439
     46436     46444     46445     46436     46444     46446     46436     46444     46447
     46437     46436     46438     46437     46436     46444     46438     46436     46444
     46438     46439     46440     46438     46439     46441     46439     46441     46442
     46439     46441     46443     46439     46441     46453     46440     46439     46441
     46441     46453     46454     46441     46453     46455     46441     46453     46456
     46442     46441     46443     46442     46441     46453     46443     46441     46453
     46444     46447     46448     46445     46444     46446     46445     46444     46447
     46446     46444     46447     46447     46448     46449     46447     46448     46450
     46448     46450     46451     46448     46450     46452     46448     46450     46497
     46449     46448     46450     46450     46497     46498     46450     46497     46499
     46450     46497     46500     46451     46450     46452     46451     46450     46497
     46452     46450     46497     46453     46456     46457     46453     46456     46458
     46453     46456     46459     46454     46453     46455     46454     46453     46456
     46455     46453     46456     46456     46459     46460     46456     46459     46461
     46456     46459     46462     46457     46456     46458     46457     46456     46459
     46458     46456     46459     46459     46462     46463     46459     46462     46464
     46459     46462     46465     46460     46459     46461     46460     46459     46462
     46461     46459     46462     46462     46465     46466     46462     46465     46467
     46462     46465     46468     46463     46462     46464     46463     46462     46465
     46464     46462     46465     46465     46468     46469     46465     46468     46470
     46465     46468     46471     46466     46465     46467     46466     46465     46468
     46467     46465     46468     46468     46471     46472     46468     46471     46473
     46468     46471     46476     46469     46468     46470     46469     46468     46471
     46470     46468     46471     46471     46473     46474     46471     46473     46475
     46471     46473     46476     46471     46476     46473     46471     46476     46477
     46471     46476     46478     46472     46471     46473     46472     46471     46476
     46473     46471     46476     46473     46476     46477     46473     46476     46478
     46474     46473     46475     46474     46473     46476     46475     46473     46476
     46476     46478     46479     46476     46478     46480     46476     46478     46481
     46477     46476     46478     46478     46481     46482     46478     46481     46483
     46478     46481     46484     46479     46478     46480     46479     46478     46481
     46480     46478     46481     46481     46484     46485     46481     46484     46486
     46481     46484     46487     46482     46481     46483     46482     46481     46484
     46483     46481     46484     46484     46487     46488     46484     46487     46489
     46484     46487     46490     46485     46484     46486     46485     46484     46487
     46486     46484     46487     46487     46490     46491     46487     46490     46492
     46487     46490     46493     46488     46487     46489     46488     46487     46490
     46489     46487     46490     46490     46493     46494     46490     46493     46495
     46490     46493     46496     46491     46490     46492     46491     46490     46493
     46492     46490     46493     46494     46493     46495     46494     46493     46496
     46495     46493     46496     46497     46500     46501     46497     46500     46502
     46497     46500     46503     46498     46497     46499     46498     46497     46500
     46499     46497     46500     46500     46503     46504     46500     46503     46505
     46500     46503     46506     46501     46500     46502     46501     46500     46503
     46502     46500     46503     46503     46506     46507     46503     46506     46508
     46503     46506     46509     46504     46503     46505     46504     46503     46506
     46505     46503     46506     46506     46509     46510     46506     46509     46511
     46506     46509     46512     46507     46506     46508     46507     46506     46509
     46508     46506     46509     46509     46512     46513     46509     46512     46514
     46509     46512     46515     46510     46509     46511     46510     46509     46512
     46511     46509     46512     46512     46515     46516     46512     46515     46517
     46512     46515     46518     46513     46512     46514     46513     46512     46515
     46514     46512     46515     46515     46518     46519     46515     46518     46520
     46515     46518     46521     46516     46515     46517     46516     46515     46518
     46517     46515     46518     46518     46521     46522     46518     46521     46523
     46518     46521     46524     46519     46518     46520     46519     46518     46521
     46520     46518     46521     46521     46524     46525     46521     46524     46526
     46521     46524     46527     46522     46521     46523     46522     46521     46524
     46523     46521     46524     46524     46527     46528     46524     46527     46529
     46524     46527     46530     46525     46524     46526     46525     46524     46527
     46526     46524     46527     46527     46530     46531     46527     46530     46532
     46527     46530     46533     46528     46527     46529     46528     46527     46530
     46529     46527     46530     46530     46533     46534     46530     46533     46535
     46530     46533     46536     46531     46530     46532     46531     46530     46533
     46532     46530     46533     46533     46536     46537     46533     46536     46538
     46533     46536     46539     46534     46533     46535     46534     46533     46536
     46535     46533     46536     46537     46536     46538     46537     46536     46539
     46538     46536     46539     46540     46544     46545     46540     46544     46546
     46540     46544     46547     46541     46540     46542     46541     46540     46543
     46541     46540     46544     46542     46540     46543     46542     46540     46544
     46543     46540     46544     46544     46547     46548     46544     46547     46549
     46544     46547     46554     46545     46544     46546     46545     46544     46547
     46546     46544     46547     46547     46554     46550     46548     46547     46549
     46548     46547     46554     46549     46547     46554     46550     46553     46555
     46551     46550     46552     46551     46550     46553     46551     46550     46554
     46552     46550     46553     46552     46550     46554     46553     46550     46554
     46553     46555     46556     46553     46555     46557     46553     46555     46558
     46555     46558     46559     46555     46558     46560     46555     46558     46566
     46556     46555     46557     46556     46555     46558     46557     46555     46558
     46558     46560     46561     46558     46566     46567     46558     46566     46568
     46558     46566     46569     46559     46558     46560     46559     46558     46566
     46560     46558     46566     46560     46561     46562     46560     46561     46563
     46561     46563     46564     46561     46563     46565     46561     46563     46575
     46562     46561     46563     46563     46575     46576     46563     46575     46577
     46563     46575     46578     46564     46563     46565     46564     46563     46575
     46565     46563     46575     46566     46569     46570     46567     46566     46568
     46567     46566     46569     46568     46566     46569     46569     46570     46571
     46569     46570     46572     46570     46572     46573     46570     46572     46574
     46570     46572     46619     46571     46570     46572     46572     46619     46620
     46572     46619     46621     46572     46619     46622     46573     46572     46574
     46573     46572     46619     46574     46572     46619     46575     46578     46579
     46575     46578     46580     46575     46578     46581     46576     46575     46577
     46576     46575     46578     46577     46575     46578     46578     46581     46582
     46578     46581     46583     46578     46581     46584     46579     46578     46580
     46579     46578     46581     46580     46578     46581     46581     46584     46585
     46581     46584     46586     46581     46584     46587     46582     46581     46583
     46582     46581     46584     46583     46581     46584     46584     46587     46588
     46584     46587     46589     46584     46587     46590     46585     46584     46586
     46585     46584     46587     46586     46584     46587     46587     46590     46591
     46587     46590     46592     46587     46590     46593     46588     46587     46589
     46588     46587     46590     46589     46587     46590     46590     46593     46594
     46590     46593     46595     46590     46593     46598     46591     46590     46592
     46591     46590     46593     46592     46590     46593     46593     46595     46596
     46593     46595     46597     46593     46595     46598     46593     46598     46595
     46593     46598     46599     46593     46598     46600     46594     46593     46595
     46594     46593     46598     46595     46593     46598     46595     46598     46599
     46595     46598     46600     46596     46595     46597     46596     46595     46598
     46597     46595     46598     46598     46600     46601     46598     46600     46602
     46598     46600     46603     46599     46598     46600     46600     46603     46604
     46600     46603     46605     46600     46603     46606     46601     46600     46602
     46601     46600     46603     46602     46600     46603     46603     46606     46607
     46603     46606     46608     46603     46606     46609     46604     46603     46605
     46604     46603     46606     46605     46603     46606     46606     46609     46610
     46606     46609     46611     46606     46609     46612     46607     46606     46608
     46607     46606     46609     46608     46606     46609     46609     46612     46613
     46609     46612     46614     46609     46612     46615     46610     46609     46611
     46610     46609     46612     46611     46609     46612     46612     46615     46616
     46612     46615     46617     46612     46615     46618     46613     46612     46614
     46613     46612     46615     46614     46612     46615     46616     46615     46617
     46616     46615     46618     46617     46615     46618     46619     46622     46623
     46619     46622     46624     46619     46622     46625     46620     46619     46621
     46620     46619     46622     46621     46619     46622     46622     46625     46626
     46622     46625     46627     46622     46625     46628     46623     46622     46624
     46623     46622     46625     46624     46622     46625     46625     46628     46629
     46625     46628     46630     46625     46628     46631     46626     46625     46627
     46626     46625     46628     46627     46625     46628     46628     46631     46632
     46628     46631     46633     46628     46631     46634     46629     46628     46630
     46629     46628     46631     46630     46628     46631     46631     46634     46635
     46631     46634     46636     46631     46634     46637     46632     46631     46633
     46632     46631     46634     46633     46631     46634     46634     46637     46638
     46634     46637     46639     46634     46637     46640     46635     46634     46636
     46635     46634     46637     46636     46634     46637     46637     46640     46641
     46637     46640     46642     46637     46640     46643     46638     46637     46639
     46638     46637     46640     46639     46637     46640     46640     46643     46644
     46640     46643     46645     46640     46643     46646     46641     46640     46642
     46641     46640     46643     46642     46640     46643     46643     46646     46647
     46643     46646     46648     46643     46646     46649     46644     46643     46645
     46644     46643     46646     46645     46643     46646     46646     46649     46650
     46646     46649     46651     46646     46649     46652     46647     46646     46648
     46647     46646     46649     46648     46646     46649     46649     46652     46653
     46649     46652     46654     46649     46652     46655     46650     46649     46651
     46650     46649     46652     46651     46649     46652     46652     46655     46656
     46652     46655     46657     46652     46655     46658     46653     46652     46654
     46653     46652     46655     46654     46652     46655     46656     46655     46657
     46656     46655     46658     46657     46655     46658     46659     46663     46664
     46659     46663     46665     46659     46663     46666     46660     46659     46661
     46660     46659     46662     46660     46659     46663     46661     46659     46662
     46661     46659     46663     46662     46659     46663     46663     46666     46667
     46663     46666     46668     46663     46666     46673     46664     46663     46665
     46664     46663     46666     46665     46663     46666     46666     46673     46669
     46667     46666     46668     46667     46666     46673     46668     46666     46673
     46669     46672     46674     46670     46669     46671     46670     46669     46672
     46670     46669     46673     46671     46669     46672     46671     46669     46673
     46672     46669     46673     46672     46674     46675     46672     46674     46676
     46672     46674     46677     46674     46677     46678     46674     46677     46679
     46674     46677     46685     46675     46674     46676     46675     46674     46677
     46676     46674     46677     46677     46679     46680     46677     46685     46686
     46677     46685     46687     46677     46685     46688     46678     46677     46679
     46678     46677     46685     46679     46677     46685     46679     46680     46681
     46679     46680     46682     46680     46682     46683     46680     46682     46684
     46680     46682     46694     46681     46680     46682     46682     46694     46695
     46682     46694     46696     46682     46694     46697     46683     46682     46684
     46683     46682     46694     46684     46682     46694     46685     46688     46689
     46686     46685     46687     46686     46685     46688     46687     46685     46688
     46688     46689     46690     46688     46689     46691     46689     46691     46692
     46689     46691     46693     46689     46691     46735     46690     46689     46691
     46691     46735     46736     46691     46735     46737     46691     46735     46738
     46692     46691     46693     46692     46691     46735     46693     46691     46735
     46694     46697     46698     46694     46697     46699     46694     46697     46700
     46695     46694     46696     46695     46694     46697     46696     46694     46697
     46697     46700     46701     46697     46700     46702     46697     46700     46703
     46698     46697     46699     46698     46697     46700     46699     46697     46700
     46700     46703     46704     46700     46703     46705     46700     46703     46706
     46701     46700     46702     46701     46700     46703     46702     46700     46703
     46703     46706     46707     46703     46706     46708     46703     46706     46709
     46704     46703     46705     46704     46703     46706     46705     46703     46706
     46706     46709     46710     46706     46709     46711     46706     46709     46712
     46707     46706     46708     46707     46706     46709     46708     46706     46709
     46709     46712     46713     46709     46712     46714     46710     46709     46711
     46710     46709     46712     46711     46709     46712     46712     46714     46715
     46712     46714     46716     46713     46712     46714     46714     46716     46717
     46714     46716     46718     46714     46716     46719     46715     46714     46716
     46716     46719     46720     46716     46719     46721     46716     46719     46722
     46717     46716     46718     46717     46716     46719     46718     46716     46719
     46719     46722     46723     46719     46722     46724     46719     46722     46725
     46720     46719     46721     46720     46719     46722     46721     46719     46722
     46722     46725     46726     46722     46725     46727     46722     46725     46728
     46723     46722     46724     46723     46722     46725     46724     46722     46725
     46725     46728     46729     46725     46728     46730     46725     46728     46731
     46726     46725     46727     46726     46725     46728     46727     46725     46728
     46728     46731     46732     46728     46731     46733     46728     46731     46734
     46729     46728     46730     46729     46728     46731     46730     46728     46731
     46732     46731     46733     46732     46731     46734     46733     46731     46734
     46735     46738     46739     46735     46738     46740     46735     46738     46741
     46736     46735     46737     46736     46735     46738     46737     46735     46738
     46738     46741     46742     46738     46741     46743     46738     46741     46744
     46739     46738     46740     46739     46738     46741     46740     46738     46741
     46741     46744     46745     46741     46744     46746     46741     46744     46747
     46742     46741     46743     46742     46741     46744     46743     46741     46744
     46744     46747     46748     46744     46747     46749     46744     46747     46750
     46745     46744     46746     46745     46744     46747     46746     46744     46747
     46747     46750     46751     46747     46750     46752     46747     46750     46753
     46748     46747     46749     46748     46747     46750     46749     46747     46750
     46750     46753     46754     46750     46753     46755     46751     46750     46752
     46751     46750     46753     46752     46750     46753     46753     46755     46756
     46753     46755     46757     46754     46753     46755     46755     46757     46758
     46755     46757     46759     46755     46757     46760     46756     46755     46757
     46757     46760     46761     46757     46760     46762     46757     46760     46763
     46758     46757     46759     46758     46757     46760     46759     46757     46760
     46760     46763     46764     46760     46763     46765     46760     46763     46766
     46761     46760     46762     46761     46760     46763     46762     46760     46763
     46763     46766     46767     46763     46766     46768     46763     46766     46769
     46764     46763     46765     46764     46763     46766     46765     46763     46766
     46766     46769     46770     46766     46769     46771     46766     46769     46772
     46767     46766     46768     46767     46766     46769     46768     46766     46769
     46769     46772     46773     46769     46772     46774     46769     46772     46775
     46770     46769     46771     46770     46769     46772     46771     46769     46772
     46772     46775     46776     46772     46775     46777     46772     46775     46778
     46773     46772     46774     46773     46772     46775     46774     46772     46775
     46775     46778     46779     46775     46778     46780     46775     46778     46781
     46776     46775     46777     46776     46775     46778     46777     46775     46778
     46779     46778     46780     46779     46778     46781     46780     46778     46781
     46782     46786     46787     46782     46786     46788     46782     46786     46789
     46783     46782     46784     46783     46782     46785     46783     46782     46786
     46784     46782     46785     46784     46782     46786     46785     46782     46786
     46786     46789     46790     46786     46789     46791     46786     46789     46796
     46787     46786     46788     46787     46786     46789     46788     46786     46789
     46789     46796     46792     46790     46789     46791     46790     46789     46796
     46791     46789     46796     46792     46795     46797     46793     46792     46794
     46793     46792     46795     46793     46792     46796     46794     46792     46795
     46794     46792     46796     46795     46792     46796     46795     46797     46798
     46795     46797     46799     46795     46797     46800     46797     46800     46801
     46797     46800     46802     46797     46800     46808     46798     46797     46799
     46798     46797     46800     46799     46797     46800     46800     46802     46803
     46800     46808     46809     46800     46808     46810     46800     46808     46811
     46801     46800     46802     46801     46800     46808     46802     46800     46808
     46802     46803     46804     46802     46803     46805     46803     46805     46806
     46803     46805     46807     46803     46805     46817     46804     46803     46805
     46805     46817     46818     46805     46817     46819     46805     46817     46820
     46806     46805     46807     46806     46805     46817     46807     46805     46817
     46808     46811     46812     46809     46808     46810     46809     46808     46811
     46810     46808     46811     46811     46812     46813     46811     46812     46814
     46812     46814     46815     46812     46814     46816     46812     46814     46861
     46813     46812     46814     46814     46861     46862     46814     46861     46863
     46814     46861     46864     46815     46814     46816     46815     46814     46861
     46816     46814     46861     46817     46820     46821     46817     46820     46822
     46817     46820     46823     46818     46817     46819     46818     46817     46820
     46819     46817     46820     46820     46823     46824     46820     46823     46825
     46820     46823     46826     46821     46820     46822     46821     46820     46823
     46822     46820     46823     46823     46826     46827     46823     46826     46828
     46823     46826     46829     46824     46823     46825     46824     46823     46826
     46825     46823     46826     46826     46829     46830     46826     46829     46831
     46826     46829     46832     46827     46826     46828     46827     46826     46829
     46828     46826     46829     46829     46832     46833     46829     46832     46834
     46829     46832     46835     46830     46829     46831     46830     46829     46832
     46831     46829     46832     46832     46835     46836     46832     46835     46837
     46832     46835     46840     46833     46832     46834     46833     46832     46835
     46834     46832     46835     46835     46837     46838     46835     46837     46839
     46835     46837     46840     46835     46840     46837     46835     46840     46841
     46835     46840     46842     46836     46835     46837     46836     46835     46840
     46837     46835     46840     46837     46840     46841     46837     46840     46842
     46838     46837     46839     46838     46837     46840     46839     46837     46840
     46840     46842     46843     46840     46842     46844     46840     46842     46845
     46841     46840     46842     46842     46845     46846     46842     46845     46847
     46842     46845     46848     46843     46842     46844     46843     46842     46845
     46844     46842     46845     46845     46848     46849     46845     46848     46850
     46845     46848     46851     46846     46845     46847     46846     46845     46848
     46847     46845     46848     46848     46851     46852     46848     46851     46853
     46848     46851     46854     46849     46848     46850     46849     46848     46851
     46850     46848     46851     46851     46854     46855     46851     46854     46856
     46851     46854     46857     46852     46851     46853     46852     46851     46854
     46853     46851     46854     46854     46857     46858     46854     46857     46859
     46854     46857     46860     46855     46854     46856     46855     46854     46857
     46856     46854     46857     46858     46857     46859     46858     46857     46860
     46859     46857     46860     46861     46864     46865     46861     46864     46866
     46861     46864     46867     46862     46861     46863     46862     46861     46864
     46863     46861     46864     46864     46867     46868     46864     46867     46869
     46864     46867     46870     46865     46864     46866     46865     46864     46867
     46866     46864     46867     46867     46870     46871     46867     46870     46872
     46867     46870     46873     46868     46867     46869     46868     46867     46870
     46869     46867     46870     46870     46873     46874     46870     46873     46875
     46870     46873     46876     46871     46870     46872     46871     46870     46873
     46872     46870     46873     46873     46876     46877     46873     46876     46878
     46873     46876     46879     46874     46873     46875     46874     46873     46876
     46875     46873     46876     46876     46879     46880     46876     46879     46881
     46876     46879     46882     46877     46876     46878     46877     46876     46879
     46878     46876     46879     46879     46882     46883     46879     46882     46884
     46879     46882     46885     46880     46879     46881     46880     46879     46882
     46881     46879     46882     46882     46885     46886     46882     46885     46887
     46882     46885     46888     46883     46882     46884     46883     46882     46885
     46884     46882     46885     46885     46888     46889     46885     46888     46890
     46885     46888     46891     46886     46885     46887     46886     46885     46888
     46887     46885     46888     46888     46891     46892     46888     46891     46893
     46888     46891     46894     46889     46888     46890     46889     46888     46891
     46890     46888     46891     46891     46894     46895     46891     46894     46896
     46891     46894     46897     46892     46891     46893     46892     46891     46894
     46893     46891     46894     46894     46897     46898     46894     46897     46899
     46894     46897     46900     46895     46894     46896     46895     46894     46897
     46896     46894     46897     46897     46900     46901     46897     46900     46902
     46897     46900     46903     46898     46897     46899     46898     46897     46900
     46899     46897     46900     46901     46900     46902     46901     46900     46903
     46902     46900     46903     46904     46908     46909     46904     46908     46910
     46904     46908     46911     46905     46904     46906     46905     46904     46907
     46905     46904     46908     46906     46904     46907     46906     46904     46908
     46907     46904     46908     46908     46911     46912     46908     46911     46913
     46908     46911     46918     46909     46908     46910     46909     46908     46911
     46910     46908     46911     46911     46918     46914     46912     46911     46913
     46912     46911     46918     46913     46911     46918     46914     46917     46919
     46915     46914     46916     46915     46914     46917     46915     46914     46918
     46916     46914     46917     46916     46914     46918     46917     46914     46918
     46917     46919     46920     46917     46919     46921     46917     46919     46922
     46919     46922     46923     46919     46922     46924     46919     46922     46930
     46920     46919     46921     46920     46919     46922     46921     46919     46922
     46922     46924     46925     46922     46930     46931     46922     46930     46932
     46922     46930     46933     46923     46922     46924     46923     46922     46930
     46924     46922     46930     46924     46925     46926     46924     46925     46927
     46925     46927     46928     46925     46927     46929     46925     46927     46939
     46926     46925     46927     46927     46939     46940     46927     46939     46941
     46927     46939     46942     46928     46927     46929     46928     46927     46939
     46929     46927     46939     46930     46933     46934     46931     46930     46932
     46931     46930     46933     46932     46930     46933     46933     46934     46935
     46933     46934     46936     46934     46936     46937     46934     46936     46938
     46934     46936     46983     46935     46934     46936     46936     46983     46984
     46936     46983     46985     46936     46983     46986     46937     46936     46938
     46937     46936     46983     46938     46936     46983     46939     46942     46943
     46939     46942     46944     46939     46942     46945     46940     46939     46941
     46940     46939     46942     46941     46939     46942     46942     46945     46946
     46942     46945     46947     46942     46945     46948     46943     46942     46944
     46943     46942     46945     46944     46942     46945     46945     46948     46949
     46945     46948     46950     46945     46948     46951     46946     46945     46947
     46946     46945     46948     46947     46945     46948     46948     46951     46952
     46948     46951     46953     46948     46951     46954     46949     46948     46950
     46949     46948     46951     46950     46948     46951     46951     46954     46955
     46951     46954     46956     46951     46954     46957     46952     46951     46953
     46952     46951     46954     46953     46951     46954     46954     46957     46958
     46954     46957     46959     46954     46957     46962     46955     46954     46956
     46955     46954     46957     46956     46954     46957     46957     46959     46960
     46957     46959     46961     46957     46959     46962     46957     46962     46959
     46957     46962     46963     46957     46962     46964     46958     46957     46959
     46958     46957     46962     46959     46957     46962     46959     46962     46963
     46959     46962     46964     46960     46959     46961     46960     46959     46962
     46961     46959     46962     46962     46964     46965     46962     46964     46966
     46962     46964     46967     46963     46962     46964     46964     46967     46968
     46964     46967     46969     46964     46967     46970     46965     46964     46966
     46965     46964     46967     46966     46964     46967     46967     46970     46971
     46967     46970     46972     46967     46970     46973     46968     46967     46969
     46968     46967     46970     46969     46967     46970     46970     46973     46974
     46970     46973     46975     46970     46973     46976     46971     46970     46972
     46971     46970     46973     46972     46970     46973     46973     46976     46977
     46973     46976     46978     46973     46976     46979     46974     46973     46975
     46974     46973     46976     46975     46973     46976     46976     46979     46980
     46976     46979     46981     46976     46979     46982     46977     46976     46978
     46977     46976     46979     46978     46976     46979     46980     46979     46981
     46980     46979     46982     46981     46979     46982     46983     46986     46987
     46983     46986     46988     46983     46986     46989     46984     46983     46985
     46984     46983     46986     46985     46983     46986     46986     46989     46990
     46986     46989     46991     46986     46989     46992     46987     46986     46988
     46987     46986     46989     46988     46986     46989     46989     46992     46993
     46989     46992     46994     46989     46992     46995     46990     46989     46991
     46990     46989     46992     46991     46989     46992     46992     46995     46996
     46992     46995     46997     46992     46995     46998     46993     46992     46994
     46993     46992     46995     46994     46992     46995     46995     46998     46999
     46995     46998     47000     46995     46998     47001     46996     46995     46997
     46996     46995     46998     46997     46995     46998     46998     47001     47002
     46998     47001     47003     46998     47001     47004     46999     46998     47000
     46999     46998     47001     47000     46998     47001     47001     47004     47005
     47001     47004     47006     47001     47004     47007     47002     47001     47003
     47002     47001     47004     47003     47001     47004     47004     47007     47008
     47004     47007     47009     47004     47007     47010     47005     47004     47006
     47005     47004     47007     47006     47004     47007     47007     47010     47011
     47007     47010     47012     47007     47010     47013     47008     47007     47009
     47008     47007     47010     47009     47007     47010     47010     47013     47014
     47010     47013     47015     47010     47013     47016     47011     47010     47012
     47011     47010     47013     47012     47010     47013     47013     47016     47017
     47013     47016     47018     47013     47016     47019     47014     47013     47015
     47014     47013     47016     47015     47013     47016     47016     47019     47020
     47016     47019     47021     47016     47019     47022     47017     47016     47018
     47017     47016     47019     47018     47016     47019     47019     47022     47023
     47019     47022     47024     47019     47022     47025     47020     47019     47021
     47020     47019     47022     47021     47019     47022     47023     47022     47024
     47023     47022     47025     47024     47022     47025     47026     47030     47031
     47026     47030     47032     47026     47030     47033     47027     47026     47028
     47027     47026     47029     47027     47026     47030     47028     47026     47029
     47028     47026     47030     47029     47026     47030     47030     47033     47034
     47030     47033     47035     47030     47033     47040     47031     47030     47032
     47031     47030     47033     47032     47030     47033     47033     47040     47036
     47034     47033     47035     47034     47033     47040     47035     47033     47040
     47036     47039     47041     47037     47036     47038     47037     47036     47039
     47037     47036     47040     47038     47036     47039     47038     47036     47040
     47039     47036     47040     47039     47041     47042     47039     47041     47043
     47039     47041     47044     47041     47044     47045     47041     47044     47046
     47041     47044     47052     47042     47041     47043     47042     47041     47044
     47043     47041     47044     47044     47046     47047     47044     47052     47053
     47044     47052     47054     47044     47052     47055     47045     47044     47046
     47045     47044     47052     47046     47044     47052     47046     47047     47048
     47046     47047     47049     47047     47049     47050     47047     47049     47051
     47047     47049     47061     47048     47047     47049     47049     47061     47062
     47049     47061     47063     47049     47061     47064     47050     47049     47051
     47050     47049     47061     47051     47049     47061     47052     47055     47056
     47053     47052     47054     47053     47052     47055     47054     47052     47055
     47055     47056     47057     47055     47056     47058     47056     47058     47059
     47056     47058     47060     47056     47058     47105     47057     47056     47058
     47058     47105     47106     47058     47105     47107     47058     47105     47108
     47059     47058     47060     47059     47058     47105     47060     47058     47105
     47061     47064     47065     47061     47064     47066     47061     47064     47067
     47062     47061     47063     47062     47061     47064     47063     47061     47064
     47064     47067     47068     47064     47067     47069     47064     47067     47070
     47065     47064     47066     47065     47064     47067     47066     47064     47067
     47067     47070     47071     47067     47070     47072     47067     47070     47073
     47068     47067     47069     47068     47067     47070     47069     47067     47070
     47070     47073     47074     47070     47073     47075     47070     47073     47076
     47071     47070     47072     47071     47070     47073     47072     47070     47073
     47073     47076     47077     47073     47076     47078     47073     47076     47079
     47074     47073     47075     47074     47073     47076     47075     47073     47076
     47076     47079     47080     47076     47079     47081     47076     47079     47084
     47077     47076     47078     47077     47076     47079     47078     47076     47079
     47079     47081     47082     47079     47081     47083     47079     47081     47084
     47079     47084     47081     47079     47084     47085     47079     47084     47086
     47080     47079     47081     47080     47079     47084     47081     47079     47084
     47081     47084     47085     47081     47084     47086     47082     47081     47083
     47082     47081     47084     47083     47081     47084     47084     47086     47087
     47084     47086     47088     47084     47086     47089     47085     47084     47086
     47086     47089     47090     47086     47089     47091     47086     47089     47092
     47087     47086     47088     47087     47086     47089     47088     47086     47089
     47089     47092     47093     47089     47092     47094     47089     47092     47095
     47090     47089     47091     47090     47089     47092     47091     47089     47092
     47092     47095     47096     47092     47095     47097     47092     47095     47098
     47093     47092     47094     47093     47092     47095     47094     47092     47095
     47095     47098     47099     47095     47098     47100     47095     47098     47101
     47096     47095     47097     47096     47095     47098     47097     47095     47098
     47098     47101     47102     47098     47101     47103     47098     47101     47104
     47099     47098     47100     47099     47098     47101     47100     47098     47101
     47102     47101     47103     47102     47101     47104     47103     47101     47104
     47105     47108     47109     47105     47108     47110     47105     47108     47111
     47106     47105     47107     47106     47105     47108     47107     47105     47108
     47108     47111     47112     47108     47111     47113     47108     47111     47114
     47109     47108     47110     47109     47108     47111     47110     47108     47111
     47111     47114     47115     47111     47114     47116     47111     47114     47117
     47112     47111     47113     47112     47111     47114     47113     47111     47114
     47114     47117     47118     47114     47117     47119     47114     47117     47120
     47115     47114     47116     47115     47114     47117     47116     47114     47117
     47117     47120     47121     47117     47120     47122     47117     47120     47123
     47118     47117     47119     47118     47117     47120     47119     47117     47120
     47120     47123     47124     47120     47123     47125     47120     47123     47126
     47121     47120     47122     47121     47120     47123     47122     47120     47123
     47123     47126     47127     47123     47126     47128     47123     47126     47129
     47124     47123     47125     47124     47123     47126     47125     47123     47126
     47126     47129     47130     47126     47129     47131     47126     47129     47132
     47127     47126     47128     47127     47126     47129     47128     47126     47129
     47129     47132     47133     47129     47132     47134     47129     47132     47135
     47130     47129     47131     47130     47129     47132     47131     47129     47132
     47132     47135     47136     47132     47135     47137     47132     47135     47138
     47133     47132     47134     47133     47132     47135     47134     47132     47135
     47135     47138     47139     47135     47138     47140     47135     47138     47141
     47136     47135     47137     47136     47135     47138     47137     47135     47138
     47138     47141     47142     47138     47141     47143     47138     47141     47144
     47139     47138     47140     47139     47138     47141     47140     47138     47141
     47141     47144     47145     47141     47144     47146     47141     47144     47147
     47142     47141     47143     47142     47141     47144     47143     47141     47144
     47145     47144     47146     47145     47144     47147     47146     47144     47147
     47148     47152     47153     47148     47152     47154     47148     47152     47155
     47149     47148     47150     47149     47148     47151     47149     47148     47152
     47150     47148     47151     47150     47148     47152     47151     47148     47152
     47152     47155     47156     47152     47155     47157     47152     47155     47162
     47153     47152     47154     47153     47152     47155     47154     47152     47155
     47155     47162     47158     47156     47155     47157     47156     47155     47162
     47157     47155     47162     47158     47161     47163     47159     47158     47160
     47159     47158     47161     47159     47158     47162     47160     47158     47161
     47160     47158     47162     47161     47158     47162     47161     47163     47164
     47161     47163     47165     47161     47163     47166     47163     47166     47167
     47163     47166     47168     47163     47166     47174     47164     47163     47165
     47164     47163     47166     47165     47163     47166     47166     47168     47169
     47166     47174     47175     47166     47174     47176     47166     47174     47177
     47167     47166     47168     47167     47166     47174     47168     47166     47174
     47168     47169     47170     47168     47169     47171     47169     47171     47172
     47169     47171     47173     47169     47171     47183     47170     47169     47171
     47171     47183     47184     47171     47183     47185     47171     47183     47186
     47172     47171     47173     47172     47171     47183     47173     47171     47183
     47174     47177     47178     47175     47174     47176     47175     47174     47177
     47176     47174     47177     47177     47178     47179     47177     47178     47180
     47178     47180     47181     47178     47180     47182     47178     47180     47230
     47179     47178     47180     47180     47230     47231     47180     47230     47232
     47180     47230     47233     47181     47180     47182     47181     47180     47230
     47182     47180     47230     47183     47186     47187     47183     47186     47188
     47183     47186     47189     47184     47183     47185     47184     47183     47186
     47185     47183     47186     47186     47189     47190     47186     47189     47191
     47186     47189     47192     47187     47186     47188     47187     47186     47189
     47188     47186     47189     47189     47192     47193     47189     47192     47194
     47189     47192     47195     47190     47189     47191     47190     47189     47192
     47191     47189     47192     47192     47195     47196     47192     47195     47197
     47192     47195     47198     47193     47192     47194     47193     47192     47195
     47194     47192     47195     47195     47198     47199     47195     47198     47200
     47195     47198     47201     47196     47195     47197     47196     47195     47198
     47197     47195     47198     47198     47201     47202     47198     47201     47203
     47199     47198     47200     47199     47198     47201     47200     47198     47201
     47201     47203     47204     47201     47203     47205     47202     47201     47203
     47203     47205     47206     47203     47205     47207     47203     47205     47208
     47204     47203     47205     47205     47208     47209     47205     47208     47210
     47205     47208     47211     47206     47205     47207     47206     47205     47208
     47207     47205     47208     47208     47211     47212     47208     47211     47213
     47208     47211     47214     47209     47208     47210     47209     47208     47211
     47210     47208     47211     47211     47214     47215     47211     47214     47216
     47211     47214     47217     47212     47211     47213     47212     47211     47214
     47213     47211     47214     47214     47217     47218     47214     47217     47219
     47214     47217     47220     47215     47214     47216     47215     47214     47217
     47216     47214     47217     47217     47220     47221     47217     47220     47222
     47217     47220     47223     47218     47217     47219     47218     47217     47220
     47219     47217     47220     47220     47223     47224     47220     47223     47225
     47220     47223     47226     47221     47220     47222     47221     47220     47223
     47222     47220     47223     47223     47226     47227     47223     47226     47228
     47223     47226     47229     47224     47223     47225     47224     47223     47226
     47225     47223     47226     47227     47226     47228     47227     47226     47229
     47228     47226     47229     47230     47233     47234     47230     47233     47235
     47230     47233     47236     47231     47230     47232     47231     47230     47233
     47232     47230     47233     47233     47236     47237     47233     47236     47238
     47233     47236     47239     47234     47233     47235     47234     47233     47236
     47235     47233     47236     47236     47239     47240     47236     47239     47241
     47236     47239     47242     47237     47236     47238     47237     47236     47239
     47238     47236     47239     47239     47242     47243     47239     47242     47244
     47239     47242     47245     47240     47239     47241     47240     47239     47242
     47241     47239     47242     47242     47245     47246     47242     47245     47247
     47242     47245     47248     47243     47242     47244     47243     47242     47245
     47244     47242     47245     47245     47248     47249     47245     47248     47250
     47245     47248     47251     47246     47245     47247     47246     47245     47248
     47247     47245     47248     47248     47251     47252     47248     47251     47253
     47248     47251     47254     47249     47248     47250     47249     47248     47251
     47250     47248     47251     47251     47254     47255     47251     47254     47256
     47251     47254     47257     47252     47251     47253     47252     47251     47254
     47253     47251     47254     47254     47257     47258     47254     47257     47259
     47254     47257     47260     47255     47254     47256     47255     47254     47257
     47256     47254     47257     47257     47260     47261     47257     47260     47262
     47257     47260     47263     47258     47257     47259     47258     47257     47260
     47259     47257     47260     47260     47263     47264     47260     47263     47265
     47260     47263     47266     47261     47260     47262     47261     47260     47263
     47262     47260     47263     47263     47266     47267     47263     47266     47268
     47263     47266     47269     47264     47263     47265     47264     47263     47266
     47265     47263     47266     47266     47269     47270     47266     47269     47271
     47266     47269     47272     47267     47266     47268     47267     47266     47269
     47268     47266     47269     47270     47269     47271     47270     47269     47272
     47271     47269     47272     47273     47277     47278     47273     47277     47279
     47273     47277     47280     47274     47273     47275     47274     47273     47276
     47274     47273     47277     47275     47273     47276     47275     47273     47277
     47276     47273     47277     47277     47280     47281     47277     47280     47282
     47277     47280     47287     47278     47277     47279     47278     47277     47280
     47279     47277     47280     47280     47287     47283     47281     47280     47282
     47281     47280     47287     47282     47280     47287     47283     47286     47288
     47284     47283     47285     47284     47283     47286     47284     47283     47287
     47285     47283     47286     47285     47283     47287     47286     47283     47287
     47286     47288     47289     47286     47288     47290     47286     47288     47291
     47288     47291     47292     47288     47291     47293     47288     47291     47299
     47289     47288     47290     47289     47288     47291     47290     47288     47291
     47291     47293     47294     47291     47299     47300     47291     47299     47301
     47291     47299     47302     47292     47291     47293     47292     47291     47299
     47293     47291     47299     47293     47294     47295     47293     47294     47296
     47294     47296     47297     47294     47296     47298     47294     47296     47308
     47295     47294     47296     47296     47308     47309     47296     47308     47310
     47296     47308     47311     47297     47296     47298     47297     47296     47308
     47298     47296     47308     47299     47302     47303     47300     47299     47301
     47300     47299     47302     47301     47299     47302     47302     47303     47304
     47302     47303     47305     47303     47305     47306     47303     47305     47307
     47303     47305     47352     47304     47303     47305     47305     47352     47353
     47305     47352     47354     47305     47352     47355     47306     47305     47307
     47306     47305     47352     47307     47305     47352     47308     47311     47312
     47308     47311     47313     47308     47311     47314     47309     47308     47310
     47309     47308     47311     47310     47308     47311     47311     47314     47315
     47311     47314     47316     47311     47314     47317     47312     47311     47313
     47312     47311     47314     47313     47311     47314     47314     47317     47318
     47314     47317     47319     47314     47317     47320     47315     47314     47316
     47315     47314     47317     47316     47314     47317     47317     47320     47321
     47317     47320     47322     47317     47320     47323     47318     47317     47319
     47318     47317     47320     47319     47317     47320     47320     47323     47324
     47320     47323     47325     47320     47323     47326     47321     47320     47322
     47321     47320     47323     47322     47320     47323     47323     47326     47327
     47323     47326     47328     47323     47326     47331     47324     47323     47325
     47324     47323     47326     47325     47323     47326     47326     47328     47329
     47326     47328     47330     47326     47328     47331     47326     47331     47328
     47326     47331     47332     47326     47331     47333     47327     47326     47328
     47327     47326     47331     47328     47326     47331     47328     47331     47332
     47328     47331     47333     47329     47328     47330     47329     47328     47331
     47330     47328     47331     47331     47333     47334     47331     47333     47335
     47331     47333     47336     47332     47331     47333     47333     47336     47337
     47333     47336     47338     47333     47336     47339     47334     47333     47335
     47334     47333     47336     47335     47333     47336     47336     47339     47340
     47336     47339     47341     47336     47339     47342     47337     47336     47338
     47337     47336     47339     47338     47336     47339     47339     47342     47343
     47339     47342     47344     47339     47342     47345     47340     47339     47341
     47340     47339     47342     47341     47339     47342     47342     47345     47346
     47342     47345     47347     47342     47345     47348     47343     47342     47344
     47343     47342     47345     47344     47342     47345     47345     47348     47349
     47345     47348     47350     47345     47348     47351     47346     47345     47347
     47346     47345     47348     47347     47345     47348     47349     47348     47350
     47349     47348     47351     47350     47348     47351     47352     47355     47356
     47352     47355     47357     47352     47355     47358     47353     47352     47354
     47353     47352     47355     47354     47352     47355     47355     47358     47359
     47355     47358     47360     47355     47358     47361     47356     47355     47357
     47356     47355     47358     47357     47355     47358     47358     47361     47362
     47358     47361     47363     47358     47361     47364     47359     47358     47360
     47359     47358     47361     47360     47358     47361     47361     47364     47365
     47361     47364     47366     47361     47364     47367     47362     47361     47363
     47362     47361     47364     47363     47361     47364     47364     47367     47368
     47364     47367     47369     47364     47367     47370     47365     47364     47366
     47365     47364     47367     47366     47364     47367     47367     47370     47371
     47367     47370     47372     47367     47370     47373     47368     47367     47369
     47368     47367     47370     47369     47367     47370     47370     47373     47374
     47370     47373     47375     47370     47373     47376     47371     47370     47372
     47371     47370     47373     47372     47370     47373     47373     47376     47377
     47373     47376     47378     47373     47376     47379     47374     47373     47375
     47374     47373     47376     47375     47373     47376     47376     47379     47380
     47376     47379     47381     47376     47379     47382     47377     47376     47378
     47377     47376     47379     47378     47376     47379     47379     47382     47383
     47379     47382     47384     47379     47382     47385     47380     47379     47381
     47380     47379     47382     47381     47379     47382     47382     47385     47386
     47382     47385     47387     47382     47385     47388     47383     47382     47384
     47383     47382     47385     47384     47382     47385     47385     47388     47389
     47385     47388     47390     47385     47388     47391     47386     47385     47387
     47386     47385     47388     47387     47385     47388     47388     47391     47392
     47388     47391     47393     47388     47391     47394     47389     47388     47390
     47389     47388     47391     47390     47388     47391     47392     47391     47393
     47392     47391     47394     47393     47391     47394     47395     47401     47398
     47395     47406     47407     47395     47406     47408     47395     47406     47410
     47396     47395     47397     47396     47395     47401     47396     47395     47406
     47397     47395     47401     47397     47395     47406     47398     47402     47403
     47399     47398     47400     47399     47398     47401     47399     47398     47402
     47400     47398     47401     47400     47398     47402     47401     47395     47406
     47401     47398     47402     47402     47403     47404     47402     47403     47405
     47402     47403     47438     47403     47438     47439     47403     47438     47440
     47403     47438     47446     47404     47403     47405     47404     47403     47438
     47405     47403     47438     47406     47408     47409     47406     47410     47411
     47406     47410     47412     47406     47410     47416     47407     47406     47408
     47407     47406     47410     47408     47406     47410     47410     47416     47413
     47411     47410     47412     47411     47410     47416     47412     47410     47416
     47413     47417     47418     47414     47413     47415     47414     47413     47416
     47414     47413     47417     47415     47413     47416     47415     47413     47417
     47416     47413     47417     47417     47418     47419     47417     47418     47420
     47417     47418     47421     47418     47421     47422     47418     47421     47423
     47418     47421     47429     47419     47418     47420     47419     47418     47421
     47420     47418     47421     47421     47423     47424     47421     47429     47430
     47421     47429     47431     47421     47429     47432     47422     47421     47423
     47422     47421     47429     47423     47421     47429     47423     47424     47425
     47423     47424     47426     47424     47426     47427     47424     47426     47428
     47424     47426     47455     47425     47424     47426     47426     47455     47456
     47426     47455     47457     47426     47455     47458     47427     47426     47428
     47427     47426     47455     47428     47426     47455     47429     47432     47433
     47430     47429     47431     47430     47429     47432     47431     47429     47432
     47432     47433     47434     47432     47433     47435     47433     47435     47436
     47433     47435     47437     47433     47435     47502     47434     47433     47435
     47435     47502     47503     47435     47502     47504     47435     47502     47505
     47436     47435     47437     47436     47435     47502     47437     47435     47502
     47438     47440     47441     47438     47446     47447     47438     47446     47448
     47438     47446     47449     47439     47438     47440     47439     47438     47446
     47440     47438     47446     47440     47441     47442     47440     47441     47443
     47441     47443     47444     47441     47443     47445     47441     47443     47545
     47442     47441     47443     47443     47545     47546     47443     47545     47547
     47443     47545     47548     47444     47443     47445     47444     47443     47545
     47445     47443     47545     47446     47449     47450     47447     47446     47448
     47447     47446     47449     47448     47446     47449     47449     47450     47451
     47449     47450     47452     47450     47452     47453     47450     47452     47454
     47450     47452     47592     47451     47450     47452     47452     47592     47593
     47452     47592     47594     47452     47592     47595     47453     47452     47454
     47453     47452     47592     47454     47452     47592     47455     47458     47459
     47455     47458     47460     47455     47458     47461     47456     47455     47457
     47456     47455     47458     47457     47455     47458     47458     47461     47462
     47458     47461     47463     47458     47461     47464     47459     47458     47460
     47459     47458     47461     47460     47458     47461     47461     47464     47465
     47461     47464     47466     47461     47464     47467     47462     47461     47463
     47462     47461     47464     47463     47461     47464     47464     47467     47468
     47464     47467     47469     47464     47467     47470     47465     47464     47466
     47465     47464     47467     47466     47464     47467     47467     47470     47471
     47467     47470     47472     47467     47470     47473     47468     47467     47469
     47468     47467     47470     47469     47467     47470     47470     47473     47474
     47470     47473     47475     47470     47473     47476     47471     47470     47472
     47471     47470     47473     47472     47470     47473     47473     47476     47477
     47473     47476     47478     47473     47476     47479     47474     47473     47475
     47474     47473     47476     47475     47473     47476     47476     47479     47480
     47476     47479     47481     47477     47476     47478     47477     47476     47479
     47478     47476     47479     47479     47481     47482     47479     47481     47483
     47480     47479     47481     47481     47483     47484     47481     47483     47485
     47481     47483     47486     47482     47481     47483     47483     47486     47487
     47483     47486     47488     47483     47486     47489     47484     47483     47485
     47484     47483     47486     47485     47483     47486     47486     47489     47490
     47486     47489     47491     47486     47489     47492     47487     47486     47488
     47487     47486     47489     47488     47486     47489     47489     47492     47493
     47489     47492     47494     47489     47492     47495     47490     47489     47491
     47490     47489     47492     47491     47489     47492     47492     47495     47496
     47492     47495     47497     47492     47495     47498     47493     47492     47494
     47493     47492     47495     47494     47492     47495     47495     47498     47499
     47495     47498     47500     47495     47498     47501     47496     47495     47497
     47496     47495     47498     47497     47495     47498     47499     47498     47500
     47499     47498     47501     47500     47498     47501     47502     47505     47506
     47502     47505     47507     47502     47505     47508     47503     47502     47504
     47503     47502     47505     47504     47502     47505     47505     47508     47509
     47505     47508     47510     47505     47508     47511     47506     47505     47507
     47506     47505     47508     47507     47505     47508     47508     47511     47512
     47508     47511     47513     47508     47511     47514     47509     47508     47510
     47509     47508     47511     47510     47508     47511     47511     47514     47515
     47511     47514     47516     47511     47514     47517     47512     47511     47513
     47512     47511     47514     47513     47511     47514     47514     47517     47518
     47514     47517     47519     47514     47517     47520     47515     47514     47516
     47515     47514     47517     47516     47514     47517     47517     47520     47521
     47517     47520     47522     47517     47520     47523     47518     47517     47519
     47518     47517     47520     47519     47517     47520     47520     47523     47524
     47520     47523     47525     47520     47523     47526     47521     47520     47522
     47521     47520     47523     47522     47520     47523     47523     47526     47527
     47523     47526     47528     47523     47526     47529     47524     47523     47525
     47524     47523     47526     47525     47523     47526     47526     47529     47530
     47526     47529     47531     47526     47529     47532     47527     47526     47528
     47527     47526     47529     47528     47526     47529     47529     47532     47533
     47529     47532     47534     47529     47532     47535     47530     47529     47531
     47530     47529     47532     47531     47529     47532     47532     47535     47536
     47532     47535     47537     47532     47535     47538     47533     47532     47534
     47533     47532     47535     47534     47532     47535     47535     47538     47539
     47535     47538     47540     47535     47538     47541     47536     47535     47537
     47536     47535     47538     47537     47535     47538     47538     47541     47542
     47538     47541     47543     47538     47541     47544     47539     47538     47540
     47539     47538     47541     47540     47538     47541     47542     47541     47543
     47542     47541     47544     47543     47541     47544     47545     47548     47549
     47545     47548     47550     47545     47548     47551     47546     47545     47547
     47546     47545     47548     47547     47545     47548     47548     47551     47552
     47548     47551     47553     47548     47551     47554     47549     47548     47550
     47549     47548     47551     47550     47548     47551     47551     47554     47555
     47551     47554     47556     47551     47554     47557     47552     47551     47553
     47552     47551     47554     47553     47551     47554     47554     47557     47558
     47554     47557     47559     47554     47557     47560     47555     47554     47556
     47555     47554     47557     47556     47554     47557     47557     47560     47561
     47557     47560     47562     47557     47560     47563     47558     47557     47559
     47558     47557     47560     47559     47557     47560     47560     47563     47564
     47560     47563     47565     47560     47563     47566     47561     47560     47562
     47561     47560     47563     47562     47560     47563     47563     47566     47567
     47563     47566     47568     47563     47566     47569     47564     47563     47565
     47564     47563     47566     47565     47563     47566     47566     47569     47570
     47566     47569     47571     47567     47566     47568     47567     47566     47569
     47568     47566     47569     47569     47571     47572     47569     47571     47573
     47570     47569     47571     47571     47573     47574     47571     47573     47575
     47571     47573     47576     47572     47571     47573     47573     47576     47577
     47573     47576     47578     47573     47576     47579     47574     47573     47575
     47574     47573     47576     47575     47573     47576     47576     47579     47580
     47576     47579     47581     47576     47579     47582     47577     47576     47578
     47577     47576     47579     47578     47576     47579     47579     47582     47583
     47579     47582     47584     47579     47582     47585     47580     47579     47581
     47580     47579     47582     47581     47579     47582     47582     47585     47586
     47582     47585     47587     47582     47585     47588     47583     47582     47584
     47583     47582     47585     47584     47582     47585     47585     47588     47589
     47585     47588     47590     47585     47588     47591     47586     47585     47587
     47586     47585     47588     47587     47585     47588     47589     47588     47590
     47589     47588     47591     47590     47588     47591     47592     47595     47596
     47592     47595     47597     47592     47595     47598     47593     47592     47594
     47593     47592     47595     47594     47592     47595     47595     47598     47599
     47595     47598     47600     47595     47598     47601     47596     47595     47597
     47596     47595     47598     47597     47595     47598     47598     47601     47602
     47598     47601     47603     47598     47601     47604     47599     47598     47600
     47599     47598     47601     47600     47598     47601     47601     47604     47605
     47601     47604     47606     47601     47604     47607     47602     47601     47603
     47602     47601     47604     47603     47601     47604     47604     47607     47608
     47604     47607     47609     47604     47607     47610     47605     47604     47606
     47605     47604     47607     47606     47604     47607     47607     47610     47611
     47607     47610     47612     47607     47610     47613     47608     47607     47609
     47608     47607     47610     47609     47607     47610     47610     47613     47614
     47610     47613     47615     47610     47613     47616     47611     47610     47612
     47611     47610     47613     47612     47610     47613     47613     47616     47617
     47613     47616     47618     47613     47616     47619     47614     47613     47615
     47614     47613     47616     47615     47613     47616     47616     47619     47620
     47616     47619     47621     47616     47619     47622     47617     47616     47618
     47617     47616     47619     47618     47616     47619     47619     47622     47623
     47619     47622     47624     47619     47622     47625     47620     47619     47621
     47620     47619     47622     47621     47619     47622     47622     47625     47626
     47622     47625     47627     47622     47625     47628     47623     47622     47624
     47623     47622     47625     47624     47622     47625     47625     47628     47629
     47625     47628     47630     47625     47628     47631     47626     47625     47627
     47626     47625     47628     47627     47625     47628     47628     47631     47632
     47628     47631     47633     47628     47631     47634     47629     47628     47630
     47629     47628     47631     47630     47628     47631     47632     47631     47633
     47632     47631     47634     47633     47631     47634     47635     47639     47640
     47635     47639     47641     47635     47639     47642     47636     47635     47637
     47636     47635     47638     47636     47635     47639     47637     47635     47638
     47637     47635     47639     47638     47635     47639     47639     47642     47643
     47639     47642     47644     47639     47642     47649     47640     47639     47641
     47640     47639     47642     47641     47639     47642     47642     47649     47645
     47643     47642     47644     47643     47642     47649     47644     47642     47649
     47645     47648     47650     47646     47645     47647     47646     47645     47648
     47646     47645     47649     47647     47645     47648     47647     47645     47649
     47648     47645     47649     47648     47650     47651     47648     47650     47652
     47648     47650     47653     47650     47653     47654     47650     47653     47655
     47650     47653     47661     47651     47650     47652     47651     47650     47653
     47652     47650     47653     47653     47655     47656     47653     47661     47662
     47653     47661     47663     47653     47661     47664     47654     47653     47655
     47654     47653     47661     47655     47653     47661     47655     47656     47657
     47655     47656     47658     47656     47658     47659     47656     47658     47660
     47656     47658     47670     47657     47656     47658     47658     47670     47671
     47658     47670     47672     47658     47670     47673     47659     47658     47660
     47659     47658     47670     47660     47658     47670     47661     47664     47665
     47662     47661     47663     47662     47661     47664     47663     47661     47664
     47664     47665     47666     47664     47665     47667     47665     47667     47668
     47665     47667     47669     47665     47667     47714     47666     47665     47667
     47667     47714     47715     47667     47714     47716     47667     47714     47717
     47668     47667     47669     47668     47667     47714     47669     47667     47714
     47670     47673     47674     47670     47673     47675     47670     47673     47676
     47671     47670     47672     47671     47670     47673     47672     47670     47673
     47673     47676     47677     47673     47676     47678     47673     47676     47679
     47674     47673     47675     47674     47673     47676     47675     47673     47676
     47676     47679     47680     47676     47679     47681     47676     47679     47682
     47677     47676     47678     47677     47676     47679     47678     47676     47679
     47679     47682     47683     47679     47682     47684     47679     47682     47685
     47680     47679     47681     47680     47679     47682     47681     47679     47682
     47682     47685     47686     47682     47685     47687     47682     47685     47688
     47683     47682     47684     47683     47682     47685     47684     47682     47685
     47685     47688     47689     47685     47688     47690     47685     47688     47693
     47686     47685     47687     47686     47685     47688     47687     47685     47688
     47688     47690     47691     47688     47690     47692     47688     47690     47693
     47688     47693     47690     47688     47693     47694     47688     47693     47695
     47689     47688     47690     47689     47688     47693     47690     47688     47693
     47690     47693     47694     47690     47693     47695     47691     47690     47692
     47691     47690     47693     47692     47690     47693     47693     47695     47696
     47693     47695     47697     47693     47695     47698     47694     47693     47695
     47695     47698     47699     47695     47698     47700     47695     47698     47701
     47696     47695     47697     47696     47695     47698     47697     47695     47698
     47698     47701     47702     47698     47701     47703     47698     47701     47704
     47699     47698     47700     47699     47698     47701     47700     47698     47701
     47701     47704     47705     47701     47704     47706     47701     47704     47707
     47702     47701     47703     47702     47701     47704     47703     47701     47704
     47704     47707     47708     47704     47707     47709     47704     47707     47710
     47705     47704     47706     47705     47704     47707     47706     47704     47707
     47707     47710     47711     47707     47710     47712     47707     47710     47713
     47708     47707     47709     47708     47707     47710     47709     47707     47710
     47711     47710     47712     47711     47710     47713     47712     47710     47713
     47714     47717     47718     47714     47717     47719     47714     47717     47720
     47715     47714     47716     47715     47714     47717     47716     47714     47717
     47717     47720     47721     47717     47720     47722     47717     47720     47723
     47718     47717     47719     47718     47717     47720     47719     47717     47720
     47720     47723     47724     47720     47723     47725     47720     47723     47726
     47721     47720     47722     47721     47720     47723     47722     47720     47723
     47723     47726     47727     47723     47726     47728     47723     47726     47729
     47724     47723     47725     47724     47723     47726     47725     47723     47726
     47726     47729     47730     47726     47729     47731     47726     47729     47732
     47727     47726     47728     47727     47726     47729     47728     47726     47729
     47729     47732     47733     47729     47732     47734     47729     47732     47735
     47730     47729     47731     47730     47729     47732     47731     47729     47732
     47732     47735     47736     47732     47735     47737     47732     47735     47738
     47733     47732     47734     47733     47732     47735     47734     47732     47735
     47735     47738     47739     47735     47738     47740     47735     47738     47741
     47736     47735     47737     47736     47735     47738     47737     47735     47738
     47738     47741     47742     47738     47741     47743     47738     47741     47744
     47739     47738     47740     47739     47738     47741     47740     47738     47741
     47741     47744     47745     47741     47744     47746     47741     47744     47747
     47742     47741     47743     47742     47741     47744     47743     47741     47744
     47744     47747     47748     47744     47747     47749     47744     47747     47750
     47745     47744     47746     47745     47744     47747     47746     47744     47747
     47747     47750     47751     47747     47750     47752     47747     47750     47753
     47748     47747     47749     47748     47747     47750     47749     47747     47750
     47750     47753     47754     47750     47753     47755     47750     47753     47756
     47751     47750     47752     47751     47750     47753     47752     47750     47753
     47754     47753     47755     47754     47753     47756     47755     47753     47756
     47757     47761     47762     47757     47761     47763     47757     47761     47764
     47758     47757     47759     47758     47757     47760     47758     47757     47761
     47759     47757     47760     47759     47757     47761     47760     47757     47761
     47761     47764     47765     47761     47764     47766     47761     47764     47771
     47762     47761     47763     47762     47761     47764     47763     47761     47764
     47764     47771     47767     47765     47764     47766     47765     47764     47771
     47766     47764     47771     47767     47770     47772     47768     47767     47769
     47768     47767     47770     47768     47767     47771     47769     47767     47770
     47769     47767     47771     47770     47767     47771     47770     47772     47773
     47770     47772     47774     47770     47772     47775     47772     47775     47776
     47772     47775     47777     47772     47775     47783     47773     47772     47774
     47773     47772     47775     47774     47772     47775     47775     47777     47778
     47775     47783     47784     47775     47783     47785     47775     47783     47786
     47776     47775     47777     47776     47775     47783     47777     47775     47783
     47777     47778     47779     47777     47778     47780     47778     47780     47781
     47778     47780     47782     47778     47780     47792     47779     47778     47780
     47780     47792     47793     47780     47792     47794     47780     47792     47795
     47781     47780     47782     47781     47780     47792     47782     47780     47792
     47783     47786     47787     47784     47783     47785     47784     47783     47786
     47785     47783     47786     47786     47787     47788     47786     47787     47789
     47787     47789     47790     47787     47789     47791     47787     47789     47836
     47788     47787     47789     47789     47836     47837     47789     47836     47838
     47789     47836     47839     47790     47789     47791     47790     47789     47836
     47791     47789     47836     47792     47795     47796     47792     47795     47797
     47792     47795     47798     47793     47792     47794     47793     47792     47795
     47794     47792     47795     47795     47798     47799     47795     47798     47800
     47795     47798     47801     47796     47795     47797     47796     47795     47798
     47797     47795     47798     47798     47801     47802     47798     47801     47803
     47798     47801     47804     47799     47798     47800     47799     47798     47801
     47800     47798     47801     47801     47804     47805     47801     47804     47806
     47801     47804     47807     47802     47801     47803     47802     47801     47804
     47803     47801     47804     47804     47807     47808     47804     47807     47809
     47804     47807     47810     47805     47804     47806     47805     47804     47807
     47806     47804     47807     47807     47810     47811     47807     47810     47812
     47807     47810     47815     47808     47807     47809     47808     47807     47810
     47809     47807     47810     47810     47812     47813     47810     47812     47814
     47810     47812     47815     47810     47815     47812     47810     47815     47816
     47810     47815     47817     47811     47810     47812     47811     47810     47815
     47812     47810     47815     47812     47815     47816     47812     47815     47817
     47813     47812     47814     47813     47812     47815     47814     47812     47815
     47815     47817     47818     47815     47817     47819     47815     47817     47820
     47816     47815     47817     47817     47820     47821     47817     47820     47822
     47817     47820     47823     47818     47817     47819     47818     47817     47820
     47819     47817     47820     47820     47823     47824     47820     47823     47825
     47820     47823     47826     47821     47820     47822     47821     47820     47823
     47822     47820     47823     47823     47826     47827     47823     47826     47828
     47823     47826     47829     47824     47823     47825     47824     47823     47826
     47825     47823     47826     47826     47829     47830     47826     47829     47831
     47826     47829     47832     47827     47826     47828     47827     47826     47829
     47828     47826     47829     47829     47832     47833     47829     47832     47834
     47829     47832     47835     47830     47829     47831     47830     47829     47832
     47831     47829     47832     47833     47832     47834     47833     47832     47835
     47834     47832     47835     47836     47839     47840     47836     47839     47841
     47836     47839     47842     47837     47836     47838     47837     47836     47839
     47838     47836     47839     47839     47842     47843     47839     47842     47844
     47839     47842     47845     47840     47839     47841     47840     47839     47842
     47841     47839     47842     47842     47845     47846     47842     47845     47847
     47842     47845     47848     47843     47842     47844     47843     47842     47845
     47844     47842     47845     47845     47848     47849     47845     47848     47850
     47845     47848     47851     47846     47845     47847     47846     47845     47848
     47847     47845     47848     47848     47851     47852     47848     47851     47853
     47848     47851     47854     47849     47848     47850     47849     47848     47851
     47850     47848     47851     47851     47854     47855     47851     47854     47856
     47851     47854     47857     47852     47851     47853     47852     47851     47854
     47853     47851     47854     47854     47857     47858     47854     47857     47859
     47854     47857     47860     47855     47854     47856     47855     47854     47857
     47856     47854     47857     47857     47860     47861     47857     47860     47862
     47857     47860     47863     47858     47857     47859     47858     47857     47860
     47859     47857     47860     47860     47863     47864     47860     47863     47865
     47860     47863     47866     47861     47860     47862     47861     47860     47863
     47862     47860     47863     47863     47866     47867     47863     47866     47868
     47863     47866     47869     47864     47863     47865     47864     47863     47866
     47865     47863     47866     47866     47869     47870     47866     47869     47871
     47866     47869     47872     47867     47866     47868     47867     47866     47869
     47868     47866     47869     47869     47872     47873     47869     47872     47874
     47869     47872     47875     47870     47869     47871     47870     47869     47872
     47871     47869     47872     47872     47875     47876     47872     47875     47877
     47872     47875     47878     47873     47872     47874     47873     47872     47875
     47874     47872     47875     47876     47875     47877     47876     47875     47878
     47877     47875     47878     47879     47883     47884     47879     47883     47885
     47879     47883     47886     47880     47879     47881     47880     47879     47882
     47880     47879     47883     47881     47879     47882     47881     47879     47883
     47882     47879     47883     47883     47886     47887     47883     47886     47888
     47883     47886     47893     47884     47883     47885     47884     47883     47886
     47885     47883     47886     47886     47893     47889     47887     47886     47888
     47887     47886     47893     47888     47886     47893     47889     47892     47894
     47890     47889     47891     47890     47889     47892     47890     47889     47893
     47891     47889     47892     47891     47889     47893     47892     47889     47893
     47892     47894     47895     47892     47894     47896     47892     47894     47897
     47894     47897     47898     47894     47897     47899     47894     47897     47905
     47895     47894     47896     47895     47894     47897     47896     47894     47897
     47897     47899     47900     47897     47905     47906     47897     47905     47907
     47897     47905     47908     47898     47897     47899     47898     47897     47905
     47899     47897     47905     47899     47900     47901     47899     47900     47902
     47900     47902     47903     47900     47902     47904     47900     47902     47914
     47901     47900     47902     47902     47914     47915     47902     47914     47916
     47902     47914     47917     47903     47902     47904     47903     47902     47914
     47904     47902     47914     47905     47908     47909     47906     47905     47907
     47906     47905     47908     47907     47905     47908     47908     47909     47910
     47908     47909     47911     47909     47911     47912     47909     47911     47913
     47909     47911     47958     47910     47909     47911     47911     47958     47959
     47911     47958     47960     47911     47958     47961     47912     47911     47913
     47912     47911     47958     47913     47911     47958     47914     47917     47918
     47914     47917     47919     47914     47917     47920     47915     47914     47916
     47915     47914     47917     47916     47914     47917     47917     47920     47921
     47917     47920     47922     47917     47920     47923     47918     47917     47919
     47918     47917     47920     47919     47917     47920     47920     47923     47924
     47920     47923     47925     47920     47923     47926     47921     47920     47922
     47921     47920     47923     47922     47920     47923     47923     47926     47927
     47923     47926     47928     47923     47926     47929     47924     47923     47925
     47924     47923     47926     47925     47923     47926     47926     47929     47930
     47926     47929     47931     47926     47929     47932     47927     47926     47928
     47927     47926     47929     47928     47926     47929     47929     47932     47933
     47929     47932     47934     47929     47932     47937     47930     47929     47931
     47930     47929     47932     47931     47929     47932     47932     47934     47935
     47932     47934     47936     47932     47934     47937     47932     47937     47934
     47932     47937     47938     47932     47937     47939     47933     47932     47934
     47933     47932     47937     47934     47932     47937     47934     47937     47938
     47934     47937     47939     47935     47934     47936     47935     47934     47937
     47936     47934     47937     47937     47939     47940     47937     47939     47941
     47937     47939     47942     47938     47937     47939     47939     47942     47943
     47939     47942     47944     47939     47942     47945     47940     47939     47941
     47940     47939     47942     47941     47939     47942     47942     47945     47946
     47942     47945     47947     47942     47945     47948     47943     47942     47944
     47943     47942     47945     47944     47942     47945     47945     47948     47949
     47945     47948     47950     47945     47948     47951     47946     47945     47947
     47946     47945     47948     47947     47945     47948     47948     47951     47952
     47948     47951     47953     47948     47951     47954     47949     47948     47950
     47949     47948     47951     47950     47948     47951     47951     47954     47955
     47951     47954     47956     47951     47954     47957     47952     47951     47953
     47952     47951     47954     47953     47951     47954     47955     47954     47956
     47955     47954     47957     47956     47954     47957     47958     47961     47962
     47958     47961     47963     47958     47961     47964     47959     47958     47960
     47959     47958     47961     47960     47958     47961     47961     47964     47965
     47961     47964     47966     47961     47964     47967     47962     47961     47963
     47962     47961     47964     47963     47961     47964     47964     47967     47968
     47964     47967     47969     47964     47967     47970     47965     47964     47966
     47965     47964     47967     47966     47964     47967     47967     47970     47971
     47967     47970     47972     47967     47970     47973     47968     47967     47969
     47968     47967     47970     47969     47967     47970     47970     47973     47974
     47970     47973     47975     47970     47973     47976     47971     47970     47972
     47971     47970     47973     47972     47970     47973     47973     47976     47977
     47973     47976     47978     47973     47976     47979     47974     47973     47975
     47974     47973     47976     47975     47973     47976     47976     47979     47980
     47976     47979     47981     47976     47979     47982     47977     47976     47978
     47977     47976     47979     47978     47976     47979     47979     47982     47983
     47979     47982     47984     47979     47982     47985     47980     47979     47981
     47980     47979     47982     47981     47979     47982     47982     47985     47986
     47982     47985     47987     47982     47985     47988     47983     47982     47984
     47983     47982     47985     47984     47982     47985     47985     47988     47989
     47985     47988     47990     47985     47988     47991     47986     47985     47987
     47986     47985     47988     47987     47985     47988     47988     47991     47992
     47988     47991     47993     47988     47991     47994     47989     47988     47990
     47989     47988     47991     47990     47988     47991     47991     47994     47995
     47991     47994     47996     47991     47994     47997     47992     47991     47993
     47992     47991     47994     47993     47991     47994     47994     47997     47998
     47994     47997     47999     47994     47997     48000     47995     47994     47996
     47995     47994     47997     47996     47994     47997     47998     47997     47999
     47998     47997     48000     47999     47997     48000     48001     48005     48006
     48001     48005     48007     48001     48005     48008     48002     48001     48003
     48002     48001     48004     48002     48001     48005     48003     48001     48004
     48003     48001     48005     48004     48001     48005     48005     48008     48009
     48005     48008     48010     48005     48008     48015     48006     48005     48007
     48006     48005     48008     48007     48005     48008     48008     48015     48011
     48009     48008     48010     48009     48008     48015     48010     48008     48015
     48011     48014     48016     48012     48011     48013     48012     48011     48014
     48012     48011     48015     48013     48011     48014     48013     48011     48015
     48014     48011     48015     48014     48016     48017     48014     48016     48018
     48014     48016     48019     48016     48019     48020     48016     48019     48021
     48016     48019     48027     48017     48016     48018     48017     48016     48019
     48018     48016     48019     48019     48021     48022     48019     48027     48028
     48019     48027     48029     48019     48027     48030     48020     48019     48021
     48020     48019     48027     48021     48019     48027     48021     48022     48023
     48021     48022     48024     48022     48024     48025     48022     48024     48026
     48022     48024     48036     48023     48022     48024     48024     48036     48037
     48024     48036     48038     48024     48036     48039     48025     48024     48026
     48025     48024     48036     48026     48024     48036     48027     48030     48031
     48028     48027     48029     48028     48027     48030     48029     48027     48030
     48030     48031     48032     48030     48031     48033     48031     48033     48034
     48031     48033     48035     48031     48033     48083     48032     48031     48033
     48033     48083     48084     48033     48083     48085     48033     48083     48086
     48034     48033     48035     48034     48033     48083     48035     48033     48083
     48036     48039     48040     48036     48039     48041     48036     48039     48042
     48037     48036     48038     48037     48036     48039     48038     48036     48039
     48039     48042     48043     48039     48042     48044     48039     48042     48045
     48040     48039     48041     48040     48039     48042     48041     48039     48042
     48042     48045     48046     48042     48045     48047     48042     48045     48048
     48043     48042     48044     48043     48042     48045     48044     48042     48045
     48045     48048     48049     48045     48048     48050     48045     48048     48051
     48046     48045     48047     48046     48045     48048     48047     48045     48048
     48048     48051     48052     48048     48051     48053     48048     48051     48054
     48049     48048     48050     48049     48048     48051     48050     48048     48051
     48051     48054     48055     48051     48054     48056     48052     48051     48053
     48052     48051     48054     48053     48051     48054     48054     48056     48057
     48054     48056     48058     48055     48054     48056     48056     48058     48059
     48056     48058     48060     48056     48058     48061     48057     48056     48058
     48058     48061     48062     48058     48061     48063     48058     48061     48064
     48059     48058     48060     48059     48058     48061     48060     48058     48061
     48061     48064     48065     48061     48064     48066     48061     48064     48067
     48062     48061     48063     48062     48061     48064     48063     48061     48064
     48064     48067     48068     48064     48067     48069     48064     48067     48070
     48065     48064     48066     48065     48064     48067     48066     48064     48067
     48067     48070     48071     48067     48070     48072     48067     48070     48073
     48068     48067     48069     48068     48067     48070     48069     48067     48070
     48070     48073     48074     48070     48073     48075     48070     48073     48076
     48071     48070     48072     48071     48070     48073     48072     48070     48073
     48073     48076     48077     48073     48076     48078     48073     48076     48079
     48074     48073     48075     48074     48073     48076     48075     48073     48076
     48076     48079     48080     48076     48079     48081     48076     48079     48082
     48077     48076     48078     48077     48076     48079     48078     48076     48079
     48080     48079     48081     48080     48079     48082     48081     48079     48082
     48083     48086     48087     48083     48086     48088     48083     48086     48089
     48084     48083     48085     48084     48083     48086     48085     48083     48086
     48086     48089     48090     48086     48089     48091     48086     48089     48092
     48087     48086     48088     48087     48086     48089     48088     48086     48089
     48089     48092     48093     48089     48092     48094     48089     48092     48095
     48090     48089     48091     48090     48089     48092     48091     48089     48092
     48092     48095     48096     48092     48095     48097     48092     48095     48098
     48093     48092     48094     48093     48092     48095     48094     48092     48095
     48095     48098     48099     48095     48098     48100     48095     48098     48101
     48096     48095     48097     48096     48095     48098     48097     48095     48098
     48098     48101     48102     48098     48101     48103     48098     48101     48104
     48099     48098     48100     48099     48098     48101     48100     48098     48101
     48101     48104     48105     48101     48104     48106     48101     48104     48107
     48102     48101     48103     48102     48101     48104     48103     48101     48104
     48104     48107     48108     48104     48107     48109     48104     48107     48110
     48105     48104     48106     48105     48104     48107     48106     48104     48107
     48107     48110     48111     48107     48110     48112     48107     48110     48113
     48108     48107     48109     48108     48107     48110     48109     48107     48110
     48110     48113     48114     48110     48113     48115     48110     48113     48116
     48111     48110     48112     48111     48110     48113     48112     48110     48113
     48113     48116     48117     48113     48116     48118     48113     48116     48119
     48114     48113     48115     48114     48113     48116     48115     48113     48116
     48116     48119     48120     48116     48119     48121     48116     48119     48122
     48117     48116     48118     48117     48116     48119     48118     48116     48119
     48119     48122     48123     48119     48122     48124     48119     48122     48125
     48120     48119     48121     48120     48119     48122     48121     48119     48122
     48123     48122     48124     48123     48122     48125     48124     48122     48125
     48126     48130     48131     48126     48130     48132     48126     48130     48133
     48127     48126     48128     48127     48126     48129     48127     48126     48130
     48128     48126     48129     48128     48126     48130     48129     48126     48130
     48130     48133     48134     48130     48133     48135     48130     48133     48140
     48131     48130     48132     48131     48130     48133     48132     48130     48133
     48133     48140     48136     48134     48133     48135     48134     48133     48140
     48135     48133     48140     48136     48139     48141     48137     48136     48138
     48137     48136     48139     48137     48136     48140     48138     48136     48139
     48138     48136     48140     48139     48136     48140     48139     48141     48142
     48139     48141     48143     48139     48141     48144     48141     48144     48145
     48141     48144     48146     48141     48144     48152     48142     48141     48143
     48142     48141     48144     48143     48141     48144     48144     48146     48147
     48144     48152     48153     48144     48152     48154     48144     48152     48155
     48145     48144     48146     48145     48144     48152     48146     48144     48152
     48146     48147     48148     48146     48147     48149     48147     48149     48150
     48147     48149     48151     48147     48149     48161     48148     48147     48149
     48149     48161     48162     48149     48161     48163     48149     48161     48164
     48150     48149     48151     48150     48149     48161     48151     48149     48161
     48152     48155     48156     48153     48152     48154     48153     48152     48155
     48154     48152     48155     48155     48156     48157     48155     48156     48158
     48156     48158     48159     48156     48158     48160     48156     48158     48205
     48157     48156     48158     48158     48205     48206     48158     48205     48207
     48158     48205     48208     48159     48158     48160     48159     48158     48205
     48160     48158     48205     48161     48164     48165     48161     48164     48166
     48161     48164     48167     48162     48161     48163     48162     48161     48164
     48163     48161     48164     48164     48167     48168     48164     48167     48169
     48164     48167     48170     48165     48164     48166     48165     48164     48167
     48166     48164     48167     48167     48170     48171     48167     48170     48172
     48167     48170     48173     48168     48167     48169     48168     48167     48170
     48169     48167     48170     48170     48173     48174     48170     48173     48175
     48170     48173     48176     48171     48170     48172     48171     48170     48173
     48172     48170     48173     48173     48176     48177     48173     48176     48178
     48173     48176     48179     48174     48173     48175     48174     48173     48176
     48175     48173     48176     48176     48179     48180     48176     48179     48181
     48176     48179     48184     48177     48176     48178     48177     48176     48179
     48178     48176     48179     48179     48181     48182     48179     48181     48183
     48179     48181     48184     48179     48184     48181     48179     48184     48185
     48179     48184     48186     48180     48179     48181     48180     48179     48184
     48181     48179     48184     48181     48184     48185     48181     48184     48186
     48182     48181     48183     48182     48181     48184     48183     48181     48184
     48184     48186     48187     48184     48186     48188     48184     48186     48189
     48185     48184     48186     48186     48189     48190     48186     48189     48191
     48186     48189     48192     48187     48186     48188     48187     48186     48189
     48188     48186     48189     48189     48192     48193     48189     48192     48194
     48189     48192     48195     48190     48189     48191     48190     48189     48192
     48191     48189     48192     48192     48195     48196     48192     48195     48197
     48192     48195     48198     48193     48192     48194     48193     48192     48195
     48194     48192     48195     48195     48198     48199     48195     48198     48200
     48195     48198     48201     48196     48195     48197     48196     48195     48198
     48197     48195     48198     48198     48201     48202     48198     48201     48203
     48198     48201     48204     48199     48198     48200     48199     48198     48201
     48200     48198     48201     48202     48201     48203     48202     48201     48204
     48203     48201     48204     48205     48208     48209     48205     48208     48210
     48205     48208     48211     48206     48205     48207     48206     48205     48208
     48207     48205     48208     48208     48211     48212     48208     48211     48213
     48208     48211     48214     48209     48208     48210     48209     48208     48211
     48210     48208     48211     48211     48214     48215     48211     48214     48216
     48211     48214     48217     48212     48211     48213     48212     48211     48214
     48213     48211     48214     48214     48217     48218     48214     48217     48219
     48214     48217     48220     48215     48214     48216     48215     48214     48217
     48216     48214     48217     48217     48220     48221     48217     48220     48222
     48217     48220     48223     48218     48217     48219     48218     48217     48220
     48219     48217     48220     48220     48223     48224     48220     48223     48225
     48220     48223     48226     48221     48220     48222     48221     48220     48223
     48222     48220     48223     48223     48226     48227     48223     48226     48228
     48223     48226     48229     48224     48223     48225     48224     48223     48226
     48225     48223     48226     48226     48229     48230     48226     48229     48231
     48226     48229     48232     48227     48226     48228     48227     48226     48229
     48228     48226     48229     48229     48232     48233     48229     48232     48234
     48229     48232     48235     48230     48229     48231     48230     48229     48232
     48231     48229     48232     48232     48235     48236     48232     48235     48237
     48232     48235     48238     48233     48232     48234     48233     48232     48235
     48234     48232     48235     48235     48238     48239     48235     48238     48240
     48235     48238     48241     48236     48235     48237     48236     48235     48238
     48237     48235     48238     48238     48241     48242     48238     48241     48243
     48238     48241     48244     48239     48238     48240     48239     48238     48241
     48240     48238     48241     48242     48241     48243     48242     48241     48244
     48243     48241     48244     48245     48248     48249     48245     48250     48251
     48245     48250     48252     48245     48250     48254     48246     48245     48247
     48246     48245     48248     48246     48245     48250     48247     48245     48248
     48247     48245     48250     48248     48245     48250     48250     48252     48253
     48250     48254     48255     48250     48254     48256     48250     48254     48261
     48251     48250     48252     48251     48250     48254     48252     48250     48254
     48254     48261     48257     48255     48254     48256     48255     48254     48261
     48256     48254     48261     48257     48260     48262     48258     48257     48259
     48258     48257     48260     48258     48257     48261     48259     48257     48260
     48259     48257     48261     48260     48257     48261     48260     48262     48263
     48260     48262     48264     48260     48262     48265     48262     48265     48266
     48262     48265     48267     48262     48265     48273     48263     48262     48264
     48263     48262     48265     48264     48262     48265     48265     48267     48268
     48265     48273     48274     48265     48273     48275     48265     48273     48276
     48266     48265     48267     48266     48265     48273     48267     48265     48273
     48267     48268     48269     48267     48268     48270     48268     48270     48271
     48268     48270     48272     48268     48270     48282     48269     48268     48270
     48270     48282     48283     48270     48282     48284     48270     48282     48285
     48271     48270     48272     48271     48270     48282     48272     48270     48282
     48273     48276     48277     48274     48273     48275     48274     48273     48276
     48275     48273     48276     48276     48277     48278     48276     48277     48279
     48277     48279     48280     48277     48279     48281     48277     48279     48326
     48278     48277     48279     48279     48326     48327     48279     48326     48328
     48279     48326     48329     48280     48279     48281     48280     48279     48326
     48281     48279     48326     48282     48285     48286     48282     48285     48287
     48282     48285     48288     48283     48282     48284     48283     48282     48285
     48284     48282     48285     48285     48288     48289     48285     48288     48290
     48285     48288     48291     48286     48285     48287     48286     48285     48288
     48287     48285     48288     48288     48291     48292     48288     48291     48293
     48288     48291     48294     48289     48288     48290     48289     48288     48291
     48290     48288     48291     48291     48294     48295     48291     48294     48296
     48291     48294     48297     48292     48291     48293     48292     48291     48294
     48293     48291     48294     48294     48297     48298     48294     48297     48299
     48294     48297     48300     48295     48294     48296     48295     48294     48297
     48296     48294     48297     48297     48300     48301     48297     48300     48302
     48297     48300     48305     48298     48297     48299     48298     48297     48300
     48299     48297     48300     48300     48302     48303     48300     48302     48304
     48300     48302     48305     48300     48305     48302     48300     48305     48306
     48300     48305     48307     48301     48300     48302     48301     48300     48305
     48302     48300     48305     48302     48305     48306     48302     48305     48307
     48303     48302     48304     48303     48302     48305     48304     48302     48305
     48305     48307     48308     48305     48307     48309     48305     48307     48310
     48306     48305     48307     48307     48310     48311     48307     48310     48312
     48307     48310     48313     48308     48307     48309     48308     48307     48310
     48309     48307     48310     48310     48313     48314     48310     48313     48315
     48310     48313     48316     48311     48310     48312     48311     48310     48313
     48312     48310     48313     48313     48316     48317     48313     48316     48318
     48313     48316     48319     48314     48313     48315     48314     48313     48316
     48315     48313     48316     48316     48319     48320     48316     48319     48321
     48316     48319     48322     48317     48316     48318     48317     48316     48319
     48318     48316     48319     48319     48322     48323     48319     48322     48324
     48319     48322     48325     48320     48319     48321     48320     48319     48322
     48321     48319     48322     48323     48322     48324     48323     48322     48325
     48324     48322     48325     48326     48329     48330     48326     48329     48331
     48326     48329     48332     48327     48326     48328     48327     48326     48329
     48328     48326     48329     48329     48332     48333     48329     48332     48334
     48329     48332     48335     48330     48329     48331     48330     48329     48332
     48331     48329     48332     48332     48335     48336     48332     48335     48337
     48332     48335     48338     48333     48332     48334     48333     48332     48335
     48334     48332     48335     48335     48338     48339     48335     48338     48340
     48335     48338     48341     48336     48335     48337     48336     48335     48338
     48337     48335     48338     48338     48341     48342     48338     48341     48343
     48338     48341     48344     48339     48338     48340     48339     48338     48341
     48340     48338     48341     48341     48344     48345     48341     48344     48346
     48341     48344     48347     48342     48341     48343     48342     48341     48344
     48343     48341     48344     48344     48347     48348     48344     48347     48349
     48344     48347     48350     48345     48344     48346     48345     48344     48347
     48346     48344     48347     48347     48350     48351     48347     48350     48352
     48347     48350     48353     48348     48347     48349     48348     48347     48350
     48349     48347     48350     48350     48353     48354     48350     48353     48355
     48350     48353     48356     48351     48350     48352     48351     48350     48353
     48352     48350     48353     48353     48356     48357     48353     48356     48358
     48353     48356     48359     48354     48353     48355     48354     48353     48356
     48355     48353     48356     48356     48359     48360     48356     48359     48361
     48356     48359     48362     48357     48356     48358     48357     48356     48359
     48358     48356     48359     48359     48362     48363     48359     48362     48364
     48359     48362     48365     48360     48359     48361     48360     48359     48362
     48361     48359     48362     48362     48365     48366     48362     48365     48367
     48362     48365     48368     48363     48362     48364     48363     48362     48365
     48364     48362     48365     48366     48365     48367     48366     48365     48368
     48367     48365     48368     48369     48372     48373     48369     48374     48375
     48369     48374     48376     48369     48374     48378     48370     48369     48371
     48370     48369     48372     48370     48369     48374     48371     48369     48372
     48371     48369     48374     48372     48369     48374     48374     48376     48377
     48374     48378     48379     48374     48378     48380     48374     48378     48385
     48375     48374     48376     48375     48374     48378     48376     48374     48378
     48378     48385     48381     48379     48378     48380     48379     48378     48385
     48380     48378     48385     48381     48384     48386     48382     48381     48383
     48382     48381     48384     48382     48381     48385     48383     48381     48384
     48383     48381     48385     48384     48381     48385     48384     48386     48387
     48384     48386     48388     48384     48386     48389     48386     48389     48390
     48386     48389     48391     48386     48389     48397     48387     48386     48388
     48387     48386     48389     48388     48386     48389     48389     48391     48392
     48389     48397     48398     48389     48397     48399     48389     48397     48400
     48390     48389     48391     48390     48389     48397     48391     48389     48397
     48391     48392     48393     48391     48392     48394     48392     48394     48395
     48392     48394     48396     48392     48394     48406     48393     48392     48394
     48394     48406     48407     48394     48406     48408     48394     48406     48409
     48395     48394     48396     48395     48394     48406     48396     48394     48406
     48397     48400     48401     48398     48397     48399     48398     48397     48400
     48399     48397     48400     48400     48401     48402     48400     48401     48403
     48401     48403     48404     48401     48403     48405     48401     48403     48450
     48402     48401     48403     48403     48450     48451     48403     48450     48452
     48403     48450     48453     48404     48403     48405     48404     48403     48450
     48405     48403     48450     48406     48409     48410     48406     48409     48411
     48406     48409     48412     48407     48406     48408     48407     48406     48409
     48408     48406     48409     48409     48412     48413     48409     48412     48414
     48409     48412     48415     48410     48409     48411     48410     48409     48412
     48411     48409     48412     48412     48415     48416     48412     48415     48417
     48412     48415     48418     48413     48412     48414     48413     48412     48415
     48414     48412     48415     48415     48418     48419     48415     48418     48420
     48415     48418     48421     48416     48415     48417     48416     48415     48418
     48417     48415     48418     48418     48421     48422     48418     48421     48423
     48418     48421     48424     48419     48418     48420     48419     48418     48421
     48420     48418     48421     48421     48424     48425     48421     48424     48426
     48421     48424     48429     48422     48421     48423     48422     48421     48424
     48423     48421     48424     48424     48426     48427     48424     48426     48428
     48424     48426     48429     48424     48429     48426     48424     48429     48430
     48424     48429     48431     48425     48424     48426     48425     48424     48429
     48426     48424     48429     48426     48429     48430     48426     48429     48431
     48427     48426     48428     48427     48426     48429     48428     48426     48429
     48429     48431     48432     48429     48431     48433     48429     48431     48434
     48430     48429     48431     48431     48434     48435     48431     48434     48436
     48431     48434     48437     48432     48431     48433     48432     48431     48434
     48433     48431     48434     48434     48437     48438     48434     48437     48439
     48434     48437     48440     48435     48434     48436     48435     48434     48437
     48436     48434     48437     48437     48440     48441     48437     48440     48442
     48437     48440     48443     48438     48437     48439     48438     48437     48440
     48439     48437     48440     48440     48443     48444     48440     48443     48445
     48440     48443     48446     48441     48440     48442     48441     48440     48443
     48442     48440     48443     48443     48446     48447     48443     48446     48448
     48443     48446     48449     48444     48443     48445     48444     48443     48446
     48445     48443     48446     48447     48446     48448     48447     48446     48449
     48448     48446     48449     48450     48453     48454     48450     48453     48455
     48450     48453     48456     48451     48450     48452     48451     48450     48453
     48452     48450     48453     48453     48456     48457     48453     48456     48458
     48453     48456     48459     48454     48453     48455     48454     48453     48456
     48455     48453     48456     48456     48459     48460     48456     48459     48461
     48456     48459     48462     48457     48456     48458     48457     48456     48459
     48458     48456     48459     48459     48462     48463     48459     48462     48464
     48459     48462     48465     48460     48459     48461     48460     48459     48462
     48461     48459     48462     48462     48465     48466     48462     48465     48467
     48462     48465     48468     48463     48462     48464     48463     48462     48465
     48464     48462     48465     48465     48468     48469     48465     48468     48470
     48465     48468     48471     48466     48465     48467     48466     48465     48468
     48467     48465     48468     48468     48471     48472     48468     48471     48473
     48468     48471     48474     48469     48468     48470     48469     48468     48471
     48470     48468     48471     48471     48474     48475     48471     48474     48476
     48471     48474     48477     48472     48471     48473     48472     48471     48474
     48473     48471     48474     48474     48477     48478     48474     48477     48479
     48474     48477     48480     48475     48474     48476     48475     48474     48477
     48476     48474     48477     48477     48480     48481     48477     48480     48482
     48477     48480     48483     48478     48477     48479     48478     48477     48480
     48479     48477     48480     48480     48483     48484     48480     48483     48485
     48480     48483     48486     48481     48480     48482     48481     48480     48483
     48482     48480     48483     48483     48486     48487     48483     48486     48488
     48483     48486     48489     48484     48483     48485     48484     48483     48486
     48485     48483     48486     48486     48489     48490     48486     48489     48491
     48486     48489     48492     48487     48486     48488     48487     48486     48489
     48488     48486     48489     48490     48489     48491     48490     48489     48492
     48491     48489     48492     48493     48496     48497     48493     48498     48499
     48493     48498     48500     48493     48498     48502     48494     48493     48495
     48494     48493     48496     48494     48493     48498     48495     48493     48496
     48495     48493     48498     48496     48493     48498     48498     48500     48501
     48498     48502     48503     48498     48502     48504     48498     48502     48509
     48499     48498     48500     48499     48498     48502     48500     48498     48502
     48502     48509     48505     48503     48502     48504     48503     48502     48509
     48504     48502     48509     48505     48508     48510     48506     48505     48507
     48506     48505     48508     48506     48505     48509     48507     48505     48508
     48507     48505     48509     48508     48505     48509     48508     48510     48511
     48508     48510     48512     48508     48510     48513     48510     48513     48514
     48510     48513     48515     48510     48513     48521     48511     48510     48512
     48511     48510     48513     48512     48510     48513     48513     48515     48516
     48513     48521     48522     48513     48521     48523     48513     48521     48524
     48514     48513     48515     48514     48513     48521     48515     48513     48521
     48515     48516     48517     48515     48516     48518     48516     48518     48519
     48516     48518     48520     48516     48518     48530     48517     48516     48518
     48518     48530     48531     48518     48530     48532     48518     48530     48533
     48519     48518     48520     48519     48518     48530     48520     48518     48530
     48521     48524     48525     48522     48521     48523     48522     48521     48524
     48523     48521     48524     48524     48525     48526     48524     48525     48527
     48525     48527     48528     48525     48527     48529     48525     48527     48574
     48526     48525     48527     48527     48574     48575     48527     48574     48576
     48527     48574     48577     48528     48527     48529     48528     48527     48574
     48529     48527     48574     48530     48533     48534     48530     48533     48535
     48530     48533     48536     48531     48530     48532     48531     48530     48533
     48532     48530     48533     48533     48536     48537     48533     48536     48538
     48533     48536     48539     48534     48533     48535     48534     48533     48536
     48535     48533     48536     48536     48539     48540     48536     48539     48541
     48536     48539     48542     48537     48536     48538     48537     48536     48539
     48538     48536     48539     48539     48542     48543     48539     48542     48544
     48539     48542     48545     48540     48539     48541     48540     48539     48542
     48541     48539     48542     48542     48545     48546     48542     48545     48547
     48542     48545     48548     48543     48542     48544     48543     48542     48545
     48544     48542     48545     48545     48548     48549     48545     48548     48550
     48545     48548     48553     48546     48545     48547     48546     48545     48548
     48547     48545     48548     48548     48550     48551     48548     48550     48552
     48548     48550     48553     48548     48553     48550     48548     48553     48554
     48548     48553     48555     48549     48548     48550     48549     48548     48553
     48550     48548     48553     48550     48553     48554     48550     48553     48555
     48551     48550     48552     48551     48550     48553     48552     48550     48553
     48553     48555     48556     48553     48555     48557     48553     48555     48558
     48554     48553     48555     48555     48558     48559     48555     48558     48560
     48555     48558     48561     48556     48555     48557     48556     48555     48558
     48557     48555     48558     48558     48561     48562     48558     48561     48563
     48558     48561     48564     48559     48558     48560     48559     48558     48561
     48560     48558     48561     48561     48564     48565     48561     48564     48566
     48561     48564     48567     48562     48561     48563     48562     48561     48564
     48563     48561     48564     48564     48567     48568     48564     48567     48569
     48564     48567     48570     48565     48564     48566     48565     48564     48567
     48566     48564     48567     48567     48570     48571     48567     48570     48572
     48567     48570     48573     48568     48567     48569     48568     48567     48570
     48569     48567     48570     48571     48570     48572     48571     48570     48573
     48572     48570     48573     48574     48577     48578     48574     48577     48579
     48574     48577     48580     48575     48574     48576     48575     48574     48577
     48576     48574     48577     48577     48580     48581     48577     48580     48582
     48577     48580     48583     48578     48577     48579     48578     48577     48580
     48579     48577     48580     48580     48583     48584     48580     48583     48585
     48580     48583     48586     48581     48580     48582     48581     48580     48583
     48582     48580     48583     48583     48586     48587     48583     48586     48588
     48583     48586     48589     48584     48583     48585     48584     48583     48586
     48585     48583     48586     48586     48589     48590     48586     48589     48591
     48586     48589     48592     48587     48586     48588     48587     48586     48589
     48588     48586     48589     48589     48592     48593     48589     48592     48594
     48589     48592     48595     48590     48589     48591     48590     48589     48592
     48591     48589     48592     48592     48595     48596     48592     48595     48597
     48592     48595     48598     48593     48592     48594     48593     48592     48595
     48594     48592     48595     48595     48598     48599     48595     48598     48600
     48595     48598     48601     48596     48595     48597     48596     48595     48598
     48597     48595     48598     48598     48601     48602     48598     48601     48603
     48598     48601     48604     48599     48598     48600     48599     48598     48601
     48600     48598     48601     48601     48604     48605     48601     48604     48606
     48601     48604     48607     48602     48601     48603     48602     48601     48604
     48603     48601     48604     48604     48607     48608     48604     48607     48609
     48604     48607     48610     48605     48604     48606     48605     48604     48607
     48606     48604     48607     48607     48610     48611     48607     48610     48612
     48607     48610     48613     48608     48607     48609     48608     48607     48610
     48609     48607     48610     48610     48613     48614     48610     48613     48615
     48610     48613     48616     48611     48610     48612     48611     48610     48613
     48612     48610     48613     48614     48613     48615     48614     48613     48616
     48615     48613     48616     48617     48621     48622     48617     48621     48623
     48617     48621     48624     48618     48617     48619     48618     48617     48620
     48618     48617     48621     48619     48617     48620     48619     48617     48621
     48620     48617     48621     48621     48624     48625     48621     48624     48626
     48621     48624     48631     48622     48621     48623     48622     48621     48624
     48623     48621     48624     48624     48631     48627     48625     48624     48626
     48625     48624     48631     48626     48624     48631     48627     48630     48632
     48628     48627     48629     48628     48627     48630     48628     48627     48631
     48629     48627     48630     48629     48627     48631     48630     48627     48631
     48630     48632     48633     48630     48632     48634     48630     48632     48635
     48632     48635     48636     48632     48635     48637     48632     48635     48643
     48633     48632     48634     48633     48632     48635     48634     48632     48635
     48635     48637     48638     48635     48643     48644     48635     48643     48645
     48635     48643     48646     48636     48635     48637     48636     48635     48643
     48637     48635     48643     48637     48638     48639     48637     48638     48640
     48638     48640     48641     48638     48640     48642     48638     48640     48652
     48639     48638     48640     48640     48652     48653     48640     48652     48654
     48640     48652     48655     48641     48640     48642     48641     48640     48652
     48642     48640     48652     48643     48646     48647     48644     48643     48645
     48644     48643     48646     48645     48643     48646     48646     48647     48648
     48646     48647     48649     48647     48649     48650     48647     48649     48651
     48647     48649     48696     48648     48647     48649     48649     48696     48697
     48649     48696     48698     48649     48696     48699     48650     48649     48651
     48650     48649     48696     48651     48649     48696     48652     48655     48656
     48652     48655     48657     48652     48655     48658     48653     48652     48654
     48653     48652     48655     48654     48652     48655     48655     48658     48659
     48655     48658     48660     48655     48658     48661     48656     48655     48657
     48656     48655     48658     48657     48655     48658     48658     48661     48662
     48658     48661     48663     48658     48661     48664     48659     48658     48660
     48659     48658     48661     48660     48658     48661     48661     48664     48665
     48661     48664     48666     48661     48664     48667     48662     48661     48663
     48662     48661     48664     48663     48661     48664     48664     48667     48668
     48664     48667     48669     48664     48667     48670     48665     48664     48666
     48665     48664     48667     48666     48664     48667     48667     48670     48671
     48667     48670     48672     48667     48670     48675     48668     48667     48669
     48668     48667     48670     48669     48667     48670     48670     48672     48673
     48670     48672     48674     48670     48672     48675     48670     48675     48672
     48670     48675     48676     48670     48675     48677     48671     48670     48672
     48671     48670     48675     48672     48670     48675     48672     48675     48676
     48672     48675     48677     48673     48672     48674     48673     48672     48675
     48674     48672     48675     48675     48677     48678     48675     48677     48679
     48675     48677     48680     48676     48675     48677     48677     48680     48681
     48677     48680     48682     48677     48680     48683     48678     48677     48679
     48678     48677     48680     48679     48677     48680     48680     48683     48684
     48680     48683     48685     48680     48683     48686     48681     48680     48682
     48681     48680     48683     48682     48680     48683     48683     48686     48687
     48683     48686     48688     48683     48686     48689     48684     48683     48685
     48684     48683     48686     48685     48683     48686     48686     48689     48690
     48686     48689     48691     48686     48689     48692     48687     48686     48688
     48687     48686     48689     48688     48686     48689     48689     48692     48693
     48689     48692     48694     48689     48692     48695     48690     48689     48691
     48690     48689     48692     48691     48689     48692     48693     48692     48694
     48693     48692     48695     48694     48692     48695     48696     48699     48700
     48696     48699     48701     48696     48699     48702     48697     48696     48698
     48697     48696     48699     48698     48696     48699     48699     48702     48703
     48699     48702     48704     48699     48702     48705     48700     48699     48701
     48700     48699     48702     48701     48699     48702     48702     48705     48706
     48702     48705     48707     48702     48705     48708     48703     48702     48704
     48703     48702     48705     48704     48702     48705     48705     48708     48709
     48705     48708     48710     48705     48708     48711     48706     48705     48707
     48706     48705     48708     48707     48705     48708     48708     48711     48712
     48708     48711     48713     48708     48711     48714     48709     48708     48710
     48709     48708     48711     48710     48708     48711     48711     48714     48715
     48711     48714     48716     48711     48714     48717     48712     48711     48713
     48712     48711     48714     48713     48711     48714     48714     48717     48718
     48714     48717     48719     48714     48717     48720     48715     48714     48716
     48715     48714     48717     48716     48714     48717     48717     48720     48721
     48717     48720     48722     48717     48720     48723     48718     48717     48719
     48718     48717     48720     48719     48717     48720     48720     48723     48724
     48720     48723     48725     48720     48723     48726     48721     48720     48722
     48721     48720     48723     48722     48720     48723     48723     48726     48727
     48723     48726     48728     48723     48726     48729     48724     48723     48725
     48724     48723     48726     48725     48723     48726     48726     48729     48730
     48726     48729     48731     48726     48729     48732     48727     48726     48728
     48727     48726     48729     48728     48726     48729     48729     48732     48733
     48729     48732     48734     48729     48732     48735     48730     48729     48731
     48730     48729     48732     48731     48729     48732     48732     48735     48736
     48732     48735     48737     48732     48735     48738     48733     48732     48734
     48733     48732     48735     48734     48732     48735     48736     48735     48737
     48736     48735     48738     48737     48735     48738     48739     48743     48744
     48739     48743     48745     48739     48743     48746     48740     48739     48741
     48740     48739     48742     48740     48739     48743     48741     48739     48742
     48741     48739     48743     48742     48739     48743     48743     48746     48747
     48743     48746     48748     48743     48746     48753     48744     48743     48745
     48744     48743     48746     48745     48743     48746     48746     48753     48749
     48747     48746     48748     48747     48746     48753     48748     48746     48753
     48749     48752     48754     48750     48749     48751     48750     48749     48752
     48750     48749     48753     48751     48749     48752     48751     48749     48753
     48752     48749     48753     48752     48754     48755     48752     48754     48756
     48752     48754     48757     48754     48757     48758     48754     48757     48759
     48754     48757     48765     48755     48754     48756     48755     48754     48757
     48756     48754     48757     48757     48759     48760     48757     48765     48766
     48757     48765     48767     48757     48765     48768     48758     48757     48759
     48758     48757     48765     48759     48757     48765     48759     48760     48761
     48759     48760     48762     48760     48762     48763     48760     48762     48764
     48760     48762     48774     48761     48760     48762     48762     48774     48775
     48762     48774     48776     48762     48774     48777     48763     48762     48764
     48763     48762     48774     48764     48762     48774     48765     48768     48769
     48766     48765     48767     48766     48765     48768     48767     48765     48768
     48768     48769     48770     48768     48769     48771     48769     48771     48772
     48769     48771     48773     48769     48771     48818     48770     48769     48771
     48771     48818     48819     48771     48818     48820     48771     48818     48821
     48772     48771     48773     48772     48771     48818     48773     48771     48818
     48774     48777     48778     48774     48777     48779     48774     48777     48780
     48775     48774     48776     48775     48774     48777     48776     48774     48777
     48777     48780     48781     48777     48780     48782     48777     48780     48783
     48778     48777     48779     48778     48777     48780     48779     48777     48780
     48780     48783     48784     48780     48783     48785     48780     48783     48786
     48781     48780     48782     48781     48780     48783     48782     48780     48783
     48783     48786     48787     48783     48786     48788     48783     48786     48789
     48784     48783     48785     48784     48783     48786     48785     48783     48786
     48786     48789     48790     48786     48789     48791     48786     48789     48792
     48787     48786     48788     48787     48786     48789     48788     48786     48789
     48789     48792     48793     48789     48792     48794     48789     48792     48797
     48790     48789     48791     48790     48789     48792     48791     48789     48792
     48792     48794     48795     48792     48794     48796     48792     48794     48797
     48792     48797     48794     48792     48797     48798     48792     48797     48799
     48793     48792     48794     48793     48792     48797     48794     48792     48797
     48794     48797     48798     48794     48797     48799     48795     48794     48796
     48795     48794     48797     48796     48794     48797     48797     48799     48800
     48797     48799     48801     48797     48799     48802     48798     48797     48799
     48799     48802     48803     48799     48802     48804     48799     48802     48805
     48800     48799     48801     48800     48799     48802     48801     48799     48802
     48802     48805     48806     48802     48805     48807     48802     48805     48808
     48803     48802     48804     48803     48802     48805     48804     48802     48805
     48805     48808     48809     48805     48808     48810     48805     48808     48811
     48806     48805     48807     48806     48805     48808     48807     48805     48808
     48808     48811     48812     48808     48811     48813     48808     48811     48814
     48809     48808     48810     48809     48808     48811     48810     48808     48811
     48811     48814     48815     48811     48814     48816     48811     48814     48817
     48812     48811     48813     48812     48811     48814     48813     48811     48814
     48815     48814     48816     48815     48814     48817     48816     48814     48817
     48818     48821     48822     48818     48821     48823     48818     48821     48824
     48819     48818     48820     48819     48818     48821     48820     48818     48821
     48821     48824     48825     48821     48824     48826     48821     48824     48827
     48822     48821     48823     48822     48821     48824     48823     48821     48824
     48824     48827     48828     48824     48827     48829     48824     48827     48830
     48825     48824     48826     48825     48824     48827     48826     48824     48827
     48827     48830     48831     48827     48830     48832     48827     48830     48833
     48828     48827     48829     48828     48827     48830     48829     48827     48830
     48830     48833     48834     48830     48833     48835     48830     48833     48836
     48831     48830     48832     48831     48830     48833     48832     48830     48833
     48833     48836     48837     48833     48836     48838     48833     48836     48839
     48834     48833     48835     48834     48833     48836     48835     48833     48836
     48836     48839     48840     48836     48839     48841     48836     48839     48842
     48837     48836     48838     48837     48836     48839     48838     48836     48839
     48839     48842     48843     48839     48842     48844     48839     48842     48845
     48840     48839     48841     48840     48839     48842     48841     48839     48842
     48842     48845     48846     48842     48845     48847     48842     48845     48848
     48843     48842     48844     48843     48842     48845     48844     48842     48845
     48845     48848     48849     48845     48848     48850     48845     48848     48851
     48846     48845     48847     48846     48845     48848     48847     48845     48848
     48848     48851     48852     48848     48851     48853     48848     48851     48854
     48849     48848     48850     48849     48848     48851     48850     48848     48851
     48851     48854     48855     48851     48854     48856     48851     48854     48857
     48852     48851     48853     48852     48851     48854     48853     48851     48854
     48854     48857     48858     48854     48857     48859     48854     48857     48860
     48855     48854     48856     48855     48854     48857     48856     48854     48857
     48858     48857     48859     48858     48857     48860     48859     48857     48860
     48861     48865     48866     48861     48865     48867     48861     48865     48868
     48862     48861     48863     48862     48861     48864     48862     48861     48865
     48863     48861     48864     48863     48861     48865     48864     48861     48865
     48865     48868     48869     48865     48868     48870     48865     48868     48875
     48866     48865     48867     48866     48865     48868     48867     48865     48868
     48868     48875     48871     48869     48868     48870     48869     48868     48875
     48870     48868     48875     48871     48874     48876     48872     48871     48873
     48872     48871     48874     48872     48871     48875     48873     48871     48874
     48873     48871     48875     48874     48871     48875     48874     48876     48877
     48874     48876     48878     48874     48876     48879     48876     48879     48880
     48876     48879     48881     48876     48879     48887     48877     48876     48878
     48877     48876     48879     48878     48876     48879     48879     48881     48882
     48879     48887     48888     48879     48887     48889     48879     48887     48890
     48880     48879     48881     48880     48879     48887     48881     48879     48887
     48881     48882     48883     48881     48882     48884     48882     48884     48885
     48882     48884     48886     48882     48884     48896     48883     48882     48884
     48884     48896     48897     48884     48896     48898     48884     48896     48899
     48885     48884     48886     48885     48884     48896     48886     48884     48896
     48887     48890     48891     48888     48887     48889     48888     48887     48890
     48889     48887     48890     48890     48891     48892     48890     48891     48893
     48891     48893     48894     48891     48893     48895     48891     48893     48940
     48892     48891     48893     48893     48940     48941     48893     48940     48942
     48893     48940     48943     48894     48893     48895     48894     48893     48940
     48895     48893     48940     48896     48899     48900     48896     48899     48901
     48896     48899     48902     48897     48896     48898     48897     48896     48899
     48898     48896     48899     48899     48902     48903     48899     48902     48904
     48899     48902     48905     48900     48899     48901     48900     48899     48902
     48901     48899     48902     48902     48905     48906     48902     48905     48907
     48902     48905     48908     48903     48902     48904     48903     48902     48905
     48904     48902     48905     48905     48908     48909     48905     48908     48910
     48905     48908     48911     48906     48905     48907     48906     48905     48908
     48907     48905     48908     48908     48911     48912     48908     48911     48913
     48908     48911     48914     48909     48908     48910     48909     48908     48911
     48910     48908     48911     48911     48914     48915     48911     48914     48916
     48911     48914     48919     48912     48911     48913     48912     48911     48914
     48913     48911     48914     48914     48916     48917     48914     48916     48918
     48914     48916     48919     48914     48919     48916     48914     48919     48920
     48914     48919     48921     48915     48914     48916     48915     48914     48919
     48916     48914     48919     48916     48919     48920     48916     48919     48921
     48917     48916     48918     48917     48916     48919     48918     48916     48919
     48919     48921     48922     48919     48921     48923     48919     48921     48924
     48920     48919     48921     48921     48924     48925     48921     48924     48926
     48921     48924     48927     48922     48921     48923     48922     48921     48924
     48923     48921     48924     48924     48927     48928     48924     48927     48929
     48924     48927     48930     48925     48924     48926     48925     48924     48927
     48926     48924     48927     48927     48930     48931     48927     48930     48932
     48927     48930     48933     48928     48927     48929     48928     48927     48930
     48929     48927     48930     48930     48933     48934     48930     48933     48935
     48930     48933     48936     48931     48930     48932     48931     48930     48933
     48932     48930     48933     48933     48936     48937     48933     48936     48938
     48933     48936     48939     48934     48933     48935     48934     48933     48936
     48935     48933     48936     48937     48936     48938     48937     48936     48939
     48938     48936     48939     48940     48943     48944     48940     48943     48945
     48940     48943     48946     48941     48940     48942     48941     48940     48943
     48942     48940     48943     48943     48946     48947     48943     48946     48948
     48943     48946     48949     48944     48943     48945     48944     48943     48946
     48945     48943     48946     48946     48949     48950     48946     48949     48951
     48946     48949     48952     48947     48946     48948     48947     48946     48949
     48948     48946     48949     48949     48952     48953     48949     48952     48954
     48949     48952     48955     48950     48949     48951     48950     48949     48952
     48951     48949     48952     48952     48955     48956     48952     48955     48957
     48952     48955     48958     48953     48952     48954     48953     48952     48955
     48954     48952     48955     48955     48958     48959     48955     48958     48960
     48955     48958     48961     48956     48955     48957     48956     48955     48958
     48957     48955     48958     48958     48961     48962     48958     48961     48963
     48958     48961     48964     48959     48958     48960     48959     48958     48961
     48960     48958     48961     48961     48964     48965     48961     48964     48966
     48961     48964     48967     48962     48961     48963     48962     48961     48964
     48963     48961     48964     48964     48967     48968     48964     48967     48969
     48964     48967     48970     48965     48964     48966     48965     48964     48967
     48966     48964     48967     48967     48970     48971     48967     48970     48972
     48967     48970     48973     48968     48967     48969     48968     48967     48970
     48969     48967     48970     48970     48973     48974     48970     48973     48975
     48970     48973     48976     48971     48970     48972     48971     48970     48973
     48972     48970     48973     48973     48976     48977     48973     48976     48978
     48973     48976     48979     48974     48973     48975     48974     48973     48976
     48975     48973     48976     48977     48976     48978     48977     48976     48979
     48978     48976     48979     48980     48984     48985     48980     48984     48986
     48980     48984     48987     48981     48980     48982     48981     48980     48983
     48981     48980     48984     48982     48980     48983     48982     48980     48984
     48983     48980     48984     48984     48987     48988     48984     48987     48989
     48984     48987     48994     48985     48984     48986     48985     48984     48987
     48986     48984     48987     48987     48994     48990     48988     48987     48989
     48988     48987     48994     48989     48987     48994     48990     48993     48995
     48991     48990     48992     48991     48990     48993     48991     48990     48994
     48992     48990     48993     48992     48990     48994     48993     48990     48994
     48993     48995     48996     48993     48995     48997     48993     48995     48998
     48995     48998     48999     48995     48998     49000     48995     48998     49006
     48996     48995     48997     48996     48995     48998     48997     48995     48998
     48998     49000     49001     48998     49006     49007     48998     49006     49008
     48998     49006     49009     48999     48998     49000     48999     48998     49006
     49000     48998     49006     49000     49001     49002     49000     49001     49003
     49001     49003     49004     49001     49003     49005     49001     49003     49015
     49002     49001     49003     49003     49015     49016     49003     49015     49017
     49003     49015     49018     49004     49003     49005     49004     49003     49015
     49005     49003     49015     49006     49009     49010     49007     49006     49008
     49007     49006     49009     49008     49006     49009     49009     49010     49011
     49009     49010     49012     49010     49012     49013     49010     49012     49014
     49010     49012     49059     49011     49010     49012     49012     49059     49060
     49012     49059     49061     49012     49059     49062     49013     49012     49014
     49013     49012     49059     49014     49012     49059     49015     49018     49019
     49015     49018     49020     49015     49018     49021     49016     49015     49017
     49016     49015     49018     49017     49015     49018     49018     49021     49022
     49018     49021     49023     49018     49021     49024     49019     49018     49020
     49019     49018     49021     49020     49018     49021     49021     49024     49025
     49021     49024     49026     49021     49024     49027     49022     49021     49023
     49022     49021     49024     49023     49021     49024     49024     49027     49028
     49024     49027     49029     49024     49027     49030     49025     49024     49026
     49025     49024     49027     49026     49024     49027     49027     49030     49031
     49027     49030     49032     49027     49030     49033     49028     49027     49029
     49028     49027     49030     49029     49027     49030     49030     49033     49034
     49030     49033     49035     49030     49033     49038     49031     49030     49032
     49031     49030     49033     49032     49030     49033     49033     49035     49036
     49033     49035     49037     49033     49035     49038     49033     49038     49035
     49033     49038     49039     49033     49038     49040     49034     49033     49035
     49034     49033     49038     49035     49033     49038     49035     49038     49039
     49035     49038     49040     49036     49035     49037     49036     49035     49038
     49037     49035     49038     49038     49040     49041     49038     49040     49042
     49038     49040     49043     49039     49038     49040     49040     49043     49044
     49040     49043     49045     49040     49043     49046     49041     49040     49042
     49041     49040     49043     49042     49040     49043     49043     49046     49047
     49043     49046     49048     49043     49046     49049     49044     49043     49045
     49044     49043     49046     49045     49043     49046     49046     49049     49050
     49046     49049     49051     49046     49049     49052     49047     49046     49048
     49047     49046     49049     49048     49046     49049     49049     49052     49053
     49049     49052     49054     49049     49052     49055     49050     49049     49051
     49050     49049     49052     49051     49049     49052     49052     49055     49056
     49052     49055     49057     49052     49055     49058     49053     49052     49054
     49053     49052     49055     49054     49052     49055     49056     49055     49057
     49056     49055     49058     49057     49055     49058     49059     49062     49063
     49059     49062     49064     49059     49062     49065     49060     49059     49061
     49060     49059     49062     49061     49059     49062     49062     49065     49066
     49062     49065     49067     49062     49065     49068     49063     49062     49064
     49063     49062     49065     49064     49062     49065     49065     49068     49069
     49065     49068     49070     49065     49068     49071     49066     49065     49067
     49066     49065     49068     49067     49065     49068     49068     49071     49072
     49068     49071     49073     49068     49071     49074     49069     49068     49070
     49069     49068     49071     49070     49068     49071     49071     49074     49075
     49071     49074     49076     49071     49074     49077     49072     49071     49073
     49072     49071     49074     49073     49071     49074     49074     49077     49078
     49074     49077     49079     49074     49077     49080     49075     49074     49076
     49075     49074     49077     49076     49074     49077     49077     49080     49081
     49077     49080     49082     49077     49080     49083     49078     49077     49079
     49078     49077     49080     49079     49077     49080     49080     49083     49084
     49080     49083     49085     49080     49083     49086     49081     49080     49082
     49081     49080     49083     49082     49080     49083     49083     49086     49087
     49083     49086     49088     49083     49086     49089     49084     49083     49085
     49084     49083     49086     49085     49083     49086     49086     49089     49090
     49086     49089     49091     49086     49089     49092     49087     49086     49088
     49087     49086     49089     49088     49086     49089     49089     49092     49093
     49089     49092     49094     49089     49092     49095     49090     49089     49091
     49090     49089     49092     49091     49089     49092     49092     49095     49096
     49092     49095     49097     49092     49095     49098     49093     49092     49094
     49093     49092     49095     49094     49092     49095     49095     49098     49099
     49095     49098     49100     49095     49098     49101     49096     49095     49097
     49096     49095     49098     49097     49095     49098     49099     49098     49100
     49099     49098     49101     49100     49098     49101     49102     49106     49107
     49102     49106     49108     49102     49106     49109     49103     49102     49104
     49103     49102     49105     49103     49102     49106     49104     49102     49105
     49104     49102     49106     49105     49102     49106     49106     49109     49110
     49106     49109     49111     49106     49109     49116     49107     49106     49108
     49107     49106     49109     49108     49106     49109     49109     49116     49112
     49110     49109     49111     49110     49109     49116     49111     49109     49116
     49112     49115     49117     49113     49112     49114     49113     49112     49115
     49113     49112     49116     49114     49112     49115     49114     49112     49116
     49115     49112     49116     49115     49117     49118     49115     49117     49119
     49115     49117     49120     49117     49120     49121     49117     49120     49122
     49117     49120     49128     49118     49117     49119     49118     49117     49120
     49119     49117     49120     49120     49122     49123     49120     49128     49129
     49120     49128     49130     49120     49128     49131     49121     49120     49122
     49121     49120     49128     49122     49120     49128     49122     49123     49124
     49122     49123     49125     49123     49125     49126     49123     49125     49127
     49123     49125     49137     49124     49123     49125     49125     49137     49138
     49125     49137     49139     49125     49137     49140     49126     49125     49127
     49126     49125     49137     49127     49125     49137     49128     49131     49132
     49129     49128     49130     49129     49128     49131     49130     49128     49131
     49131     49132     49133     49131     49132     49134     49132     49134     49135
     49132     49134     49136     49132     49134     49181     49133     49132     49134
     49134     49181     49182     49134     49181     49183     49134     49181     49184
     49135     49134     49136     49135     49134     49181     49136     49134     49181
     49137     49140     49141     49137     49140     49142     49137     49140     49143
     49138     49137     49139     49138     49137     49140     49139     49137     49140
     49140     49143     49144     49140     49143     49145     49140     49143     49146
     49141     49140     49142     49141     49140     49143     49142     49140     49143
     49143     49146     49147     49143     49146     49148     49143     49146     49149
     49144     49143     49145     49144     49143     49146     49145     49143     49146
     49146     49149     49150     49146     49149     49151     49146     49149     49152
     49147     49146     49148     49147     49146     49149     49148     49146     49149
     49149     49152     49153     49149     49152     49154     49149     49152     49155
     49150     49149     49151     49150     49149     49152     49151     49149     49152
     49152     49155     49156     49152     49155     49157     49152     49155     49160
     49153     49152     49154     49153     49152     49155     49154     49152     49155
     49155     49157     49158     49155     49157     49159     49155     49157     49160
     49155     49160     49157     49155     49160     49161     49155     49160     49162
     49156     49155     49157     49156     49155     49160     49157     49155     49160
     49157     49160     49161     49157     49160     49162     49158     49157     49159
     49158     49157     49160     49159     49157     49160     49160     49162     49163
     49160     49162     49164     49160     49162     49165     49161     49160     49162
     49162     49165     49166     49162     49165     49167     49162     49165     49168
     49163     49162     49164     49163     49162     49165     49164     49162     49165
     49165     49168     49169     49165     49168     49170     49165     49168     49171
     49166     49165     49167     49166     49165     49168     49167     49165     49168
     49168     49171     49172     49168     49171     49173     49168     49171     49174
     49169     49168     49170     49169     49168     49171     49170     49168     49171
     49171     49174     49175     49171     49174     49176     49171     49174     49177
     49172     49171     49173     49172     49171     49174     49173     49171     49174
     49174     49177     49178     49174     49177     49179     49174     49177     49180
     49175     49174     49176     49175     49174     49177     49176     49174     49177
     49178     49177     49179     49178     49177     49180     49179     49177     49180
     49181     49184     49185     49181     49184     49186     49181     49184     49187
     49182     49181     49183     49182     49181     49184     49183     49181     49184
     49184     49187     49188     49184     49187     49189     49184     49187     49190
     49185     49184     49186     49185     49184     49187     49186     49184     49187
     49187     49190     49191     49187     49190     49192     49187     49190     49193
     49188     49187     49189     49188     49187     49190     49189     49187     49190
     49190     49193     49194     49190     49193     49195     49190     49193     49196
     49191     49190     49192     49191     49190     49193     49192     49190     49193
     49193     49196     49197     49193     49196     49198     49193     49196     49199
     49194     49193     49195     49194     49193     49196     49195     49193     49196
     49196     49199     49200     49196     49199     49201     49196     49199     49202
     49197     49196     49198     49197     49196     49199     49198     49196     49199
     49199     49202     49203     49199     49202     49204     49199     49202     49205
     49200     49199     49201     49200     49199     49202     49201     49199     49202
     49202     49205     49206     49202     49205     49207     49202     49205     49208
     49203     49202     49204     49203     49202     49205     49204     49202     49205
     49205     49208     49209     49205     49208     49210     49205     49208     49211
     49206     49205     49207     49206     49205     49208     49207     49205     49208
     49208     49211     49212     49208     49211     49213     49208     49211     49214
     49209     49208     49210     49209     49208     49211     49210     49208     49211
     49211     49214     49215     49211     49214     49216     49211     49214     49217
     49212     49211     49213     49212     49211     49214     49213     49211     49214
     49214     49217     49218     49214     49217     49219     49214     49217     49220
     49215     49214     49216     49215     49214     49217     49216     49214     49217
     49218     49217     49219     49218     49217     49220     49219     49217     49220
     49221     49225     49226     49221     49225     49227     49221     49225     49228
     49222     49221     49223     49222     49221     49224     49222     49221     49225
     49223     49221     49224     49223     49221     49225     49224     49221     49225
     49225     49228     49229     49225     49228     49230     49225     49228     49235
     49226     49225     49227     49226     49225     49228     49227     49225     49228
     49228     49235     49231     49229     49228     49230     49229     49228     49235
     49230     49228     49235     49231     49234     49236     49232     49231     49233
     49232     49231     49234     49232     49231     49235     49233     49231     49234
     49233     49231     49235     49234     49231     49235     49234     49236     49237
     49234     49236     49238     49234     49236     49239     49236     49239     49240
     49236     49239     49241     49236     49239     49247     49237     49236     49238
     49237     49236     49239     49238     49236     49239     49239     49241     49242
     49239     49247     49248     49239     49247     49249     49239     49247     49250
     49240     49239     49241     49240     49239     49247     49241     49239     49247
     49241     49242     49243     49241     49242     49244     49242     49244     49245
     49242     49244     49246     49242     49244     49256     49243     49242     49244
     49244     49256     49257     49244     49256     49258     49244     49256     49259
     49245     49244     49246     49245     49244     49256     49246     49244     49256
     49247     49250     49251     49248     49247     49249     49248     49247     49250
     49249     49247     49250     49250     49251     49252     49250     49251     49253
     49251     49253     49254     49251     49253     49255     49251     49253     49300
     49252     49251     49253     49253     49300     49301     49253     49300     49302
     49253     49300     49303     49254     49253     49255     49254     49253     49300
     49255     49253     49300     49256     49259     49260     49256     49259     49261
     49256     49259     49262     49257     49256     49258     49257     49256     49259
     49258     49256     49259     49259     49262     49263     49259     49262     49264
     49259     49262     49265     49260     49259     49261     49260     49259     49262
     49261     49259     49262     49262     49265     49266     49262     49265     49267
     49262     49265     49268     49263     49262     49264     49263     49262     49265
     49264     49262     49265     49265     49268     49269     49265     49268     49270
     49265     49268     49271     49266     49265     49267     49266     49265     49268
     49267     49265     49268     49268     49271     49272     49268     49271     49273
     49268     49271     49274     49269     49268     49270     49269     49268     49271
     49270     49268     49271     49271     49274     49275     49271     49274     49276
     49271     49274     49279     49272     49271     49273     49272     49271     49274
     49273     49271     49274     49274     49276     49277     49274     49276     49278
     49274     49276     49279     49274     49279     49276     49274     49279     49280
     49274     49279     49281     49275     49274     49276     49275     49274     49279
     49276     49274     49279     49276     49279     49280     49276     49279     49281
     49277     49276     49278     49277     49276     49279     49278     49276     49279
     49279     49281     49282     49279     49281     49283     49279     49281     49284
     49280     49279     49281     49281     49284     49285     49281     49284     49286
     49281     49284     49287     49282     49281     49283     49282     49281     49284
     49283     49281     49284     49284     49287     49288     49284     49287     49289
     49284     49287     49290     49285     49284     49286     49285     49284     49287
     49286     49284     49287     49287     49290     49291     49287     49290     49292
     49287     49290     49293     49288     49287     49289     49288     49287     49290
     49289     49287     49290     49290     49293     49294     49290     49293     49295
     49290     49293     49296     49291     49290     49292     49291     49290     49293
     49292     49290     49293     49293     49296     49297     49293     49296     49298
     49293     49296     49299     49294     49293     49295     49294     49293     49296
     49295     49293     49296     49297     49296     49298     49297     49296     49299
     49298     49296     49299     49300     49303     49304     49300     49303     49305
     49300     49303     49306     49301     49300     49302     49301     49300     49303
     49302     49300     49303     49303     49306     49307     49303     49306     49308
     49303     49306     49309     49304     49303     49305     49304     49303     49306
     49305     49303     49306     49306     49309     49310     49306     49309     49311
     49306     49309     49312     49307     49306     49308     49307     49306     49309
     49308     49306     49309     49309     49312     49313     49309     49312     49314
     49309     49312     49315     49310     49309     49311     49310     49309     49312
     49311     49309     49312     49312     49315     49316     49312     49315     49317
     49312     49315     49318     49313     49312     49314     49313     49312     49315
     49314     49312     49315     49315     49318     49319     49315     49318     49320
     49315     49318     49321     49316     49315     49317     49316     49315     49318
     49317     49315     49318     49318     49321     49322     49318     49321     49323
     49318     49321     49324     49319     49318     49320     49319     49318     49321
     49320     49318     49321     49321     49324     49325     49321     49324     49326
     49321     49324     49327     49322     49321     49323     49322     49321     49324
     49323     49321     49324     49324     49327     49328     49324     49327     49329
     49324     49327     49330     49325     49324     49326     49325     49324     49327
     49326     49324     49327     49327     49330     49331     49327     49330     49332
     49327     49330     49333     49328     49327     49329     49328     49327     49330
     49329     49327     49330     49330     49333     49334     49330     49333     49335
     49330     49333     49336     49331     49330     49332     49331     49330     49333
     49332     49330     49333     49333     49336     49337     49333     49336     49338
     49333     49336     49339     49334     49333     49335     49334     49333     49336
     49335     49333     49336     49337     49336     49338     49337     49336     49339
     49338     49336     49339     49340     49344     49345     49340     49344     49346
     49340     49344     49347     49341     49340     49342     49341     49340     49343
     49341     49340     49344     49342     49340     49343     49342     49340     49344
     49343     49340     49344     49344     49347     49348     49344     49347     49349
     49344     49347     49354     49345     49344     49346     49345     49344     49347
     49346     49344     49347     49347     49354     49350     49348     49347     49349
     49348     49347     49354     49349     49347     49354     49350     49353     49355
     49351     49350     49352     49351     49350     49353     49351     49350     49354
     49352     49350     49353     49352     49350     49354     49353     49350     49354
     49353     49355     49356     49353     49355     49357     49353     49355     49358
     49355     49358     49359     49355     49358     49360     49355     49358     49366
     49356     49355     49357     49356     49355     49358     49357     49355     49358
     49358     49360     49361     49358     49366     49367     49358     49366     49368
     49358     49366     49369     49359     49358     49360     49359     49358     49366
     49360     49358     49366     49360     49361     49362     49360     49361     49363
     49361     49363     49364     49361     49363     49365     49361     49363     49375
     49362     49361     49363     49363     49375     49376     49363     49375     49377
     49363     49375     49378     49364     49363     49365     49364     49363     49375
     49365     49363     49375     49366     49369     49370     49367     49366     49368
     49367     49366     49369     49368     49366     49369     49369     49370     49371
     49369     49370     49372     49370     49372     49373     49370     49372     49374
     49370     49372     49419     49371     49370     49372     49372     49419     49420
     49372     49419     49421     49372     49419     49422     49373     49372     49374
     49373     49372     49419     49374     49372     49419     49375     49378     49379
     49375     49378     49380     49375     49378     49381     49376     49375     49377
     49376     49375     49378     49377     49375     49378     49378     49381     49382
     49378     49381     49383     49378     49381     49384     49379     49378     49380
     49379     49378     49381     49380     49378     49381     49381     49384     49385
     49381     49384     49386     49381     49384     49387     49382     49381     49383
     49382     49381     49384     49383     49381     49384     49384     49387     49388
     49384     49387     49389     49384     49387     49390     49385     49384     49386
     49385     49384     49387     49386     49384     49387     49387     49390     49391
     49387     49390     49392     49387     49390     49393     49388     49387     49389
     49388     49387     49390     49389     49387     49390     49390     49393     49394
     49390     49393     49395     49390     49393     49398     49391     49390     49392
     49391     49390     49393     49392     49390     49393     49393     49395     49396
     49393     49395     49397     49393     49395     49398     49393     49398     49395
     49393     49398     49399     49393     49398     49400     49394     49393     49395
     49394     49393     49398     49395     49393     49398     49395     49398     49399
     49395     49398     49400     49396     49395     49397     49396     49395     49398
     49397     49395     49398     49398     49400     49401     49398     49400     49402
     49398     49400     49403     49399     49398     49400     49400     49403     49404
     49400     49403     49405     49400     49403     49406     49401     49400     49402
     49401     49400     49403     49402     49400     49403     49403     49406     49407
     49403     49406     49408     49403     49406     49409     49404     49403     49405
     49404     49403     49406     49405     49403     49406     49406     49409     49410
     49406     49409     49411     49406     49409     49412     49407     49406     49408
     49407     49406     49409     49408     49406     49409     49409     49412     49413
     49409     49412     49414     49409     49412     49415     49410     49409     49411
     49410     49409     49412     49411     49409     49412     49412     49415     49416
     49412     49415     49417     49412     49415     49418     49413     49412     49414
     49413     49412     49415     49414     49412     49415     49416     49415     49417
     49416     49415     49418     49417     49415     49418     49419     49422     49423
     49419     49422     49424     49419     49422     49425     49420     49419     49421
     49420     49419     49422     49421     49419     49422     49422     49425     49426
     49422     49425     49427     49422     49425     49428     49423     49422     49424
     49423     49422     49425     49424     49422     49425     49425     49428     49429
     49425     49428     49430     49425     49428     49431     49426     49425     49427
     49426     49425     49428     49427     49425     49428     49428     49431     49432
     49428     49431     49433     49428     49431     49434     49429     49428     49430
     49429     49428     49431     49430     49428     49431     49431     49434     49435
     49431     49434     49436     49431     49434     49437     49432     49431     49433
     49432     49431     49434     49433     49431     49434     49434     49437     49438
     49434     49437     49439     49434     49437     49440     49435     49434     49436
     49435     49434     49437     49436     49434     49437     49437     49440     49441
     49437     49440     49442     49437     49440     49443     49438     49437     49439
     49438     49437     49440     49439     49437     49440     49440     49443     49444
     49440     49443     49445     49440     49443     49446     49441     49440     49442
     49441     49440     49443     49442     49440     49443     49443     49446     49447
     49443     49446     49448     49443     49446     49449     49444     49443     49445
     49444     49443     49446     49445     49443     49446     49446     49449     49450
     49446     49449     49451     49446     49449     49452     49447     49446     49448
     49447     49446     49449     49448     49446     49449     49449     49452     49453
     49449     49452     49454     49449     49452     49455     49450     49449     49451
     49450     49449     49452     49451     49449     49452     49452     49455     49456
     49452     49455     49457     49452     49455     49458     49453     49452     49454
     49453     49452     49455     49454     49452     49455     49455     49458     49459
     49455     49458     49460     49455     49458     49461     49456     49455     49457
     49456     49455     49458     49457     49455     49458     49459     49458     49460
     49459     49458     49461     49460     49458     49461     49462     49466     49467
     49462     49466     49468     49462     49466     49469     49463     49462     49464
     49463     49462     49465     49463     49462     49466     49464     49462     49465
     49464     49462     49466     49465     49462     49466     49466     49469     49470
     49466     49469     49471     49466     49469     49476     49467     49466     49468
     49467     49466     49469     49468     49466     49469     49469     49476     49472
     49470     49469     49471     49470     49469     49476     49471     49469     49476
     49472     49475     49477     49473     49472     49474     49473     49472     49475
     49473     49472     49476     49474     49472     49475     49474     49472     49476
     49475     49472     49476     49475     49477     49478     49475     49477     49479
     49475     49477     49480     49477     49480     49481     49477     49480     49482
     49477     49480     49488     49478     49477     49479     49478     49477     49480
     49479     49477     49480     49480     49482     49483     49480     49488     49489
     49480     49488     49490     49480     49488     49491     49481     49480     49482
     49481     49480     49488     49482     49480     49488     49482     49483     49484
     49482     49483     49485     49483     49485     49486     49483     49485     49487
     49483     49485     49497     49484     49483     49485     49485     49497     49498
     49485     49497     49499     49485     49497     49500     49486     49485     49487
     49486     49485     49497     49487     49485     49497     49488     49491     49492
     49489     49488     49490     49489     49488     49491     49490     49488     49491
     49491     49492     49493     49491     49492     49494     49492     49494     49495
     49492     49494     49496     49492     49494     49544     49493     49492     49494
     49494     49544     49545     49494     49544     49546     49494     49544     49547
     49495     49494     49496     49495     49494     49544     49496     49494     49544
     49497     49500     49501     49497     49500     49502     49497     49500     49503
     49498     49497     49499     49498     49497     49500     49499     49497     49500
     49500     49503     49504     49500     49503     49505     49500     49503     49506
     49501     49500     49502     49501     49500     49503     49502     49500     49503
     49503     49506     49507     49503     49506     49508     49503     49506     49509
     49504     49503     49505     49504     49503     49506     49505     49503     49506
     49506     49509     49510     49506     49509     49511     49506     49509     49512
     49507     49506     49508     49507     49506     49509     49508     49506     49509
     49509     49512     49513     49509     49512     49514     49509     49512     49515
     49510     49509     49511     49510     49509     49512     49511     49509     49512
     49512     49515     49516     49512     49515     49517     49513     49512     49514
     49513     49512     49515     49514     49512     49515     49515     49517     49518
     49515     49517     49519     49516     49515     49517     49517     49519     49520
     49517     49519     49521     49517     49519     49522     49518     49517     49519
     49519     49522     49523     49519     49522     49524     49519     49522     49525
     49520     49519     49521     49520     49519     49522     49521     49519     49522
     49522     49525     49526     49522     49525     49527     49522     49525     49528
     49523     49522     49524     49523     49522     49525     49524     49522     49525
     49525     49528     49529     49525     49528     49530     49525     49528     49531
     49526     49525     49527     49526     49525     49528     49527     49525     49528
     49528     49531     49532     49528     49531     49533     49528     49531     49534
     49529     49528     49530     49529     49528     49531     49530     49528     49531
     49531     49534     49535     49531     49534     49536     49531     49534     49537
     49532     49531     49533     49532     49531     49534     49533     49531     49534
     49534     49537     49538     49534     49537     49539     49534     49537     49540
     49535     49534     49536     49535     49534     49537     49536     49534     49537
     49537     49540     49541     49537     49540     49542     49537     49540     49543
     49538     49537     49539     49538     49537     49540     49539     49537     49540
     49541     49540     49542     49541     49540     49543     49542     49540     49543
     49544     49547     49548     49544     49547     49549     49544     49547     49550
     49545     49544     49546     49545     49544     49547     49546     49544     49547
     49547     49550     49551     49547     49550     49552     49547     49550     49553
     49548     49547     49549     49548     49547     49550     49549     49547     49550
     49550     49553     49554     49550     49553     49555     49550     49553     49556
     49551     49550     49552     49551     49550     49553     49552     49550     49553
     49553     49556     49557     49553     49556     49558     49553     49556     49559
     49554     49553     49555     49554     49553     49556     49555     49553     49556
     49556     49559     49560     49556     49559     49561     49556     49559     49562
     49557     49556     49558     49557     49556     49559     49558     49556     49559
     49559     49562     49563     49559     49562     49564     49559     49562     49565
     49560     49559     49561     49560     49559     49562     49561     49559     49562
     49562     49565     49566     49562     49565     49567     49562     49565     49568
     49563     49562     49564     49563     49562     49565     49564     49562     49565
     49565     49568     49569     49565     49568     49570     49565     49568     49571
     49566     49565     49567     49566     49565     49568     49567     49565     49568
     49568     49571     49572     49568     49571     49573     49568     49571     49574
     49569     49568     49570     49569     49568     49571     49570     49568     49571
     49571     49574     49575     49571     49574     49576     49571     49574     49577
     49572     49571     49573     49572     49571     49574     49573     49571     49574
     49574     49577     49578     49574     49577     49579     49574     49577     49580
     49575     49574     49576     49575     49574     49577     49576     49574     49577
     49577     49580     49581     49577     49580     49582     49577     49580     49583
     49578     49577     49579     49578     49577     49580     49579     49577     49580
     49580     49583     49584     49580     49583     49585     49580     49583     49586
     49581     49580     49582     49581     49580     49583     49582     49580     49583
     49584     49583     49585     49584     49583     49586     49585     49583     49586
     49587     49591     49592     49587     49591     49593     49587     49591     49594
     49588     49587     49589     49588     49587     49590     49588     49587     49591
     49589     49587     49590     49589     49587     49591     49590     49587     49591
     49591     49594     49595     49591     49594     49596     49591     49594     49601
     49592     49591     49593     49592     49591     49594     49593     49591     49594
     49594     49601     49597     49595     49594     49596     49595     49594     49601
     49596     49594     49601     49597     49600     49602     49598     49597     49599
     49598     49597     49600     49598     49597     49601     49599     49597     49600
     49599     49597     49601     49600     49597     49601     49600     49602     49603
     49600     49602     49604     49600     49602     49605     49602     49605     49606
     49602     49605     49607     49602     49605     49613     49603     49602     49604
     49603     49602     49605     49604     49602     49605     49605     49607     49608
     49605     49613     49614     49605     49613     49615     49605     49613     49616
     49606     49605     49607     49606     49605     49613     49607     49605     49613
     49607     49608     49609     49607     49608     49610     49608     49610     49611
     49608     49610     49612     49608     49610     49622     49609     49608     49610
     49610     49622     49623     49610     49622     49624     49610     49622     49625
     49611     49610     49612     49611     49610     49622     49612     49610     49622
     49613     49616     49617     49614     49613     49615     49614     49613     49616
     49615     49613     49616     49616     49617     49618     49616     49617     49619
     49617     49619     49620     49617     49619     49621     49617     49619     49669
     49618     49617     49619     49619     49669     49670     49619     49669     49671
     49619     49669     49672     49620     49619     49621     49620     49619     49669
     49621     49619     49669     49622     49625     49626     49622     49625     49627
     49622     49625     49628     49623     49622     49624     49623     49622     49625
     49624     49622     49625     49625     49628     49629     49625     49628     49630
     49625     49628     49631     49626     49625     49627     49626     49625     49628
     49627     49625     49628     49628     49631     49632     49628     49631     49633
     49628     49631     49634     49629     49628     49630     49629     49628     49631
     49630     49628     49631     49631     49634     49635     49631     49634     49636
     49631     49634     49637     49632     49631     49633     49632     49631     49634
     49633     49631     49634     49634     49637     49638     49634     49637     49639
     49634     49637     49640     49635     49634     49636     49635     49634     49637
     49636     49634     49637     49637     49640     49641     49637     49640     49642
     49638     49637     49639     49638     49637     49640     49639     49637     49640
     49640     49642     49643     49640     49642     49644     49641     49640     49642
     49642     49644     49645     49642     49644     49646     49642     49644     49647
     49643     49642     49644     49644     49647     49648     49644     49647     49649
     49644     49647     49650     49645     49644     49646     49645     49644     49647
     49646     49644     49647     49647     49650     49651     49647     49650     49652
     49647     49650     49653     49648     49647     49649     49648     49647     49650
     49649     49647     49650     49650     49653     49654     49650     49653     49655
     49650     49653     49656     49651     49650     49652     49651     49650     49653
     49652     49650     49653     49653     49656     49657     49653     49656     49658
     49653     49656     49659     49654     49653     49655     49654     49653     49656
     49655     49653     49656     49656     49659     49660     49656     49659     49661
     49656     49659     49662     49657     49656     49658     49657     49656     49659
     49658     49656     49659     49659     49662     49663     49659     49662     49664
     49659     49662     49665     49660     49659     49661     49660     49659     49662
     49661     49659     49662     49662     49665     49666     49662     49665     49667
     49662     49665     49668     49663     49662     49664     49663     49662     49665
     49664     49662     49665     49666     49665     49667     49666     49665     49668
     49667     49665     49668     49669     49672     49673     49669     49672     49674
     49669     49672     49675     49670     49669     49671     49670     49669     49672
     49671     49669     49672     49672     49675     49676     49672     49675     49677
     49672     49675     49678     49673     49672     49674     49673     49672     49675
     49674     49672     49675     49675     49678     49679     49675     49678     49680
     49675     49678     49681     49676     49675     49677     49676     49675     49678
     49677     49675     49678     49678     49681     49682     49678     49681     49683
     49678     49681     49684     49679     49678     49680     49679     49678     49681
     49680     49678     49681     49681     49684     49685     49681     49684     49686
     49681     49684     49687     49682     49681     49683     49682     49681     49684
     49683     49681     49684     49684     49687     49688     49684     49687     49689
     49684     49687     49690     49685     49684     49686     49685     49684     49687
     49686     49684     49687     49687     49690     49691     49687     49690     49692
     49687     49690     49693     49688     49687     49689     49688     49687     49690
     49689     49687     49690     49690     49693     49694     49690     49693     49695
     49690     49693     49696     49691     49690     49692     49691     49690     49693
     49692     49690     49693     49693     49696     49697     49693     49696     49698
     49693     49696     49699     49694     49693     49695     49694     49693     49696
     49695     49693     49696     49696     49699     49700     49696     49699     49701
     49696     49699     49702     49697     49696     49698     49697     49696     49699
     49698     49696     49699     49699     49702     49703     49699     49702     49704
     49699     49702     49705     49700     49699     49701     49700     49699     49702
     49701     49699     49702     49702     49705     49706     49702     49705     49707
     49702     49705     49708     49703     49702     49704     49703     49702     49705
     49704     49702     49705     49705     49708     49709     49705     49708     49710
     49705     49708     49711     49706     49705     49707     49706     49705     49708
     49707     49705     49708     49709     49708     49710     49709     49708     49711
     49710     49708     49711     49712     49715     49716     49712     49717     49718
     49712     49717     49719     49712     49717     49721     49713     49712     49714
     49713     49712     49715     49713     49712     49717     49714     49712     49715
     49714     49712     49717     49715     49712     49717     49717     49719     49720
     49717     49721     49722     49717     49721     49723     49717     49721     49728
     49718     49717     49719     49718     49717     49721     49719     49717     49721
     49721     49728     49724     49722     49721     49723     49722     49721     49728
     49723     49721     49728     49724     49727     49729     49725     49724     49726
     49725     49724     49727     49725     49724     49728     49726     49724     49727
     49726     49724     49728     49727     49724     49728     49727     49729     49730
     49727     49729     49731     49727     49729     49732     49729     49732     49733
     49729     49732     49734     49729     49732     49740     49730     49729     49731
     49730     49729     49732     49731     49729     49732     49732     49734     49735
     49732     49740     49741     49732     49740     49742     49732     49740     49743
     49733     49732     49734     49733     49732     49740     49734     49732     49740
     49734     49735     49736     49734     49735     49737     49735     49737     49738
     49735     49737     49739     49735     49737     49749     49736     49735     49737
     49737     49749     49750     49737     49749     49751     49737     49749     49752
     49738     49737     49739     49738     49737     49749     49739     49737     49749
     49740     49743     49744     49741     49740     49742     49741     49740     49743
     49742     49740     49743     49743     49744     49745     49743     49744     49746
     49744     49746     49747     49744     49746     49748     49744     49746     49790
     49745     49744     49746     49746     49790     49791     49746     49790     49792
     49746     49790     49793     49747     49746     49748     49747     49746     49790
     49748     49746     49790     49749     49752     49753     49749     49752     49754
     49749     49752     49755     49750     49749     49751     49750     49749     49752
     49751     49749     49752     49752     49755     49756     49752     49755     49757
     49752     49755     49758     49753     49752     49754     49753     49752     49755
     49754     49752     49755     49755     49758     49759     49755     49758     49760
     49755     49758     49761     49756     49755     49757     49756     49755     49758
     49757     49755     49758     49758     49761     49762     49758     49761     49763
     49758     49761     49764     49759     49758     49760     49759     49758     49761
     49760     49758     49761     49761     49764     49765     49761     49764     49766
     49761     49764     49767     49762     49761     49763     49762     49761     49764
     49763     49761     49764     49764     49767     49768     49764     49767     49769
     49765     49764     49766     49765     49764     49767     49766     49764     49767
     49767     49769     49770     49767     49769     49771     49768     49767     49769
     49769     49771     49772     49769     49771     49773     49769     49771     49774
     49770     49769     49771     49771     49774     49775     49771     49774     49776
     49771     49774     49777     49772     49771     49773     49772     49771     49774
     49773     49771     49774     49774     49777     49778     49774     49777     49779
     49774     49777     49780     49775     49774     49776     49775     49774     49777
     49776     49774     49777     49777     49780     49781     49777     49780     49782
     49777     49780     49783     49778     49777     49779     49778     49777     49780
     49779     49777     49780     49780     49783     49784     49780     49783     49785
     49780     49783     49786     49781     49780     49782     49781     49780     49783
     49782     49780     49783     49783     49786     49787     49783     49786     49788
     49783     49786     49789     49784     49783     49785     49784     49783     49786
     49785     49783     49786     49787     49786     49788     49787     49786     49789
     49788     49786     49789     49790     49793     49794     49790     49793     49795
     49790     49793     49796     49791     49790     49792     49791     49790     49793
     49792     49790     49793     49793     49796     49797     49793     49796     49798
     49793     49796     49799     49794     49793     49795     49794     49793     49796
     49795     49793     49796     49796     49799     49800     49796     49799     49801
     49796     49799     49802     49797     49796     49798     49797     49796     49799
     49798     49796     49799     49799     49802     49803     49799     49802     49804
     49799     49802     49805     49800     49799     49801     49800     49799     49802
     49801     49799     49802     49802     49805     49806     49802     49805     49807
     49802     49805     49808     49803     49802     49804     49803     49802     49805
     49804     49802     49805     49805     49808     49809     49805     49808     49810
     49805     49808     49811     49806     49805     49807     49806     49805     49808
     49807     49805     49808     49808     49811     49812     49808     49811     49813
     49808     49811     49814     49809     49808     49810     49809     49808     49811
     49810     49808     49811     49811     49814     49815     49811     49814     49816
     49811     49814     49817     49812     49811     49813     49812     49811     49814
     49813     49811     49814     49814     49817     49818     49814     49817     49819
     49814     49817     49820     49815     49814     49816     49815     49814     49817
     49816     49814     49817     49817     49820     49821     49817     49820     49822
     49817     49820     49823     49818     49817     49819     49818     49817     49820
     49819     49817     49820     49820     49823     49824     49820     49823     49825
     49820     49823     49826     49821     49820     49822     49821     49820     49823
     49822     49820     49823     49823     49826     49827     49823     49826     49828
     49823     49826     49829     49824     49823     49825     49824     49823     49826
     49825     49823     49826     49826     49829     49830     49826     49829     49831
     49826     49829     49832     49827     49826     49828     49827     49826     49829
     49828     49826     49829     49830     49829     49831     49830     49829     49832
     49831     49829     49832

    135312 !NPHI: dihedrals
         1         5         8         9         1         5         8        10
         1         5         8        15         2         1         5         6
         2         1         5         7         2         1         5         8
         3         1         5         6         3         1         5         7
         3         1         5         8         4         1         5         6
         4         1         5         7         4         1         5         8
         5         8        15        11         6         5         8         9
         6         5         8        10         6         5         8        15
         7         5         8         9         7         5         8        10
         7         5         8        15         8        15        11        12
         8        15        11        13         8        15        11        14
         9         8        15        11        10         8        15        11
        11        14        16        17        11        14        16        18
        11        14        16        19        12        11        14        16
        13        11        14        16        14        16        19        20
        14        16        19        21        14        16        19        27
        15        11        14        16        16        19        21        22
        16        19        27        28        16        19        27        29
        16        19        27        30        17        16        19        20
        17        16        19        21        17        16        19        27
        18        16        19        20        18        16        19        21
        18        16        19        27        19        21        22        23
        19        21        22        24        19        27        30        31
        20        19        21        22        20        19        27        28
        20        19        27        29        20        19        27        30
        21        19        27        28        21        19        27        29
        21        19        27        30        21        22        24        25
        21        22        24        26        21        22        24        36
        22        21        19        27        22        24        36        37
        22        24        36        38        22        24        36        39
        23        22        24        25        23        22        24        26
        23        22        24        36        24        36        39        40
        24        36        39        41        24        36        39        42
        25        24        36        37        25        24        36        38
        25        24        36        39        26        24        36        37
        26        24        36        38        26        24        36        39
        27        30        31        32        27        30        31        33
        28        27        30        31        29        27        30        31
        30        31        33        34        30        31        33        35
        30        31        33        83        31        33        83        84
        31        33        83        85        31        33        83        86
        32        31        33        34        32        31        33        35
        32        31        33        83        33        83        86        87
        33        83        86        88        33        83        86        89
        34        33        83        84        34        33        83        85
        34        33        83        86        35        33        83        84
        35        33        83        85        35        33        83        86
        36        39        42        43        36        39        42        44
        36        39        42        45        37        36        39        40
        37        36        39        41        37        36        39        42
        38        36        39        40        38        36        39        41
        38        36        39        42        39        42        45        46
        39        42        45        47        39        42        45        48
        40        39        42        43        40        39        42        44
        40        39        42        45        41        39        42        43
        41        39        42        44        41        39        42        45
        42        45        48        49        42        45        48        50
        42        45        48        51        43        42        45        46
        43        42        45        47        43        42        45        48
        44        42        45        46        44        42        45        47
        44        42        45        48        45        48        51        52
        45        48        51        53        45        48        51        54
        46        45        48        49        46        45        48        50
        46        45        48        51        47        45        48        49
        47        45        48        50        47        45        48        51
        48        51        54        55        48        51        54        56
        49        48        51        52        49        48        51        53
        49        48        51        54        50        48        51        52
        50        48        51        53        50        48        51        54
        51        54        56        57        51        54        56        58
        52        51        54        55        52        51        54        56
        53        51        54        55        53        51        54        56
        54        56        58        59        54        56        58        60
        54        56        58        61        55        54        56        57
        55        54        56        58        56        58        61        62
        56        58        61        63        56        58        61        64
        57        56        58        59        57        56        58        60
        57        56        58        61        58        61        64        65
        58        61        64        66        58        61        64        67
        59        58        61        62        59        58        61        63
        59        58        61        64        60        58        61        62
        60        58        61        63        60        58        61        64
        61        64        67        68        61        64        67        69
        61        64        67        70        62        61        64        65
        62        61        64        66        62        61        64        67
        63        61        64        65        63        61        64        66
        63        61        64        67        64        67        70        71
        64        67        70        72        64        67        70        73
        65        64        67        68        65        64        67        69
        65        64        67        70        66        64        67        68
        66        64        67        69        66        64        67        70
        67        70        73        74        67        70        73        75
        67        70        73        76        68        67        70        71
        68        67        70        72        68        67        70        73
        69        67        70        71        69        67        70        72
        69        67        70        73        70        73        76        77
        70        73        76        78        70        73        76        79
        71        70        73        74        71        70        73        75
        71        70        73        76        72        70        73        74
        72        70        73        75        72        70        73        76
        73        76        79        80        73        76        79        81
        73        76        79        82        74        73        76        77
        74        73        76        78        74        73        76        79
        75        73        76        77        75        73        76        78
        75        73        76        79        77        76        79        80
        77        76        79        81        77        76        79        82
        78        76        79        80        78        76        79        81
        78        76        79        82        83        86        89        90
        83        86        89        91        83        86        89        92
        84        83        86        87        84        83        86        88
        84        83        86        89        85        83        86        87
        85        83        86        88        85        83        86        89
        86        89        92        93        86        89        92        94
        86        89        92        95        87        86        89        90
        87        86        89        91        87        86        89        92
        88        86        89        90        88        86        89        91
        88        86        89        92        89        92        95        96
        89        92        95        97        89        92        95        98
        90        89        92        93        90        89        92        94
        90        89        92        95        91        89        92        93
        91        89        92        94        91        89        92        95
        92        95        98        99        92        95        98       100
        92        95        98       101        93        92        95        96
        93        92        95        97        93        92        95        98
        94        92        95        96        94        92        95        97
        94        92        95        98        95        98       101       102
        95        98       101       103        95        98       101       104
        96        95        98        99        96        95        98       100
        96        95        98       101        97        95        98        99
        97        95        98       100        97        95        98       101
        98       101       104       105        98       101       104       106
        98       101       104       107        99        98       101       102
        99        98       101       103        99        98       101       104
       100        98       101       102       100        98       101       103
       100        98       101       104       101       104       107       108
       101       104       107       109       101       104       107       110
       102       101       104       105       102       101       104       106
       102       101       104       107       103       101       104       105
       103       101       104       106       103       101       104       107
       104       107       110       111       104       107       110       112
       104       107       110       113       105       104       107       108
       105       104       107       109       105       104       107       110
       106       104       107       108       106       104       107       109
       106       104       107       110       107       110       113       114
       107       110       113       115       107       110       113       116
       108       107       110       111       108       107       110       112
       108       107       110       113       109       107       110       111
       109       107       110       112       109       107       110       113
       110       113       116       117       110       113       116       118
       110       113       116       119       111       110       113       114
       111       110       113       115       111       110       113       116
       112       110       113       114       112       110       113       115
       112       110       113       116       113       116       119       120
       113       116       119       121       113       116       119       122
       114       113       116       117       114       113       116       118
       114       113       116       119       115       113       116       117
       115       113       116       118       115       113       116       119
       116       119       122       123       116       119       122       124
       116       119       122       125       117       116       119       120
       117       116       119       121       117       116       119       122
       118       116       119       120       118       116       119       121
       118       116       119       122       120       119       122       123
       120       119       122       124       120       119       122       125
       121       119       122       123       121       119       122       124
       121       119       122       125       126       130       133       134
       126       130       133       135       126       130       133       140
       127       126       130       131       127       126       130       132
       127       126       130       133       128       126       130       131
       128       126       130       132       128       126       130       133
       129       126       130       131       129       126       130       132
       129       126       130       133       130       133       140       136
       131       130       133       134       131       130       133       135
       131       130       133       140       132       130       133       134
       132       130       133       135       132       130       133       140
       133       140       136       137       133       140       136       138
       133       140       136       139       134       133       140       136
       135       133       140       136       136       139       141       142
       136       139       141       143       136       139       141       144
       137       136       139       141       138       136       139       141
       139       141       144       145       139       141       144       146
       139       141       144       152       140       136       139       141
       141       144       146       147       141       144       152       153
       141       144       152       154       141       144       152       155
       142       141       144       145       142       141       144       146
       142       141       144       152       143       141       144       145
       143       141       144       146       143       141       144       152
       144       146       147       148       144       146       147       149
       144       152       155       156       145       144       146       147
       145       144       152       153       145       144       152       154
       145       144       152       155       146       144       152       153
       146       144       152       154       146       144       152       155
       146       147       149       150       146       147       149       151
       146       147       149       161       147       146       144       152
       147       149       161       162       147       149       161       163
       147       149       161       164       148       147       149       150
       148       147       149       151       148       147       149       161
       149       161       164       165       149       161       164       166
       149       161       164       167       150       149       161       162
       150       149       161       163       150       149       161       164
       151       149       161       162       151       149       161       163
       151       149       161       164       152       155       156       157
       152       155       156       158       153       152       155       156
       154       152       155       156       155       156       158       159
       155       156       158       160       155       156       158       205
       156       158       205       206       156       158       205       207
       156       158       205       208       157       156       158       159
       157       156       158       160       157       156       158       205
       158       205       208       209       158       205       208       210
       158       205       208       211       159       158       205       206
       159       158       205       207       159       158       205       208
       160       158       205       206       160       158       205       207
       160       158       205       208       161       164       167       168
       161       164       167       169       161       164       167       170
       162       161       164       165       162       161       164       166
       162       161       164       167       163       161       164       165
       163       161       164       166       163       161       164       167
       164       167       170       171       164       167       170       172
       164       167       170       173       165       164       167       168
       165       164       167       169       165       164       167       170
       166       164       167       168       166       164       167       169
       166       164       167       170       167       170       173       174
       167       170       173       175       167       170       173       176
       168       167       170       171       168       167       170       172
       168       167       170       173       169       167       170       171
       169       167       170       172       169       167       170       173
       170       173       176       177       170       173       176       178
       170       173       176       179       171       170       173       174
       171       170       173       175       171       170       173       176
       172       170       173       174       172       170       173       175
       172       170       173       176       173       176       179       180
       173       176       179       181       173       176       179       184
       174       173       176       177       174       173       176       178
       174       173       176       179       175       173       176       177
       175       173       176       178       175       173       176       179
       176       179       181       182       176       179       181       183
       176       179       181       184       176       179       184       181
       176       179       184       185       176       179       184       186
       177       176       179       180       177       176       179       181
       177       176       179       184       178       176       179       180
       178       176       179       181       178       176       179       184
       179       181       184       185       179       181       184       186
       179       184       181       182       179       184       181       183
       179       184       186       187       179       184       186       188
       179       184       186       189       180       179       181       182
       180       179       181       183       180       179       181       184
       180       179       184       181       180       179       184       185
       180       179       184       186       181       179       184       185
       181       179       184       186       181       184       186       187
       181       184       186       188       181       184       186       189
       182       181       179       184       182       181       184       185
       182       181       184       186       183       181       179       184
       183       181       184       185       183       181       184       186
       184       186       189       190       184       186       189       191
       184       186       189       192       185       184       186       187
       185       184       186       188       185       184       186       189
       186       189       192       193       186       189       192       194
       186       189       192       195       187       186       189       190
       187       186       189       191       187       186       189       192
       188       186       189       190       188       186       189       191
       188       186       189       192       189       192       195       196
       189       192       195       197       189       192       195       198
       190       189       192       193       190       189       192       194
       190       189       192       195       191       189       192       193
       191       189       192       194       191       189       192       195
       192       195       198       199       192       195       198       200
       192       195       198       201       193       192       195       196
       193       192       195       197       193       192       195       198
       194       192       195       196       194       192       195       197
       194       192       195       198       195       198       201       202
       195       198       201       203       195       198       201       204
       196       195       198       199       196       195       198       200
       196       195       198       201       197       195       198       199
       197       195       198       200       197       195       198       201
       199       198       201       202       199       198       201       203
       199       198       201       204       200       198       201       202
       200       198       201       203       200       198       201       204
       205       208       211       212       205       208       211       213
       205       208       211       214       206       205       208       209
       206       205       208       210       206       205       208       211
       207       205       208       209       207       205       208       210
       207       205       208       211       208       211       214       215
       208       211       214       216       208       211       214       217
       209       208       211       212       209       208       211       213
       209       208       211       214       210       208       211       212
       210       208       211       213       210       208       211       214
       211       214       217       218       211       214       217       219
       211       214       217       220       212       211       214       215
       212       211       214       216       212       211       214       217
       213       211       214       215       213       211       214       216
       213       211       214       217       214       217       220       221
       214       217       220       222       214       217       220       223
       215       214       217       218       215       214       217       219
       215       214       217       220       216       214       217       218
       216       214       217       219       216       214       217       220
       217       220       223       224       217       220       223       225
       217       220       223       226       218       217       220       221
       218       217       220       222       218       217       220       223
       219       217       220       221       219       217       220       222
       219       217       220       223       220       223       226       227
       220       223       226       228       220       223       226       229
       221       220       223       224       221       220       223       225
       221       220       223       226       222       220       223       224
       222       220       223       225       222       220       223       226
       223       226       229       230       223       226       229       231
       223       226       229       232       224       223       226       227
       224       223       226       228       224       223       226       229
       225       223       226       227       225       223       226       228
       225       223       226       229       226       229       232       233
       226       229       232       234       226       229       232       235
       227       226       229       230       227       226       229       231
       227       226       229       232       228       226       229       230
       228       226       229       231       228       226       229       232
       229       232       235       236       229       232       235       237
       229       232       235       238       230       229       232       233
       230       229       232       234       230       229       232       235
       231       229       232       233       231       229       232       234
       231       229       232       235       232       235       238       239
       232       235       238       240       232       235       238       241
       233       232       235       236       233       232       235       237
       233       232       235       238       234       232       235       236
       234       232       235       237       234       232       235       238
       235       238       241       242       235       238       241       243
       235       238       241       244       236       235       238       239
       236       235       238       240       236       235       238       241
       237       235       238       239       237       235       238       240
       237       235       238       241       238       241       244       245
       238       241       244       246       238       241       244       247
       239       238       241       242       239       238       241       243
       239       238       241       244       240       238       241       242
       240       238       241       243       240       238       241       244
       242       241       244       245       242       241       244       246
       242       241       244       247       243       241       244       245
       243       241       244       246       243       241       244       247
       248       252       255       256       248       252       255       257
       248       252       255       262       249       248       252       253
       249       248       252       254       249       248       252       255
       250       248       252       253       250       248       252       254
       250       248       252       255       251       248       252       253
       251       248       252       254       251       248       252       255
       252       255       262       258       253       252       255       256
       253       252       255       257       253       252       255       262
       254       252       255       256       254       252       255       257
       254       252       255       262       255       262       258       259
       255       262       258       260       255       262       258       261
       256       255       262       258       257       255       262       258
       258       261       263       264       258       261       263       265
       258       261       263       266       259       258       261       263
       260       258       261       263       261       263       266       267
       261       263       266       268       261       263       266       274
       262       258       261       263       263       266       268       269
       263       266       274       275       263       266       274       276
       263       266       274       277       264       263       266       267
       264       263       266       268       264       263       266       274
       265       263       266       267       265       263       266       268
       265       263       266       274       266       268       269       270
       266       268       269       271       266       274       277       278
       267       266       268       269       267       266       274       275
       267       266       274       276       267       266       274       277
       268       266       274       275       268       266       274       276
       268       266       274       277       268       269       271       272
       268       269       271       273       268       269       271       283
       269       268       266       274       269       271       283       284
       269       271       283       285       269       271       283       286
       270       269       271       272       270       269       271       273
       270       269       271       283       271       283       286       287
       271       283       286       288       271       283       286       289
       272       271       283       284       272       271       283       285
       272       271       283       286       273       271       283       284
       273       271       283       285       273       271       283       286
       274       277       278       279       274       277       278       280
       275       274       277       278       276       274       277       278
       277       278       280       281       277       278       280       282
       277       278       280       327       278       280       327       328
       278       280       327       329       278       280       327       330
       279       278       280       281       279       278       280       282
       279       278       280       327       280       327       330       331
       280       327       330       332       280       327       330       333
       281       280       327       328       281       280       327       329
       281       280       327       330       282       280       327       328
       282       280       327       329       282       280       327       330
       283       286       289       290       283       286       289       291
       283       286       289       292       284       283       286       287
       284       283       286       288       284       283       286       289
       285       283       286       287       285       283       286       288
       285       283       286       289       286       289       292       293
       286       289       292       294       286       289       292       295
       287       286       289       290       287       286       289       291
       287       286       289       292       288       286       289       290
       288       286       289       291       288       286       289       292
       289       292       295       296       289       292       295       297
       289       292       295       298       290       289       292       293
       290       289       292       294       290       289       292       295
       291       289       292       293       291       289       292       294
       291       289       292       295       292       295       298       299
       292       295       298       300       292       295       298       301
       293       292       295       296       293       292       295       297
       293       292       295       298       294       292       295       296
       294       292       295       297       294       292       295       298
       295       298       301       302       295       298       301       303
       295       298       301       306       296       295       298       299
       296       295       298       300       296       295       298       301
       297       295       298       299       297       295       298       300
       297       295       298       301       298       301       303       304
       298       301       303       305       298       301       303       306
       298       301       306       303       298       301       306       307
       298       301       306       308       299       298       301       302
       299       298       301       303       299       298       301       306
       300       298       301       302       300       298       301       303
       300       298       301       306       301       303       306       307
       301       303       306       308       301       306       303       304
       301       306       303       305       301       306       308       309
       301       306       308       310       301       306       308       311
       302       301       303       304       302       301       303       305
       302       301       303       306       302       301       306       303
       302       301       306       307       302       301       306       308
       303       301       306       307       303       301       306       308
       303       306       308       309       303       306       308       310
       303       306       308       311       304       303       301       306
       304       303       306       307       304       303       306       308
       305       303       301       306       305       303       306       307
       305       303       306       308       306       308       311       312
       306       308       311       313       306       308       311       314
       307       306       308       309       307       306       308       310
       307       306       308       311       308       311       314       315
       308       311       314       316       308       311       314       317
       309       308       311       312       309       308       311       313
       309       308       311       314       310       308       311       312
       310       308       311       313       310       308       311       314
       311       314       317       318       311       314       317       319
       311       314       317       320       312       311       314       315
       312       311       314       316       312       311       314       317
       313       311       314       315       313       311       314       316
       313       311       314       317       314       317       320       321
       314       317       320       322       314       317       320       323
       315       314       317       318       315       314       317       319
       315       314       317       320       316       314       317       318
       316       314       317       319       316       314       317       320
       317       320       323       324       317       320       323       325
       317       320       323       326       318       317       320       321
       318       317       320       322       318       317       320       323
       319       317       320       321       319       317       320       322
       319       317       320       323       321       320       323       324
       321       320       323       325       321       320       323       326
       322       320       323       324       322       320       323       325
       322       320       323       326       327       330       333       334
       327       330       333       335       327       330       333       336
       328       327       330       331       328       327       330       332
       328       327       330       333       329       327       330       331
       329       327       330       332       329       327       330       333
       330       333       336       337       330       333       336       338
       330       333       336       339       331       330       333       334
       331       330       333       335       331       330       333       336
       332       330       333       334       332       330       333       335
       332       330       333       336       333       336       339       340
       333       336       339       341       333       336       339       342
       334       333       336       337       334       333       336       338
       334       333       336       339       335       333       336       337
       335       333       336       338       335       333       336       339
       336       339       342       343       336       339       342       344
       336       339       342       345       337       336       339       340
       337       336       339       341       337       336       339       342
       338       336       339       340       338       336       339       341
       338       336       339       342       339       342       345       346
       339       342       345       347       339       342       345       348
       340       339       342       343       340       339       342       344
       340       339       342       345       341       339       342       343
       341       339       342       344       341       339       342       345
       342       345       348       349       342       345       348       350
       342       345       348       351       343       342       345       346
       343       342       345       347       343       342       345       348
       344       342       345       346       344       342       345       347
       344       342       345       348       345       348       351       352
       345       348       351       353       345       348       351       354
       346       345       348       349       346       345       348       350
       346       345       348       351       347       345       348       349
       347       345       348       350       347       345       348       351
       348       351       354       355       348       351       354       356
       348       351       354       357       349       348       351       352
       349       348       351       353       349       348       351       354
       350       348       351       352       350       348       351       353
       350       348       351       354       351       354       357       358
       351       354       357       359       351       354       357       360
       352       351       354       355       352       351       354       356
       352       351       354       357       353       351       354       355
       353       351       354       356       353       351       354       357
       354       357       360       361       354       357       360       362
       354       357       360       363       355       354       357       358
       355       354       357       359       355       354       357       360
       356       354       357       358       356       354       357       359
       356       354       357       360       357       360       363       364
       357       360       363       365       357       360       363       366
       358       357       360       361       358       357       360       362
       358       357       360       363       359       357       360       361
       359       357       360       362       359       357       360       363
       360       363       366       367       360       363       366       368
       360       363       366       369       361       360       363       364
       361       360       363       365       361       360       363       366
       362       360       363       364       362       360       363       365
       362       360       363       366       364       363       366       367
       364       363       366       368       364       363       366       369
       365       363       366       367       365       363       366       368
       365       363       366       369       370       374       377       378
       370       374       377       379       370       374       377       384
       371       370       374       375       371       370       374       376
       371       370       374       377       372       370       374       375
       372       370       374       376       372       370       374       377
       373       370       374       375       373       370       374       376
       373       370       374       377       374       377       384       380
       375       374       377       378       375       374       377       379
       375       374       377       384       376       374       377       378
       376       374       377       379       376       374       377       384
       377       384       380       381       377       384       380       382
       377       384       380       383       378       377       384       380
       379       377       384       380       380       383       385       386
       380       383       385       387       380       383       385       388
       381       380       383       385       382       380       383       385
       383       385       388       389       383       385       388       390
       383       385       388       396       384       380       383       385
       385       388       390       391       385       388       396       397
       385       388       396       398       385       388       396       399
       386       385       388       389       386       385       388       390
       386       385       388       396       387       385       388       389
       387       385       388       390       387       385       388       396
       388       390       391       392       388       390       391       393
       388       396       399       400       389       388       390       391
       389       388       396       397       389       388       396       398
       389       388       396       399       390       388       396       397
       390       388       396       398       390       388       396       399
       390       391       393       394       390       391       393       395
       390       391       393       405       391       390       388       396
       391       393       405       406       391       393       405       407
       391       393       405       408       392       391       393       394
       392       391       393       395       392       391       393       405
       393       405       408       409       393       405       408       410
       393       405       408       411       394       393       405       406
       394       393       405       407       394       393       405       408
       395       393       405       406       395       393       405       407
       395       393       405       408       396       399       400       401
       396       399       400       402       397       396       399       400
       398       396       399       400       399       400       402       403
       399       400       402       404       399       400       402       452
       400       402       452       453       400       402       452       454
       400       402       452       455       401       400       402       403
       401       400       402       404       401       400       402       452
       402       452       455       456       402       452       455       457
       402       452       455       458       403       402       452       453
       403       402       452       454       403       402       452       455
       404       402       452       453       404       402       452       454
       404       402       452       455       405       408       411       412
       405       408       411       413       405       408       411       414
       406       405       408       409       406       405       408       410
       406       405       408       411       407       405       408       409
       407       405       408       410       407       405       408       411
       408       411       414       415       408       411       414       416
       408       411       414       417       409       408       411       412
       409       408       411       413       409       408       411       414
       410       408       411       412       410       408       411       413
       410       408       411       414       411       414       417       418
       411       414       417       419       411       414       417       420
       412       411       414       415       412       411       414       416
       412       411       414       417       413       411       414       415
       413       411       414       416       413       411       414       417
       414       417       420       421       414       417       420       422
       414       417       420       423       415       414       417       418
       415       414       417       419       415       414       417       420
       416       414       417       418       416       414       417       419
       416       414       417       420       417       420       423       424
       417       420       423       425       418       417       420       421
       418       417       420       422       418       417       420       423
       419       417       420       421       419       417       420       422
       419       417       420       423       420       423       425       426
       420       423       425       427       421       420       423       424
       421       420       423       425       422       420       423       424
       422       420       423       425       423       425       427       428
       423       425       427       429       423       425       427       430
       424       423       425       426       424       423       425       427
       425       427       430       431       425       427       430       432
       425       427       430       433       426       425       427       428
       426       425       427       429       426       425       427       430
       427       430       433       434       427       430       433       435
       427       430       433       436       428       427       430       431
       428       427       430       432       428       427       430       433
       429       427       430       431       429       427       430       432
       429       427       430       433       430       433       436       437
       430       433       436       438       430       433       436       439
       431       430       433       434       431       430       433       435
       431       430       433       436       432       430       433       434
       432       430       433       435       432       430       433       436
       433       436       439       440       433       436       439       441
       433       436       439       442       434       433       436       437
       434       433       436       438       434       433       436       439
       435       433       436       437       435       433       436       438
       435       433       436       439       436       439       442       443
       436       439       442       444       436       439       442       445
       437       436       439       440       437       436       439       441
       437       436       439       442       438       436       439       440
       438       436       439       441       438       436       439       442
       439       442       445       446       439       442       445       447
       439       442       445       448       440       439       442       443
       440       439       442       444       440       439       442       445
       441       439       442       443       441       439       442       444
       441       439       442       445       442       445       448       449
       442       445       448       450       442       445       448       451
       443       442       445       446       443       442       445       447
       443       442       445       448       444       442       445       446
       444       442       445       447       444       442       445       448
       446       445       448       449       446       445       448       450
       446       445       448       451       447       445       448       449
       447       445       448       450       447       445       448       451
       452       455       458       459       452       455       458       460
       452       455       458       461       453       452       455       456
       453       452       455       457       453       452       455       458
       454       452       455       456       454       452       455       457
       454       452       455       458       455       458       461       462
       455       458       461       463       455       458       461       464
       456       455       458       459       456       455       458       460
       456       455       458       461       457       455       458       459
       457       455       458       460       457       455       458       461
       458       461       464       465       458       461       464       466
       458       461       464       467       459       458       461       462
       459       458       461       463       459       458       461       464
       460       458       461       462       460       458       461       463
       460       458       461       464       461       464       467       468
       461       464       467       469       461       464       467       470
       462       461       464       465       462       461       464       466
       462       461       464       467       463       461       464       465
       463       461       464       466       463       461       464       467
       464       467       470       471       464       467       470       472
       464       467       470       473       465       464       467       468
       465       464       467       469       465       464       467       470
       466       464       467       468       466       464       467       469
       466       464       467       470       467       470       473       474
       467       470       473       475       467       470       473       476
       468       467       470       471       468       467       470       472
       468       467       470       473       469       467       470       471
       469       467       470       472       469       467       470       473
       470       473       476       477       470       473       476       478
       470       473       476       479       471       470       473       474
       471       470       473       475       471       470       473       476
       472       470       473       474       472       470       473       475
       472       470       473       476       473       476       479       480
       473       476       479       481       473       476       479       482
       474       473       476       477       474       473       476       478
       474       473       476       479       475       473       476       477
       475       473       476       478       475       473       476       479
       476       479       482       483       476       479       482       484
       476       479       482       485       477       476       479       480
       477       476       479       481       477       476       479       482
       478       476       479       480       478       476       479       481
       478       476       479       482       479       482       485       486
       479       482       485       487       479       482       485       488
       480       479       482       483       480       479       482       484
       480       479       482       485       481       479       482       483
       481       479       482       484       481       479       482       485
       482       485       488       489       482       485       488       490
       482       485       488       491       483       482       485       486
       483       482       485       487       483       482       485       488
       484       482       485       486       484       482       485       487
       484       482       485       488       485       488       491       492
       485       488       491       493       485       488       491       494
       486       485       488       489       486       485       488       490
       486       485       488       491       487       485       488       489
       487       485       488       490       487       485       488       491
       489       488       491       492       489       488       491       493
       489       488       491       494       490       488       491       492
       490       488       491       493       490       488       491       494
       495       499       502       503       495       499       502       504
       495       499       502       509       496       495       499       500
       496       495       499       501       496       495       499       502
       497       495       499       500       497       495       499       501
       497       495       499       502       498       495       499       500
       498       495       499       501       498       495       499       502
       499       502       509       505       500       499       502       503
       500       499       502       504       500       499       502       509
       501       499       502       503       501       499       502       504
       501       499       502       509       502       509       505       506
       502       509       505       507       502       509       505       508
       503       502       509       505       504       502       509       505
       505       508       510       511       505       508       510       512
       505       508       510       513       506       505       508       510
       507       505       508       510       508       510       513       514
       508       510       513       515       508       510       513       521
       509       505       508       510       510       513       515       516
       510       513       521       522       510       513       521       523
       510       513       521       524       511       510       513       514
       511       510       513       515       511       510       513       521
       512       510       513       514       512       510       513       515
       512       510       513       521       513       515       516       517
       513       515       516       518       513       521       524       525
       514       513       515       516       514       513       521       522
       514       513       521       523       514       513       521       524
       515       513       521       522       515       513       521       523
       515       513       521       524       515       516       518       519
       515       516       518       520       515       516       518       530
       516       515       513       521       516       518       530       531
       516       518       530       532       516       518       530       533
       517       516       518       519       517       516       518       520
       517       516       518       530       518       530       533       534
       518       530       533       535       518       530       533       536
       519       518       530       531       519       518       530       532
       519       518       530       533       520       518       530       531
       520       518       530       532       520       518       530       533
       521       524       525       526       521       524       525       527
       522       521       524       525       523       521       524       525
       524       525       527       528       524       525       527       529
       524       525       527       574       525       527       574       575
       525       527       574       576       525       527       574       577
       526       525       527       528       526       525       527       529
       526       525       527       574       527       574       577       578
       527       574       577       579       527       574       577       580
       528       527       574       575       528       527       574       576
       528       527       574       577       529       527       574       575
       529       527       574       576       529       527       574       577
       530       533       536       537       530       533       536       538
       530       533       536       539       531       530       533       534
       531       530       533       535       531       530       533       536
       532       530       533       534       532       530       533       535
       532       530       533       536       533       536       539       540
       533       536       539       541       533       536       539       542
       534       533       536       537       534       533       536       538
       534       533       536       539       535       533       536       537
       535       533       536       538       535       533       536       539
       536       539       542       543       536       539       542       544
       536       539       542       545       537       536       539       540
       537       536       539       541       537       536       539       542
       538       536       539       540       538       536       539       541
       538       536       539       542       539       542       545       546
       539       542       545       547       539       542       545       548
       540       539       542       543       540       539       542       544
       540       539       542       545       541       539       542       543
       541       539       542       544       541       539       542       545
       542       545       548       549       542       545       548       550
       542       545       548       553       543       542       545       546
       543       542       545       547       543       542       545       548
       544       542       545       546       544       542       545       547
       544       542       545       548       545       548       550       551
       545       548       550       552       545       548       550       553
       545       548       553       550       545       548       553       554
       545       548       553       555       546       545       548       549
       546       545       548       550       546       545       548       553
       547       545       548       549       547       545       548       550
       547       545       548       553       548       550       553       554
       548       550       553       555       548       553       550       551
       548       553       550       552       548       553       555       556
       548       553       555       557       548       553       555       558
       549       548       550       551       549       548       550       552
       549       548       550       553       549       548       553       550
       549       548       553       554       549       548       553       555
       550       548       553       554       550       548       553       555
       550       553       555       556       550       553       555       557
       550       553       555       558       551       550       548       553
       551       550       553       554       551       550       553       555
       552       550       548       553       552       550       553       554
       552       550       553       555       553       555       558       559
       553       555       558       560       553       555       558       561
       554       553       555       556       554       553       555       557
       554       553       555       558       555       558       561       562
       555       558       561       563       555       558       561       564
       556       555       558       559       556       555       558       560
       556       555       558       561       557       555       558       559
       557       555       558       560       557       555       558       561
       558       561       564       565       558       561       564       566
       558       561       564       567       559       558       561       562
       559       558       561       563       559       558       561       564
       560       558       561       562       560       558       561       563
       560       558       561       564       561       564       567       568
       561       564       567       569       561       564       567       570
       562       561       564       565       562       561       564       566
       562       561       564       567       563       561       564       565
       563       561       564       566       563       561       564       567
       564       567       570       571       564       567       570       572
       564       567       570       573       565       564       567       568
       565       564       567       569       565       564       567       570
       566       564       567       568       566       564       567       569
       566       564       567       570       568       567       570       571
       568       567       570       572       568       567       570       573
       569       567       570       571       569       567       570       572
       569       567       570       573       574       577       580       581
       574       577       580       582       574       577       580       583
       575       574       577       578       575       574       577       579
       575       574       577       580       576       574       577       578
       576       574       577       579       576       574       577       580
       577       580       583       584       577       580       583       585
       577       580       583       586       578       577       580       581
       578       577       580       582       578       577       580       583
       579       577       580       581       579       577       580       582
       579       577       580       583       580       583       586       587
       580       583       586       588       580       583       586       589
       581       580       583       584       581       580       583       585
       581       580       583       586       582       580       583       584
       582       580       583       585       582       580       583       586
       583       586       589       590       583       586       589       591
       583       586       589       592       584       583       586       587
       584       583       586       588       584       583       586       589
       585       583       586       587       585       583       586       588
       585       583       586       589       586       589       592       593
       586       589       592       594       586       589       592       595
       587       586       589       590       587       586       589       591
       587       586       589       592       588       586       589       590
       588       586       589       591       588       586       589       592
       589       592       595       596       589       592       595       597
       589       592       595       598       590       589       592       593
       590       589       592       594       590       589       592       595
       591       589       592       593       591       589       592       594
       591       589       592       595       592       595       598       599
       592       595       598       600       592       595       598       601
       593       592       595       596       593       592       595       597
       593       592       595       598       594       592       595       596
       594       592       595       597       594       592       595       598
       595       598       601       602       595       598       601       603
       595       598       601       604       596       595       598       599
       596       595       598       600       596       595       598       601
       597       595       598       599       597       595       598       600
       597       595       598       601       598       601       604       605
       598       601       604       606       598       601       604       607
       599       598       601       602       599       598       601       603
       599       598       601       604       600       598       601       602
       600       598       601       603       600       598       601       604
       601       604       607       608       601       604       607       609
       601       604       607       610       602       601       604       605
       602       601       604       606       602       601       604       607
       603       601       604       605       603       601       604       606
       603       601       604       607       604       607       610       611
       604       607       610       612       604       607       610       613
       605       604       607       608       605       604       607       609
       605       604       607       610       606       604       607       608
       606       604       607       609       606       604       607       610
       607       610       613       614       607       610       613       615
       607       610       613       616       608       607       610       611
       608       607       610       612       608       607       610       613
       609       607       610       611       609       607       610       612
       609       607       610       613       611       610       613       614
       611       610       613       615       611       610       613       616
       612       610       613       614       612       610       613       615
       612       610       613       616       617       621       624       625
       617       621       624       626       617       621       624       631
       618       617       621       622       618       617       621       623
       618       617       621       624       619       617       621       622
       619       617       621       623       619       617       621       624
       620       617       621       622       620       617       621       623
       620       617       621       624       621       624       631       627
       622       621       624       625       622       621       624       626
       622       621       624       631       623       621       624       625
       623       621       624       626       623       621       624       631
       624       631       627       628       624       631       627       629
       624       631       627       630       625       624       631       627
       626       624       631       627       627       630       632       633
       627       630       632       634       627       630       632       635
       628       627       630       632       629       627       630       632
       630       632       635       636       630       632       635       637
       630       632       635       643       631       627       630       632
       632       635       637       638       632       635       643       644
       632       635       643       645       632       635       643       646
       633       632       635       636       633       632       635       637
       633       632       635       643       634       632       635       636
       634       632       635       637       634       632       635       643
       635       637       638       639       635       637       638       640
       635       643       646       647       636       635       637       638
       636       635       643       644       636       635       643       645
       636       635       643       646       637       635       643       644
       637       635       643       645       637       635       643       646
       637       638       640       641       637       638       640       642
       637       638       640       652       638       637       635       643
       638       640       652       653       638       640       652       654
       638       640       652       655       639       638       640       641
       639       638       640       642       639       638       640       652
       640       652       655       656       640       652       655       657
       640       652       655       658       641       640       652       653
       641       640       652       654       641       640       652       655
       642       640       652       653       642       640       652       654
       642       640       652       655       643       646       647       648
       643       646       647       649       644       643       646       647
       645       643       646       647       646       647       649       650
       646       647       649       651       646       647       649       699
       647       649       699       700       647       649       699       701
       647       649       699       702       648       647       649       650
       648       647       649       651       648       647       649       699
       649       699       702       703       649       699       702       704
       649       699       702       705       650       649       699       700
       650       649       699       701       650       649       699       702
       651       649       699       700       651       649       699       701
       651       649       699       702       652       655       658       659
       652       655       658       660       652       655       658       661
       653       652       655       656       653       652       655       657
       653       652       655       658       654       652       655       656
       654       652       655       657       654       652       655       658
       655       658       661       662       655       658       661       663
       655       658       661       664       656       655       658       659
       656       655       658       660       656       655       658       661
       657       655       658       659       657       655       658       660
       657       655       658       661       658       661       664       665
       658       661       664       666       658       661       664       667
       659       658       661       662       659       658       661       663
       659       658       661       664       660       658       661       662
       660       658       661       663       660       658       661       664
       661       664       667       668       661       664       667       669
       661       664       667       670       662       661       664       665
       662       661       664       666       662       661       664       667
       663       661       664       665       663       661       664       666
       663       661       664       667       664       667       670       671
       664       667       670       672       665       664       667       668
       665       664       667       669       665       664       667       670
       666       664       667       668       666       664       667       669
       666       664       667       670       667       670       672       673
       667       670       672       674       668       667       670       671
       668       667       670       672       669       667       670       671
       669       667       670       672       670       672       674       675
       670       672       674       676       670       672       674       677
       671       670       672       673       671       670       672       674
       672       674       677       678       672       674       677       679
       672       674       677       680       673       672       674       675
       673       672       674       676       673       672       674       677
       674       677       680       681       674       677       680       682
       674       677       680       683       675       674       677       678
       675       674       677       679       675       674       677       680
       676       674       677       678       676       674       677       679
       676       674       677       680       677       680       683       684
       677       680       683       685       677       680       683       686
       678       677       680       681       678       677       680       682
       678       677       680       683       679       677       680       681
       679       677       680       682       679       677       680       683
       680       683       686       687       680       683       686       688
       680       683       686       689       681       680       683       684
       681       680       683       685       681       680       683       686
       682       680       683       684       682       680       683       685
       682       680       683       686       683       686       689       690
       683       686       689       691       683       686       689       692
       684       683       686       687       684       683       686       688
       684       683       686       689       685       683       686       687
       685       683       686       688       685       683       686       689
       686       689       692       693       686       689       692       694
       686       689       692       695       687       686       689       690
       687       686       689       691       687       686       689       692
       688       686       689       690       688       686       689       691
       688       686       689       692       689       692       695       696
       689       692       695       697       689       692       695       698
       690       689       692       693       690       689       692       694
       690       689       692       695       691       689       692       693
       691       689       692       694       691       689       692       695
       693       692       695       696       693       692       695       697
       693       692       695       698       694       692       695       696
       694       692       695       697       694       692       695       698
       699       702       705       706       699       702       705       707
       699       702       705       708       700       699       702       703
       700       699       702       704       700       699       702       705
       701       699       702       703       701       699       702       704
       701       699       702       705       702       705       708       709
       702       705       708       710       702       705       708       711
       703       702       705       706       703       702       705       707
       703       702       705       708       704       702       705       706
       704       702       705       707       704       702       705       708
       705       708       711       712       705       708       711       713
       705       708       711       714       706       705       708       709
       706       705       708       710       706       705       708       711
       707       705       708       709       707       705       708       710
       707       705       708       711       708       711       714       715
       708       711       714       716       708       711       714       717
       709       708       711       712       709       708       711       713
       709       708       711       714       710       708       711       712
       710       708       711       713       710       708       711       714
       711       714       717       718       711       714       717       719
       711       714       717       720       712       711       714       715
       712       711       714       716       712       711       714       717
       713       711       714       715       713       711       714       716
       713       711       714       717       714       717       720       721
       714       717       720       722       714       717       720       723
       715       714       717       718       715       714       717       719
       715       714       717       720       716       714       717       718
       716       714       717       719       716       714       717       720
       717       720       723       724       717       720       723       725
       717       720       723       726       718       717       720       721
       718       717       720       722       718       717       720       723
       719       717       720       721       719       717       720       722
       719       717       720       723       720       723       726       727
       720       723       726       728       720       723       726       729
       721       720       723       724       721       720       723       725
       721       720       723       726       722       720       723       724
       722       720       723       725       722       720       723       726
       723       726       729       730       723       726       729       731
       723       726       729       732       724       723       726       727
       724       723       726       728       724       723       726       729
       725       723       726       727       725       723       726       728
       725       723       726       729       726       729       732       733
       726       729       732       734       726       729       732       735
       727       726       729       730       727       726       729       731
       727       726       729       732       728       726       729       730
       728       726       729       731       728       726       729       732
       729       732       735       736       729       732       735       737
       729       732       735       738       730       729       732       733
       730       729       732       734       730       729       732       735
       731       729       732       733       731       729       732       734
       731       729       732       735       732       735       738       739
       732       735       738       740       732       735       738       741
       733       732       735       736       733       732       735       737
       733       732       735       738       734       732       735       736
       734       732       735       737       734       732       735       738
       736       735       738       739       736       735       738       740
       736       735       738       741       737       735       738       739
       737       735       738       740       737       735       738       741
       742       746       749       750       742       746       749       751
       742       746       749       756       743       742       746       747
       743       742       746       748       743       742       746       749
       744       742       746       747       744       742       746       748
       744       742       746       749       745       742       746       747
       745       742       746       748       745       742       746       749
       746       749       756       752       747       746       749       750
       747       746       749       751       747       746       749       756
       748       746       749       750       748       746       749       751
       748       746       749       756       749       756       752       753
       749       756       752       754       749       756       752       755
       750       749       756       752       751       749       756       752
       752       755       757       758       752       755       757       759
       752       755       757       760       753       752       755       757
       754       752       755       757       755       757       760       761
       755       757       760       762       755       757       760       768
       756       752       755       757       757       760       762       763
       757       760       768       769       757       760       768       770
       757       760       768       771       758       757       760       761
       758       757       760       762       758       757       760       768
       759       757       760       761       759       757       760       762
       759       757       760       768       760       762       763       764
       760       762       763       765       760       768       771       772
       761       760       762       763       761       760       768       769
       761       760       768       770       761       760       768       771
       762       760       768       769       762       760       768       770
       762       760       768       771       762       763       765       766
       762       763       765       767       762       763       765       777
       763       762       760       768       763       765       777       778
       763       765       777       779       763       765       777       780
       764       763       765       766       764       763       765       767
       764       763       765       777       765       777       780       781
       765       777       780       782       765       777       780       783
       766       765       777       778       766       765       777       779
       766       765       777       780       767       765       777       778
       767       765       777       779       767       765       777       780
       768       771       772       773       768       771       772       774
       769       768       771       772       770       768       771       772
       771       772       774       775       771       772       774       776
       771       772       774       821       772       774       821       822
       772       774       821       823       772       774       821       824
       773       772       774       775       773       772       774       776
       773       772       774       821       774       821       824       825
       774       821       824       826       774       821       824       827
       775       774       821       822       775       774       821       823
       775       774       821       824       776       774       821       822
       776       774       821       823       776       774       821       824
       777       780       783       784       777       780       783       785
       777       780       783       786       778       777       780       781
       778       777       780       782       778       777       780       783
       779       777       780       781       779       777       780       782
       779       777       780       783       780       783       786       787
       780       783       786       788       780       783       786       789
       781       780       783       784       781       780       783       785
       781       780       783       786       782       780       783       784
       782       780       783       785       782       780       783       786
       783       786       789       790       783       786       789       791
       783       786       789       792       784       783       786       787
       784       783       786       788       784       783       786       789
       785       783       786       787       785       783       786       788
       785       783       786       789       786       789       792       793
       786       789       792       794       786       789       792       795
       787       786       789       790       787       786       789       791
       787       786       789       792       788       786       789       790
       788       786       789       791       788       786       789       792
       789       792       795       796       789       792       795       797
       789       792       795       800       790       789       792       793
       790       789       792       794       790       789       792       795
       791       789       792       793       791       789       792       794
       791       789       792       795       792       795       797       798
       792       795       797       799       792       795       797       800
       792       795       800       797       792       795       800       801
       792       795       800       802       793       792       795       796
       793       792       795       797       793       792       795       800
       794       792       795       796       794       792       795       797
       794       792       795       800       795       797       800       801
       795       797       800       802       795       800       797       798
       795       800       797       799       795       800       802       803
       795       800       802       804       795       800       802       805
       796       795       797       798       796       795       797       799
       796       795       797       800       796       795       800       797
       796       795       800       801       796       795       800       802
       797       795       800       801       797       795       800       802
       797       800       802       803       797       800       802       804
       797       800       802       805       798       797       795       800
       798       797       800       801       798       797       800       802
       799       797       795       800       799       797       800       801
       799       797       800       802       800       802       805       806
       800       802       805       807       800       802       805       808
       801       800       802       803       801       800       802       804
       801       800       802       805       802       805       808       809
       802       805       808       810       802       805       808       811
       803       802       805       806       803       802       805       807
       803       802       805       808       804       802       805       806
       804       802       805       807       804       802       805       808
       805       808       811       812       805       808       811       813
       805       808       811       814       806       805       808       809
       806       805       808       810       806       805       808       811
       807       805       808       809       807       805       808       810
       807       805       808       811       808       811       814       815
       808       811       814       816       808       811       814       817
       809       808       811       812       809       808       811       813
       809       808       811       814       810       808       811       812
       810       808       811       813       810       808       811       814
       811       814       817       818       811       814       817       819
       811       814       817       820       812       811       814       815
       812       811       814       816       812       811       814       817
       813       811       814       815       813       811       814       816
       813       811       814       817       815       814       817       818
       815       814       817       819       815       814       817       820
       816       814       817       818       816       814       817       819
       816       814       817       820       821       824       827       828
       821       824       827       829       821       824       827       830
       822       821       824       825       822       821       824       826
       822       821       824       827       823       821       824       825
       823       821       824       826       823       821       824       827
       824       827       830       831       824       827       830       832
       824       827       830       833       825       824       827       828
       825       824       827       829       825       824       827       830
       826       824       827       828       826       824       827       829
       826       824       827       830       827       830       833       834
       827       830       833       835       827       830       833       836
       828       827       830       831       828       827       830       832
       828       827       830       833       829       827       830       831
       829       827       830       832       829       827       830       833
       830       833       836       837       830       833       836       838
       830       833       836       839       831       830       833       834
       831       830       833       835       831       830       833       836
       832       830       833       834       832       830       833       835
       832       830       833       836       833       836       839       840
       833       836       839       841       833       836       839       842
       834       833       836       837       834       833       836       838
       834       833       836       839       835       833       836       837
       835       833       836       838       835       833       836       839
       836       839       842       843       836       839       842       844
       836       839       842       845       837       836       839       840
       837       836       839       841       837       836       839       842
       838       836       839       840       838       836       839       841
       838       836       839       842       839       842       845       846
       839       842       845       847       839       842       845       848
       840       839       842       843       840       839       842       844
       840       839       842       845       841       839       842       843
       841       839       842       844       841       839       842       845
       842       845       848       849       842       845       848       850
       842       845       848       851       843       842       845       846
       843       842       845       847       843       842       845       848
       844       842       845       846       844       842       845       847
       844       842       845       848       845       848       851       852
       845       848       851       853       845       848       851       854
       846       845       848       849       846       845       848       850
       846       845       848       851       847       845       848       849
       847       845       848       850       847       845       848       851
       848       851       854       855       848       851       854       856
       848       851       854       857       849       848       851       852
       849       848       851       853       849       848       851       854
       850       848       851       852       850       848       851       853
       850       848       851       854       851       854       857       858
       851       854       857       859       851       854       857       860
       852       851       854       855       852       851       854       856
       852       851       854       857       853       851       854       855
       853       851       854       856       853       851       854       857
       854       857       860       861       854       857       860       862
       854       857       860       863       855       854       857       858
       855       854       857       859       855       854       857       860
       856       854       857       858       856       854       857       859
       856       854       857       860       858       857       860       861
       858       857       860       862       858       857       860       863
       859       857       860       861       859       857       860       862
       859       857       860       863       864       868       871       872
       864       868       871       873       864       868       871       878
       865       864       868       869       865       864       868       870
       865       864       868       871       866       864       868       869
       866       864       868       870       866       864       868       871
       867       864       868       869       867       864       868       870
       867       864       868       871       868       871       878       874
       869       868       871       872       869       868       871       873
       869       868       871       878       870       868       871       872
       870       868       871       873       870       868       871       878
       871       878       874       875       871       878       874       876
       871       878       874       877       872       871       878       874
       873       871       878       874       874       877       879       880
       874       877       879       881       874       877       879       882
       875       874       877       879       876       874       877       879
       877       879       882       883       877       879       882       884
       877       879       882       890       878       874       877       879
       879       882       884       885       879       882       890       891
       879       882       890       892       879       882       890       893
       880       879       882       883       880       879       882       884
       880       879       882       890       881       879       882       883
       881       879       882       884       881       879       882       890
       882       884       885       886       882       884       885       887
       882       890       893       894       883       882       884       885
       883       882       890       891       883       882       890       892
       883       882       890       893       884       882       890       891
       884       882       890       892       884       882       890       893
       884       885       887       888       884       885       887       889
       884       885       887       899       885       884       882       890
       885       887       899       900       885       887       899       901
       885       887       899       902       886       885       887       888
       886       885       887       889       886       885       887       899
       887       899       902       903       887       899       902       904
       887       899       902       905       888       887       899       900
       888       887       899       901       888       887       899       902
       889       887       899       900       889       887       899       901
       889       887       899       902       890       893       894       895
       890       893       894       896       891       890       893       894
       892       890       893       894       893       894       896       897
       893       894       896       898       893       894       896       943
       894       896       943       944       894       896       943       945
       894       896       943       946       895       894       896       897
       895       894       896       898       895       894       896       943
       896       943       946       947       896       943       946       948
       896       943       946       949       897       896       943       944
       897       896       943       945       897       896       943       946
       898       896       943       944       898       896       943       945
       898       896       943       946       899       902       905       906
       899       902       905       907       899       902       905       908
       900       899       902       903       900       899       902       904
       900       899       902       905       901       899       902       903
       901       899       902       904       901       899       902       905
       902       905       908       909       902       905       908       910
       902       905       908       911       903       902       905       906
       903       902       905       907       903       902       905       908
       904       902       905       906       904       902       905       907
       904       902       905       908       905       908       911       912
       905       908       911       913       905       908       911       914
       906       905       908       909       906       905       908       910
       906       905       908       911       907       905       908       909
       907       905       908       910       907       905       908       911
       908       911       914       915       908       911       914       916
       908       911       914       917       909       908       911       912
       909       908       911       913       909       908       911       914
       910       908       911       912       910       908       911       913
       910       908       911       914       911       914       917       918
       911       914       917       919       911       914       917       922
       912       911       914       915       912       911       914       916
       912       911       914       917       913       911       914       915
       913       911       914       916       913       911       914       917
       914       917       919       920       914       917       919       921
       914       917       919       922       914       917       922       919
       914       917       922       923       914       917       922       924
       915       914       917       918       915       914       917       919
       915       914       917       922       916       914       917       918
       916       914       917       919       916       914       917       922
       917       919       922       923       917       919       922       924
       917       922       919       920       917       922       919       921
       917       922       924       925       917       922       924       926
       917       922       924       927       918       917       919       920
       918       917       919       921       918       917       919       922
       918       917       922       919       918       917       922       923
       918       917       922       924       919       917       922       923
       919       917       922       924       919       922       924       925
       919       922       924       926       919       922       924       927
       920       919       917       922       920       919       922       923
       920       919       922       924       921       919       917       922
       921       919       922       923       921       919       922       924
       922       924       927       928       922       924       927       929
       922       924       927       930       923       922       924       925
       923       922       924       926       923       922       924       927
       924       927       930       931       924       927       930       932
       924       927       930       933       925       924       927       928
       925       924       927       929       925       924       927       930
       926       924       927       928       926       924       927       929
       926       924       927       930       927       930       933       934
       927       930       933       935       927       930       933       936
       928       927       930       931       928       927       930       932
       928       927       930       933       929       927       930       931
       929       927       930       932       929       927       930       933
       930       933       936       937       930       933       936       938
       930       933       936       939       931       930       933       934
       931       930       933       935       931       930       933       936
       932       930       933       934       932       930       933       935
       932       930       933       936       933       936       939       940
       933       936       939       941       933       936       939       942
       934       933       936       937       934       933       936       938
       934       933       936       939       935       933       936       937
       935       933       936       938       935       933       936       939
       937       936       939       940       937       936       939       941
       937       936       939       942       938       936       939       940
       938       936       939       941       938       936       939       942
       943       946       949       950       943       946       949       951
       943       946       949       952       944       943       946       947
       944       943       946       948       944       943       946       949
       945       943       946       947       945       943       946       948
       945       943       946       949       946       949       952       953
       946       949       952       954       946       949       952       955
       947       946       949       950       947       946       949       951
       947       946       949       952       948       946       949       950
       948       946       949       951       948       946       949       952
       949       952       955       956       949       952       955       957
       949       952       955       958       950       949       952       953
       950       949       952       954       950       949       952       955
       951       949       952       953       951       949       952       954
       951       949       952       955       952       955       958       959
       952       955       958       960       952       955       958       961
       953       952       955       956       953       952       955       957
       953       952       955       958       954       952       955       956
       954       952       955       957       954       952       955       958
       955       958       961       962       955       958       961       963
       955       958       961       964       956       955       958       959
       956       955       958       960       956       955       958       961
       957       955       958       959       957       955       958       960
       957       955       958       961       958       961       964       965
       958       961       964       966       958       961       964       967
       959       958       961       962       959       958       961       963
       959       958       961       964       960       958       961       962
       960       958       961       963       960       958       961       964
       961       964       967       968       961       964       967       969
       961       964       967       970       962       961       964       965
       962       961       964       966       962       961       964       967
       963       961       964       965       963       961       964       966
       963       961       964       967       964       967       970       971
       964       967       970       972       964       967       970       973
       965       964       967       968       965       964       967       969
       965       964       967       970       966       964       967       968
       966       964       967       969       966       964       967       970
       967       970       973       974       967       970       973       975
       967       970       973       976       968       967       970       971
       968       967       970       972       968       967       970       973
       969       967       970       971       969       967       970       972
       969       967       970       973       970       973       976       977
       970       973       976       978       970       973       976       979
       971       970       973       974       971       970       973       975
       971       970       973       976       972       970       973       974
       972       970       973       975       972       970       973       976
       973       976       979       980       973       976       979       981
       973       976       979       982       974       973       976       977
       974       973       976       978       974       973       976       979
       975       973       976       977       975       973       976       978
       975       973       976       979       976       979       982       983
       976       979       982       984       976       979       982       985
       977       976       979       980       977       976       979       981
       977       976       979       982       978       976       979       980
       978       976       979       981       978       976       979       982
       980       979       982       983       980       979       982       984
       980       979       982       985       981       979       982       983
       981       979       982       984       981       979       982       985
       986       990       993       994       986       990       993       995
       986       990       993      1000       987       986       990       991
       987       986       990       992       987       986       990       993
       988       986       990       991       988       986       990       992
       988       986       990       993       989       986       990       991
       989       986       990       992       989       986       990       993
       990       993      1000       996       991       990       993       994
       991       990       993       995       991       990       993      1000
       992       990       993       994       992       990       993       995
       992       990       993      1000       993      1000       996       997
       993      1000       996       998       993      1000       996       999
       994       993      1000       996       995       993      1000       996
       996       999      1001      1002       996       999      1001      1003
       996       999      1001      1004       997       996       999      1001
       998       996       999      1001       999      1001      1004      1005
       999      1001      1004      1006       999      1001      1004      1012
      1000       996       999      1001      1001      1004      1006      1007
      1001      1004      1012      1013      1001      1004      1012      1014
      1001      1004      1012      1015      1002      1001      1004      1005
      1002      1001      1004      1006      1002      1001      1004      1012
      1003      1001      1004      1005      1003      1001      1004      1006
      1003      1001      1004      1012      1004      1006      1007      1008
      1004      1006      1007      1009      1004      1012      1015      1016
      1005      1004      1006      1007      1005      1004      1012      1013
      1005      1004      1012      1014      1005      1004      1012      1015
      1006      1004      1012      1013      1006      1004      1012      1014
      1006      1004      1012      1015      1006      1007      1009      1010
      1006      1007      1009      1011      1006      1007      1009      1021
      1007      1006      1004      1012      1007      1009      1021      1022
      1007      1009      1021      1023      1007      1009      1021      1024
      1008      1007      1009      1010      1008      1007      1009      1011
      1008      1007      1009      1021      1009      1021      1024      1025
      1009      1021      1024      1026      1009      1021      1024      1027
      1010      1009      1021      1022      1010      1009      1021      1023
      1010      1009      1021      1024      1011      1009      1021      1022
      1011      1009      1021      1023      1011      1009      1021      1024
      1012      1015      1016      1017      1012      1015      1016      1018
      1013      1012      1015      1016      1014      1012      1015      1016
      1015      1016      1018      1019      1015      1016      1018      1020
      1015      1016      1018      1065      1016      1018      1065      1066
      1016      1018      1065      1067      1016      1018      1065      1068
      1017      1016      1018      1019      1017      1016      1018      1020
      1017      1016      1018      1065      1018      1065      1068      1069
      1018      1065      1068      1070      1018      1065      1068      1071
      1019      1018      1065      1066      1019      1018      1065      1067
      1019      1018      1065      1068      1020      1018      1065      1066
      1020      1018      1065      1067      1020      1018      1065      1068
      1021      1024      1027      1028      1021      1024      1027      1029
      1021      1024      1027      1030      1022      1021      1024      1025
      1022      1021      1024      1026      1022      1021      1024      1027
      1023      1021      1024      1025      1023      1021      1024      1026
      1023      1021      1024      1027      1024      1027      1030      1031
      1024      1027      1030      1032      1024      1027      1030      1033
      1025      1024      1027      1028      1025      1024      1027      1029
      1025      1024      1027      1030      1026      1024      1027      1028
      1026      1024      1027      1029      1026      1024      1027      1030
      1027      1030      1033      1034      1027      1030      1033      1035
      1027      1030      1033      1036      1028      1027      1030      1031
      1028      1027      1030      1032      1028      1027      1030      1033
      1029      1027      1030      1031      1029      1027      1030      1032
      1029      1027      1030      1033      1030      1033      1036      1037
      1030      1033      1036      1038      1030      1033      1036      1039
      1031      1030      1033      1034      1031      1030      1033      1035
      1031      1030      1033      1036      1032      1030      1033      1034
      1032      1030      1033      1035      1032      1030      1033      1036
      1033      1036      1039      1040      1033      1036      1039      1041
      1033      1036      1039      1044      1034      1033      1036      1037
      1034      1033      1036      1038      1034      1033      1036      1039
      1035      1033      1036      1037      1035      1033      1036      1038
      1035      1033      1036      1039      1036      1039      1041      1042
      1036      1039      1041      1043      1036      1039      1041      1044
      1036      1039      1044      1041      1036      1039      1044      1045
      1036      1039      1044      1046      1037      1036      1039      1040
      1037      1036      1039      1041      1037      1036      1039      1044
      1038      1036      1039      1040      1038      1036      1039      1041
      1038      1036      1039      1044      1039      1041      1044      1045
      1039      1041      1044      1046      1039      1044      1041      1042
      1039      1044      1041      1043      1039      1044      1046      1047
      1039      1044      1046      1048      1039      1044      1046      1049
      1040      1039      1041      1042      1040      1039      1041      1043
      1040      1039      1041      1044      1040      1039      1044      1041
      1040      1039      1044      1045      1040      1039      1044      1046
      1041      1039      1044      1045      1041      1039      1044      1046
      1041      1044      1046      1047      1041      1044      1046      1048
      1041      1044      1046      1049      1042      1041      1039      1044
      1042      1041      1044      1045      1042      1041      1044      1046
      1043      1041      1039      1044      1043      1041      1044      1045
      1043      1041      1044      1046      1044      1046      1049      1050
      1044      1046      1049      1051      1044      1046      1049      1052
      1045      1044      1046      1047      1045      1044      1046      1048
      1045      1044      1046      1049      1046      1049      1052      1053
      1046      1049      1052      1054      1046      1049      1052      1055
      1047      1046      1049      1050      1047      1046      1049      1051
      1047      1046      1049      1052      1048      1046      1049      1050
      1048      1046      1049      1051      1048      1046      1049      1052
      1049      1052      1055      1056      1049      1052      1055      1057
      1049      1052      1055      1058      1050      1049      1052      1053
      1050      1049      1052      1054      1050      1049      1052      1055
      1051      1049      1052      1053      1051      1049      1052      1054
      1051      1049      1052      1055      1052      1055      1058      1059
      1052      1055      1058      1060      1052      1055      1058      1061
      1053      1052      1055      1056      1053      1052      1055      1057
      1053      1052      1055      1058      1054      1052      1055      1056
      1054      1052      1055      1057      1054      1052      1055      1058
      1055      1058      1061      1062      1055      1058      1061      1063
      1055      1058      1061      1064      1056      1055      1058      1059
      1056      1055      1058      1060      1056      1055      1058      1061
      1057      1055      1058      1059      1057      1055      1058      1060
      1057      1055      1058      1061      1059      1058      1061      1062
      1059      1058      1061      1063      1059      1058      1061      1064
      1060      1058      1061      1062      1060      1058      1061      1063
      1060      1058      1061      1064      1065      1068      1071      1072
      1065      1068      1071      1073      1065      1068      1071      1074
      1066      1065      1068      1069      1066      1065      1068      1070
      1066      1065      1068      1071      1067      1065      1068      1069
      1067      1065      1068      1070      1067      1065      1068      1071
      1068      1071      1074      1075      1068      1071      1074      1076
      1068      1071      1074      1077      1069      1068      1071      1072
      1069      1068      1071      1073      1069      1068      1071      1074
      1070      1068      1071      1072      1070      1068      1071      1073
      1070      1068      1071      1074      1071      1074      1077      1078
      1071      1074      1077      1079      1071      1074      1077      1080
      1072      1071      1074      1075      1072      1071      1074      1076
      1072      1071      1074      1077      1073      1071      1074      1075
      1073      1071      1074      1076      1073      1071      1074      1077
      1074      1077      1080      1081      1074      1077      1080      1082
      1074      1077      1080      1083      1075      1074      1077      1078
      1075      1074      1077      1079      1075      1074      1077      1080
      1076      1074      1077      1078      1076      1074      1077      1079
      1076      1074      1077      1080      1077      1080      1083      1084
      1077      1080      1083      1085      1077      1080      1083      1086
      1078      1077      1080      1081      1078      1077      1080      1082
      1078      1077      1080      1083      1079      1077      1080      1081
      1079      1077      1080      1082      1079      1077      1080      1083
      1080      1083      1086      1087      1080      1083      1086      1088
      1080      1083      1086      1089      1081      1080      1083      1084
      1081      1080      1083      1085      1081      1080      1083      1086
      1082      1080      1083      1084      1082      1080      1083      1085
      1082      1080      1083      1086      1083      1086      1089      1090
      1083      1086      1089      1091      1083      1086      1089      1092
      1084      1083      1086      1087      1084      1083      1086      1088
      1084      1083      1086      1089      1085      1083      1086      1087
      1085      1083      1086      1088      1085      1083      1086      1089
      1086      1089      1092      1093      1086      1089      1092      1094
      1086      1089      1092      1095      1087      1086      1089      1090
      1087      1086      1089      1091      1087      1086      1089      1092
      1088      1086      1089      1090      1088      1086      1089      1091
      1088      1086      1089      1092      1089      1092      1095      1096
      1089      1092      1095      1097      1089      1092      1095      1098
      1090      1089      1092      1093      1090      1089      1092      1094
      1090      1089      1092      1095      1091      1089      1092      1093
      1091      1089      1092      1094      1091      1089      1092      1095
      1092      1095      1098      1099      1092      1095      1098      1100
      1092      1095      1098      1101      1093      1092      1095      1096
      1093      1092      1095      1097      1093      1092      1095      1098
      1094      1092      1095      1096      1094      1092      1095      1097
      1094      1092      1095      1098      1095      1098      1101      1102
      1095      1098      1101      1103      1095      1098      1101      1104
      1096      1095      1098      1099      1096      1095      1098      1100
      1096      1095      1098      1101      1097      1095      1098      1099
      1097      1095      1098      1100      1097      1095      1098      1101
      1098      1101      1104      1105      1098      1101      1104      1106
      1098      1101      1104      1107      1099      1098      1101      1102
      1099      1098      1101      1103      1099      1098      1101      1104
      1100      1098      1101      1102      1100      1098      1101      1103
      1100      1098      1101      1104      1102      1101      1104      1105
      1102      1101      1104      1106      1102      1101      1104      1107
      1103      1101      1104      1105      1103      1101      1104      1106
      1103      1101      1104      1107      1108      1113      1115      1116
      1108      1113      1117      1118      1108      1113      1117      1119
      1108      1113      1117      1124      1109      1108      1111      1112
      1109      1108      1113      1114      1109      1108      1113      1115
      1109      1108      1113      1117      1110      1108      1111      1112
      1110      1108      1113      1114      1110      1108      1113      1115
      1110      1108      1113      1117      1111      1108      1113      1114
      1111      1108      1113      1115      1111      1108      1113      1117
      1112      1111      1108      1113      1113      1117      1124      1120
      1114      1113      1115      1116      1114      1113      1117      1118
      1114      1113      1117      1119      1114      1113      1117      1124
      1115      1113      1117      1118      1115      1113      1117      1119
      1115      1113      1117      1124      1116      1115      1113      1117
      1117      1124      1120      1121      1117      1124      1120      1122
      1117      1124      1120      1123      1118      1117      1124      1120
      1119      1117      1124      1120      1120      1123      1125      1126
      1120      1123      1125      1127      1120      1123      1125      1128
      1121      1120      1123      1125      1122      1120      1123      1125
      1123      1125      1128      1129      1123      1125      1128      1130
      1123      1125      1128      1136      1124      1120      1123      1125
      1125      1128      1130      1131      1125      1128      1136      1137
      1125      1128      1136      1138      1125      1128      1136      1139
      1126      1125      1128      1129      1126      1125      1128      1130
      1126      1125      1128      1136      1127      1125      1128      1129
      1127      1125      1128      1130      1127      1125      1128      1136
      1128      1130      1131      1132      1128      1130      1131      1133
      1128      1136      1139      1140      1129      1128      1130      1131
      1129      1128      1136      1137      1129      1128      1136      1138
      1129      1128      1136      1139      1130      1128      1136      1137
      1130      1128      1136      1138      1130      1128      1136      1139
      1130      1131      1133      1134      1130      1131      1133      1135
      1130      1131      1133      1145      1131      1130      1128      1136
      1131      1133      1145      1146      1131      1133      1145      1147
      1131      1133      1145      1148      1132      1131      1133      1134
      1132      1131      1133      1135      1132      1131      1133      1145
      1133      1145      1148      1149      1133      1145      1148      1150
      1133      1145      1148      1151      1134      1133      1145      1146
      1134      1133      1145      1147      1134      1133      1145      1148
      1135      1133      1145      1146      1135      1133      1145      1147
      1135      1133      1145      1148      1136      1139      1140      1141
      1136      1139      1140      1142      1137      1136      1139      1140
      1138      1136      1139      1140      1139      1140      1142      1143
      1139      1140      1142      1144      1139      1140      1142      1189
      1140      1142      1189      1190      1140      1142      1189      1191
      1140      1142      1189      1192      1141      1140      1142      1143
      1141      1140      1142      1144      1141      1140      1142      1189
      1142      1189      1192      1193      1142      1189      1192      1194
      1142      1189      1192      1195      1143      1142      1189      1190
      1143      1142      1189      1191      1143      1142      1189      1192
      1144      1142      1189      1190      1144      1142      1189      1191
      1144      1142      1189      1192      1145      1148      1151      1152
      1145      1148      1151      1153      1145      1148      1151      1154
      1146      1145      1148      1149      1146      1145      1148      1150
      1146      1145      1148      1151      1147      1145      1148      1149
      1147      1145      1148      1150      1147      1145      1148      1151
      1148      1151      1154      1155      1148      1151      1154      1156
      1148      1151      1154      1157      1149      1148      1151      1152
      1149      1148      1151      1153      1149      1148      1151      1154
      1150      1148      1151      1152      1150      1148      1151      1153
      1150      1148      1151      1154      1151      1154      1157      1158
      1151      1154      1157      1159      1151      1154      1157      1160
      1152      1151      1154      1155      1152      1151      1154      1156
      1152      1151      1154      1157      1153      1151      1154      1155
      1153      1151      1154      1156      1153      1151      1154      1157
      1154      1157      1160      1161      1154      1157      1160      1162
      1154      1157      1160      1163      1155      1154      1157      1158
      1155      1154      1157      1159      1155      1154      1157      1160
      1156      1154      1157      1158      1156      1154      1157      1159
      1156      1154      1157      1160      1157      1160      1163      1164
      1157      1160      1163      1165      1157      1160      1163      1168
      1158      1157      1160      1161      1158      1157      1160      1162
      1158      1157      1160      1163      1159      1157      1160      1161
      1159      1157      1160      1162      1159      1157      1160      1163
      1160      1163      1165      1166      1160      1163      1165      1167
      1160      1163      1165      1168      1160      1163      1168      1165
      1160      1163      1168      1169      1160      1163      1168      1170
      1161      1160      1163      1164      1161      1160      1163      1165
      1161      1160      1163      1168      1162      1160      1163      1164
      1162      1160      1163      1165      1162      1160      1163      1168
      1163      1165      1168      1169      1163      1165      1168      1170
      1163      1168      1165      1166      1163      1168      1165      1167
      1163      1168      1170      1171      1163      1168      1170      1172
      1163      1168      1170      1173      1164      1163      1165      1166
      1164      1163      1165      1167      1164      1163      1165      1168
      1164      1163      1168      1165      1164      1163      1168      1169
      1164      1163      1168      1170      1165      1163      1168      1169
      1165      1163      1168      1170      1165      1168      1170      1171
      1165      1168      1170      1172      1165      1168      1170      1173
      1166      1165      1163      1168      1166      1165      1168      1169
      1166      1165      1168      1170      1167      1165      1163      1168
      1167      1165      1168      1169      1167      1165      1168      1170
      1168      1170      1173      1174      1168      1170      1173      1175
      1168      1170      1173      1176      1169      1168      1170      1171
      1169      1168      1170      1172      1169      1168      1170      1173
      1170      1173      1176      1177      1170      1173      1176      1178
      1170      1173      1176      1179      1171      1170      1173      1174
      1171      1170      1173      1175      1171      1170      1173      1176
      1172      1170      1173      1174      1172      1170      1173      1175
      1172      1170      1173      1176      1173      1176      1179      1180
      1173      1176      1179      1181      1173      1176      1179      1182
      1174      1173      1176      1177      1174      1173      1176      1178
      1174      1173      1176      1179      1175      1173      1176      1177
      1175      1173      1176      1178      1175      1173      1176      1179
      1176      1179      1182      1183      1176      1179      1182      1184
      1176      1179      1182      1185      1177      1176      1179      1180
      1177      1176      1179      1181      1177      1176      1179      1182
      1178      1176      1179      1180      1178      1176      1179      1181
      1178      1176      1179      1182      1179      1182      1185      1186
      1179      1182      1185      1187      1179      1182      1185      1188
      1180      1179      1182      1183      1180      1179      1182      1184
      1180      1179      1182      1185      1181      1179      1182      1183
      1181      1179      1182      1184      1181      1179      1182      1185
      1183      1182      1185      1186      1183      1182      1185      1187
      1183      1182      1185      1188      1184      1182      1185      1186
      1184      1182      1185      1187      1184      1182      1185      1188
      1189      1192      1195      1196      1189      1192      1195      1197
      1189      1192      1195      1198      1190      1189      1192      1193
      1190      1189      1192      1194      1190      1189      1192      1195
      1191      1189      1192      1193      1191      1189      1192      1194
      1191      1189      1192      1195      1192      1195      1198      1199
      1192      1195      1198      1200      1192      1195      1198      1201
      1193      1192      1195      1196      1193      1192      1195      1197
      1193      1192      1195      1198      1194      1192      1195      1196
      1194      1192      1195      1197      1194      1192      1195      1198
      1195      1198      1201      1202      1195      1198      1201      1203
      1195      1198      1201      1204      1196      1195      1198      1199
      1196      1195      1198      1200      1196      1195      1198      1201
      1197      1195      1198      1199      1197      1195      1198      1200
      1197      1195      1198      1201      1198      1201      1204      1205
      1198      1201      1204      1206      1198      1201      1204      1207
      1199      1198      1201      1202      1199      1198      1201      1203
      1199      1198      1201      1204      1200      1198      1201      1202
      1200      1198      1201      1203      1200      1198      1201      1204
      1201      1204      1207      1208      1201      1204      1207      1209
      1201      1204      1207      1210      1202      1201      1204      1205
      1202      1201      1204      1206      1202      1201      1204      1207
      1203      1201      1204      1205      1203      1201      1204      1206
      1203      1201      1204      1207      1204      1207      1210      1211
      1204      1207      1210      1212      1204      1207      1210      1213
      1205      1204      1207      1208      1205      1204      1207      1209
      1205      1204      1207      1210      1206      1204      1207      1208
      1206      1204      1207      1209      1206      1204      1207      1210
      1207      1210      1213      1214      1207      1210      1213      1215
      1207      1210      1213      1216      1208      1207      1210      1211
      1208      1207      1210      1212      1208      1207      1210      1213
      1209      1207      1210      1211      1209      1207      1210      1212
      1209      1207      1210      1213      1210      1213      1216      1217
      1210      1213      1216      1218      1210      1213      1216      1219
      1211      1210      1213      1214      1211      1210      1213      1215
      1211      1210      1213      1216      1212      1210      1213      1214
      1212      1210      1213      1215      1212      1210      1213      1216
      1213      1216      1219      1220      1213      1216      1219      1221
      1213      1216      1219      1222      1214      1213      1216      1217
      1214      1213      1216      1218      1214      1213      1216      1219
      1215      1213      1216      1217      1215      1213      1216      1218
      1215      1213      1216      1219      1216      1219      1222      1223
      1216      1219      1222      1224      1216      1219      1222      1225
      1217      1216      1219      1220      1217      1216      1219      1221
      1217      1216      1219      1222      1218      1216      1219      1220
      1218      1216      1219      1221      1218      1216      1219      1222
      1219      1222      1225      1226      1219      1222      1225      1227
      1219      1222      1225      1228      1220      1219      1222      1223
      1220      1219      1222      1224      1220      1219      1222      1225
      1221      1219      1222      1223      1221      1219      1222      1224
      1221      1219      1222      1225      1222      1225      1228      1229
      1222      1225      1228      1230      1222      1225      1228      1231
      1223      1222      1225      1226      1223      1222      1225      1227
      1223      1222      1225      1228      1224      1222      1225      1226
      1224      1222      1225      1227      1224      1222      1225      1228
      1226      1225      1228      1229      1226      1225      1228      1230
      1226      1225      1228      1231      1227      1225      1228      1229
      1227      1225      1228      1230      1227      1225      1228      1231
      1232      1236      1239      1240      1232      1236      1239      1241
      1232      1236      1239      1246      1233      1232      1236      1237
      1233      1232      1236      1238      1233      1232      1236      1239
      1234      1232      1236      1237      1234      1232      1236      1238
      1234      1232      1236      1239      1235      1232      1236      1237
      1235      1232      1236      1238      1235      1232      1236      1239
      1236      1239      1246      1242      1237      1236      1239      1240
      1237      1236      1239      1241      1237      1236      1239      1246
      1238      1236      1239      1240      1238      1236      1239      1241
      1238      1236      1239      1246      1239      1246      1242      1243
      1239      1246      1242      1244      1239      1246      1242      1245
      1240      1239      1246      1242      1241      1239      1246      1242
      1242      1245      1247      1248      1242      1245      1247      1249
      1242      1245      1247      1250      1243      1242      1245      1247
      1244      1242      1245      1247      1245      1247      1250      1251
      1245      1247      1250      1252      1245      1247      1250      1258
      1246      1242      1245      1247      1247      1250      1252      1253
      1247      1250      1258      1259      1247      1250      1258      1260
      1247      1250      1258      1261      1248      1247      1250      1251
      1248      1247      1250      1252      1248      1247      1250      1258
      1249      1247      1250      1251      1249      1247      1250      1252
      1249      1247      1250      1258      1250      1252      1253      1254
      1250      1252      1253      1255      1250      1258      1261      1262
      1251      1250      1252      1253      1251      1250      1258      1259
      1251      1250      1258      1260      1251      1250      1258      1261
      1252      1250      1258      1259      1252      1250      1258      1260
      1252      1250      1258      1261      1252      1253      1255      1256
      1252      1253      1255      1257      1252      1253      1255      1267
      1253      1252      1250      1258      1253      1255      1267      1268
      1253      1255      1267      1269      1253      1255      1267      1270
      1254      1253      1255      1256      1254      1253      1255      1257
      1254      1253      1255      1267      1255      1267      1270      1271
      1255      1267      1270      1272      1255      1267      1270      1273
      1256      1255      1267      1268      1256      1255      1267      1269
      1256      1255      1267      1270      1257      1255      1267      1268
      1257      1255      1267      1269      1257      1255      1267      1270
      1258      1261      1262      1263      1258      1261      1262      1264
      1259      1258      1261      1262      1260      1258      1261      1262
      1261      1262      1264      1265      1261      1262      1264      1266
      1261      1262      1264      1314      1262      1264      1314      1315
      1262      1264      1314      1316      1262      1264      1314      1317
      1263      1262      1264      1265      1263      1262      1264      1266
      1263      1262      1264      1314      1264      1314      1317      1318
      1264      1314      1317      1319      1264      1314      1317      1320
      1265      1264      1314      1315      1265      1264      1314      1316
      1265      1264      1314      1317      1266      1264      1314      1315
      1266      1264      1314      1316      1266      1264      1314      1317
      1267      1270      1273      1274      1267      1270      1273      1275
      1267      1270      1273      1276      1268      1267      1270      1271
      1268      1267      1270      1272      1268      1267      1270      1273
      1269      1267      1270      1271      1269      1267      1270      1272
      1269      1267      1270      1273      1270      1273      1276      1277
      1270      1273      1276      1278      1270      1273      1276      1279
      1271      1270      1273      1274      1271      1270      1273      1275
      1271      1270      1273      1276      1272      1270      1273      1274
      1272      1270      1273      1275      1272      1270      1273      1276
      1273      1276      1279      1280      1273      1276      1279      1281
      1273      1276      1279      1282      1274      1273      1276      1277
      1274      1273      1276      1278      1274      1273      1276      1279
      1275      1273      1276      1277      1275      1273      1276      1278
      1275      1273      1276      1279      1276      1279      1282      1283
      1276      1279      1282      1284      1276      1279      1282      1285
      1277      1276      1279      1280      1277      1276      1279      1281
      1277      1276      1279      1282      1278      1276      1279      1280
      1278      1276      1279      1281      1278      1276      1279      1282
      1279      1282      1285      1286      1279      1282      1285      1287
      1280      1279      1282      1283      1280      1279      1282      1284
      1280      1279      1282      1285      1281      1279      1282      1283
      1281      1279      1282      1284      1281      1279      1282      1285
      1282      1285      1287      1288      1282      1285      1287      1289
      1283      1282      1285      1286      1283      1282      1285      1287
      1284      1282      1285      1286      1284      1282      1285      1287
      1285      1287      1289      1290      1285      1287      1289      1291
      1285      1287      1289      1292      1286      1285      1287      1288
      1286      1285      1287      1289      1287      1289      1292      1293
      1287      1289      1292      1294      1287      1289      1292      1295
      1288      1287      1289      1290      1288      1287      1289      1291
      1288      1287      1289      1292      1289      1292      1295      1296
      1289      1292      1295      1297      1289      1292      1295      1298
      1290      1289      1292      1293      1290      1289      1292      1294
      1290      1289      1292      1295      1291      1289      1292      1293
      1291      1289      1292      1294      1291      1289      1292      1295
      1292      1295      1298      1299      1292      1295      1298      1300
      1292      1295      1298      1301      1293      1292      1295      1296
      1293      1292      1295      1297      1293      1292      1295      1298
      1294      1292      1295      1296      1294      1292      1295      1297
      1294      1292      1295      1298      1295      1298      1301      1302
      1295      1298      1301      1303      1295      1298      1301      1304
      1296      1295      1298      1299      1296      1295      1298      1300
      1296      1295      1298      1301      1297      1295      1298      1299
      1297      1295      1298      1300      1297      1295      1298      1301
      1298      1301      1304      1305      1298      1301      1304      1306
      1298      1301      1304      1307      1299      1298      1301      1302
      1299      1298      1301      1303      1299      1298      1301      1304
      1300      1298      1301      1302      1300      1298      1301      1303
      1300      1298      1301      1304      1301      1304      1307      1308
      1301      1304      1307      1309      1301      1304      1307      1310
      1302      1301      1304      1305      1302      1301      1304      1306
      1302      1301      1304      1307      1303      1301      1304      1305
      1303      1301      1304      1306      1303      1301      1304      1307
      1304      1307      1310      1311      1304      1307      1310      1312
      1304      1307      1310      1313      1305      1304      1307      1308
      1305      1304      1307      1309      1305      1304      1307      1310
      1306      1304      1307      1308      1306      1304      1307      1309
      1306      1304      1307      1310      1308      1307      1310      1311
      1308      1307      1310      1312      1308      1307      1310      1313
      1309      1307      1310      1311      1309      1307      1310      1312
      1309      1307      1310      1313      1314      1317      1320      1321
      1314      1317      1320      1322      1314      1317      1320      1323
      1315      1314      1317      1318      1315      1314      1317      1319
      1315      1314      1317      1320      1316      1314      1317      1318
      1316      1314      1317      1319      1316      1314      1317      1320
      1317      1320      1323      1324      1317      1320      1323      1325
      1317      1320      1323      1326      1318      1317      1320      1321
      1318      1317      1320      1322      1318      1317      1320      1323
      1319      1317      1320      1321      1319      1317      1320      1322
      1319      1317      1320      1323      1320      1323      1326      1327
      1320      1323      1326      1328      1320      1323      1326      1329
      1321      1320      1323      1324      1321      1320      1323      1325
      1321      1320      1323      1326      1322      1320      1323      1324
      1322      1320      1323      1325      1322      1320      1323      1326
      1323      1326      1329      1330      1323      1326      1329      1331
      1323      1326      1329      1332      1324      1323      1326      1327
      1324      1323      1326      1328      1324      1323      1326      1329
      1325      1323      1326      1327      1325      1323      1326      1328
      1325      1323      1326      1329      1326      1329      1332      1333
      1326      1329      1332      1334      1326      1329      1332      1335
      1327      1326      1329      1330      1327      1326      1329      1331
      1327      1326      1329      1332      1328      1326      1329      1330
      1328      1326      1329      1331      1328      1326      1329      1332
      1329      1332      1335      1336      1329      1332      1335      1337
      1329      1332      1335      1338      1330      1329      1332      1333
      1330      1329      1332      1334      1330      1329      1332      1335
      1331      1329      1332      1333      1331      1329      1332      1334
      1331      1329      1332      1335      1332      1335      1338      1339
      1332      1335      1338      1340      1332      1335      1338      1341
      1333      1332      1335      1336      1333      1332      1335      1337
      1333      1332      1335      1338      1334      1332      1335      1336
      1334      1332      1335      1337      1334      1332      1335      1338
      1335      1338      1341      1342      1335      1338      1341      1343
      1335      1338      1341      1344      1336      1335      1338      1339
      1336      1335      1338      1340      1336      1335      1338      1341
      1337      1335      1338      1339      1337      1335      1338      1340
      1337      1335      1338      1341      1338      1341      1344      1345
      1338      1341      1344      1346      1338      1341      1344      1347
      1339      1338      1341      1342      1339      1338      1341      1343
      1339      1338      1341      1344      1340      1338      1341      1342
      1340      1338      1341      1343      1340      1338      1341      1344
      1341      1344      1347      1348      1341      1344      1347      1349
      1341      1344      1347      1350      1342      1341      1344      1345
      1342      1341      1344      1346      1342      1341      1344      1347
      1343      1341      1344      1345      1343      1341      1344      1346
      1343      1341      1344      1347      1344      1347      1350      1351
      1344      1347      1350      1352      1344      1347      1350      1353
      1345      1344      1347      1348      1345      1344      1347      1349
      1345      1344      1347      1350      1346      1344      1347      1348
      1346      1344      1347      1349      1346      1344      1347      1350
      1347      1350      1353      1354      1347      1350      1353      1355
      1347      1350      1353      1356      1348      1347      1350      1351
      1348      1347      1350      1352      1348      1347      1350      1353
      1349      1347      1350      1351      1349      1347      1350      1352
      1349      1347      1350      1353      1351      1350      1353      1354
      1351      1350      1353      1355      1351      1350      1353      1356
      1352      1350      1353      1354      1352      1350      1353      1355
      1352      1350      1353      1356      1357      1362      1364      1365
      1357      1362      1366      1367      1357      1362      1366      1368
      1357      1362      1366      1373      1358      1357      1360      1361
      1358      1357      1362      1363      1358      1357      1362      1364
      1358      1357      1362      1366      1359      1357      1360      1361
      1359      1357      1362      1363      1359      1357      1362      1364
      1359      1357      1362      1366      1360      1357      1362      1363
      1360      1357      1362      1364      1360      1357      1362      1366
      1361      1360      1357      1362      1362      1366      1373      1369
      1363      1362      1364      1365      1363      1362      1366      1367
      1363      1362      1366      1368      1363      1362      1366      1373
      1364      1362      1366      1367      1364      1362      1366      1368
      1364      1362      1366      1373      1365      1364      1362      1366
      1366      1373      1369      1370      1366      1373      1369      1371
      1366      1373      1369      1372      1367      1366      1373      1369
      1368      1366      1373      1369      1369      1372      1374      1375
      1369      1372      1374      1376      1369      1372      1374      1377
      1370      1369      1372      1374      1371      1369      1372      1374
      1372      1374      1377      1378      1372      1374      1377      1379
      1372      1374      1377      1385      1373      1369      1372      1374
      1374      1377      1379      1380      1374      1377      1385      1386
      1374      1377      1385      1387      1374      1377      1385      1388
      1375      1374      1377      1378      1375      1374      1377      1379
      1375      1374      1377      1385      1376      1374      1377      1378
      1376      1374      1377      1379      1376      1374      1377      1385
      1377      1379      1380      1381      1377      1379      1380      1382
      1377      1385      1388      1389      1378      1377      1379      1380
      1378      1377      1385      1386      1378      1377      1385      1387
      1378      1377      1385      1388      1379      1377      1385      1386
      1379      1377      1385      1387      1379      1377      1385      1388
      1379      1380      1382      1383      1379      1380      1382      1384
      1379      1380      1382      1394      1380      1379      1377      1385
      1380      1382      1394      1395      1380      1382      1394      1396
      1380      1382      1394      1397      1381      1380      1382      1383
      1381      1380      1382      1384      1381      1380      1382      1394
      1382      1394      1397      1398      1382      1394      1397      1399
      1382      1394      1397      1400      1383      1382      1394      1395
      1383      1382      1394      1396      1383      1382      1394      1397
      1384      1382      1394      1395      1384      1382      1394      1396
      1384      1382      1394      1397      1385      1388      1389      1390
      1385      1388      1389      1391      1386      1385      1388      1389
      1387      1385      1388      1389      1388      1389      1391      1392
      1388      1389      1391      1393      1388      1389      1391      1435
      1389      1391      1435      1436      1389      1391      1435      1437
      1389      1391      1435      1438      1390      1389      1391      1392
      1390      1389      1391      1393      1390      1389      1391      1435
      1391      1435      1438      1439      1391      1435      1438      1440
      1391      1435      1438      1441      1392      1391      1435      1436
      1392      1391      1435      1437      1392      1391      1435      1438
      1393      1391      1435      1436      1393      1391      1435      1437
      1393      1391      1435      1438      1394      1397      1400      1401
      1394      1397      1400      1402      1394      1397      1400      1403
      1395      1394      1397      1398      1395      1394      1397      1399
      1395      1394      1397      1400      1396      1394      1397      1398
      1396      1394      1397      1399      1396      1394      1397      1400
      1397      1400      1403      1404      1397      1400      1403      1405
      1397      1400      1403      1406      1398      1397      1400      1401
      1398      1397      1400      1402      1398      1397      1400      1403
      1399      1397      1400      1401      1399      1397      1400      1402
      1399      1397      1400      1403      1400      1403      1406      1407
      1400      1403      1406      1408      1400      1403      1406      1409
      1401      1400      1403      1404      1401      1400      1403      1405
      1401      1400      1403      1406      1402      1400      1403      1404
      1402      1400      1403      1405      1402      1400      1403      1406
      1403      1406      1409      1410      1403      1406      1409      1411
      1403      1406      1409      1412      1404      1403      1406      1407
      1404      1403      1406      1408      1404      1403      1406      1409
      1405      1403      1406      1407      1405      1403      1406      1408
      1405      1403      1406      1409      1406      1409      1412      1413
      1406      1409      1412      1414      1407      1406      1409      1410
      1407      1406      1409      1411      1407      1406      1409      1412
      1408      1406      1409      1410      1408      1406      1409      1411
      1408      1406      1409      1412      1409      1412      1414      1415
      1409      1412      1414      1416      1410      1409      1412      1413
      1410      1409      1412      1414      1411      1409      1412      1413
      1411      1409      1412      1414      1412      1414      1416      1417
      1412      1414      1416      1418      1412      1414      1416      1419
      1413      1412      1414      1415      1413      1412      1414      1416
      1414      1416      1419      1420      1414      1416      1419      1421
      1414      1416      1419      1422      1415      1414      1416      1417
      1415      1414      1416      1418      1415      1414      1416      1419
      1416      1419      1422      1423      1416      1419      1422      1424
      1416      1419      1422      1425      1417      1416      1419      1420
      1417      1416      1419      1421      1417      1416      1419      1422
      1418      1416      1419      1420      1418      1416      1419      1421
      1418      1416      1419      1422      1419      1422      1425      1426
      1419      1422      1425      1427      1419      1422      1425      1428
      1420      1419      1422      1423      1420      1419      1422      1424
      1420      1419      1422      1425      1421      1419      1422      1423
      1421      1419      1422      1424      1421      1419      1422      1425
      1422      1425      1428      1429      1422      1425      1428      1430
      1422      1425      1428      1431      1423      1422      1425      1426
      1423      1422      1425      1427      1423      1422      1425      1428
      1424      1422      1425      1426      1424      1422      1425      1427
      1424      1422      1425      1428      1425      1428      1431      1432
      1425      1428      1431      1433      1425      1428      1431      1434
      1426      1425      1428      1429      1426      1425      1428      1430
      1426      1425      1428      1431      1427      1425      1428      1429
      1427      1425      1428      1430      1427      1425      1428      1431
      1429      1428      1431      1432      1429      1428      1431      1433
      1429      1428      1431      1434      1430      1428      1431      1432
      1430      1428      1431      1433      1430      1428      1431      1434
      1435      1438      1441      1442      1435      1438      1441      1443
      1435      1438      1441      1444      1436      1435      1438      1439
      1436      1435      1438      1440      1436      1435      1438      1441
      1437      1435      1438      1439      1437      1435      1438      1440
      1437      1435      1438      1441      1438      1441      1444      1445
      1438      1441      1444      1446      1438      1441      1444      1447
      1439      1438      1441      1442      1439      1438      1441      1443
      1439      1438      1441      1444      1440      1438      1441      1442
      1440      1438      1441      1443      1440      1438      1441      1444
      1441      1444      1447      1448      1441      1444      1447      1449
      1441      1444      1447      1450      1442      1441      1444      1445
      1442      1441      1444      1446      1442      1441      1444      1447
      1443      1441      1444      1445      1443      1441      1444      1446
      1443      1441      1444      1447      1444      1447      1450      1451
      1444      1447      1450      1452      1444      1447      1450      1453
      1445      1444      1447      1448      1445      1444      1447      1449
      1445      1444      1447      1450      1446      1444      1447      1448
      1446      1444      1447      1449      1446      1444      1447      1450
      1447      1450      1453      1454      1447      1450      1453      1455
      1447      1450      1453      1456      1448      1447      1450      1451
      1448      1447      1450      1452      1448      1447      1450      1453
      1449      1447      1450      1451      1449      1447      1450      1452
      1449      1447      1450      1453      1450      1453      1456      1457
      1450      1453      1456      1458      1450      1453      1456      1459
      1451      1450      1453      1454      1451      1450      1453      1455
      1451      1450      1453      1456      1452      1450      1453      1454
      1452      1450      1453      1455      1452      1450      1453      1456
      1453      1456      1459      1460      1453      1456      1459      1461
      1453      1456      1459      1462      1454      1453      1456      1457
      1454      1453      1456      1458      1454      1453      1456      1459
      1455      1453      1456      1457      1455      1453      1456      1458
      1455      1453      1456      1459      1456      1459      1462      1463
      1456      1459      1462      1464      1456      1459      1462      1465
      1457      1456      1459      1460      1457      1456      1459      1461
      1457      1456      1459      1462      1458      1456      1459      1460
      1458      1456      1459      1461      1458      1456      1459      1462
      1459      1462      1465      1466      1459      1462      1465      1467
      1459      1462      1465      1468      1460      1459      1462      1463
      1460      1459      1462      1464      1460      1459      1462      1465
      1461      1459      1462      1463      1461      1459      1462      1464
      1461      1459      1462      1465      1462      1465      1468      1469
      1462      1465      1468      1470      1462      1465      1468      1471
      1463      1462      1465      1466      1463      1462      1465      1467
      1463      1462      1465      1468      1464      1462      1465      1466
      1464      1462      1465      1467      1464      1462      1465      1468
      1465      1468      1471      1472      1465      1468      1471      1473
      1465      1468      1471      1474      1466      1465      1468      1469
      1466      1465      1468      1470      1466      1465      1468      1471
      1467      1465      1468      1469      1467      1465      1468      1470
      1467      1465      1468      1471      1468      1471      1474      1475
      1468      1471      1474      1476      1468      1471      1474      1477
      1469      1468      1471      1472      1469      1468      1471      1473
      1469      1468      1471      1474      1470      1468      1471      1472
      1470      1468      1471      1473      1470      1468      1471      1474
      1472      1471      1474      1475      1472      1471      1474      1476
      1472      1471      1474      1477      1473      1471      1474      1475
      1473      1471      1474      1476      1473      1471      1474      1477
      1478      1483      1485      1486      1478      1483      1487      1488
      1478      1483      1487      1489      1478      1483      1487      1494
      1479      1478      1481      1482      1479      1478      1483      1484
      1479      1478      1483      1485      1479      1478      1483      1487
      1480      1478      1481      1482      1480      1478      1483      1484
      1480      1478      1483      1485      1480      1478      1483      1487
      1481      1478      1483      1484      1481      1478      1483      1485
      1481      1478      1483      1487      1482      1481      1478      1483
      1483      1487      1494      1490      1484      1483      1485      1486
      1484      1483      1487      1488      1484      1483      1487      1489
      1484      1483      1487      1494      1485      1483      1487      1488
      1485      1483      1487      1489      1485      1483      1487      1494
      1486      1485      1483      1487      1487      1494      1490      1491
      1487      1494      1490      1492      1487      1494      1490      1493
      1488      1487      1494      1490      1489      1487      1494      1490
      1490      1493      1495      1496      1490      1493      1495      1497
      1490      1493      1495      1498      1491      1490      1493      1495
      1492      1490      1493      1495      1493      1495      1498      1499
      1493      1495      1498      1500      1493      1495      1498      1506
      1494      1490      1493      1495      1495      1498      1500      1501
      1495      1498      1506      1507      1495      1498      1506      1508
      1495      1498      1506      1509      1496      1495      1498      1499
      1496      1495      1498      1500      1496      1495      1498      1506
      1497      1495      1498      1499      1497      1495      1498      1500
      1497      1495      1498      1506      1498      1500      1501      1502
      1498      1500      1501      1503      1498      1506      1509      1510
      1499      1498      1500      1501      1499      1498      1506      1507
      1499      1498      1506      1508      1499      1498      1506      1509
      1500      1498      1506      1507      1500      1498      1506      1508
      1500      1498      1506      1509      1500      1501      1503      1504
      1500      1501      1503      1505      1500      1501      1503      1515
      1501      1500      1498      1506      1501      1503      1515      1516
      1501      1503      1515      1517      1501      1503      1515      1518
      1502      1501      1503      1504      1502      1501      1503      1505
      1502      1501      1503      1515      1503      1515      1518      1519
      1503      1515      1518      1520      1503      1515      1518      1521
      1504      1503      1515      1516      1504      1503      1515      1517
      1504      1503      1515      1518      1505      1503      1515      1516
      1505      1503      1515      1517      1505      1503      1515      1518
      1506      1509      1510      1511      1506      1509      1510      1512
      1507      1506      1509      1510      1508      1506      1509      1510
      1509      1510      1512      1513      1509      1510      1512      1514
      1509      1510      1512      1559      1510      1512      1559      1560
      1510      1512      1559      1561      1510      1512      1559      1562
      1511      1510      1512      1513      1511      1510      1512      1514
      1511      1510      1512      1559      1512      1559      1562      1563
      1512      1559      1562      1564      1512      1559      1562      1565
      1513      1512      1559      1560      1513      1512      1559      1561
      1513      1512      1559      1562      1514      1512      1559      1560
      1514      1512      1559      1561      1514      1512      1559      1562
      1515      1518      1521      1522      1515      1518      1521      1523
      1515      1518      1521      1524      1516      1515      1518      1519
      1516      1515      1518      1520      1516      1515      1518      1521
      1517      1515      1518      1519      1517      1515      1518      1520
      1517      1515      1518      1521      1518      1521      1524      1525
      1518      1521      1524      1526      1518      1521      1524      1527
      1519      1518      1521      1522      1519      1518      1521      1523
      1519      1518      1521      1524      1520      1518      1521      1522
      1520      1518      1521      1523      1520      1518      1521      1524
      1521      1524      1527      1528      1521      1524      1527      1529
      1521      1524      1527      1530      1522      1521      1524      1525
      1522      1521      1524      1526      1522      1521      1524      1527
      1523      1521      1524      1525      1523      1521      1524      1526
      1523      1521      1524      1527      1524      1527      1530      1531
      1524      1527      1530      1532      1524      1527      1530      1533
      1525      1524      1527      1528      1525      1524      1527      1529
      1525      1524      1527      1530      1526      1524      1527      1528
      1526      1524      1527      1529      1526      1524      1527      1530
      1527      1530      1533      1534      1527      1530      1533      1535
      1527      1530      1533      1538      1528      1527      1530      1531
      1528      1527      1530      1532      1528      1527      1530      1533
      1529      1527      1530      1531      1529      1527      1530      1532
      1529      1527      1530      1533      1530      1533      1535      1536
      1530      1533      1535      1537      1530      1533      1535      1538
      1530      1533      1538      1535      1530      1533      1538      1539
      1530      1533      1538      1540      1531      1530      1533      1534
      1531      1530      1533      1535      1531      1530      1533      1538
      1532      1530      1533      1534      1532      1530      1533      1535
      1532      1530      1533      1538      1533      1535      1538      1539
      1533      1535      1538      1540      1533      1538      1535      1536
      1533      1538      1535      1537      1533      1538      1540      1541
      1533      1538      1540      1542      1533      1538      1540      1543
      1534      1533      1535      1536      1534      1533      1535      1537
      1534      1533      1535      1538      1534      1533      1538      1535
      1534      1533      1538      1539      1534      1533      1538      1540
      1535      1533      1538      1539      1535      1533      1538      1540
      1535      1538      1540      1541      1535      1538      1540      1542
      1535      1538      1540      1543      1536      1535      1533      1538
      1536      1535      1538      1539      1536      1535      1538      1540
      1537      1535      1533      1538      1537      1535      1538      1539
      1537      1535      1538      1540      1538      1540      1543      1544
      1538      1540      1543      1545      1538      1540      1543      1546
      1539      1538      1540      1541      1539      1538      1540      1542
      1539      1538      1540      1543      1540      1543      1546      1547
      1540      1543      1546      1548      1540      1543      1546      1549
      1541      1540      1543      1544      1541      1540      1543      1545
      1541      1540      1543      1546      1542      1540      1543      1544
      1542      1540      1543      1545      1542      1540      1543      1546
      1543      1546      1549      1550      1543      1546      1549      1551
      1543      1546      1549      1552      1544      1543      1546      1547
      1544      1543      1546      1548      1544      1543      1546      1549
      1545      1543      1546      1547      1545      1543      1546      1548
      1545      1543      1546      1549      1546      1549      1552      1553
      1546      1549      1552      1554      1546      1549      1552      1555
      1547      1546      1549      1550      1547      1546      1549      1551
      1547      1546      1549      1552      1548      1546      1549      1550
      1548      1546      1549      1551      1548      1546      1549      1552
      1549      1552      1555      1556      1549      1552      1555      1557
      1549      1552      1555      1558      1550      1549      1552      1553
      1550      1549      1552      1554      1550      1549      1552      1555
      1551      1549      1552      1553      1551      1549      1552      1554
      1551      1549      1552      1555      1553      1552      1555      1556
      1553      1552      1555      1557      1553      1552      1555      1558
      1554      1552      1555      1556      1554      1552      1555      1557
      1554      1552      1555      1558      1559      1562      1565      1566
      1559      1562      1565      1567      1559      1562      1565      1568
      1560      1559      1562      1563      1560      1559      1562      1564
      1560      1559      1562      1565      1561      1559      1562      1563
      1561      1559      1562      1564      1561      1559      1562      1565
      1562      1565      1568      1569      1562      1565      1568      1570
      1562      1565      1568      1571      1563      1562      1565      1566
      1563      1562      1565      1567      1563      1562      1565      1568
      1564      1562      1565      1566      1564      1562      1565      1567
      1564      1562      1565      1568      1565      1568      1571      1572
      1565      1568      1571      1573      1565      1568      1571      1574
      1566      1565      1568      1569      1566      1565      1568      1570
      1566      1565      1568      1571      1567      1565      1568      1569
      1567      1565      1568      1570      1567      1565      1568      1571
      1568      1571      1574      1575      1568      1571      1574      1576
      1568      1571      1574      1577      1569      1568      1571      1572
      1569      1568      1571      1573      1569      1568      1571      1574
      1570      1568      1571      1572      1570      1568      1571      1573
      1570      1568      1571      1574      1571      1574      1577      1578
      1571      1574      1577      1579      1571      1574      1577      1580
      1572      1571      1574      1575      1572      1571      1574      1576
      1572      1571      1574      1577      1573      1571      1574      1575
      1573      1571      1574      1576      1573      1571      1574      1577
      1574      1577      1580      1581      1574      1577      1580      1582
      1574      1577      1580      1583      1575      1574      1577      1578
      1575      1574      1577      1579      1575      1574      1577      1580
      1576      1574      1577      1578      1576      1574      1577      1579
      1576      1574      1577      1580      1577      1580      1583      1584
      1577      1580      1583      1585      1577      1580      1583      1586
      1578      1577      1580      1581      1578      1577      1580      1582
      1578      1577      1580      1583      1579      1577      1580      1581
      1579      1577      1580      1582      1579      1577      1580      1583
      1580      1583      1586      1587      1580      1583      1586      1588
      1580      1583      1586      1589      1581      1580      1583      1584
      1581      1580      1583      1585      1581      1580      1583      1586
      1582      1580      1583      1584      1582      1580      1583      1585
      1582      1580      1583      1586      1583      1586      1589      1590
      1583      1586      1589      1591      1583      1586      1589      1592
      1584      1583      1586      1587      1584      1583      1586      1588
      1584      1583      1586      1589      1585      1583      1586      1587
      1585      1583      1586      1588      1585      1583      1586      1589
      1586      1589      1592      1593      1586      1589      1592      1594
      1586      1589      1592      1595      1587      1586      1589      1590
      1587      1586      1589      1591      1587      1586      1589      1592
      1588      1586      1589      1590      1588      1586      1589      1591
      1588      1586      1589      1592      1589      1592      1595      1596
      1589      1592      1595      1597      1589      1592      1595      1598
      1590      1589      1592      1593      1590      1589      1592      1594
      1590      1589      1592      1595      1591      1589      1592      1593
      1591      1589      1592      1594      1591      1589      1592      1595
      1592      1595      1598      1599      1592      1595      1598      1600
      1592      1595      1598      1601      1593      1592      1595      1596
      1593      1592      1595      1597      1593      1592      1595      1598
      1594      1592      1595      1596      1594      1592      1595      1597
      1594      1592      1595      1598      1596      1595      1598      1599
      1596      1595      1598      1600      1596      1595      1598      1601
      1597      1595      1598      1599      1597      1595      1598      1600
      1597      1595      1598      1601      1602      1606      1609      1610
      1602      1606      1609      1611      1602      1606      1609      1616
      1603      1602      1606      1607      1603      1602      1606      1608
      1603      1602      1606      1609      1604      1602      1606      1607
      1604      1602      1606      1608      1604      1602      1606      1609
      1605      1602      1606      1607      1605      1602      1606      1608
      1605      1602      1606      1609      1606      1609      1616      1612
      1607      1606      1609      1610      1607      1606      1609      1611
      1607      1606      1609      1616      1608      1606      1609      1610
      1608      1606      1609      1611      1608      1606      1609      1616
      1609      1616      1612      1613      1609      1616      1612      1614
      1609      1616      1612      1615      1610      1609      1616      1612
      1611      1609      1616      1612      1612      1615      1617      1618
      1612      1615      1617      1619      1612      1615      1617      1620
      1613      1612      1615      1617      1614      1612      1615      1617
      1615      1617      1620      1621      1615      1617      1620      1622
      1615      1617      1620      1628      1616      1612      1615      1617
      1617      1620      1622      1623      1617      1620      1628      1629
      1617      1620      1628      1630      1617      1620      1628      1631
      1618      1617      1620      1621      1618      1617      1620      1622
      1618      1617      1620      1628      1619      1617      1620      1621
      1619      1617      1620      1622      1619      1617      1620      1628
      1620      1622      1623      1624      1620      1622      1623      1625
      1620      1628      1631      1632      1621      1620      1622      1623
      1621      1620      1628      1629      1621      1620      1628      1630
      1621      1620      1628      1631      1622      1620      1628      1629
      1622      1620      1628      1630      1622      1620      1628      1631
      1622      1623      1625      1626      1622      1623      1625      1627
      1622      1623      1625      1637      1623      1622      1620      1628
      1623      1625      1637      1638      1623      1625      1637      1639
      1623      1625      1637      1640      1624      1623      1625      1626
      1624      1623      1625      1627      1624      1623      1625      1637
      1625      1637      1640      1641      1625      1637      1640      1642
      1625      1637      1640      1643      1626      1625      1637      1638
      1626      1625      1637      1639      1626      1625      1637      1640
      1627      1625      1637      1638      1627      1625      1637      1639
      1627      1625      1637      1640      1628      1631      1632      1633
      1628      1631      1632      1634      1629      1628      1631      1632
      1630      1628      1631      1632      1631      1632      1634      1635
      1631      1632      1634      1636      1631      1632      1634      1681
      1632      1634      1681      1682      1632      1634      1681      1683
      1632      1634      1681      1684      1633      1632      1634      1635
      1633      1632      1634      1636      1633      1632      1634      1681
      1634      1681      1684      1685      1634      1681      1684      1686
      1634      1681      1684      1687      1635      1634      1681      1682
      1635      1634      1681      1683      1635      1634      1681      1684
      1636      1634      1681      1682      1636      1634      1681      1683
      1636      1634      1681      1684      1637      1640      1643      1644
      1637      1640      1643      1645      1637      1640      1643      1646
      1638      1637      1640      1641      1638      1637      1640      1642
      1638      1637      1640      1643      1639      1637      1640      1641
      1639      1637      1640      1642      1639      1637      1640      1643
      1640      1643      1646      1647      1640      1643      1646      1648
      1640      1643      1646      1649      1641      1640      1643      1644
      1641      1640      1643      1645      1641      1640      1643      1646
      1642      1640      1643      1644      1642      1640      1643      1645
      1642      1640      1643      1646      1643      1646      1649      1650
      1643      1646      1649      1651      1643      1646      1649      1652
      1644      1643      1646      1647      1644      1643      1646      1648
      1644      1643      1646      1649      1645      1643      1646      1647
      1645      1643      1646      1648      1645      1643      1646      1649
      1646      1649      1652      1653      1646      1649      1652      1654
      1646      1649      1652      1655      1647      1646      1649      1650
      1647      1646      1649      1651      1647      1646      1649      1652
      1648      1646      1649      1650      1648      1646      1649      1651
      1648      1646      1649      1652      1649      1652      1655      1656
      1649      1652      1655      1657      1649      1652      1655      1660
      1650      1649      1652      1653      1650      1649      1652      1654
      1650      1649      1652      1655      1651      1649      1652      1653
      1651      1649      1652      1654      1651      1649      1652      1655
      1652      1655      1657      1658      1652      1655      1657      1659
      1652      1655      1657      1660      1652      1655      1660      1657
      1652      1655      1660      1661      1652      1655      1660      1662
      1653      1652      1655      1656      1653      1652      1655      1657
      1653      1652      1655      1660      1654      1652      1655      1656
      1654      1652      1655      1657      1654      1652      1655      1660
      1655      1657      1660      1661      1655      1657      1660      1662
      1655      1660      1657      1658      1655      1660      1657      1659
      1655      1660      1662      1663      1655      1660      1662      1664
      1655      1660      1662      1665      1656      1655      1657      1658
      1656      1655      1657      1659      1656      1655      1657      1660
      1656      1655      1660      1657      1656      1655      1660      1661
      1656      1655      1660      1662      1657      1655      1660      1661
      1657      1655      1660      1662      1657      1660      1662      1663
      1657      1660      1662      1664      1657      1660      1662      1665
      1658      1657      1655      1660      1658      1657      1660      1661
      1658      1657      1660      1662      1659      1657      1655      1660
      1659      1657      1660      1661      1659      1657      1660      1662
      1660      1662      1665      1666      1660      1662      1665      1667
      1660      1662      1665      1668      1661      1660      1662      1663
      1661      1660      1662      1664      1661      1660      1662      1665
      1662      1665      1668      1669      1662      1665      1668      1670
      1662      1665      1668      1671      1663      1662      1665      1666
      1663      1662      1665      1667      1663      1662      1665      1668
      1664      1662      1665      1666      1664      1662      1665      1667
      1664      1662      1665      1668      1665      1668      1671      1672
      1665      1668      1671      1673      1665      1668      1671      1674
      1666      1665      1668      1669      1666      1665      1668      1670
      1666      1665      1668      1671      1667      1665      1668      1669
      1667      1665      1668      1670      1667      1665      1668      1671
      1668      1671      1674      1675      1668      1671      1674      1676
      1668      1671      1674      1677      1669      1668      1671      1672
      1669      1668      1671      1673      1669      1668      1671      1674
      1670      1668      1671      1672      1670      1668      1671      1673
      1670      1668      1671      1674      1671      1674      1677      1678
      1671      1674      1677      1679      1671      1674      1677      1680
      1672      1671      1674      1675      1672      1671      1674      1676
      1672      1671      1674      1677      1673      1671      1674      1675
      1673      1671      1674      1676      1673      1671      1674      1677
      1675      1674      1677      1678      1675      1674      1677      1679
      1675      1674      1677      1680      1676      1674      1677      1678
      1676      1674      1677      1679      1676      1674      1677      1680
      1681      1684      1687      1688      1681      1684      1687      1689
      1681      1684      1687      1690      1682      1681      1684      1685
      1682      1681      1684      1686      1682      1681      1684      1687
      1683      1681      1684      1685      1683      1681      1684      1686
      1683      1681      1684      1687      1684      1687      1690      1691
      1684      1687      1690      1692      1684      1687      1690      1693
      1685      1684      1687      1688      1685      1684      1687      1689
      1685      1684      1687      1690      1686      1684      1687      1688
      1686      1684      1687      1689      1686      1684      1687      1690
      1687      1690      1693      1694      1687      1690      1693      1695
      1687      1690      1693      1696      1688      1687      1690      1691
      1688      1687      1690      1692      1688      1687      1690      1693
      1689      1687      1690      1691      1689      1687      1690      1692
      1689      1687      1690      1693      1690      1693      1696      1697
      1690      1693      1696      1698      1690      1693      1696      1699
      1691      1690      1693      1694      1691      1690      1693      1695
      1691      1690      1693      1696      1692      1690      1693      1694
      1692      1690      1693      1695      1692      1690      1693      1696
      1693      1696      1699      1700      1693      1696      1699      1701
      1693      1696      1699      1702      1694      1693      1696      1697
      1694      1693      1696      1698      1694      1693      1696      1699
      1695      1693      1696      1697      1695      1693      1696      1698
      1695      1693      1696      1699      1696      1699      1702      1703
      1696      1699      1702      1704      1696      1699      1702      1705
      1697      1696      1699      1700      1697      1696      1699      1701
      1697      1696      1699      1702      1698      1696      1699      1700
      1698      1696      1699      1701      1698      1696      1699      1702
      1699      1702      1705      1706      1699      1702      1705      1707
      1699      1702      1705      1708      1700      1699      1702      1703
      1700      1699      1702      1704      1700      1699      1702      1705
      1701      1699      1702      1703      1701      1699      1702      1704
      1701      1699      1702      1705      1702      1705      1708      1709
      1702      1705      1708      1710      1702      1705      1708      1711
      1703      1702      1705      1706      1703      1702      1705      1707
      1703      1702      1705      1708      1704      1702      1705      1706
      1704      1702      1705      1707      1704      1702      1705      1708
      1705      1708      1711      1712      1705      1708      1711      1713
      1705      1708      1711      1714      1706      1705      1708      1709
      1706      1705      1708      1710      1706      1705      1708      1711
      1707      1705      1708      1709      1707      1705      1708      1710
      1707      1705      1708      1711      1708      1711      1714      1715
      1708      1711      1714      1716      1708      1711      1714      1717
      1709      1708      1711      1712      1709      1708      1711      1713
      1709      1708      1711      1714      1710      1708      1711      1712
      1710      1708      1711      1713      1710      1708      1711      1714
      1711      1714      1717      1718      1711      1714      1717      1719
      1711      1714      1717      1720      1712      1711      1714      1715
      1712      1711      1714      1716      1712      1711      1714      1717
      1713      1711      1714      1715      1713      1711      1714      1716
      1713      1711      1714      1717      1714      1717      1720      1721
      1714      1717      1720      1722      1714      1717      1720      1723
      1715      1714      1717      1718      1715      1714      1717      1719
      1715      1714      1717      1720      1716      1714      1717      1718
      1716      1714      1717      1719      1716      1714      1717      1720
      1718      1717      1720      1721      1718      1717      1720      1722
      1718      1717      1720      1723      1719      1717      1720      1721
      1719      1717      1720      1722      1719      1717      1720      1723
      1724      1728      1731      1732      1724      1728      1731      1733
      1724      1728      1731      1738      1725      1724      1728      1729
      1725      1724      1728      1730      1725      1724      1728      1731
      1726      1724      1728      1729      1726      1724      1728      1730
      1726      1724      1728      1731      1727      1724      1728      1729
      1727      1724      1728      1730      1727      1724      1728      1731
      1728      1731      1738      1734      1729      1728      1731      1732
      1729      1728      1731      1733      1729      1728      1731      1738
      1730      1728      1731      1732      1730      1728      1731      1733
      1730      1728      1731      1738      1731      1738      1734      1735
      1731      1738      1734      1736      1731      1738      1734      1737
      1732      1731      1738      1734      1733      1731      1738      1734
      1734      1737      1739      1740      1734      1737      1739      1741
      1734      1737      1739      1742      1735      1734      1737      1739
      1736      1734      1737      1739      1737      1739      1742      1743
      1737      1739      1742      1744      1737      1739      1742      1750
      1738      1734      1737      1739      1739      1742      1744      1745
      1739      1742      1750      1751      1739      1742      1750      1752
      1739      1742      1750      1753      1740      1739      1742      1743
      1740      1739      1742      1744      1740      1739      1742      1750
      1741      1739      1742      1743      1741      1739      1742      1744
      1741      1739      1742      1750      1742      1744      1745      1746
      1742      1744      1745      1747      1742      1750      1753      1754
      1743      1742      1744      1745      1743      1742      1750      1751
      1743      1742      1750      1752      1743      1742      1750      1753
      1744      1742      1750      1751      1744      1742      1750      1752
      1744      1742      1750      1753      1744      1745      1747      1748
      1744      1745      1747      1749      1744      1745      1747      1759
      1745      1744      1742      1750      1745      1747      1759      1760
      1745      1747      1759      1761      1745      1747      1759      1762
      1746      1745      1747      1748      1746      1745      1747      1749
      1746      1745      1747      1759      1747      1759      1762      1763
      1747      1759      1762      1764      1747      1759      1762      1765
      1748      1747      1759      1760      1748      1747      1759      1761
      1748      1747      1759      1762      1749      1747      1759      1760
      1749      1747      1759      1761      1749      1747      1759      1762
      1750      1753      1754      1755      1750      1753      1754      1756
      1751      1750      1753      1754      1752      1750      1753      1754
      1753      1754      1756      1757      1753      1754      1756      1758
      1753      1754      1756      1806      1754      1756      1806      1807
      1754      1756      1806      1808      1754      1756      1806      1809
      1755      1754      1756      1757      1755      1754      1756      1758
      1755      1754      1756      1806      1756      1806      1809      1810
      1756      1806      1809      1811      1756      1806      1809      1812
      1757      1756      1806      1807      1757      1756      1806      1808
      1757      1756      1806      1809      1758      1756      1806      1807
      1758      1756      1806      1808      1758      1756      1806      1809
      1759      1762      1765      1766      1759      1762      1765      1767
      1759      1762      1765      1768      1760      1759      1762      1763
      1760      1759      1762      1764      1760      1759      1762      1765
      1761      1759      1762      1763      1761      1759      1762      1764
      1761      1759      1762      1765      1762      1765      1768      1769
      1762      1765      1768      1770      1762      1765      1768      1771
      1763      1762      1765      1766      1763      1762      1765      1767
      1763      1762      1765      1768      1764      1762      1765      1766
      1764      1762      1765      1767      1764      1762      1765      1768
      1765      1768      1771      1772      1765      1768      1771      1773
      1765      1768      1771      1774      1766      1765      1768      1769
      1766      1765      1768      1770      1766      1765      1768      1771
      1767      1765      1768      1769      1767      1765      1768      1770
      1767      1765      1768      1771      1768      1771      1774      1775
      1768      1771      1774      1776      1768      1771      1774      1777
      1769      1768      1771      1772      1769      1768      1771      1773
      1769      1768      1771      1774      1770      1768      1771      1772
      1770      1768      1771      1773      1770      1768      1771      1774
      1771      1774      1777      1778      1771      1774      1777      1779
      1772      1771      1774      1775      1772      1771      1774      1776
      1772      1771      1774      1777      1773      1771      1774      1775
      1773      1771      1774      1776      1773      1771      1774      1777
      1774      1777      1779      1780      1774      1777      1779      1781
      1775      1774      1777      1778      1775      1774      1777      1779
      1776      1774      1777      1778      1776      1774      1777      1779
      1777      1779      1781      1782      1777      1779      1781      1783
      1777      1779      1781      1784      1778      1777      1779      1780
      1778      1777      1779      1781      1779      1781      1784      1785
      1779      1781      1784      1786      1779      1781      1784      1787
      1780      1779      1781      1782      1780      1779      1781      1783
      1780      1779      1781      1784      1781      1784      1787      1788
      1781      1784      1787      1789      1781      1784      1787      1790
      1782      1781      1784      1785      1782      1781      1784      1786
      1782      1781      1784      1787      1783      1781      1784      1785
      1783      1781      1784      1786      1783      1781      1784      1787
      1784      1787      1790      1791      1784      1787      1790      1792
      1784      1787      1790      1793      1785      1784      1787      1788
      1785      1784      1787      1789      1785      1784      1787      1790
      1786      1784      1787      1788      1786      1784      1787      1789
      1786      1784      1787      1790      1787      1790      1793      1794
      1787      1790      1793      1795      1787      1790      1793      1796
      1788      1787      1790      1791      1788      1787      1790      1792
      1788      1787      1790      1793      1789      1787      1790      1791
      1789      1787      1790      1792      1789      1787      1790      1793
      1790      1793      1796      1797      1790      1793      1796      1798
      1790      1793      1796      1799      1791      1790      1793      1794
      1791      1790      1793      1795      1791      1790      1793      1796
      1792      1790      1793      1794      1792      1790      1793      1795
      1792      1790      1793      1796      1793      1796      1799      1800
      1793      1796      1799      1801      1793      1796      1799      1802
      1794      1793      1796      1797      1794      1793      1796      1798
      1794      1793      1796      1799      1795      1793      1796      1797
      1795      1793      1796      1798      1795      1793      1796      1799
      1796      1799      1802      1803      1796      1799      1802      1804
      1796      1799      1802      1805      1797      1796      1799      1800
      1797      1796      1799      1801      1797      1796      1799      1802
      1798      1796      1799      1800      1798      1796      1799      1801
      1798      1796      1799      1802      1800      1799      1802      1803
      1800      1799      1802      1804      1800      1799      1802      1805
      1801      1799      1802      1803      1801      1799      1802      1804
      1801      1799      1802      1805      1806      1809      1812      1813
      1806      1809      1812      1814      1806      1809      1812      1815
      1807      1806      1809      1810      1807      1806      1809      1811
      1807      1806      1809      1812      1808      1806      1809      1810
      1808      1806      1809      1811      1808      1806      1809      1812
      1809      1812      1815      1816      1809      1812      1815      1817
      1809      1812      1815      1818      1810      1809      1812      1813
      1810      1809      1812      1814      1810      1809      1812      1815
      1811      1809      1812      1813      1811      1809      1812      1814
      1811      1809      1812      1815      1812      1815      1818      1819
      1812      1815      1818      1820      1812      1815      1818      1821
      1813      1812      1815      1816      1813      1812      1815      1817
      1813      1812      1815      1818      1814      1812      1815      1816
      1814      1812      1815      1817      1814      1812      1815      1818
      1815      1818      1821      1822      1815      1818      1821      1823
      1815      1818      1821      1824      1816      1815      1818      1819
      1816      1815      1818      1820      1816      1815      1818      1821
      1817      1815      1818      1819      1817      1815      1818      1820
      1817      1815      1818      1821      1818      1821      1824      1825
      1818      1821      1824      1826      1818      1821      1824      1827
      1819      1818      1821      1822      1819      1818      1821      1823
      1819      1818      1821      1824      1820      1818      1821      1822
      1820      1818      1821      1823      1820      1818      1821      1824
      1821      1824      1827      1828      1821      1824      1827      1829
      1821      1824      1827      1830      1822      1821      1824      1825
      1822      1821      1824      1826      1822      1821      1824      1827
      1823      1821      1824      1825      1823      1821      1824      1826
      1823      1821      1824      1827      1824      1827      1830      1831
      1824      1827      1830      1832      1824      1827      1830      1833
      1825      1824      1827      1828      1825      1824      1827      1829
      1825      1824      1827      1830      1826      1824      1827      1828
      1826      1824      1827      1829      1826      1824      1827      1830
      1827      1830      1833      1834      1827      1830      1833      1835
      1827      1830      1833      1836      1828      1827      1830      1831
      1828      1827      1830      1832      1828      1827      1830      1833
      1829      1827      1830      1831      1829      1827      1830      1832
      1829      1827      1830      1833      1830      1833      1836      1837
      1830      1833      1836      1838      1830      1833      1836      1839
      1831      1830      1833      1834      1831      1830      1833      1835
      1831      1830      1833      1836      1832      1830      1833      1834
      1832      1830      1833      1835      1832      1830      1833      1836
      1833      1836      1839      1840      1833      1836      1839      1841
      1833      1836      1839      1842      1834      1833      1836      1837
      1834      1833      1836      1838      1834      1833      1836      1839
      1835      1833      1836      1837      1835      1833      1836      1838
      1835      1833      1836      1839      1836      1839      1842      1843
      1836      1839      1842      1844      1836      1839      1842      1845
      1837      1836      1839      1840      1837      1836      1839      1841
      1837      1836      1839      1842      1838      1836      1839      1840
      1838      1836      1839      1841      1838      1836      1839      1842
      1839      1842      1845      1846      1839      1842      1845      1847
      1839      1842      1845      1848      1840      1839      1842      1843
      1840      1839      1842      1844      1840      1839      1842      1845
      1841      1839      1842      1843      1841      1839      1842      1844
      1841      1839      1842      1845      1843      1842      1845      1846
      1843      1842      1845      1847      1843      1842      1845      1848
      1844      1842      1845      1846      1844      1842      1845      1847
      1844      1842      1845      1848      1849      1853      1856      1857
      1849      1853      1856      1858      1849      1853      1856      1863
      1850      1849      1853      1854      1850      1849      1853      1855
      1850      1849      1853      1856      1851      1849      1853      1854
      1851      1849      1853      1855      1851      1849      1853      1856
      1852      1849      1853      1854      1852      1849      1853      1855
      1852      1849      1853      1856      1853      1856      1863      1859
      1854      1853      1856      1857      1854      1853      1856      1858
      1854      1853      1856      1863      1855      1853      1856      1857
      1855      1853      1856      1858      1855      1853      1856      1863
      1856      1863      1859      1860      1856      1863      1859      1861
      1856      1863      1859      1862      1857      1856      1863      1859
      1858      1856      1863      1859      1859      1862      1864      1865
      1859      1862      1864      1866      1859      1862      1864      1867
      1860      1859      1862      1864      1861      1859      1862      1864
      1862      1864      1867      1868      1862      1864      1867      1869
      1862      1864      1867      1875      1863      1859      1862      1864
      1864      1867      1869      1870      1864      1867      1875      1876
      1864      1867      1875      1877      1864      1867      1875      1878
      1865      1864      1867      1868      1865      1864      1867      1869
      1865      1864      1867      1875      1866      1864      1867      1868
      1866      1864      1867      1869      1866      1864      1867      1875
      1867      1869      1870      1871      1867      1869      1870      1872
      1867      1875      1878      1879      1868      1867      1869      1870
      1868      1867      1875      1876      1868      1867      1875      1877
      1868      1867      1875      1878      1869      1867      1875      1876
      1869      1867      1875      1877      1869      1867      1875      1878
      1869      1870      1872      1873      1869      1870      1872      1874
      1869      1870      1872      1884      1870      1869      1867      1875
      1870      1872      1884      1885      1870      1872      1884      1886
      1870      1872      1884      1887      1871      1870      1872      1873
      1871      1870      1872      1874      1871      1870      1872      1884
      1872      1884      1887      1888      1872      1884      1887      1889
      1872      1884      1887      1890      1873      1872      1884      1885
      1873      1872      1884      1886      1873      1872      1884      1887
      1874      1872      1884      1885      1874      1872      1884      1886
      1874      1872      1884      1887      1875      1878      1879      1880
      1875      1878      1879      1881      1876      1875      1878      1879
      1877      1875      1878      1879      1878      1879      1881      1882
      1878      1879      1881      1883      1878      1879      1881      1928
      1879      1881      1928      1929      1879      1881      1928      1930
      1879      1881      1928      1931      1880      1879      1881      1882
      1880      1879      1881      1883      1880      1879      1881      1928
      1881      1928      1931      1932      1881      1928      1931      1933
      1881      1928      1931      1934      1882      1881      1928      1929
      1882      1881      1928      1930      1882      1881      1928      1931
      1883      1881      1928      1929      1883      1881      1928      1930
      1883      1881      1928      1931      1884      1887      1890      1891
      1884      1887      1890      1892      1884      1887      1890      1893
      1885      1884      1887      1888      1885      1884      1887      1889
      1885      1884      1887      1890      1886      1884      1887      1888
      1886      1884      1887      1889      1886      1884      1887      1890
      1887      1890      1893      1894      1887      1890      1893      1895
      1887      1890      1893      1896      1888      1887      1890      1891
      1888      1887      1890      1892      1888      1887      1890      1893
      1889      1887      1890      1891      1889      1887      1890      1892
      1889      1887      1890      1893      1890      1893      1896      1897
      1890      1893      1896      1898      1890      1893      1896      1899
      1891      1890      1893      1894      1891      1890      1893      1895
      1891      1890      1893      1896      1892      1890      1893      1894
      1892      1890      1893      1895      1892      1890      1893      1896
      1893      1896      1899      1900      1893      1896      1899      1901
      1893      1896      1899      1902      1894      1893      1896      1897
      1894      1893      1896      1898      1894      1893      1896      1899
      1895      1893      1896      1897      1895      1893      1896      1898
      1895      1893      1896      1899      1896      1899      1902      1903
      1896      1899      1902      1904      1896      1899      1902      1907
      1897      1896      1899      1900      1897      1896      1899      1901
      1897      1896      1899      1902      1898      1896      1899      1900
      1898      1896      1899      1901      1898      1896      1899      1902
      1899      1902      1904      1905      1899      1902      1904      1906
      1899      1902      1904      1907      1899      1902      1907      1904
      1899      1902      1907      1908      1899      1902      1907      1909
      1900      1899      1902      1903      1900      1899      1902      1904
      1900      1899      1902      1907      1901      1899      1902      1903
      1901      1899      1902      1904      1901      1899      1902      1907
      1902      1904      1907      1908      1902      1904      1907      1909
      1902      1907      1904      1905      1902      1907      1904      1906
      1902      1907      1909      1910      1902      1907      1909      1911
      1902      1907      1909      1912      1903      1902      1904      1905
      1903      1902      1904      1906      1903      1902      1904      1907
      1903      1902      1907      1904      1903      1902      1907      1908
      1903      1902      1907      1909      1904      1902      1907      1908
      1904      1902      1907      1909      1904      1907      1909      1910
      1904      1907      1909      1911      1904      1907      1909      1912
      1905      1904      1902      1907      1905      1904      1907      1908
      1905      1904      1907      1909      1906      1904      1902      1907
      1906      1904      1907      1908      1906      1904      1907      1909
      1907      1909      1912      1913      1907      1909      1912      1914
      1907      1909      1912      1915      1908      1907      1909      1910
      1908      1907      1909      1911      1908      1907      1909      1912
      1909      1912      1915      1916      1909      1912      1915      1917
      1909      1912      1915      1918      1910      1909      1912      1913
      1910      1909      1912      1914      1910      1909      1912      1915
      1911      1909      1912      1913      1911      1909      1912      1914
      1911      1909      1912      1915      1912      1915      1918      1919
      1912      1915      1918      1920      1912      1915      1918      1921
      1913      1912      1915      1916      1913      1912      1915      1917
      1913      1912      1915      1918      1914      1912      1915      1916
      1914      1912      1915      1917      1914      1912      1915      1918
      1915      1918      1921      1922      1915      1918      1921      1923
      1915      1918      1921      1924      1916      1915      1918      1919
      1916      1915      1918      1920      1916      1915      1918      1921
      1917      1915      1918      1919      1917      1915      1918      1920
      1917      1915      1918      1921      1918      1921      1924      1925
      1918      1921      1924      1926      1918      1921      1924      1927
      1919      1918      1921      1922      1919      1918      1921      1923
      1919      1918      1921      1924      1920      1918      1921      1922
      1920      1918      1921      1923      1920      1918      1921      1924
      1922      1921      1924      1925      1922      1921      1924      1926
      1922      1921      1924      1927      1923      1921      1924      1925
      1923      1921      1924      1926      1923      1921      1924      1927
      1928      1931      1934      1935      1928      1931      1934      1936
      1928      1931      1934      1937      1929      1928      1931      1932
      1929      1928      1931      1933      1929      1928      1931      1934
      1930      1928      1931      1932      1930      1928      1931      1933
      1930      1928      1931      1934      1931      1934      1937      1938
      1931      1934      1937      1939      1931      1934      1937      1940
      1932      1931      1934      1935      1932      1931      1934      1936
      1932      1931      1934      1937      1933      1931      1934      1935
      1933      1931      1934      1936      1933      1931      1934      1937
      1934      1937      1940      1941      1934      1937      1940      1942
      1934      1937      1940      1943      1935      1934      1937      1938
      1935      1934      1937      1939      1935      1934      1937      1940
      1936      1934      1937      1938      1936      1934      1937      1939
      1936      1934      1937      1940      1937      1940      1943      1944
      1937      1940      1943      1945      1937      1940      1943      1946
      1938      1937      1940      1941      1938      1937      1940      1942
      1938      1937      1940      1943      1939      1937      1940      1941
      1939      1937      1940      1942      1939      1937      1940      1943
      1940      1943      1946      1947      1940      1943      1946      1948
      1940      1943      1946      1949      1941      1940      1943      1944
      1941      1940      1943      1945      1941      1940      1943      1946
      1942      1940      1943      1944      1942      1940      1943      1945
      1942      1940      1943      1946      1943      1946      1949      1950
      1943      1946      1949      1951      1943      1946      1949      1952
      1944      1943      1946      1947      1944      1943      1946      1948
      1944      1943      1946      1949      1945      1943      1946      1947
      1945      1943      1946      1948      1945      1943      1946      1949
      1946      1949      1952      1953      1946      1949      1952      1954
      1946      1949      1952      1955      1947      1946      1949      1950
      1947      1946      1949      1951      1947      1946      1949      1952
      1948      1946      1949      1950      1948      1946      1949      1951
      1948      1946      1949      1952      1949      1952      1955      1956
      1949      1952      1955      1957      1949      1952      1955      1958
      1950      1949      1952      1953      1950      1949      1952      1954
      1950      1949      1952      1955      1951      1949      1952      1953
      1951      1949      1952      1954      1951      1949      1952      1955
      1952      1955      1958      1959      1952      1955      1958      1960
      1952      1955      1958      1961      1953      1952      1955      1956
      1953      1952      1955      1957      1953      1952      1955      1958
      1954      1952      1955      1956      1954      1952      1955      1957
      1954      1952      1955      1958      1955      1958      1961      1962
      1955      1958      1961      1963      1955      1958      1961      1964
      1956      1955      1958      1959      1956      1955      1958      1960
      1956      1955      1958      1961      1957      1955      1958      1959
      1957      1955      1958      1960      1957      1955      1958      1961
      1958      1961      1964      1965      1958      1961      1964      1966
      1958      1961      1964      1967      1959      1958      1961      1962
      1959      1958      1961      1963      1959      1958      1961      1964
      1960      1958      1961      1962      1960      1958      1961      1963
      1960      1958      1961      1964      1961      1964      1967      1968
      1961      1964      1967      1969      1961      1964      1967      1970
      1962      1961      1964      1965      1962      1961      1964      1966
      1962      1961      1964      1967      1963      1961      1964      1965
      1963      1961      1964      1966      1963      1961      1964      1967
      1965      1964      1967      1968      1965      1964      1967      1969
      1965      1964      1967      1970      1966      1964      1967      1968
      1966      1964      1967      1969      1966      1964      1967      1970
      1971      1975      1978      1979      1971      1975      1978      1980
      1971      1975      1978      1985      1972      1971      1975      1976
      1972      1971      1975      1977      1972      1971      1975      1978
      1973      1971      1975      1976      1973      1971      1975      1977
      1973      1971      1975      1978      1974      1971      1975      1976
      1974      1971      1975      1977      1974      1971      1975      1978
      1975      1978      1985      1981      1976      1975      1978      1979
      1976      1975      1978      1980      1976      1975      1978      1985
      1977      1975      1978      1979      1977      1975      1978      1980
      1977      1975      1978      1985      1978      1985      1981      1982
      1978      1985      1981      1983      1978      1985      1981      1984
      1979      1978      1985      1981      1980      1978      1985      1981
      1981      1984      1986      1987      1981      1984      1986      1988
      1981      1984      1986      1989      1982      1981      1984      1986
      1983      1981      1984      1986      1984      1986      1989      1990
      1984      1986      1989      1991      1984      1986      1989      1997
      1985      1981      1984      1986      1986      1989      1991      1992
      1986      1989      1997      1998      1986      1989      1997      1999
      1986      1989      1997      2000      1987      1986      1989      1990
      1987      1986      1989      1991      1987      1986      1989      1997
      1988      1986      1989      1990      1988      1986      1989      1991
      1988      1986      1989      1997      1989      1991      1992      1993
      1989      1991      1992      1994      1989      1997      2000      2001
      1990      1989      1991      1992      1990      1989      1997      1998
      1990      1989      1997      1999      1990      1989      1997      2000
      1991      1989      1997      1998      1991      1989      1997      1999
      1991      1989      1997      2000      1991      1992      1994      1995
      1991      1992      1994      1996      1991      1992      1994      2006
      1992      1991      1989      1997      1992      1994      2006      2007
      1992      1994      2006      2008      1992      1994      2006      2009
      1993      1992      1994      1995      1993      1992      1994      1996
      1993      1992      1994      2006      1994      2006      2009      2010
      1994      2006      2009      2011      1994      2006      2009      2012
      1995      1994      2006      2007      1995      1994      2006      2008
      1995      1994      2006      2009      1996      1994      2006      2007
      1996      1994      2006      2008      1996      1994      2006      2009
      1997      2000      2001      2002      1997      2000      2001      2003
      1998      1997      2000      2001      1999      1997      2000      2001
      2000      2001      2003      2004      2000      2001      2003      2005
      2000      2001      2003      2050      2001      2003      2050      2051
      2001      2003      2050      2052      2001      2003      2050      2053
      2002      2001      2003      2004      2002      2001      2003      2005
      2002      2001      2003      2050      2003      2050      2053      2054
      2003      2050      2053      2055      2003      2050      2053      2056
      2004      2003      2050      2051      2004      2003      2050      2052
      2004      2003      2050      2053      2005      2003      2050      2051
      2005      2003      2050      2052      2005      2003      2050      2053
      2006      2009      2012      2013      2006      2009      2012      2014
      2006      2009      2012      2015      2007      2006      2009      2010
      2007      2006      2009      2011      2007      2006      2009      2012
      2008      2006      2009      2010      2008      2006      2009      2011
      2008      2006      2009      2012      2009      2012      2015      2016
      2009      2012      2015      2017      2009      2012      2015      2018
      2010      2009      2012      2013      2010      2009      2012      2014
      2010      2009      2012      2015      2011      2009      2012      2013
      2011      2009      2012      2014      2011      2009      2012      2015
      2012      2015      2018      2019      2012      2015      2018      2020
      2012      2015      2018      2021      2013      2012      2015      2016
      2013      2012      2015      2017      2013      2012      2015      2018
      2014      2012      2015      2016      2014      2012      2015      2017
      2014      2012      2015      2018      2015      2018      2021      2022
      2015      2018      2021      2023      2015      2018      2021      2024
      2016      2015      2018      2019      2016      2015      2018      2020
      2016      2015      2018      2021      2017      2015      2018      2019
      2017      2015      2018      2020      2017      2015      2018      2021
      2018      2021      2024      2025      2018      2021      2024      2026
      2018      2021      2024      2029      2019      2018      2021      2022
      2019      2018      2021      2023      2019      2018      2021      2024
      2020      2018      2021      2022      2020      2018      2021      2023
      2020      2018      2021      2024      2021      2024      2026      2027
      2021      2024      2026      2028      2021      2024      2026      2029
      2021      2024      2029      2026      2021      2024      2029      2030
      2021      2024      2029      2031      2022      2021      2024      2025
      2022      2021      2024      2026      2022      2021      2024      2029
      2023      2021      2024      2025      2023      2021      2024      2026
      2023      2021      2024      2029      2024      2026      2029      2030
      2024      2026      2029      2031      2024      2029      2026      2027
      2024      2029      2026      2028      2024      2029      2031      2032
      2024      2029      2031      2033      2024      2029      2031      2034
      2025      2024      2026      2027      2025      2024      2026      2028
      2025      2024      2026      2029      2025      2024      2029      2026
      2025      2024      2029      2030      2025      2024      2029      2031
      2026      2024      2029      2030      2026      2024      2029      2031
      2026      2029      2031      2032      2026      2029      2031      2033
      2026      2029      2031      2034      2027      2026      2024      2029
      2027      2026      2029      2030      2027      2026      2029      2031
      2028      2026      2024      2029      2028      2026      2029      2030
      2028      2026      2029      2031      2029      2031      2034      2035
      2029      2031      2034      2036      2029      2031      2034      2037
      2030      2029      2031      2032      2030      2029      2031      2033
      2030      2029      2031      2034      2031      2034      2037      2038
      2031      2034      2037      2039      2031      2034      2037      2040
      2032      2031      2034      2035      2032      2031      2034      2036
      2032      2031      2034      2037      2033      2031      2034      2035
      2033      2031      2034      2036      2033      2031      2034      2037
      2034      2037      2040      2041      2034      2037      2040      2042
      2034      2037      2040      2043      2035      2034      2037      2038
      2035      2034      2037      2039      2035      2034      2037      2040
      2036      2034      2037      2038      2036      2034      2037      2039
      2036      2034      2037      2040      2037      2040      2043      2044
      2037      2040      2043      2045      2037      2040      2043      2046
      2038      2037      2040      2041      2038      2037      2040      2042
      2038      2037      2040      2043      2039      2037      2040      2041
      2039      2037      2040      2042      2039      2037      2040      2043
      2040      2043      2046      2047      2040      2043      2046      2048
      2040      2043      2046      2049      2041      2040      2043      2044
      2041      2040      2043      2045      2041      2040      2043      2046
      2042      2040      2043      2044      2042      2040      2043      2045
      2042      2040      2043      2046      2044      2043      2046      2047
      2044      2043      2046      2048      2044      2043      2046      2049
      2045      2043      2046      2047      2045      2043      2046      2048
      2045      2043      2046      2049      2050      2053      2056      2057
      2050      2053      2056      2058      2050      2053      2056      2059
      2051      2050      2053      2054      2051      2050      2053      2055
      2051      2050      2053      2056      2052      2050      2053      2054
      2052      2050      2053      2055      2052      2050      2053      2056
      2053      2056      2059      2060      2053      2056      2059      2061
      2053      2056      2059      2062      2054      2053      2056      2057
      2054      2053      2056      2058      2054      2053      2056      2059
      2055      2053      2056      2057      2055      2053      2056      2058
      2055      2053      2056      2059      2056      2059      2062      2063
      2056      2059      2062      2064      2056      2059      2062      2065
      2057      2056      2059      2060      2057      2056      2059      2061
      2057      2056      2059      2062      2058      2056      2059      2060
      2058      2056      2059      2061      2058      2056      2059      2062
      2059      2062      2065      2066      2059      2062      2065      2067
      2059      2062      2065      2068      2060      2059      2062      2063
      2060      2059      2062      2064      2060      2059      2062      2065
      2061      2059      2062      2063      2061      2059      2062      2064
      2061      2059      2062      2065      2062      2065      2068      2069
      2062      2065      2068      2070      2062      2065      2068      2071
      2063      2062      2065      2066      2063      2062      2065      2067
      2063      2062      2065      2068      2064      2062      2065      2066
      2064      2062      2065      2067      2064      2062      2065      2068
      2065      2068      2071      2072      2065      2068      2071      2073
      2065      2068      2071      2074      2066      2065      2068      2069
      2066      2065      2068      2070      2066      2065      2068      2071
      2067      2065      2068      2069      2067      2065      2068      2070
      2067      2065      2068      2071      2068      2071      2074      2075
      2068      2071      2074      2076      2068      2071      2074      2077
      2069      2068      2071      2072      2069      2068      2071      2073
      2069      2068      2071      2074      2070      2068      2071      2072
      2070      2068      2071      2073      2070      2068      2071      2074
      2071      2074      2077      2078      2071      2074      2077      2079
      2071      2074      2077      2080      2072      2071      2074      2075
      2072      2071      2074      2076      2072      2071      2074      2077
      2073      2071      2074      2075      2073      2071      2074      2076
      2073      2071      2074      2077      2074      2077      2080      2081
      2074      2077      2080      2082      2074      2077      2080      2083
      2075      2074      2077      2078      2075      2074      2077      2079
      2075      2074      2077      2080      2076      2074      2077      2078
      2076      2074      2077      2079      2076      2074      2077      2080
      2077      2080      2083      2084      2077      2080      2083      2085
      2077      2080      2083      2086      2078      2077      2080      2081
      2078      2077      2080      2082      2078      2077      2080      2083
      2079      2077      2080      2081      2079      2077      2080      2082
      2079      2077      2080      2083      2080      2083      2086      2087
      2080      2083      2086      2088      2080      2083      2086      2089
      2081      2080      2083      2084      2081      2080      2083      2085
      2081      2080      2083      2086      2082      2080      2083      2084
      2082      2080      2083      2085      2082      2080      2083      2086
      2083      2086      2089      2090      2083      2086      2089      2091
      2083      2086      2089      2092      2084      2083      2086      2087
      2084      2083      2086      2088      2084      2083      2086      2089
      2085      2083      2086      2087      2085      2083      2086      2088
      2085      2083      2086      2089      2087      2086      2089      2090
      2087      2086      2089      2091      2087      2086      2089      2092
      2088      2086      2089      2090      2088      2086      2089      2091
      2088      2086      2089      2092      2093      2097      2100      2101
      2093      2097      2100      2102      2093      2097      2100      2107
      2094      2093      2097      2098      2094      2093      2097      2099
      2094      2093      2097      2100      2095      2093      2097      2098
      2095      2093      2097      2099      2095      2093      2097      2100
      2096      2093      2097      2098      2096      2093      2097      2099
      2096      2093      2097      2100      2097      2100      2107      2103
      2098      2097      2100      2101      2098      2097      2100      2102
      2098      2097      2100      2107      2099      2097      2100      2101
      2099      2097      2100      2102      2099      2097      2100      2107
      2100      2107      2103      2104      2100      2107      2103      2105
      2100      2107      2103      2106      2101      2100      2107      2103
      2102      2100      2107      2103      2103      2106      2108      2109
      2103      2106      2108      2110      2103      2106      2108      2111
      2104      2103      2106      2108      2105      2103      2106      2108
      2106      2108      2111      2112      2106      2108      2111      2113
      2106      2108      2111      2119      2107      2103      2106      2108
      2108      2111      2113      2114      2108      2111      2119      2120
      2108      2111      2119      2121      2108      2111      2119      2122
      2109      2108      2111      2112      2109      2108      2111      2113
      2109      2108      2111      2119      2110      2108      2111      2112
      2110      2108      2111      2113      2110      2108      2111      2119
      2111      2113      2114      2115      2111      2113      2114      2116
      2111      2119      2122      2123      2112      2111      2113      2114
      2112      2111      2119      2120      2112      2111      2119      2121
      2112      2111      2119      2122      2113      2111      2119      2120
      2113      2111      2119      2121      2113      2111      2119      2122
      2113      2114      2116      2117      2113      2114      2116      2118
      2113      2114      2116      2128      2114      2113      2111      2119
      2114      2116      2128      2129      2114      2116      2128      2130
      2114      2116      2128      2131      2115      2114      2116      2117
      2115      2114      2116      2118      2115      2114      2116      2128
      2116      2128      2131      2132      2116      2128      2131      2133
      2116      2128      2131      2134      2117      2116      2128      2129
      2117      2116      2128      2130      2117      2116      2128      2131
      2118      2116      2128      2129      2118      2116      2128      2130
      2118      2116      2128      2131      2119      2122      2123      2124
      2119      2122      2123      2125      2120      2119      2122      2123
      2121      2119      2122      2123      2122      2123      2125      2126
      2122      2123      2125      2127      2122      2123      2125      2172
      2123      2125      2172      2173      2123      2125      2172      2174
      2123      2125      2172      2175      2124      2123      2125      2126
      2124      2123      2125      2127      2124      2123      2125      2172
      2125      2172      2175      2176      2125      2172      2175      2177
      2125      2172      2175      2178      2126      2125      2172      2173
      2126      2125      2172      2174      2126      2125      2172      2175
      2127      2125      2172      2173      2127      2125      2172      2174
      2127      2125      2172      2175      2128      2131      2134      2135
      2128      2131      2134      2136      2128      2131      2134      2137
      2129      2128      2131      2132      2129      2128      2131      2133
      2129      2128      2131      2134      2130      2128      2131      2132
      2130      2128      2131      2133      2130      2128      2131      2134
      2131      2134      2137      2138      2131      2134      2137      2139
      2131      2134      2137      2140      2132      2131      2134      2135
      2132      2131      2134      2136      2132      2131      2134      2137
      2133      2131      2134      2135      2133      2131      2134      2136
      2133      2131      2134      2137      2134      2137      2140      2141
      2134      2137      2140      2142      2134      2137      2140      2143
      2135      2134      2137      2138      2135      2134      2137      2139
      2135      2134      2137      2140      2136      2134      2137      2138
      2136      2134      2137      2139      2136      2134      2137      2140
      2137      2140      2143      2144      2137      2140      2143      2145
      2137      2140      2143      2146      2138      2137      2140      2141
      2138      2137      2140      2142      2138      2137      2140      2143
      2139      2137      2140      2141      2139      2137      2140      2142
      2139      2137      2140      2143      2140      2143      2146      2147
      2140      2143      2146      2148      2140      2143      2146      2151
      2141      2140      2143      2144      2141      2140      2143      2145
      2141      2140      2143      2146      2142      2140      2143      2144
      2142      2140      2143      2145      2142      2140      2143      2146
      2143      2146      2148      2149      2143      2146      2148      2150
      2143      2146      2148      2151      2143      2146      2151      2148
      2143      2146      2151      2152      2143      2146      2151      2153
      2144      2143      2146      2147      2144      2143      2146      2148
      2144      2143      2146      2151      2145      2143      2146      2147
      2145      2143      2146      2148      2145      2143      2146      2151
      2146      2148      2151      2152      2146      2148      2151      2153
      2146      2151      2148      2149      2146      2151      2148      2150
      2146      2151      2153      2154      2146      2151      2153      2155
      2146      2151      2153      2156      2147      2146      2148      2149
      2147      2146      2148      2150      2147      2146      2148      2151
      2147      2146      2151      2148      2147      2146      2151      2152
      2147      2146      2151      2153      2148      2146      2151      2152
      2148      2146      2151      2153      2148      2151      2153      2154
      2148      2151      2153      2155      2148      2151      2153      2156
      2149      2148      2146      2151      2149      2148      2151      2152
      2149      2148      2151      2153      2150      2148      2146      2151
      2150      2148      2151      2152      2150      2148      2151      2153
      2151      2153      2156      2157      2151      2153      2156      2158
      2151      2153      2156      2159      2152      2151      2153      2154
      2152      2151      2153      2155      2152      2151      2153      2156
      2153      2156      2159      2160      2153      2156      2159      2161
      2153      2156      2159      2162      2154      2153      2156      2157
      2154      2153      2156      2158      2154      2153      2156      2159
      2155      2153      2156      2157      2155      2153      2156      2158
      2155      2153      2156      2159      2156      2159      2162      2163
      2156      2159      2162      2164      2156      2159      2162      2165
      2157      2156      2159      2160      2157      2156      2159      2161
      2157      2156      2159      2162      2158      2156      2159      2160
      2158      2156      2159      2161      2158      2156      2159      2162
      2159      2162      2165      2166      2159      2162      2165      2167
      2159      2162      2165      2168      2160      2159      2162      2163
      2160      2159      2162      2164      2160      2159      2162      2165
      2161      2159      2162      2163      2161      2159      2162      2164
      2161      2159      2162      2165      2162      2165      2168      2169
      2162      2165      2168      2170      2162      2165      2168      2171
      2163      2162      2165      2166      2163      2162      2165      2167
      2163      2162      2165      2168      2164      2162      2165      2166
      2164      2162      2165      2167      2164      2162      2165      2168
      2166      2165      2168      2169      2166      2165      2168      2170
      2166      2165      2168      2171      2167      2165      2168      2169
      2167      2165      2168      2170      2167      2165      2168      2171
      2172      2175      2178      2179      2172      2175      2178      2180
      2172      2175      2178      2181      2173      2172      2175      2176
      2173      2172      2175      2177      2173      2172      2175      2178
      2174      2172      2175      2176      2174      2172      2175      2177
      2174      2172      2175      2178      2175      2178      2181      2182
      2175      2178      2181      2183      2175      2178      2181      2184
      2176      2175      2178      2179      2176      2175      2178      2180
      2176      2175      2178      2181      2177      2175      2178      2179
      2177      2175      2178      2180      2177      2175      2178      2181
      2178      2181      2184      2185      2178      2181      2184      2186
      2178      2181      2184      2187      2179      2178      2181      2182
      2179      2178      2181      2183      2179      2178      2181      2184
      2180      2178      2181      2182      2180      2178      2181      2183
      2180      2178      2181      2184      2181      2184      2187      2188
      2181      2184      2187      2189      2181      2184      2187      2190
      2182      2181      2184      2185      2182      2181      2184      2186
      2182      2181      2184      2187      2183      2181      2184      2185
      2183      2181      2184      2186      2183      2181      2184      2187
      2184      2187      2190      2191      2184      2187      2190      2192
      2184      2187      2190      2193      2185      2184      2187      2188
      2185      2184      2187      2189      2185      2184      2187      2190
      2186      2184      2187      2188      2186      2184      2187      2189
      2186      2184      2187      2190      2187      2190      2193      2194
      2187      2190      2193      2195      2187      2190      2193      2196
      2188      2187      2190      2191      2188      2187      2190      2192
      2188      2187      2190      2193      2189      2187      2190      2191
      2189      2187      2190      2192      2189      2187      2190      2193
      2190      2193      2196      2197      2190      2193      2196      2198
      2190      2193      2196      2199      2191      2190      2193      2194
      2191      2190      2193      2195      2191      2190      2193      2196
      2192      2190      2193      2194      2192      2190      2193      2195
      2192      2190      2193      2196      2193      2196      2199      2200
      2193      2196      2199      2201      2193      2196      2199      2202
      2194      2193      2196      2197      2194      2193      2196      2198
      2194      2193      2196      2199      2195      2193      2196      2197
      2195      2193      2196      2198      2195      2193      2196      2199
      2196      2199      2202      2203      2196      2199      2202      2204
      2196      2199      2202      2205      2197      2196      2199      2200
      2197      2196      2199      2201      2197      2196      2199      2202
      2198      2196      2199      2200      2198      2196      2199      2201
      2198      2196      2199      2202      2199      2202      2205      2206
      2199      2202      2205      2207      2199      2202      2205      2208
      2200      2199      2202      2203      2200      2199      2202      2204
      2200      2199      2202      2205      2201      2199      2202      2203
      2201      2199      2202      2204      2201      2199      2202      2205
      2202      2205      2208      2209      2202      2205      2208      2210
      2202      2205      2208      2211      2203      2202      2205      2206
      2203      2202      2205      2207      2203      2202      2205      2208
      2204      2202      2205      2206      2204      2202      2205      2207
      2204      2202      2205      2208      2205      2208      2211      2212
      2205      2208      2211      2213      2205      2208      2211      2214
      2206      2205      2208      2209      2206      2205      2208      2210
      2206      2205      2208      2211      2207      2205      2208      2209
      2207      2205      2208      2210      2207      2205      2208      2211
      2209      2208      2211      2212      2209      2208      2211      2213
      2209      2208      2211      2214      2210      2208      2211      2212
      2210      2208      2211      2213      2210      2208      2211      2214
      2215      2220      2222      2223      2215      2220      2224      2225
      2215      2220      2224      2226      2215      2220      2224      2231
      2216      2215      2218      2219      2216      2215      2220      2221
      2216      2215      2220      2222      2216      2215      2220      2224
      2217      2215      2218      2219      2217      2215      2220      2221
      2217      2215      2220      2222      2217      2215      2220      2224
      2218      2215      2220      2221      2218      2215      2220      2222
      2218      2215      2220      2224      2219      2218      2215      2220
      2220      2224      2231      2227      2221      2220      2222      2223
      2221      2220      2224      2225      2221      2220      2224      2226
      2221      2220      2224      2231      2222      2220      2224      2225
      2222      2220      2224      2226      2222      2220      2224      2231
      2223      2222      2220      2224      2224      2231      2227      2228
      2224      2231      2227      2229      2224      2231      2227      2230
      2225      2224      2231      2227      2226      2224      2231      2227
      2227      2230      2232      2233      2227      2230      2232      2234
      2227      2230      2232      2235      2228      2227      2230      2232
      2229      2227      2230      2232      2230      2232      2235      2236
      2230      2232      2235      2237      2230      2232      2235      2243
      2231      2227      2230      2232      2232      2235      2237      2238
      2232      2235      2243      2244      2232      2235      2243      2245
      2232      2235      2243      2246      2233      2232      2235      2236
      2233      2232      2235      2237      2233      2232      2235      2243
      2234      2232      2235      2236      2234      2232      2235      2237
      2234      2232      2235      2243      2235      2237      2238      2239
      2235      2237      2238      2240      2235      2243      2246      2247
      2236      2235      2237      2238      2236      2235      2243      2244
      2236      2235      2243      2245      2236      2235      2243      2246
      2237      2235      2243      2244      2237      2235      2243      2245
      2237      2235      2243      2246      2237      2238      2240      2241
      2237      2238      2240      2242      2237      2238      2240      2252
      2238      2237      2235      2243      2238      2240      2252      2253
      2238      2240      2252      2254      2238      2240      2252      2255
      2239      2238      2240      2241      2239      2238      2240      2242
      2239      2238      2240      2252      2240      2252      2255      2256
      2240      2252      2255      2257      2240      2252      2255      2258
      2241      2240      2252      2253      2241      2240      2252      2254
      2241      2240      2252      2255      2242      2240      2252      2253
      2242      2240      2252      2254      2242      2240      2252      2255
      2243      2246      2247      2248      2243      2246      2247      2249
      2244      2243      2246      2247      2245      2243      2246      2247
      2246      2247      2249      2250      2246      2247      2249      2251
      2246      2247      2249      2293      2247      2249      2293      2294
      2247      2249      2293      2295      2247      2249      2293      2296
      2248      2247      2249      2250      2248      2247      2249      2251
      2248      2247      2249      2293      2249      2293      2296      2297
      2249      2293      2296      2298      2249      2293      2296      2299
      2250      2249      2293      2294      2250      2249      2293      2295
      2250      2249      2293      2296      2251      2249      2293      2294
      2251      2249      2293      2295      2251      2249      2293      2296
      2252      2255      2258      2259      2252      2255      2258      2260
      2252      2255      2258      2261      2253      2252      2255      2256
      2253      2252      2255      2257      2253      2252      2255      2258
      2254      2252      2255      2256      2254      2252      2255      2257
      2254      2252      2255      2258      2255      2258      2261      2262
      2255      2258      2261      2263      2255      2258      2261      2264
      2256      2255      2258      2259      2256      2255      2258      2260
      2256      2255      2258      2261      2257      2255      2258      2259
      2257      2255      2258      2260      2257      2255      2258      2261
      2258      2261      2264      2265      2258      2261      2264      2266
      2258      2261      2264      2267      2259      2258      2261      2262
      2259      2258      2261      2263      2259      2258      2261      2264
      2260      2258      2261      2262      2260      2258      2261      2263
      2260      2258      2261      2264      2261      2264      2267      2268
      2261      2264      2267      2269      2261      2264      2267      2270
      2262      2261      2264      2265      2262      2261      2264      2266
      2262      2261      2264      2267      2263      2261      2264      2265
      2263      2261      2264      2266      2263      2261      2264      2267
      2264      2267      2270      2271      2264      2267      2270      2272
      2265      2264      2267      2268      2265      2264      2267      2269
      2265      2264      2267      2270      2266      2264      2267      2268
      2266      2264      2267      2269      2266      2264      2267      2270
      2267      2270      2272      2273      2267      2270      2272      2274
      2268      2267      2270      2271      2268      2267      2270      2272
      2269      2267      2270      2271      2269      2267      2270      2272
      2270      2272      2274      2275      2270      2272      2274      2276
      2270      2272      2274      2277      2271      2270      2272      2273
      2271      2270      2272      2274      2272      2274      2277      2278
      2272      2274      2277      2279      2272      2274      2277      2280
      2273      2272      2274      2275      2273      2272      2274      2276
      2273      2272      2274      2277      2274      2277      2280      2281
      2274      2277      2280      2282      2274      2277      2280      2283
      2275      2274      2277      2278      2275      2274      2277      2279
      2275      2274      2277      2280      2276      2274      2277      2278
      2276      2274      2277      2279      2276      2274      2277      2280
      2277      2280      2283      2284      2277      2280      2283      2285
      2277      2280      2283      2286      2278      2277      2280      2281
      2278      2277      2280      2282      2278      2277      2280      2283
      2279      2277      2280      2281      2279      2277      2280      2282
      2279      2277      2280      2283      2280      2283      2286      2287
      2280      2283      2286      2288      2280      2283      2286      2289
      2281      2280      2283      2284      2281      2280      2283      2285
      2281      2280      2283      2286      2282      2280      2283      2284
      2282      2280      2283      2285      2282      2280      2283      2286
      2283      2286      2289      2290      2283      2286      2289      2291
      2283      2286      2289      2292      2284      2283      2286      2287
      2284      2283      2286      2288      2284      2283      2286      2289
      2285      2283      2286      2287      2285      2283      2286      2288
      2285      2283      2286      2289      2287      2286      2289      2290
      2287      2286      2289      2291      2287      2286      2289      2292
      2288      2286      2289      2290      2288      2286      2289      2291
      2288      2286      2289      2292      2293      2296      2299      2300
      2293      2296      2299      2301      2293      2296      2299      2302
      2294      2293      2296      2297      2294      2293      2296      2298
      2294      2293      2296      2299      2295      2293      2296      2297
      2295      2293      2296      2298      2295      2293      2296      2299
      2296      2299      2302      2303      2296      2299      2302      2304
      2296      2299      2302      2305      2297      2296      2299      2300
      2297      2296      2299      2301      2297      2296      2299      2302
      2298      2296      2299      2300      2298      2296      2299      2301
      2298      2296      2299      2302      2299      2302      2305      2306
      2299      2302      2305      2307      2299      2302      2305      2308
      2300      2299      2302      2303      2300      2299      2302      2304
      2300      2299      2302      2305      2301      2299      2302      2303
      2301      2299      2302      2304      2301      2299      2302      2305
      2302      2305      2308      2309      2302      2305      2308      2310
      2302      2305      2308      2311      2303      2302      2305      2306
      2303      2302      2305      2307      2303      2302      2305      2308
      2304      2302      2305      2306      2304      2302      2305      2307
      2304      2302      2305      2308      2305      2308      2311      2312
      2305      2308      2311      2313      2305      2308      2311      2314
      2306      2305      2308      2309      2306      2305      2308      2310
      2306      2305      2308      2311      2307      2305      2308      2309
      2307      2305      2308      2310      2307      2305      2308      2311
      2308      2311      2314      2315      2308      2311      2314      2316
      2308      2311      2314      2317      2309      2308      2311      2312
      2309      2308      2311      2313      2309      2308      2311      2314
      2310      2308      2311      2312      2310      2308      2311      2313
      2310      2308      2311      2314      2311      2314      2317      2318
      2311      2314      2317      2319      2311      2314      2317      2320
      2312      2311      2314      2315      2312      2311      2314      2316
      2312      2311      2314      2317      2313      2311      2314      2315
      2313      2311      2314      2316      2313      2311      2314      2317
      2314      2317      2320      2321      2314      2317      2320      2322
      2314      2317      2320      2323      2315      2314      2317      2318
      2315      2314      2317      2319      2315      2314      2317      2320
      2316      2314      2317      2318      2316      2314      2317      2319
      2316      2314      2317      2320      2317      2320      2323      2324
      2317      2320      2323      2325      2317      2320      2323      2326
      2318      2317      2320      2321      2318      2317      2320      2322
      2318      2317      2320      2323      2319      2317      2320      2321
      2319      2317      2320      2322      2319      2317      2320      2323
      2320      2323      2326      2327      2320      2323      2326      2328
      2320      2323      2326      2329      2321      2320      2323      2324
      2321      2320      2323      2325      2321      2320      2323      2326
      2322      2320      2323      2324      2322      2320      2323      2325
      2322      2320      2323      2326      2323      2326      2329      2330
      2323      2326      2329      2331      2323      2326      2329      2332
      2324      2323      2326      2327      2324      2323      2326      2328
      2324      2323      2326      2329      2325      2323      2326      2327
      2325      2323      2326      2328      2325      2323      2326      2329
      2326      2329      2332      2333      2326      2329      2332      2334
      2326      2329      2332      2335      2327      2326      2329      2330
      2327      2326      2329      2331      2327      2326      2329      2332
      2328      2326      2329      2330      2328      2326      2329      2331
      2328      2326      2329      2332      2330      2329      2332      2333
      2330      2329      2332      2334      2330      2329      2332      2335
      2331      2329      2332      2333      2331      2329      2332      2334
      2331      2329      2332      2335      2336      2340      2343      2344
      2336      2340      2343      2345      2336      2340      2343      2350
      2337      2336      2340      2341      2337      2336      2340      2342
      2337      2336      2340      2343      2338      2336      2340      2341
      2338      2336      2340      2342      2338      2336      2340      2343
      2339      2336      2340      2341      2339      2336      2340      2342
      2339      2336      2340      2343      2340      2343      2350      2346
      2341      2340      2343      2344      2341      2340      2343      2345
      2341      2340      2343      2350      2342      2340      2343      2344
      2342      2340      2343      2345      2342      2340      2343      2350
      2343      2350      2346      2347      2343      2350      2346      2348
      2343      2350      2346      2349      2344      2343      2350      2346
      2345      2343      2350      2346      2346      2349      2351      2352
      2346      2349      2351      2353      2346      2349      2351      2354
      2347      2346      2349      2351      2348      2346      2349      2351
      2349      2351      2354      2355      2349      2351      2354      2356
      2349      2351      2354      2362      2350      2346      2349      2351
      2351      2354      2356      2357      2351      2354      2362      2363
      2351      2354      2362      2364      2351      2354      2362      2365
      2352      2351      2354      2355      2352      2351      2354      2356
      2352      2351      2354      2362      2353      2351      2354      2355
      2353      2351      2354      2356      2353      2351      2354      2362
      2354      2356      2357      2358      2354      2356      2357      2359
      2354      2362      2365      2366      2355      2354      2356      2357
      2355      2354      2362      2363      2355      2354      2362      2364
      2355      2354      2362      2365      2356      2354      2362      2363
      2356      2354      2362      2364      2356      2354      2362      2365
      2356      2357      2359      2360      2356      2357      2359      2361
      2356      2357      2359      2371      2357      2356      2354      2362
      2357      2359      2371      2372      2357      2359      2371      2373
      2357      2359      2371      2374      2358      2357      2359      2360
      2358      2357      2359      2361      2358      2357      2359      2371
      2359      2371      2374      2375      2359      2371      2374      2376
      2359      2371      2374      2377      2360      2359      2371      2372
      2360      2359      2371      2373      2360      2359      2371      2374
      2361      2359      2371      2372      2361      2359      2371      2373
      2361      2359      2371      2374      2362      2365      2366      2367
      2362      2365      2366      2368      2363      2362      2365      2366
      2364      2362      2365      2366      2365      2366      2368      2369
      2365      2366      2368      2370      2365      2366      2368      2415
      2366      2368      2415      2416      2366      2368      2415      2417
      2366      2368      2415      2418      2367      2366      2368      2369
      2367      2366      2368      2370      2367      2366      2368      2415
      2368      2415      2418      2419      2368      2415      2418      2420
      2368      2415      2418      2421      2369      2368      2415      2416
      2369      2368      2415      2417      2369      2368      2415      2418
      2370      2368      2415      2416      2370      2368      2415      2417
      2370      2368      2415      2418      2371      2374      2377      2378
      2371      2374      2377      2379      2371      2374      2377      2380
      2372      2371      2374      2375      2372      2371      2374      2376
      2372      2371      2374      2377      2373      2371      2374      2375
      2373      2371      2374      2376      2373      2371      2374      2377
      2374      2377      2380      2381      2374      2377      2380      2382
      2374      2377      2380      2383      2375      2374      2377      2378
      2375      2374      2377      2379      2375      2374      2377      2380
      2376      2374      2377      2378      2376      2374      2377      2379
      2376      2374      2377      2380      2377      2380      2383      2384
      2377      2380      2383      2385      2377      2380      2383      2386
      2378      2377      2380      2381      2378      2377      2380      2382
      2378      2377      2380      2383      2379      2377      2380      2381
      2379      2377      2380      2382      2379      2377      2380      2383
      2380      2383      2386      2387      2380      2383      2386      2388
      2380      2383      2386      2389      2381      2380      2383      2384
      2381      2380      2383      2385      2381      2380      2383      2386
      2382      2380      2383      2384      2382      2380      2383      2385
      2382      2380      2383      2386      2383      2386      2389      2390
      2383      2386      2389      2391      2383      2386      2389      2394
      2384      2383      2386      2387      2384      2383      2386      2388
      2384      2383      2386      2389      2385      2383      2386      2387
      2385      2383      2386      2388      2385      2383      2386      2389
      2386      2389      2391      2392      2386      2389      2391      2393
      2386      2389      2391      2394      2386      2389      2394      2391
      2386      2389      2394      2395      2386      2389      2394      2396
      2387      2386      2389      2390      2387      2386      2389      2391
      2387      2386      2389      2394      2388      2386      2389      2390
      2388      2386      2389      2391      2388      2386      2389      2394
      2389      2391      2394      2395      2389      2391      2394      2396
      2389      2394      2391      2392      2389      2394      2391      2393
      2389      2394      2396      2397      2389      2394      2396      2398
      2389      2394      2396      2399      2390      2389      2391      2392
      2390      2389      2391      2393      2390      2389      2391      2394
      2390      2389      2394      2391      2390      2389      2394      2395
      2390      2389      2394      2396      2391      2389      2394      2395
      2391      2389      2394      2396      2391      2394      2396      2397
      2391      2394      2396      2398      2391      2394      2396      2399
      2392      2391      2389      2394      2392      2391      2394      2395
      2392      2391      2394      2396      2393      2391      2389      2394
      2393      2391      2394      2395      2393      2391      2394      2396
      2394      2396      2399      2400      2394      2396      2399      2401
      2394      2396      2399      2402      2395      2394      2396      2397
      2395      2394      2396      2398      2395      2394      2396      2399
      2396      2399      2402      2403      2396      2399      2402      2404
      2396      2399      2402      2405      2397      2396      2399      2400
      2397      2396      2399      2401      2397      2396      2399      2402
      2398      2396      2399      2400      2398      2396      2399      2401
      2398      2396      2399      2402      2399      2402      2405      2406
      2399      2402      2405      2407      2399      2402      2405      2408
      2400      2399      2402      2403      2400      2399      2402      2404
      2400      2399      2402      2405      2401      2399      2402      2403
      2401      2399      2402      2404      2401      2399      2402      2405
      2402      2405      2408      2409      2402      2405      2408      2410
      2402      2405      2408      2411      2403      2402      2405      2406
      2403      2402      2405      2407      2403      2402      2405      2408
      2404      2402      2405      2406      2404      2402      2405      2407
      2404      2402      2405      2408      2405      2408      2411      2412
      2405      2408      2411      2413      2405      2408      2411      2414
      2406      2405      2408      2409      2406      2405      2408      2410
      2406      2405      2408      2411      2407      2405      2408      2409
      2407      2405      2408      2410      2407      2405      2408      2411
      2409      2408      2411      2412      2409      2408      2411      2413
      2409      2408      2411      2414      2410      2408      2411      2412
      2410      2408      2411      2413      2410      2408      2411      2414
      2415      2418      2421      2422      2415      2418      2421      2423
      2415      2418      2421      2424      2416      2415      2418      2419
      2416      2415      2418      2420      2416      2415      2418      2421
      2417      2415      2418      2419      2417      2415      2418      2420
      2417      2415      2418      2421      2418      2421      2424      2425
      2418      2421      2424      2426      2418      2421      2424      2427
      2419      2418      2421      2422      2419      2418      2421      2423
      2419      2418      2421      2424      2420      2418      2421      2422
      2420      2418      2421      2423      2420      2418      2421      2424
      2421      2424      2427      2428      2421      2424      2427      2429
      2421      2424      2427      2430      2422      2421      2424      2425
      2422      2421      2424      2426      2422      2421      2424      2427
      2423      2421      2424      2425      2423      2421      2424      2426
      2423      2421      2424      2427      2424      2427      2430      2431
      2424      2427      2430      2432      2424      2427      2430      2433
      2425      2424      2427      2428      2425      2424      2427      2429
      2425      2424      2427      2430      2426      2424      2427      2428
      2426      2424      2427      2429      2426      2424      2427      2430
      2427      2430      2433      2434      2427      2430      2433      2435
      2427      2430      2433      2436      2428      2427      2430      2431
      2428      2427      2430      2432      2428      2427      2430      2433
      2429      2427      2430      2431      2429      2427      2430      2432
      2429      2427      2430      2433      2430      2433      2436      2437
      2430      2433      2436      2438      2430      2433      2436      2439
      2431      2430      2433      2434      2431      2430      2433      2435
      2431      2430      2433      2436      2432      2430      2433      2434
      2432      2430      2433      2435      2432      2430      2433      2436
      2433      2436      2439      2440      2433      2436      2439      2441
      2433      2436      2439      2442      2434      2433      2436      2437
      2434      2433      2436      2438      2434      2433      2436      2439
      2435      2433      2436      2437      2435      2433      2436      2438
      2435      2433      2436      2439      2436      2439      2442      2443
      2436      2439      2442      2444      2436      2439      2442      2445
      2437      2436      2439      2440      2437      2436      2439      2441
      2437      2436      2439      2442      2438      2436      2439      2440
      2438      2436      2439      2441      2438      2436      2439      2442
      2439      2442      2445      2446      2439      2442      2445      2447
      2439      2442      2445      2448      2440      2439      2442      2443
      2440      2439      2442      2444      2440      2439      2442      2445
      2441      2439      2442      2443      2441      2439      2442      2444
      2441      2439      2442      2445      2442      2445      2448      2449
      2442      2445      2448      2450      2442      2445      2448      2451
      2443      2442      2445      2446      2443      2442      2445      2447
      2443      2442      2445      2448      2444      2442      2445      2446
      2444      2442      2445      2447      2444      2442      2445      2448
      2445      2448      2451      2452      2445      2448      2451      2453
      2445      2448      2451      2454      2446      2445      2448      2449
      2446      2445      2448      2450      2446      2445      2448      2451
      2447      2445      2448      2449      2447      2445      2448      2450
      2447      2445      2448      2451      2449      2448      2451      2452
      2449      2448      2451      2453      2449      2448      2451      2454
      2450      2448      2451      2452      2450      2448      2451      2453
      2450      2448      2451      2454      2455      2459      2462      2463
      2455      2459      2462      2464      2455      2459      2462      2469
      2456      2455      2459      2460      2456      2455      2459      2461
      2456      2455      2459      2462      2457      2455      2459      2460
      2457      2455      2459      2461      2457      2455      2459      2462
      2458      2455      2459      2460      2458      2455      2459      2461
      2458      2455      2459      2462      2459      2462      2469      2465
      2460      2459      2462      2463      2460      2459      2462      2464
      2460      2459      2462      2469      2461      2459      2462      2463
      2461      2459      2462      2464      2461      2459      2462      2469
      2462      2469      2465      2466      2462      2469      2465      2467
      2462      2469      2465      2468      2463      2462      2469      2465
      2464      2462      2469      2465      2465      2468      2470      2471
      2465      2468      2470      2472      2465      2468      2470      2473
      2466      2465      2468      2470      2467      2465      2468      2470
      2468      2470      2473      2474      2468      2470      2473      2475
      2468      2470      2473      2481      2469      2465      2468      2470
      2470      2473      2475      2476      2470      2473      2481      2482
      2470      2473      2481      2483      2470      2473      2481      2484
      2471      2470      2473      2474      2471      2470      2473      2475
      2471      2470      2473      2481      2472      2470      2473      2474
      2472      2470      2473      2475      2472      2470      2473      2481
      2473      2475      2476      2477      2473      2475      2476      2478
      2473      2481      2484      2485      2474      2473      2475      2476
      2474      2473      2481      2482      2474      2473      2481      2483
      2474      2473      2481      2484      2475      2473      2481      2482
      2475      2473      2481      2483      2475      2473      2481      2484
      2475      2476      2478      2479      2475      2476      2478      2480
      2475      2476      2478      2490      2476      2475      2473      2481
      2476      2478      2490      2491      2476      2478      2490      2492
      2476      2478      2490      2493      2477      2476      2478      2479
      2477      2476      2478      2480      2477      2476      2478      2490
      2478      2490      2493      2494      2478      2490      2493      2495
      2478      2490      2493      2496      2479      2478      2490      2491
      2479      2478      2490      2492      2479      2478      2490      2493
      2480      2478      2490      2491      2480      2478      2490      2492
      2480      2478      2490      2493      2481      2484      2485      2486
      2481      2484      2485      2487      2482      2481      2484      2485
      2483      2481      2484      2485      2484      2485      2487      2488
      2484      2485      2487      2489      2484      2485      2487      2534
      2485      2487      2534      2535      2485      2487      2534      2536
      2485      2487      2534      2537      2486      2485      2487      2488
      2486      2485      2487      2489      2486      2485      2487      2534
      2487      2534      2537      2538      2487      2534      2537      2539
      2487      2534      2537      2540      2488      2487      2534      2535
      2488      2487      2534      2536      2488      2487      2534      2537
      2489      2487      2534      2535      2489      2487      2534      2536
      2489      2487      2534      2537      2490      2493      2496      2497
      2490      2493      2496      2498      2490      2493      2496      2499
      2491      2490      2493      2494      2491      2490      2493      2495
      2491      2490      2493      2496      2492      2490      2493      2494
      2492      2490      2493      2495      2492      2490      2493      2496
      2493      2496      2499      2500      2493      2496      2499      2501
      2493      2496      2499      2502      2494      2493      2496      2497
      2494      2493      2496      2498      2494      2493      2496      2499
      2495      2493      2496      2497      2495      2493      2496      2498
      2495      2493      2496      2499      2496      2499      2502      2503
      2496      2499      2502      2504      2496      2499      2502      2505
      2497      2496      2499      2500      2497      2496      2499      2501
      2497      2496      2499      2502      2498      2496      2499      2500
      2498      2496      2499      2501      2498      2496      2499      2502
      2499      2502      2505      2506      2499      2502      2505      2507
      2499      2502      2505      2508      2500      2499      2502      2503
      2500      2499      2502      2504      2500      2499      2502      2505
      2501      2499      2502      2503      2501      2499      2502      2504
      2501      2499      2502      2505      2502      2505      2508      2509
      2502      2505      2508      2510      2502      2505      2508      2513
      2503      2502      2505      2506      2503      2502      2505      2507
      2503      2502      2505      2508      2504      2502      2505      2506
      2504      2502      2505      2507      2504      2502      2505      2508
      2505      2508      2510      2511      2505      2508      2510      2512
      2505      2508      2510      2513      2505      2508      2513      2510
      2505      2508      2513      2514      2505      2508      2513      2515
      2506      2505      2508      2509      2506      2505      2508      2510
      2506      2505      2508      2513      2507      2505      2508      2509
      2507      2505      2508      2510      2507      2505      2508      2513
      2508      2510      2513      2514      2508      2510      2513      2515
      2508      2513      2510      2511      2508      2513      2510      2512
      2508      2513      2515      2516      2508      2513      2515      2517
      2508      2513      2515      2518      2509      2508      2510      2511
      2509      2508      2510      2512      2509      2508      2510      2513
      2509      2508      2513      2510      2509      2508      2513      2514
      2509      2508      2513      2515      2510      2508      2513      2514
      2510      2508      2513      2515      2510      2513      2515      2516
      2510      2513      2515      2517      2510      2513      2515      2518
      2511      2510      2508      2513      2511      2510      2513      2514
      2511      2510      2513      2515      2512      2510      2508      2513
      2512      2510      2513      2514      2512      2510      2513      2515
      2513      2515      2518      2519      2513      2515      2518      2520
      2513      2515      2518      2521      2514      2513      2515      2516
      2514      2513      2515      2517      2514      2513      2515      2518
      2515      2518      2521      2522      2515      2518      2521      2523
      2515      2518      2521      2524      2516      2515      2518      2519
      2516      2515      2518      2520      2516      2515      2518      2521
      2517      2515      2518      2519      2517      2515      2518      2520
      2517      2515      2518      2521      2518      2521      2524      2525
      2518      2521      2524      2526      2518      2521      2524      2527
      2519      2518      2521      2522      2519      2518      2521      2523
      2519      2518      2521      2524      2520      2518      2521      2522
      2520      2518      2521      2523      2520      2518      2521      2524
      2521      2524      2527      2528      2521      2524      2527      2529
      2521      2524      2527      2530      2522      2521      2524      2525
      2522      2521      2524      2526      2522      2521      2524      2527
      2523      2521      2524      2525      2523      2521      2524      2526
      2523      2521      2524      2527      2524      2527      2530      2531
      2524      2527      2530      2532      2524      2527      2530      2533
      2525      2524      2527      2528      2525      2524      2527      2529
      2525      2524      2527      2530      2526      2524      2527      2528
      2526      2524      2527      2529      2526      2524      2527      2530
      2528      2527      2530      2531      2528      2527      2530      2532
      2528      2527      2530      2533      2529      2527      2530      2531
      2529      2527      2530      2532      2529      2527      2530      2533
      2534      2537      2540      2541      2534      2537      2540      2542
      2534      2537      2540      2543      2535      2534      2537      2538
      2535      2534      2537      2539      2535      2534      2537      2540
      2536      2534      2537      2538      2536      2534      2537      2539
      2536      2534      2537      2540      2537      2540      2543      2544
      2537      2540      2543      2545      2537      2540      2543      2546
      2538      2537      2540      2541      2538      2537      2540      2542
      2538      2537      2540      2543      2539      2537      2540      2541
      2539      2537      2540      2542      2539      2537      2540      2543
      2540      2543      2546      2547      2540      2543      2546      2548
      2540      2543      2546      2549      2541      2540      2543      2544
      2541      2540      2543      2545      2541      2540      2543      2546
      2542      2540      2543      2544      2542      2540      2543      2545
      2542      2540      2543      2546      2543      2546      2549      2550
      2543      2546      2549      2551      2543      2546      2549      2552
      2544      2543      2546      2547      2544      2543      2546      2548
      2544      2543      2546      2549      2545      2543      2546      2547
      2545      2543      2546      2548      2545      2543      2546      2549
      2546      2549      2552      2553      2546      2549      2552      2554
      2546      2549      2552      2555      2547      2546      2549      2550
      2547      2546      2549      2551      2547      2546      2549      2552
      2548      2546      2549      2550      2548      2546      2549      2551
      2548      2546      2549      2552      2549      2552      2555      2556
      2549      2552      2555      2557      2549      2552      2555      2558
      2550      2549      2552      2553      2550      2549      2552      2554
      2550      2549      2552      2555      2551      2549      2552      2553
      2551      2549      2552      2554      2551      2549      2552      2555
      2552      2555      2558      2559      2552      2555      2558      2560
      2552      2555      2558      2561      2553      2552      2555      2556
      2553      2552      2555      2557      2553      2552      2555      2558
      2554      2552      2555      2556      2554      2552      2555      2557
      2554      2552      2555      2558      2555      2558      2561      2562
      2555      2558      2561      2563      2555      2558      2561      2564
      2556      2555      2558      2559      2556      2555      2558      2560
      2556      2555      2558      2561      2557      2555      2558      2559
      2557      2555      2558      2560      2557      2555      2558      2561
      2558      2561      2564      2565      2558      2561      2564      2566
      2558      2561      2564      2567      2559      2558      2561      2562
      2559      2558      2561      2563      2559      2558      2561      2564
      2560      2558      2561      2562      2560      2558      2561      2563
      2560      2558      2561      2564      2561      2564      2567      2568
      2561      2564      2567      2569      2561      2564      2567      2570
      2562      2561      2564      2565      2562      2561      2564      2566
      2562      2561      2564      2567      2563      2561      2564      2565
      2563      2561      2564      2566      2563      2561      2564      2567
      2564      2567      2570      2571      2564      2567      2570      2572
      2564      2567      2570      2573      2565      2564      2567      2568
      2565      2564      2567      2569      2565      2564      2567      2570
      2566      2564      2567      2568      2566      2564      2567      2569
      2566      2564      2567      2570      2567      2570      2573      2574
      2567      2570      2573      2575      2567      2570      2573      2576
      2568      2567      2570      2571      2568      2567      2570      2572
      2568      2567      2570      2573      2569      2567      2570      2571
      2569      2567      2570      2572      2569      2567      2570      2573
      2571      2570      2573      2574      2571      2570      2573      2575
      2571      2570      2573      2576      2572      2570      2573      2574
      2572      2570      2573      2575      2572      2570      2573      2576
      2577      2581      2584      2585      2577      2581      2584      2586
      2577      2581      2584      2591      2578      2577      2581      2582
      2578      2577      2581      2583      2578      2577      2581      2584
      2579      2577      2581      2582      2579      2577      2581      2583
      2579      2577      2581      2584      2580      2577      2581      2582
      2580      2577      2581      2583      2580      2577      2581      2584
      2581      2584      2591      2587      2582      2581      2584      2585
      2582      2581      2584      2586      2582      2581      2584      2591
      2583      2581      2584      2585      2583      2581      2584      2586
      2583      2581      2584      2591      2584      2591      2587      2588
      2584      2591      2587      2589      2584      2591      2587      2590
      2585      2584      2591      2587      2586      2584      2591      2587
      2587      2590      2592      2593      2587      2590      2592      2594
      2587      2590      2592      2595      2588      2587      2590      2592
      2589      2587      2590      2592      2590      2592      2595      2596
      2590      2592      2595      2597      2590      2592      2595      2603
      2591      2587      2590      2592      2592      2595      2597      2598
      2592      2595      2603      2604      2592      2595      2603      2605
      2592      2595      2603      2606      2593      2592      2595      2596
      2593      2592      2595      2597      2593      2592      2595      2603
      2594      2592      2595      2596      2594      2592      2595      2597
      2594      2592      2595      2603      2595      2597      2598      2599
      2595      2597      2598      2600      2595      2603      2606      2607
      2596      2595      2597      2598      2596      2595      2603      2604
      2596      2595      2603      2605      2596      2595      2603      2606
      2597      2595      2603      2604      2597      2595      2603      2605
      2597      2595      2603      2606      2597      2598      2600      2601
      2597      2598      2600      2602      2597      2598      2600      2612
      2598      2597      2595      2603      2598      2600      2612      2613
      2598      2600      2612      2614      2598      2600      2612      2615
      2599      2598      2600      2601      2599      2598      2600      2602
      2599      2598      2600      2612      2600      2612      2615      2616
      2600      2612      2615      2617      2600      2612      2615      2618
      2601      2600      2612      2613      2601      2600      2612      2614
      2601      2600      2612      2615      2602      2600      2612      2613
      2602      2600      2612      2614      2602      2600      2612      2615
      2603      2606      2607      2608      2603      2606      2607      2609
      2604      2603      2606      2607      2605      2603      2606      2607
      2606      2607      2609      2610      2606      2607      2609      2611
      2606      2607      2609      2656      2607      2609      2656      2657
      2607      2609      2656      2658      2607      2609      2656      2659
      2608      2607      2609      2610      2608      2607      2609      2611
      2608      2607      2609      2656      2609      2656      2659      2660
      2609      2656      2659      2661      2609      2656      2659      2662
      2610      2609      2656      2657      2610      2609      2656      2658
      2610      2609      2656      2659      2611      2609      2656      2657
      2611      2609      2656      2658      2611      2609      2656      2659
      2612      2615      2618      2619      2612      2615      2618      2620
      2612      2615      2618      2621      2613      2612      2615      2616
      2613      2612      2615      2617      2613      2612      2615      2618
      2614      2612      2615      2616      2614      2612      2615      2617
      2614      2612      2615      2618      2615      2618      2621      2622
      2615      2618      2621      2623      2615      2618      2621      2624
      2616      2615      2618      2619      2616      2615      2618      2620
      2616      2615      2618      2621      2617      2615      2618      2619
      2617      2615      2618      2620      2617      2615      2618      2621
      2618      2621      2624      2625      2618      2621      2624      2626
      2618      2621      2624      2627      2619      2618      2621      2622
      2619      2618      2621      2623      2619      2618      2621      2624
      2620      2618      2621      2622      2620      2618      2621      2623
      2620      2618      2621      2624      2621      2624      2627      2628
      2621      2624      2627      2629      2621      2624      2627      2630
      2622      2621      2624      2625      2622      2621      2624      2626
      2622      2621      2624      2627      2623      2621      2624      2625
      2623      2621      2624      2626      2623      2621      2624      2627
      2624      2627      2630      2631      2624      2627      2630      2632
      2624      2627      2630      2635      2625      2624      2627      2628
      2625      2624      2627      2629      2625      2624      2627      2630
      2626      2624      2627      2628      2626      2624      2627      2629
      2626      2624      2627      2630      2627      2630      2632      2633
      2627      2630      2632      2634      2627      2630      2632      2635
      2627      2630      2635      2632      2627      2630      2635      2636
      2627      2630      2635      2637      2628      2627      2630      2631
      2628      2627      2630      2632      2628      2627      2630      2635
      2629      2627      2630      2631      2629      2627      2630      2632
      2629      2627      2630      2635      2630      2632      2635      2636
      2630      2632      2635      2637      2630      2635      2632      2633
      2630      2635      2632      2634      2630      2635      2637      2638
      2630      2635      2637      2639      2630      2635      2637      2640
      2631      2630      2632      2633      2631      2630      2632      2634
      2631      2630      2632      2635      2631      2630      2635      2632
      2631      2630      2635      2636      2631      2630      2635      2637
      2632      2630      2635      2636      2632      2630      2635      2637
      2632      2635      2637      2638      2632      2635      2637      2639
      2632      2635      2637      2640      2633      2632      2630      2635
      2633      2632      2635      2636      2633      2632      2635      2637
      2634      2632      2630      2635      2634      2632      2635      2636
      2634      2632      2635      2637      2635      2637      2640      2641
      2635      2637      2640      2642      2635      2637      2640      2643
      2636      2635      2637      2638      2636      2635      2637      2639
      2636      2635      2637      2640      2637      2640      2643      2644
      2637      2640      2643      2645      2637      2640      2643      2646
      2638      2637      2640      2641      2638      2637      2640      2642
      2638      2637      2640      2643      2639      2637      2640      2641
      2639      2637      2640      2642      2639      2637      2640      2643
      2640      2643      2646      2647      2640      2643      2646      2648
      2640      2643      2646      2649      2641      2640      2643      2644
      2641      2640      2643      2645      2641      2640      2643      2646
      2642      2640      2643      2644      2642      2640      2643      2645
      2642      2640      2643      2646      2643      2646      2649      2650
      2643      2646      2649      2651      2643      2646      2649      2652
      2644      2643      2646      2647      2644      2643      2646      2648
      2644      2643      2646      2649      2645      2643      2646      2647
      2645      2643      2646      2648      2645      2643      2646      2649
      2646      2649      2652      2653      2646      2649      2652      2654
      2646      2649      2652      2655      2647      2646      2649      2650
      2647      2646      2649      2651      2647      2646      2649      2652
      2648      2646      2649      2650      2648      2646      2649      2651
      2648      2646      2649      2652      2650      2649      2652      2653
      2650      2649      2652      2654      2650      2649      2652      2655
      2651      2649      2652      2653      2651      2649      2652      2654
      2651      2649      2652      2655      2656      2659      2662      2663
      2656      2659      2662      2664      2656      2659      2662      2665
      2657      2656      2659      2660      2657      2656      2659      2661
      2657      2656      2659      2662      2658      2656      2659      2660
      2658      2656      2659      2661      2658      2656      2659      2662
      2659      2662      2665      2666      2659      2662      2665      2667
      2659      2662      2665      2668      2660      2659      2662      2663
      2660      2659      2662      2664      2660      2659      2662      2665
      2661      2659      2662      2663      2661      2659      2662      2664
      2661      2659      2662      2665      2662      2665      2668      2669
      2662      2665      2668      2670      2662      2665      2668      2671
      2663      2662      2665      2666      2663      2662      2665      2667
      2663      2662      2665      2668      2664      2662      2665      2666
      2664      2662      2665      2667      2664      2662      2665      2668
      2665      2668      2671      2672      2665      2668      2671      2673
      2665      2668      2671      2674      2666      2665      2668      2669
      2666      2665      2668      2670      2666      2665      2668      2671
      2667      2665      2668      2669      2667      2665      2668      2670
      2667      2665      2668      2671      2668      2671      2674      2675
      2668      2671      2674      2676      2668      2671      2674      2677
      2669      2668      2671      2672      2669      2668      2671      2673
      2669      2668      2671      2674      2670      2668      2671      2672
      2670      2668      2671      2673      2670      2668      2671      2674
      2671      2674      2677      2678      2671      2674      2677      2679
      2671      2674      2677      2680      2672      2671      2674      2675
      2672      2671      2674      2676      2672      2671      2674      2677
      2673      2671      2674      2675      2673      2671      2674      2676
      2673      2671      2674      2677      2674      2677      2680      2681
      2674      2677      2680      2682      2674      2677      2680      2683
      2675      2674      2677      2678      2675      2674      2677      2679
      2675      2674      2677      2680      2676      2674      2677      2678
      2676      2674      2677      2679      2676      2674      2677      2680
      2677      2680      2683      2684      2677      2680      2683      2685
      2677      2680      2683      2686      2678      2677      2680      2681
      2678      2677      2680      2682      2678      2677      2680      2683
      2679      2677      2680      2681      2679      2677      2680      2682
      2679      2677      2680      2683      2680      2683      2686      2687
      2680      2683      2686      2688      2680      2683      2686      2689
      2681      2680      2683      2684      2681      2680      2683      2685
      2681      2680      2683      2686      2682      2680      2683      2684
      2682      2680      2683      2685      2682      2680      2683      2686
      2683      2686      2689      2690      2683      2686      2689      2691
      2683      2686      2689      2692      2684      2683      2686      2687
      2684      2683      2686      2688      2684      2683      2686      2689
      2685      2683      2686      2687      2685      2683      2686      2688
      2685      2683      2686      2689      2686      2689      2692      2693
      2686      2689      2692      2694      2686      2689      2692      2695
      2687      2686      2689      2690      2687      2686      2689      2691
      2687      2686      2689      2692      2688      2686      2689      2690
      2688      2686      2689      2691      2688      2686      2689      2692
      2689      2692      2695      2696      2689      2692      2695      2697
      2689      2692      2695      2698      2690      2689      2692      2693
      2690      2689      2692      2694      2690      2689      2692      2695
      2691      2689      2692      2693      2691      2689      2692      2694
      2691      2689      2692      2695      2693      2692      2695      2696
      2693      2692      2695      2697      2693      2692      2695      2698
      2694      2692      2695      2696      2694      2692      2695      2697
      2694      2692      2695      2698      2699      2704      2706      2707
      2699      2704      2708      2709      2699      2704      2708      2710
      2699      2704      2708      2715      2700      2699      2702      2703
      2700      2699      2704      2705      2700      2699      2704      2706
      2700      2699      2704      2708      2701      2699      2702      2703
      2701      2699      2704      2705      2701      2699      2704      2706
      2701      2699      2704      2708      2702      2699      2704      2705
      2702      2699      2704      2706      2702      2699      2704      2708
      2703      2702      2699      2704      2704      2708      2715      2711
      2705      2704      2706      2707      2705      2704      2708      2709
      2705      2704      2708      2710      2705      2704      2708      2715
      2706      2704      2708      2709      2706      2704      2708      2710
      2706      2704      2708      2715      2707      2706      2704      2708
      2708      2715      2711      2712      2708      2715      2711      2713
      2708      2715      2711      2714      2709      2708      2715      2711
      2710      2708      2715      2711      2711      2714      2716      2717
      2711      2714      2716      2718      2711      2714      2716      2719
      2712      2711      2714      2716      2713      2711      2714      2716
      2714      2716      2719      2720      2714      2716      2719      2721
      2714      2716      2719      2727      2715      2711      2714      2716
      2716      2719      2721      2722      2716      2719      2727      2728
      2716      2719      2727      2729      2716      2719      2727      2730
      2717      2716      2719      2720      2717      2716      2719      2721
      2717      2716      2719      2727      2718      2716      2719      2720
      2718      2716      2719      2721      2718      2716      2719      2727
      2719      2721      2722      2723      2719      2721      2722      2724
      2719      2727      2730      2731      2720      2719      2721      2722
      2720      2719      2727      2728      2720      2719      2727      2729
      2720      2719      2727      2730      2721      2719      2727      2728
      2721      2719      2727      2729      2721      2719      2727      2730
      2721      2722      2724      2725      2721      2722      2724      2726
      2721      2722      2724      2736      2722      2721      2719      2727
      2722      2724      2736      2737      2722      2724      2736      2738
      2722      2724      2736      2739      2723      2722      2724      2725
      2723      2722      2724      2726      2723      2722      2724      2736
      2724      2736      2739      2740      2724      2736      2739      2741
      2724      2736      2739      2742      2725      2724      2736      2737
      2725      2724      2736      2738      2725      2724      2736      2739
      2726      2724      2736      2737      2726      2724      2736      2738
      2726      2724      2736      2739      2727      2730      2731      2732
      2727      2730      2731      2733      2728      2727      2730      2731
      2729      2727      2730      2731      2730      2731      2733      2734
      2730      2731      2733      2735      2730      2731      2733      2777
      2731      2733      2777      2778      2731      2733      2777      2779
      2731      2733      2777      2780      2732      2731      2733      2734
      2732      2731      2733      2735      2732      2731      2733      2777
      2733      2777      2780      2781      2733      2777      2780      2782
      2733      2777      2780      2783      2734      2733      2777      2778
      2734      2733      2777      2779      2734      2733      2777      2780
      2735      2733      2777      2778      2735      2733      2777      2779
      2735      2733      2777      2780      2736      2739      2742      2743
      2736      2739      2742      2744      2736      2739      2742      2745
      2737      2736      2739      2740      2737      2736      2739      2741
      2737      2736      2739      2742      2738      2736      2739      2740
      2738      2736      2739      2741      2738      2736      2739      2742
      2739      2742      2745      2746      2739      2742      2745      2747
      2739      2742      2745      2748      2740      2739      2742      2743
      2740      2739      2742      2744      2740      2739      2742      2745
      2741      2739      2742      2743      2741      2739      2742      2744
      2741      2739      2742      2745      2742      2745      2748      2749
      2742      2745      2748      2750      2742      2745      2748      2751
      2743      2742      2745      2746      2743      2742      2745      2747
      2743      2742      2745      2748      2744      2742      2745      2746
      2744      2742      2745      2747      2744      2742      2745      2748
      2745      2748      2751      2752      2745      2748      2751      2753
      2745      2748      2751      2754      2746      2745      2748      2749
      2746      2745      2748      2750      2746      2745      2748      2751
      2747      2745      2748      2749      2747      2745      2748      2750
      2747      2745      2748      2751      2748      2751      2754      2755
      2748      2751      2754      2756      2749      2748      2751      2752
      2749      2748      2751      2753      2749      2748      2751      2754
      2750      2748      2751      2752      2750      2748      2751      2753
      2750      2748      2751      2754      2751      2754      2756      2757
      2751      2754      2756      2758      2752      2751      2754      2755
      2752      2751      2754      2756      2753      2751      2754      2755
      2753      2751      2754      2756      2754      2756      2758      2759
      2754      2756      2758      2760      2754      2756      2758      2761
      2755      2754      2756      2757      2755      2754      2756      2758
      2756      2758      2761      2762      2756      2758      2761      2763
      2756      2758      2761      2764      2757      2756      2758      2759
      2757      2756      2758      2760      2757      2756      2758      2761
      2758      2761      2764      2765      2758      2761      2764      2766
      2758      2761      2764      2767      2759      2758      2761      2762
      2759      2758      2761      2763      2759      2758      2761      2764
      2760      2758      2761      2762      2760      2758      2761      2763
      2760      2758      2761      2764      2761      2764      2767      2768
      2761      2764      2767      2769      2761      2764      2767      2770
      2762      2761      2764      2765      2762      2761      2764      2766
      2762      2761      2764      2767      2763      2761      2764      2765
      2763      2761      2764      2766      2763      2761      2764      2767
      2764      2767      2770      2771      2764      2767      2770      2772
      2764      2767      2770      2773      2765      2764      2767      2768
      2765      2764      2767      2769      2765      2764      2767      2770
      2766      2764      2767      2768      2766      2764      2767      2769
      2766      2764      2767      2770      2767      2770      2773      2774
      2767      2770      2773      2775      2767      2770      2773      2776
      2768      2767      2770      2771      2768      2767      2770      2772
      2768      2767      2770      2773      2769      2767      2770      2771
      2769      2767      2770      2772      2769      2767      2770      2773
      2771      2770      2773      2774      2771      2770      2773      2775
      2771      2770      2773      2776      2772      2770      2773      2774
      2772      2770      2773      2775      2772      2770      2773      2776
      2777      2780      2783      2784      2777      2780      2783      2785
      2777      2780      2783      2786      2778      2777      2780      2781
      2778      2777      2780      2782      2778      2777      2780      2783
      2779      2777      2780      2781      2779      2777      2780      2782
      2779      2777      2780      2783      2780      2783      2786      2787
      2780      2783      2786      2788      2780      2783      2786      2789
      2781      2780      2783      2784      2781      2780      2783      2785
      2781      2780      2783      2786      2782      2780      2783      2784
      2782      2780      2783      2785      2782      2780      2783      2786
      2783      2786      2789      2790      2783      2786      2789      2791
      2783      2786      2789      2792      2784      2783      2786      2787
      2784      2783      2786      2788      2784      2783      2786      2789
      2785      2783      2786      2787      2785      2783      2786      2788
      2785      2783      2786      2789      2786      2789      2792      2793
      2786      2789      2792      2794      2786      2789      2792      2795
      2787      2786      2789      2790      2787      2786      2789      2791
      2787      2786      2789      2792      2788      2786      2789      2790
      2788      2786      2789      2791      2788      2786      2789      2792
      2789      2792      2795      2796      2789      2792      2795      2797
      2789      2792      2795      2798      2790      2789      2792      2793
      2790      2789      2792      2794      2790      2789      2792      2795
      2791      2789      2792      2793      2791      2789      2792      2794
      2791      2789      2792      2795      2792      2795      2798      2799
      2792      2795      2798      2800      2792      2795      2798      2801
      2793      2792      2795      2796      2793      2792      2795      2797
      2793      2792      2795      2798      2794      2792      2795      2796
      2794      2792      2795      2797      2794      2792      2795      2798
      2795      2798      2801      2802      2795      2798      2801      2803
      2795      2798      2801      2804      2796      2795      2798      2799
      2796      2795      2798      2800      2796      2795      2798      2801
      2797      2795      2798      2799      2797      2795      2798      2800
      2797      2795      2798      2801      2798      2801      2804      2805
      2798      2801      2804      2806      2798      2801      2804      2807
      2799      2798      2801      2802      2799      2798      2801      2803
      2799      2798      2801      2804      2800      2798      2801      2802
      2800      2798      2801      2803      2800      2798      2801      2804
      2801      2804      2807      2808      2801      2804      2807      2809
      2801      2804      2807      2810      2802      2801      2804      2805
      2802      2801      2804      2806      2802      2801      2804      2807
      2803      2801      2804      2805      2803      2801      2804      2806
      2803      2801      2804      2807      2804      2807      2810      2811
      2804      2807      2810      2812      2804      2807      2810      2813
      2805      2804      2807      2808      2805      2804      2807      2809
      2805      2804      2807      2810      2806      2804      2807      2808
      2806      2804      2807      2809      2806      2804      2807      2810
      2807      2810      2813      2814      2807      2810      2813      2815
      2807      2810      2813      2816      2808      2807      2810      2811
      2808      2807      2810      2812      2808      2807      2810      2813
      2809      2807      2810      2811      2809      2807      2810      2812
      2809      2807      2810      2813      2810      2813      2816      2817
      2810      2813      2816      2818      2810      2813      2816      2819
      2811      2810      2813      2814      2811      2810      2813      2815
      2811      2810      2813      2816      2812      2810      2813      2814
      2812      2810      2813      2815      2812      2810      2813      2816
      2814      2813      2816      2817      2814      2813      2816      2818
      2814      2813      2816      2819      2815      2813      2816      2817
      2815      2813      2816      2818      2815      2813      2816      2819
      2820      2826      2823      2824      2820      2826      2823      2825
      2820      2826      2823      2827      2820      2831      2833      2834
      2820      2831      2835      2836      2820      2831      2835      2837
      2820      2831      2835      2841      2821      2820      2826      2823
      2821      2820      2831      2832      2821      2820      2831      2833
      2821      2820      2831      2835      2822      2820      2826      2823
      2822      2820      2831      2832      2822      2820      2831      2833
      2822      2820      2831      2835      2823      2826      2820      2831
      2823      2827      2828      2829      2823      2827      2828      2830
      2823      2827      2828      2863      2824      2823      2827      2828
      2825      2823      2827      2828      2826      2820      2831      2832
      2826      2820      2831      2833      2826      2820      2831      2835
      2826      2823      2827      2828      2827      2828      2863      2864
      2827      2828      2863      2865      2827      2828      2863      2871
      2828      2863      2865      2866      2828      2863      2871      2872
      2828      2863      2871      2873      2828      2863      2871      2874
      2829      2828      2863      2864      2829      2828      2863      2865
      2829      2828      2863      2871      2830      2828      2863      2864
      2830      2828      2863      2865      2830      2828      2863      2871
      2831      2835      2841      2838      2832      2831      2833      2834
      2832      2831      2835      2836      2832      2831      2835      2837
      2832      2831      2835      2841      2833      2831      2835      2836
      2833      2831      2835      2837      2833      2831      2835      2841
      2834      2833      2831      2835      2835      2841      2838      2839
      2835      2841      2838      2840      2835      2841      2838      2842
      2836      2835      2841      2838      2837      2835      2841      2838
      2838      2842      2843      2844      2838      2842      2843      2845
      2838      2842      2843      2846      2839      2838      2842      2843
      2840      2838      2842      2843      2841      2838      2842      2843
      2842      2843      2846      2847      2842      2843      2846      2848
      2842      2843      2846      2854      2843      2846      2848      2849
      2843      2846      2854      2855      2843      2846      2854      2856
      2843      2846      2854      2857      2844      2843      2846      2847
      2844      2843      2846      2848      2844      2843      2846      2854
      2845      2843      2846      2847      2845      2843      2846      2848
      2845      2843      2846      2854      2846      2848      2849      2850
      2846      2848      2849      2851      2846      2854      2857      2858
      2847      2846      2848      2849      2847      2846      2854      2855
      2847      2846      2854      2856      2847      2846      2854      2857
      2848      2846      2854      2855      2848      2846      2854      2856
      2848      2846      2854      2857      2848      2849      2851      2852
      2848      2849      2851      2853      2848      2849      2851      2880
      2849      2848      2846      2854      2849      2851      2880      2881
      2849      2851      2880      2882      2849      2851      2880      2883
      2850      2849      2851      2852      2850      2849      2851      2853
      2850      2849      2851      2880      2851      2880      2883      2884
      2851      2880      2883      2885      2851      2880      2883      2886
      2852      2851      2880      2881      2852      2851      2880      2882
      2852      2851      2880      2883      2853      2851      2880      2881
      2853      2851      2880      2882      2853      2851      2880      2883
      2854      2857      2858      2859      2854      2857      2858      2860
      2855      2854      2857      2858      2856      2854      2857      2858
      2857      2858      2860      2861      2857      2858      2860      2862
      2857      2858      2860      2927      2858      2860      2927      2928
      2858      2860      2927      2929      2858      2860      2927      2930
      2859      2858      2860      2861      2859      2858      2860      2862
      2859      2858      2860      2927      2860      2927      2930      2931
      2860      2927      2930      2932      2860      2927      2930      2933
      2861      2860      2927      2928      2861      2860      2927      2929
      2861      2860      2927      2930      2862      2860      2927      2928
      2862      2860      2927      2929      2862      2860      2927      2930
      2863      2865      2866      2867      2863      2865      2866      2868
      2863      2871      2874      2875      2864      2863      2865      2866
      2864      2863      2871      2872      2864      2863      2871      2873
      2864      2863      2871      2874      2865      2863      2871      2872
      2865      2863      2871      2873      2865      2863      2871      2874
      2865      2866      2868      2869      2865      2866      2868      2870
      2865      2866      2868      2970      2866      2865      2863      2871
      2866      2868      2970      2971      2866      2868      2970      2972
      2866      2868      2970      2973      2867      2866      2868      2869
      2867      2866      2868      2870      2867      2866      2868      2970
      2868      2970      2973      2974      2868      2970      2973      2975
      2868      2970      2973      2976      2869      2868      2970      2971
      2869      2868      2970      2972      2869      2868      2970      2973
      2870      2868      2970      2971      2870      2868      2970      2972
      2870      2868      2970      2973      2871      2874      2875      2876
      2871      2874      2875      2877      2872      2871      2874      2875
      2873      2871      2874      2875      2874      2875      2877      2878
      2874      2875      2877      2879      2874      2875      2877      3017
      2875      2877      3017      3018      2875      2877      3017      3019
      2875      2877      3017      3020      2876      2875      2877      2878
      2876      2875      2877      2879      2876      2875      2877      3017
      2877      3017      3020      3021      2877      3017      3020      3022
      2877      3017      3020      3023      2878      2877      3017      3018
      2878      2877      3017      3019      2878      2877      3017      3020
      2879      2877      3017      3018      2879      2877      3017      3019
      2879      2877      3017      3020      2880      2883      2886      2887
      2880      2883      2886      2888      2880      2883      2886      2889
      2881      2880      2883      2884      2881      2880      2883      2885
      2881      2880      2883      2886      2882      2880      2883      2884
      2882      2880      2883      2885      2882      2880      2883      2886
      2883      2886      2889      2890      2883      2886      2889      2891
      2883      2886      2889      2892      2884      2883      2886      2887
      2884      2883      2886      2888      2884      2883      2886      2889
      2885      2883      2886      2887      2885      2883      2886      2888
      2885      2883      2886      2889      2886      2889      2892      2893
      2886      2889      2892      2894      2886      2889      2892      2895
      2887      2886      2889      2890      2887      2886      2889      2891
      2887      2886      2889      2892      2888      2886      2889      2890
      2888      2886      2889      2891      2888      2886      2889      2892
      2889      2892      2895      2896      2889      2892      2895      2897
      2889      2892      2895      2898      2890      2889      2892      2893
      2890      2889      2892      2894      2890      2889      2892      2895
      2891      2889      2892      2893      2891      2889      2892      2894
      2891      2889      2892      2895      2892      2895      2898      2899
      2892      2895      2898      2900      2892      2895      2898      2901
      2893      2892      2895      2896      2893      2892      2895      2897
      2893      2892      2895      2898      2894      2892      2895      2896
      2894      2892      2895      2897      2894      2892      2895      2898
      2895      2898      2901      2902      2895      2898      2901      2903
      2895      2898      2901      2904      2896      2895      2898      2899
      2896      2895      2898      2900      2896      2895      2898      2901
      2897      2895      2898      2899      2897      2895      2898      2900
      2897      2895      2898      2901      2898      2901      2904      2905
      2898      2901      2904      2906      2899      2898      2901      2902
      2899      2898      2901      2903      2899      2898      2901      2904
      2900      2898      2901      2902      2900      2898      2901      2903
      2900      2898      2901      2904      2901      2904      2906      2907
      2901      2904      2906      2908      2902      2901      2904      2905
      2902      2901      2904      2906      2903      2901      2904      2905
      2903      2901      2904      2906      2904      2906      2908      2909
      2904      2906      2908      2910      2904      2906      2908      2911
      2905      2904      2906      2907      2905      2904      2906      2908
      2906      2908      2911      2912      2906      2908      2911      2913
      2906      2908      2911      2914      2907      2906      2908      2909
      2907      2906      2908      2910      2907      2906      2908      2911
      2908      2911      2914      2915      2908      2911      2914      2916
      2908      2911      2914      2917      2909      2908      2911      2912
      2909      2908      2911      2913      2909      2908      2911      2914
      2910      2908      2911      2912      2910      2908      2911      2913
      2910      2908      2911      2914      2911      2914      2917      2918
      2911      2914      2917      2919      2911      2914      2917      2920
      2912      2911      2914      2915      2912      2911      2914      2916
      2912      2911      2914      2917      2913      2911      2914      2915
      2913      2911      2914      2916      2913      2911      2914      2917
      2914      2917      2920      2921      2914      2917      2920      2922
      2914      2917      2920      2923      2915      2914      2917      2918
      2915      2914      2917      2919      2915      2914      2917      2920
      2916      2914      2917      2918      2916      2914      2917      2919
      2916      2914      2917      2920      2917      2920      2923      2924
      2917      2920      2923      2925      2917      2920      2923      2926
      2918      2917      2920      2921      2918      2917      2920      2922
      2918      2917      2920      2923      2919      2917      2920      2921
      2919      2917      2920      2922      2919      2917      2920      2923
      2921      2920      2923      2924      2921      2920      2923      2925
      2921      2920      2923      2926      2922      2920      2923      2924
      2922      2920      2923      2925      2922      2920      2923      2926
      2927      2930      2933      2934      2927      2930      2933      2935
      2927      2930      2933      2936      2928      2927      2930      2931
      2928      2927      2930      2932      2928      2927      2930      2933
      2929      2927      2930      2931      2929      2927      2930      2932
      2929      2927      2930      2933      2930      2933      2936      2937
      2930      2933      2936      2938      2930      2933      2936      2939
      2931      2930      2933      2934      2931      2930      2933      2935
      2931      2930      2933      2936      2932      2930      2933      2934
      2932      2930      2933      2935      2932      2930      2933      2936
      2933      2936      2939      2940      2933      2936      2939      2941
      2933      2936      2939      2942      2934      2933      2936      2937
      2934      2933      2936      2938      2934      2933      2936      2939
      2935      2933      2936      2937      2935      2933      2936      2938
      2935      2933      2936      2939      2936      2939      2942      2943
      2936      2939      2942      2944      2936      2939      2942      2945
      2937      2936      2939      2940      2937      2936      2939      2941
      2937      2936      2939      2942      2938      2936      2939      2940
      2938      2936      2939      2941      2938      2936      2939      2942
      2939      2942      2945      2946      2939      2942      2945      2947
      2939      2942      2945      2948      2940      2939      2942      2943
      2940      2939      2942      2944      2940      2939      2942      2945
      2941      2939      2942      2943      2941      2939      2942      2944
      2941      2939      2942      2945      2942      2945      2948      2949
      2942      2945      2948      2950      2942      2945      2948      2951
      2943      2942      2945      2946      2943      2942      2945      2947
      2943      2942      2945      2948      2944      2942      2945      2946
      2944      2942      2945      2947      2944      2942      2945      2948
      2945      2948      2951      2952      2945      2948      2951      2953
      2945      2948      2951      2954      2946      2945      2948      2949
      2946      2945      2948      2950      2946      2945      2948      2951
      2947      2945      2948      2949      2947      2945      2948      2950
      2947      2945      2948      2951      2948      2951      2954      2955
      2948      2951      2954      2956      2948      2951      2954      2957
      2949      2948      2951      2952      2949      2948      2951      2953
      2949      2948      2951      2954      2950      2948      2951      2952
      2950      2948      2951      2953      2950      2948      2951      2954
      2951      2954      2957      2958      2951      2954      2957      2959
      2951      2954      2957      2960      2952      2951      2954      2955
      2952      2951      2954      2956      2952      2951      2954      2957
      2953      2951      2954      2955      2953      2951      2954      2956
      2953      2951      2954      2957      2954      2957      2960      2961
      2954      2957      2960      2962      2954      2957      2960      2963
      2955      2954      2957      2958      2955      2954      2957      2959
      2955      2954      2957      2960      2956      2954      2957      2958
      2956      2954      2957      2959      2956      2954      2957      2960
      2957      2960      2963      2964      2957      2960      2963      2965
      2957      2960      2963      2966      2958      2957      2960      2961
      2958      2957      2960      2962      2958      2957      2960      2963
      2959      2957      2960      2961      2959      2957      2960      2962
      2959      2957      2960      2963      2960      2963      2966      2967
      2960      2963      2966      2968      2960      2963      2966      2969
      2961      2960      2963      2964      2961      2960      2963      2965
      2961      2960      2963      2966      2962      2960      2963      2964
      2962      2960      2963      2965      2962      2960      2963      2966
      2964      2963      2966      2967      2964      2963      2966      2968
      2964      2963      2966      2969      2965      2963      2966      2967
      2965      2963      2966      2968      2965      2963      2966      2969
      2970      2973      2976      2977      2970      2973      2976      2978
      2970      2973      2976      2979      2971      2970      2973      2974
      2971      2970      2973      2975      2971      2970      2973      2976
      2972      2970      2973      2974      2972      2970      2973      2975
      2972      2970      2973      2976      2973      2976      2979      2980
      2973      2976      2979      2981      2973      2976      2979      2982
      2974      2973      2976      2977      2974      2973      2976      2978
      2974      2973      2976      2979      2975      2973      2976      2977
      2975      2973      2976      2978      2975      2973      2976      2979
      2976      2979      2982      2983      2976      2979      2982      2984
      2976      2979      2982      2985      2977      2976      2979      2980
      2977      2976      2979      2981      2977      2976      2979      2982
      2978      2976      2979      2980      2978      2976      2979      2981
      2978      2976      2979      2982      2979      2982      2985      2986
      2979      2982      2985      2987      2979      2982      2985      2988
      2980      2979      2982      2983      2980      2979      2982      2984
      2980      2979      2982      2985      2981      2979      2982      2983
      2981      2979      2982      2984      2981      2979      2982      2985
      2982      2985      2988      2989      2982      2985      2988      2990
      2982      2985      2988      2991      2983      2982      2985      2986
      2983      2982      2985      2987      2983      2982      2985      2988
      2984      2982      2985      2986      2984      2982      2985      2987
      2984      2982      2985      2988      2985      2988      2991      2992
      2985      2988      2991      2993      2985      2988      2991      2994
      2986      2985      2988      2989      2986      2985      2988      2990
      2986      2985      2988      2991      2987      2985      2988      2989
      2987      2985      2988      2990      2987      2985      2988      2991
      2988      2991      2994      2995      2988      2991      2994      2996
      2989      2988      2991      2992      2989      2988      2991      2993
      2989      2988      2991      2994      2990      2988      2991      2992
      2990      2988      2991      2993      2990      2988      2991      2994
      2991      2994      2996      2997      2991      2994      2996      2998
      2992      2991      2994      2995      2992      2991      2994      2996
      2993      2991      2994      2995      2993      2991      2994      2996
      2994      2996      2998      2999      2994      2996      2998      3000
      2994      2996      2998      3001      2995      2994      2996      2997
      2995      2994      2996      2998      2996      2998      3001      3002
      2996      2998      3001      3003      2996      2998      3001      3004
      2997      2996      2998      2999      2997      2996      2998      3000
      2997      2996      2998      3001      2998      3001      3004      3005
      2998      3001      3004      3006      2998      3001      3004      3007
      2999      2998      3001      3002      2999      2998      3001      3003
      2999      2998      3001      3004      3000      2998      3001      3002
      3000      2998      3001      3003      3000      2998      3001      3004
      3001      3004      3007      3008      3001      3004      3007      3009
      3001      3004      3007      3010      3002      3001      3004      3005
      3002      3001      3004      3006      3002      3001      3004      3007
      3003      3001      3004      3005      3003      3001      3004      3006
      3003      3001      3004      3007      3004      3007      3010      3011
      3004      3007      3010      3012      3004      3007      3010      3013
      3005      3004      3007      3008      3005      3004      3007      3009
      3005      3004      3007      3010      3006      3004      3007      3008
      3006      3004      3007      3009      3006      3004      3007      3010
      3007      3010      3013      3014      3007      3010      3013      3015
      3007      3010      3013      3016      3008      3007      3010      3011
      3008      3007      3010      3012      3008      3007      3010      3013
      3009      3007      3010      3011      3009      3007      3010      3012
      3009      3007      3010      3013      3011      3010      3013      3014
      3011      3010      3013      3015      3011      3010      3013      3016
      3012      3010      3013      3014      3012      3010      3013      3015
      3012      3010      3013      3016      3017      3020      3023      3024
      3017      3020      3023      3025      3017      3020      3023      3026
      3018      3017      3020      3021      3018      3017      3020      3022
      3018      3017      3020      3023      3019      3017      3020      3021
      3019      3017      3020      3022      3019      3017      3020      3023
      3020      3023      3026      3027      3020      3023      3026      3028
      3020      3023      3026      3029      3021      3020      3023      3024
      3021      3020      3023      3025      3021      3020      3023      3026
      3022      3020      3023      3024      3022      3020      3023      3025
      3022      3020      3023      3026      3023      3026      3029      3030
      3023      3026      3029      3031      3023      3026      3029      3032
      3024      3023      3026      3027      3024      3023      3026      3028
      3024      3023      3026      3029      3025      3023      3026      3027
      3025      3023      3026      3028      3025      3023      3026      3029
      3026      3029      3032      3033      3026      3029      3032      3034
      3026      3029      3032      3035      3027      3026      3029      3030
      3027      3026      3029      3031      3027      3026      3029      3032
      3028      3026      3029      3030      3028      3026      3029      3031
      3028      3026      3029      3032      3029      3032      3035      3036
      3029      3032      3035      3037      3029      3032      3035      3038
      3030      3029      3032      3033      3030      3029      3032      3034
      3030      3029      3032      3035      3031      3029      3032      3033
      3031      3029      3032      3034      3031      3029      3032      3035
      3032      3035      3038      3039      3032      3035      3038      3040
      3032      3035      3038      3041      3033      3032      3035      3036
      3033      3032      3035      3037      3033      3032      3035      3038
      3034      3032      3035      3036      3034      3032      3035      3037
      3034      3032      3035      3038      3035      3038      3041      3042
      3035      3038      3041      3043      3035      3038      3041      3044
      3036      3035      3038      3039      3036      3035      3038      3040
      3036      3035      3038      3041      3037      3035      3038      3039
      3037      3035      3038      3040      3037      3035      3038      3041
      3038      3041      3044      3045      3038      3041      3044      3046
      3038      3041      3044      3047      3039      3038      3041      3042
      3039      3038      3041      3043      3039      3038      3041      3044
      3040      3038      3041      3042      3040      3038      3041      3043
      3040      3038      3041      3044      3041      3044      3047      3048
      3041      3044      3047      3049      3041      3044      3047      3050
      3042      3041      3044      3045      3042      3041      3044      3046
      3042      3041      3044      3047      3043      3041      3044      3045
      3043      3041      3044      3046      3043      3041      3044      3047
      3044      3047      3050      3051      3044      3047      3050      3052
      3044      3047      3050      3053      3045      3044      3047      3048
      3045      3044      3047      3049      3045      3044      3047      3050
      3046      3044      3047      3048      3046      3044      3047      3049
      3046      3044      3047      3050      3047      3050      3053      3054
      3047      3050      3053      3055      3047      3050      3053      3056
      3048      3047      3050      3051      3048      3047      3050      3052
      3048      3047      3050      3053      3049      3047      3050      3051
      3049      3047      3050      3052      3049      3047      3050      3053
      3050      3053      3056      3057      3050      3053      3056      3058
      3050      3053      3056      3059      3051      3050      3053      3054
      3051      3050      3053      3055      3051      3050      3053      3056
      3052      3050      3053      3054      3052      3050      3053      3055
      3052      3050      3053      3056      3054      3053      3056      3057
      3054      3053      3056      3058      3054      3053      3056      3059
      3055      3053      3056      3057      3055      3053      3056      3058
      3055      3053      3056      3059      3060      3064      3067      3068
      3060      3064      3067      3069      3060      3064      3067      3074
      3061      3060      3064      3065      3061      3060      3064      3066
      3061      3060      3064      3067      3062      3060      3064      3065
      3062      3060      3064      3066      3062      3060      3064      3067
      3063      3060      3064      3065      3063      3060      3064      3066
      3063      3060      3064      3067      3064      3067      3074      3070
      3065      3064      3067      3068      3065      3064      3067      3069
      3065      3064      3067      3074      3066      3064      3067      3068
      3066      3064      3067      3069      3066      3064      3067      3074
      3067      3074      3070      3071      3067      3074      3070      3072
      3067      3074      3070      3073      3068      3067      3074      3070
      3069      3067      3074      3070      3070      3073      3075      3076
      3070      3073      3075      3077      3070      3073      3075      3078
      3071      3070      3073      3075      3072      3070      3073      3075
      3073      3075      3078      3079      3073      3075      3078      3080
      3073      3075      3078      3086      3074      3070      3073      3075
      3075      3078      3080      3081      3075      3078      3086      3087
      3075      3078      3086      3088      3075      3078      3086      3089
      3076      3075      3078      3079      3076      3075      3078      3080
      3076      3075      3078      3086      3077      3075      3078      3079
      3077      3075      3078      3080      3077      3075      3078      3086
      3078      3080      3081      3082      3078      3080      3081      3083
      3078      3086      3089      3090      3079      3078      3080      3081
      3079      3078      3086      3087      3079      3078      3086      3088
      3079      3078      3086      3089      3080      3078      3086      3087
      3080      3078      3086      3088      3080      3078      3086      3089
      3080      3081      3083      3084      3080      3081      3083      3085
      3080      3081      3083      3095      3081      3080      3078      3086
      3081      3083      3095      3096      3081      3083      3095      3097
      3081      3083      3095      3098      3082      3081      3083      3084
      3082      3081      3083      3085      3082      3081      3083      3095
      3083      3095      3098      3099      3083      3095      3098      3100
      3083      3095      3098      3101      3084      3083      3095      3096
      3084      3083      3095      3097      3084      3083      3095      3098
      3085      3083      3095      3096      3085      3083      3095      3097
      3085      3083      3095      3098      3086      3089      3090      3091
      3086      3089      3090      3092      3087      3086      3089      3090
      3088      3086      3089      3090      3089      3090      3092      3093
      3089      3090      3092      3094      3089      3090      3092      3142
      3090      3092      3142      3143      3090      3092      3142      3144
      3090      3092      3142      3145      3091      3090      3092      3093
      3091      3090      3092      3094      3091      3090      3092      3142
      3092      3142      3145      3146      3092      3142      3145      3147
      3092      3142      3145      3148      3093      3092      3142      3143
      3093      3092      3142      3144      3093      3092      3142      3145
      3094      3092      3142      3143      3094      3092      3142      3144
      3094      3092      3142      3145      3095      3098      3101      3102
      3095      3098      3101      3103      3095      3098      3101      3104
      3096      3095      3098      3099      3096      3095      3098      3100
      3096      3095      3098      3101      3097      3095      3098      3099
      3097      3095      3098      3100      3097      3095      3098      3101
      3098      3101      3104      3105      3098      3101      3104      3106
      3098      3101      3104      3107      3099      3098      3101      3102
      3099      3098      3101      3103      3099      3098      3101      3104
      3100      3098      3101      3102      3100      3098      3101      3103
      3100      3098      3101      3104      3101      3104      3107      3108
      3101      3104      3107      3109      3101      3104      3107      3110
      3102      3101      3104      3105      3102      3101      3104      3106
      3102      3101      3104      3107      3103      3101      3104      3105
      3103      3101      3104      3106      3103      3101      3104      3107
      3104      3107      3110      3111      3104      3107      3110      3112
      3104      3107      3110      3113      3105      3104      3107      3108
      3105      3104      3107      3109      3105      3104      3107      3110
      3106      3104      3107      3108      3106      3104      3107      3109
      3106      3104      3107      3110      3107      3110      3113      3114
      3107      3110      3113      3115      3108      3107      3110      3111
      3108      3107      3110      3112      3108      3107      3110      3113
      3109      3107      3110      3111      3109      3107      3110      3112
      3109      3107      3110      3113      3110      3113      3115      3116
      3110      3113      3115      3117      3111      3110      3113      3114
      3111      3110      3113      3115      3112      3110      3113      3114
      3112      3110      3113      3115      3113      3115      3117      3118
      3113      3115      3117      3119      3113      3115      3117      3120
      3114      3113      3115      3116      3114      3113      3115      3117
      3115      3117      3120      3121      3115      3117      3120      3122
      3115      3117      3120      3123      3116      3115      3117      3118
      3116      3115      3117      3119      3116      3115      3117      3120
      3117      3120      3123      3124      3117      3120      3123      3125
      3117      3120      3123      3126      3118      3117      3120      3121
      3118      3117      3120      3122      3118      3117      3120      3123
      3119      3117      3120      3121      3119      3117      3120      3122
      3119      3117      3120      3123      3120      3123      3126      3127
      3120      3123      3126      3128      3120      3123      3126      3129
      3121      3120      3123      3124      3121      3120      3123      3125
      3121      3120      3123      3126      3122      3120      3123      3124
      3122      3120      3123      3125      3122      3120      3123      3126
      3123      3126      3129      3130      3123      3126      3129      3131
      3123      3126      3129      3132      3124      3123      3126      3127
      3124      3123      3126      3128      3124      3123      3126      3129
      3125      3123      3126      3127      3125      3123      3126      3128
      3125      3123      3126      3129      3126      3129      3132      3133
      3126      3129      3132      3134      3126      3129      3132      3135
      3127      3126      3129      3130      3127      3126      3129      3131
      3127      3126      3129      3132      3128      3126      3129      3130
      3128      3126      3129      3131      3128      3126      3129      3132
      3129      3132      3135      3136      3129      3132      3135      3137
      3129      3132      3135      3138      3130      3129      3132      3133
      3130      3129      3132      3134      3130      3129      3132      3135
      3131      3129      3132      3133      3131      3129      3132      3134
      3131      3129      3132      3135      3132      3135      3138      3139
      3132      3135      3138      3140      3132      3135      3138      3141
      3133      3132      3135      3136      3133      3132      3135      3137
      3133      3132      3135      3138      3134      3132      3135      3136
      3134      3132      3135      3137      3134      3132      3135      3138
      3136      3135      3138      3139      3136      3135      3138      3140
      3136      3135      3138      3141      3137      3135      3138      3139
      3137      3135      3138      3140      3137      3135      3138      3141
      3142      3145      3148      3149      3142      3145      3148      3150
      3142      3145      3148      3151      3143      3142      3145      3146
      3143      3142      3145      3147      3143      3142      3145      3148
      3144      3142      3145      3146      3144      3142      3145      3147
      3144      3142      3145      3148      3145      3148      3151      3152
      3145      3148      3151      3153      3145      3148      3151      3154
      3146      3145      3148      3149      3146      3145      3148      3150
      3146      3145      3148      3151      3147      3145      3148      3149
      3147      3145      3148      3150      3147      3145      3148      3151
      3148      3151      3154      3155      3148      3151      3154      3156
      3148      3151      3154      3157      3149      3148      3151      3152
      3149      3148      3151      3153      3149      3148      3151      3154
      3150      3148      3151      3152      3150      3148      3151      3153
      3150      3148      3151      3154      3151      3154      3157      3158
      3151      3154      3157      3159      3151      3154      3157      3160
      3152      3151      3154      3155      3152      3151      3154      3156
      3152      3151      3154      3157      3153      3151      3154      3155
      3153      3151      3154      3156      3153      3151      3154      3157
      3154      3157      3160      3161      3154      3157      3160      3162
      3154      3157      3160      3163      3155      3154      3157      3158
      3155      3154      3157      3159      3155      3154      3157      3160
      3156      3154      3157      3158      3156      3154      3157      3159
      3156      3154      3157      3160      3157      3160      3163      3164
      3157      3160      3163      3165      3157      3160      3163      3166
      3158      3157      3160      3161      3158      3157      3160      3162
      3158      3157      3160      3163      3159      3157      3160      3161
      3159      3157      3160      3162      3159      3157      3160      3163
      3160      3163      3166      3167      3160      3163      3166      3168
      3160      3163      3166      3169      3161      3160      3163      3164
      3161      3160      3163      3165      3161      3160      3163      3166
      3162      3160      3163      3164      3162      3160      3163      3165
      3162      3160      3163      3166      3163      3166      3169      3170
      3163      3166      3169      3171      3163      3166      3169      3172
      3164      3163      3166      3167      3164      3163      3166      3168
      3164      3163      3166      3169      3165      3163      3166      3167
      3165      3163      3166      3168      3165      3163      3166      3169
      3166      3169      3172      3173      3166      3169      3172      3174
      3166      3169      3172      3175      3167      3166      3169      3170
      3167      3166      3169      3171      3167      3166      3169      3172
      3168      3166      3169      3170      3168      3166      3169      3171
      3168      3166      3169      3172      3169      3172      3175      3176
      3169      3172      3175      3177      3169      3172      3175      3178
      3170      3169      3172      3173      3170      3169      3172      3174
      3170      3169      3172      3175      3171      3169      3172      3173
      3171      3169      3172      3174      3171      3169      3172      3175
      3172      3175      3178      3179      3172      3175      3178      3180
      3172      3175      3178      3181      3173      3172      3175      3176
      3173      3172      3175      3177      3173      3172      3175      3178
      3174      3172      3175      3176      3174      3172      3175      3177
      3174      3172      3175      3178      3175      3178      3181      3182
      3175      3178      3181      3183      3175      3178      3181      3184
      3176      3175      3178      3179      3176      3175      3178      3180
      3176      3175      3178      3181      3177      3175      3178      3179
      3177      3175      3178      3180      3177      3175      3178      3181
      3179      3178      3181      3182      3179      3178      3181      3183
      3179      3178      3181      3184      3180      3178      3181      3182
      3180      3178      3181      3183      3180      3178      3181      3184
      3185      3189      3192      3193      3185      3189      3192      3194
      3185      3189      3192      3199      3186      3185      3189      3190
      3186      3185      3189      3191      3186      3185      3189      3192
      3187      3185      3189      3190      3187      3185      3189      3191
      3187      3185      3189      3192      3188      3185      3189      3190
      3188      3185      3189      3191      3188      3185      3189      3192
      3189      3192      3199      3195      3190      3189      3192      3193
      3190      3189      3192      3194      3190      3189      3192      3199
      3191      3189      3192      3193      3191      3189      3192      3194
      3191      3189      3192      3199      3192      3199      3195      3196
      3192      3199      3195      3197      3192      3199      3195      3198
      3193      3192      3199      3195      3194      3192      3199      3195
      3195      3198      3200      3201      3195      3198      3200      3202
      3195      3198      3200      3203      3196      3195      3198      3200
      3197      3195      3198      3200      3198      3200      3203      3204
      3198      3200      3203      3205      3198      3200      3203      3211
      3199      3195      3198      3200      3200      3203      3205      3206
      3200      3203      3211      3212      3200      3203      3211      3213
      3200      3203      3211      3214      3201      3200      3203      3204
      3201      3200      3203      3205      3201      3200      3203      3211
      3202      3200      3203      3204      3202      3200      3203      3205
      3202      3200      3203      3211      3203      3205      3206      3207
      3203      3205      3206      3208      3203      3211      3214      3215
      3204      3203      3205      3206      3204      3203      3211      3212
      3204      3203      3211      3213      3204      3203      3211      3214
      3205      3203      3211      3212      3205      3203      3211      3213
      3205      3203      3211      3214      3205      3206      3208      3209
      3205      3206      3208      3210      3205      3206      3208      3220
      3206      3205      3203      3211      3206      3208      3220      3221
      3206      3208      3220      3222      3206      3208      3220      3223
      3207      3206      3208      3209      3207      3206      3208      3210
      3207      3206      3208      3220      3208      3220      3223      3224
      3208      3220      3223      3225      3208      3220      3223      3226
      3209      3208      3220      3221      3209      3208      3220      3222
      3209      3208      3220      3223      3210      3208      3220      3221
      3210      3208      3220      3222      3210      3208      3220      3223
      3211      3214      3215      3216      3211      3214      3215      3217
      3212      3211      3214      3215      3213      3211      3214      3215
      3214      3215      3217      3218      3214      3215      3217      3219
      3214      3215      3217      3261      3215      3217      3261      3262
      3215      3217      3261      3263      3215      3217      3261      3264
      3216      3215      3217      3218      3216      3215      3217      3219
      3216      3215      3217      3261      3217      3261      3264      3265
      3217      3261      3264      3266      3217      3261      3264      3267
      3218      3217      3261      3262      3218      3217      3261      3263
      3218      3217      3261      3264      3219      3217      3261      3262
      3219      3217      3261      3263      3219      3217      3261      3264
      3220      3223      3226      3227      3220      3223      3226      3228
      3220      3223      3226      3229      3221      3220      3223      3224
      3221      3220      3223      3225      3221      3220      3223      3226
      3222      3220      3223      3224      3222      3220      3223      3225
      3222      3220      3223      3226      3223      3226      3229      3230
      3223      3226      3229      3231      3223      3226      3229      3232
      3224      3223      3226      3227      3224      3223      3226      3228
      3224      3223      3226      3229      3225      3223      3226      3227
      3225      3223      3226      3228      3225      3223      3226      3229
      3226      3229      3232      3233      3226      3229      3232      3234
      3226      3229      3232      3235      3227      3226      3229      3230
      3227      3226      3229      3231      3227      3226      3229      3232
      3228      3226      3229      3230      3228      3226      3229      3231
      3228      3226      3229      3232      3229      3232      3235      3236
      3229      3232      3235      3237      3229      3232      3235      3238
      3230      3229      3232      3233      3230      3229      3232      3234
      3230      3229      3232      3235      3231      3229      3232      3233
      3231      3229      3232      3234      3231      3229      3232      3235
      3232      3235      3238      3239      3232      3235      3238      3240
      3233      3232      3235      3236      3233      3232      3235      3237
      3233      3232      3235      3238      3234      3232      3235      3236
      3234      3232      3235      3237      3234      3232      3235      3238
      3235      3238      3240      3241      3235      3238      3240      3242
      3236      3235      3238      3239      3236      3235      3238      3240
      3237      3235      3238      3239      3237      3235      3238      3240
      3238      3240      3242      3243      3238      3240      3242      3244
      3238      3240      3242      3245      3239      3238      3240      3241
      3239      3238      3240      3242      3240      3242      3245      3246
      3240      3242      3245      3247      3240      3242      3245      3248
      3241      3240      3242      3243      3241      3240      3242      3244
      3241      3240      3242      3245      3242      3245      3248      3249
      3242      3245      3248      3250      3242      3245      3248      3251
      3243      3242      3245      3246      3243      3242      3245      3247
      3243      3242      3245      3248      3244      3242      3245      3246
      3244      3242      3245      3247      3244      3242      3245      3248
      3245      3248      3251      3252      3245      3248      3251      3253
      3245      3248      3251      3254      3246      3245      3248      3249
      3246      3245      3248      3250      3246      3245      3248      3251
      3247      3245      3248      3249      3247      3245      3248      3250
      3247      3245      3248      3251      3248      3251      3254      3255
      3248      3251      3254      3256      3248      3251      3254      3257
      3249      3248      3251      3252      3249      3248      3251      3253
      3249      3248      3251      3254      3250      3248      3251      3252
      3250      3248      3251      3253      3250      3248      3251      3254
      3251      3254      3257      3258      3251      3254      3257      3259
      3251      3254      3257      3260      3252      3251      3254      3255
      3252      3251      3254      3256      3252      3251      3254      3257
      3253      3251      3254      3255      3253      3251      3254      3256
      3253      3251      3254      3257      3255      3254      3257      3258
      3255      3254      3257      3259      3255      3254      3257      3260
      3256      3254      3257      3258      3256      3254      3257      3259
      3256      3254      3257      3260      3261      3264      3267      3268
      3261      3264      3267      3269      3261      3264      3267      3270
      3262      3261      3264      3265      3262      3261      3264      3266
      3262      3261      3264      3267      3263      3261      3264      3265
      3263      3261      3264      3266      3263      3261      3264      3267
      3264      3267      3270      3271      3264      3267      3270      3272
      3264      3267      3270      3273      3265      3264      3267      3268
      3265      3264      3267      3269      3265      3264      3267      3270
      3266      3264      3267      3268      3266      3264      3267      3269
      3266      3264      3267      3270      3267      3270      3273      3274
      3267      3270      3273      3275      3267      3270      3273      3276
      3268      3267      3270      3271      3268      3267      3270      3272
      3268      3267      3270      3273      3269      3267      3270      3271
      3269      3267      3270      3272      3269      3267      3270      3273
      3270      3273      3276      3277      3270      3273      3276      3278
      3270      3273      3276      3279      3271      3270      3273      3274
      3271      3270      3273      3275      3271      3270      3273      3276
      3272      3270      3273      3274      3272      3270      3273      3275
      3272      3270      3273      3276      3273      3276      3279      3280
      3273      3276      3279      3281      3274      3273      3276      3277
      3274      3273      3276      3278      3274      3273      3276      3279
      3275      3273      3276      3277      3275      3273      3276      3278
      3275      3273      3276      3279      3276      3279      3281      3282
      3276      3279      3281      3283      3277      3276      3279      3280
      3277      3276      3279      3281      3278      3276      3279      3280
      3278      3276      3279      3281      3279      3281      3283      3284
      3279      3281      3283      3285      3279      3281      3283      3286
      3280      3279      3281      3282      3280      3279      3281      3283
      3281      3283      3286      3287      3281      3283      3286      3288
      3281      3283      3286      3289      3282      3281      3283      3284
      3282      3281      3283      3285      3282      3281      3283      3286
      3283      3286      3289      3290      3283      3286      3289      3291
      3283      3286      3289      3292      3284      3283      3286      3287
      3284      3283      3286      3288      3284      3283      3286      3289
      3285      3283      3286      3287      3285      3283      3286      3288
      3285      3283      3286      3289      3286      3289      3292      3293
      3286      3289      3292      3294      3286      3289      3292      3295
      3287      3286      3289      3290      3287      3286      3289      3291
      3287      3286      3289      3292      3288      3286      3289      3290
      3288      3286      3289      3291      3288      3286      3289      3292
      3289      3292      3295      3296      3289      3292      3295      3297
      3289      3292      3295      3298      3290      3289      3292      3293
      3290      3289      3292      3294      3290      3289      3292      3295
      3291      3289      3292      3293      3291      3289      3292      3294
      3291      3289      3292      3295      3292      3295      3298      3299
      3292      3295      3298      3300      3292      3295      3298      3301
      3293      3292      3295      3296      3293      3292      3295      3297
      3293      3292      3295      3298      3294      3292      3295      3296
      3294      3292      3295      3297      3294      3292      3295      3298
      3295      3298      3301      3302      3295      3298      3301      3303
      3295      3298      3301      3304      3296      3295      3298      3299
      3296      3295      3298      3300      3296      3295      3298      3301
      3297      3295      3298      3299      3297      3295      3298      3300
      3297      3295      3298      3301      3298      3301      3304      3305
      3298      3301      3304      3306      3298      3301      3304      3307
      3299      3298      3301      3302      3299      3298      3301      3303
      3299      3298      3301      3304      3300      3298      3301      3302
      3300      3298      3301      3303      3300      3298      3301      3304
      3302      3301      3304      3305      3302      3301      3304      3306
      3302      3301      3304      3307      3303      3301      3304      3305
      3303      3301      3304      3306      3303      3301      3304      3307
      3308      3312      3315      3316      3308      3312      3315      3317
      3308      3312      3315      3322      3309      3308      3312      3313
      3309      3308      3312      3314      3309      3308      3312      3315
      3310      3308      3312      3313      3310      3308      3312      3314
      3310      3308      3312      3315      3311      3308      3312      3313
      3311      3308      3312      3314      3311      3308      3312      3315
      3312      3315      3322      3318      3313      3312      3315      3316
      3313      3312      3315      3317      3313      3312      3315      3322
      3314      3312      3315      3316      3314      3312      3315      3317
      3314      3312      3315      3322      3315      3322      3318      3319
      3315      3322      3318      3320      3315      3322      3318      3321
      3316      3315      3322      3318      3317      3315      3322      3318
      3318      3321      3323      3324      3318      3321      3323      3325
      3318      3321      3323      3326      3319      3318      3321      3323
      3320      3318      3321      3323      3321      3323      3326      3327
      3321      3323      3326      3328      3321      3323      3326      3334
      3322      3318      3321      3323      3323      3326      3328      3329
      3323      3326      3334      3335      3323      3326      3334      3336
      3323      3326      3334      3337      3324      3323      3326      3327
      3324      3323      3326      3328      3324      3323      3326      3334
      3325      3323      3326      3327      3325      3323      3326      3328
      3325      3323      3326      3334      3326      3328      3329      3330
      3326      3328      3329      3331      3326      3334      3337      3338
      3327      3326      3328      3329      3327      3326      3334      3335
      3327      3326      3334      3336      3327      3326      3334      3337
      3328      3326      3334      3335      3328      3326      3334      3336
      3328      3326      3334      3337      3328      3329      3331      3332
      3328      3329      3331      3333      3328      3329      3331      3343
      3329      3328      3326      3334      3329      3331      3343      3344
      3329      3331      3343      3345      3329      3331      3343      3346
      3330      3329      3331      3332      3330      3329      3331      3333
      3330      3329      3331      3343      3331      3343      3346      3347
      3331      3343      3346      3348      3331      3343      3346      3349
      3332      3331      3343      3344      3332      3331      3343      3345
      3332      3331      3343      3346      3333      3331      3343      3344
      3333      3331      3343      3345      3333      3331      3343      3346
      3334      3337      3338      3339      3334      3337      3338      3340
      3335      3334      3337      3338      3336      3334      3337      3338
      3337      3338      3340      3341      3337      3338      3340      3342
      3337      3338      3340      3387      3338      3340      3387      3388
      3338      3340      3387      3389      3338      3340      3387      3390
      3339      3338      3340      3341      3339      3338      3340      3342
      3339      3338      3340      3387      3340      3387      3390      3391
      3340      3387      3390      3392      3340      3387      3390      3393
      3341      3340      3387      3388      3341      3340      3387      3389
      3341      3340      3387      3390      3342      3340      3387      3388
      3342      3340      3387      3389      3342      3340      3387      3390
      3343      3346      3349      3350      3343      3346      3349      3351
      3343      3346      3349      3352      3344      3343      3346      3347
      3344      3343      3346      3348      3344      3343      3346      3349
      3345      3343      3346      3347      3345      3343      3346      3348
      3345      3343      3346      3349      3346      3349      3352      3353
      3346      3349      3352      3354      3346      3349      3352      3355
      3347      3346      3349      3350      3347      3346      3349      3351
      3347      3346      3349      3352      3348      3346      3349      3350
      3348      3346      3349      3351      3348      3346      3349      3352
      3349      3352      3355      3356      3349      3352      3355      3357
      3349      3352      3355      3358      3350      3349      3352      3353
      3350      3349      3352      3354      3350      3349      3352      3355
      3351      3349      3352      3353      3351      3349      3352      3354
      3351      3349      3352      3355      3352      3355      3358      3359
      3352      3355      3358      3360      3352      3355      3358      3361
      3353      3352      3355      3356      3353      3352      3355      3357
      3353      3352      3355      3358      3354      3352      3355      3356
      3354      3352      3355      3357      3354      3352      3355      3358
      3355      3358      3361      3362      3355      3358      3361      3363
      3355      3358      3361      3366      3356      3355      3358      3359
      3356      3355      3358      3360      3356      3355      3358      3361
      3357      3355      3358      3359      3357      3355      3358      3360
      3357      3355      3358      3361      3358      3361      3363      3364
      3358      3361      3363      3365      3358      3361      3363      3366
      3358      3361      3366      3363      3358      3361      3366      3367
      3358      3361      3366      3368      3359      3358      3361      3362
      3359      3358      3361      3363      3359      3358      3361      3366
      3360      3358      3361      3362      3360      3358      3361      3363
      3360      3358      3361      3366      3361      3363      3366      3367
      3361      3363      3366      3368      3361      3366      3363      3364
      3361      3366      3363      3365      3361      3366      3368      3369
      3361      3366      3368      3370      3361      3366      3368      3371
      3362      3361      3363      3364      3362      3361      3363      3365
      3362      3361      3363      3366      3362      3361      3366      3363
      3362      3361      3366      3367      3362      3361      3366      3368
      3363      3361      3366      3367      3363      3361      3366      3368
      3363      3366      3368      3369      3363      3366      3368      3370
      3363      3366      3368      3371      3364      3363      3361      3366
      3364      3363      3366      3367      3364      3363      3366      3368
      3365      3363      3361      3366      3365      3363      3366      3367
      3365      3363      3366      3368      3366      3368      3371      3372
      3366      3368      3371      3373      3366      3368      3371      3374
      3367      3366      3368      3369      3367      3366      3368      3370
      3367      3366      3368      3371      3368      3371      3374      3375
      3368      3371      3374      3376      3368      3371      3374      3377
      3369      3368      3371      3372      3369      3368      3371      3373
      3369      3368      3371      3374      3370      3368      3371      3372
      3370      3368      3371      3373      3370      3368      3371      3374
      3371      3374      3377      3378      3371      3374      3377      3379
      3371      3374      3377      3380      3372      3371      3374      3375
      3372      3371      3374      3376      3372      3371      3374      3377
      3373      3371      3374      3375      3373      3371      3374      3376
      3373      3371      3374      3377      3374      3377      3380      3381
      3374      3377      3380      3382      3374      3377      3380      3383
      3375      3374      3377      3378      3375      3374      3377      3379
      3375      3374      3377      3380      3376      3374      3377      3378
      3376      3374      3377      3379      3376      3374      3377      3380
      3377      3380      3383      3384      3377      3380      3383      3385
      3377      3380      3383      3386      3378      3377      3380      3381
      3378      3377      3380      3382      3378      3377      3380      3383
      3379      3377      3380      3381      3379      3377      3380      3382
      3379      3377      3380      3383      3381      3380      3383      3384
      3381      3380      3383      3385      3381      3380      3383      3386
      3382      3380      3383      3384      3382      3380      3383      3385
      3382      3380      3383      3386      3387      3390      3393      3394
      3387      3390      3393      3395      3387      3390      3393      3396
      3388      3387      3390      3391      3388      3387      3390      3392
      3388      3387      3390      3393      3389      3387      3390      3391
      3389      3387      3390      3392      3389      3387      3390      3393
      3390      3393      3396      3397      3390      3393      3396      3398
      3390      3393      3396      3399      3391      3390      3393      3394
      3391      3390      3393      3395      3391      3390      3393      3396
      3392      3390      3393      3394      3392      3390      3393      3395
      3392      3390      3393      3396      3393      3396      3399      3400
      3393      3396      3399      3401      3393      3396      3399      3402
      3394      3393      3396      3397      3394      3393      3396      3398
      3394      3393      3396      3399      3395      3393      3396      3397
      3395      3393      3396      3398      3395      3393      3396      3399
      3396      3399      3402      3403      3396      3399      3402      3404
      3396      3399      3402      3405      3397      3396      3399      3400
      3397      3396      3399      3401      3397      3396      3399      3402
      3398      3396      3399      3400      3398      3396      3399      3401
      3398      3396      3399      3402      3399      3402      3405      3406
      3399      3402      3405      3407      3399      3402      3405      3408
      3400      3399      3402      3403      3400      3399      3402      3404
      3400      3399      3402      3405      3401      3399      3402      3403
      3401      3399      3402      3404      3401      3399      3402      3405
      3402      3405      3408      3409      3402      3405      3408      3410
      3402      3405      3408      3411      3403      3402      3405      3406
      3403      3402      3405      3407      3403      3402      3405      3408
      3404      3402      3405      3406      3404      3402      3405      3407
      3404      3402      3405      3408      3405      3408      3411      3412
      3405      3408      3411      3413      3405      3408      3411      3414
      3406      3405      3408      3409      3406      3405      3408      3410
      3406      3405      3408      3411      3407      3405      3408      3409
      3407      3405      3408      3410      3407      3405      3408      3411
      3408      3411      3414      3415      3408      3411      3414      3416
      3408      3411      3414      3417      3409      3408      3411      3412
      3409      3408      3411      3413      3409      3408      3411      3414
      3410      3408      3411      3412      3410      3408      3411      3413
      3410      3408      3411      3414      3411      3414      3417      3418
      3411      3414      3417      3419      3411      3414      3417      3420
      3412      3411      3414      3415      3412      3411      3414      3416
      3412      3411      3414      3417      3413      3411      3414      3415
      3413      3411      3414      3416      3413      3411      3414      3417
      3414      3417      3420      3421      3414      3417      3420      3422
      3414      3417      3420      3423      3415      3414      3417      3418
      3415      3414      3417      3419      3415      3414      3417      3420
      3416      3414      3417      3418      3416      3414      3417      3419
      3416      3414      3417      3420      3417      3420      3423      3424
      3417      3420      3423      3425      3417      3420      3423      3426
      3418      3417      3420      3421      3418      3417      3420      3422
      3418      3417      3420      3423      3419      3417      3420      3421
      3419      3417      3420      3422      3419      3417      3420      3423
      3420      3423      3426      3427      3420      3423      3426      3428
      3420      3423      3426      3429      3421      3420      3423      3424
      3421      3420      3423      3425      3421      3420      3423      3426
      3422      3420      3423      3424      3422      3420      3423      3425
      3422      3420      3423      3426      3424      3423      3426      3427
      3424      3423      3426      3428      3424      3423      3426      3429
      3425      3423      3426      3427      3425      3423      3426      3428
      3425      3423      3426      3429      3430      3434      3437      3438
      3430      3434      3437      3439      3430      3434      3437      3444
      3431      3430      3434      3435      3431      3430      3434      3436
      3431      3430      3434      3437      3432      3430      3434      3435
      3432      3430      3434      3436      3432      3430      3434      3437
      3433      3430      3434      3435      3433      3430      3434      3436
      3433      3430      3434      3437      3434      3437      3444      3440
      3435      3434      3437      3438      3435      3434      3437      3439
      3435      3434      3437      3444      3436      3434      3437      3438
      3436      3434      3437      3439      3436      3434      3437      3444
      3437      3444      3440      3441      3437      3444      3440      3442
      3437      3444      3440      3443      3438      3437      3444      3440
      3439      3437      3444      3440      3440      3443      3445      3446
      3440      3443      3445      3447      3440      3443      3445      3448
      3441      3440      3443      3445      3442      3440      3443      3445
      3443      3445      3448      3449      3443      3445      3448      3450
      3443      3445      3448      3456      3444      3440      3443      3445
      3445      3448      3450      3451      3445      3448      3456      3457
      3445      3448      3456      3458      3445      3448      3456      3459
      3446      3445      3448      3449      3446      3445      3448      3450
      3446      3445      3448      3456      3447      3445      3448      3449
      3447      3445      3448      3450      3447      3445      3448      3456
      3448      3450      3451      3452      3448      3450      3451      3453
      3448      3456      3459      3460      3449      3448      3450      3451
      3449      3448      3456      3457      3449      3448      3456      3458
      3449      3448      3456      3459      3450      3448      3456      3457
      3450      3448      3456      3458      3450      3448      3456      3459
      3450      3451      3453      3454      3450      3451      3453      3455
      3450      3451      3453      3465      3451      3450      3448      3456
      3451      3453      3465      3466      3451      3453      3465      3467
      3451      3453      3465      3468      3452      3451      3453      3454
      3452      3451      3453      3455      3452      3451      3453      3465
      3453      3465      3468      3469      3453      3465      3468      3470
      3453      3465      3468      3471      3454      3453      3465      3466
      3454      3453      3465      3467      3454      3453      3465      3468
      3455      3453      3465      3466      3455      3453      3465      3467
      3455      3453      3465      3468      3456      3459      3460      3461
      3456      3459      3460      3462      3457      3456      3459      3460
      3458      3456      3459      3460      3459      3460      3462      3463
      3459      3460      3462      3464      3459      3460      3462      3509
      3460      3462      3509      3510      3460      3462      3509      3511
      3460      3462      3509      3512      3461      3460      3462      3463
      3461      3460      3462      3464      3461      3460      3462      3509
      3462      3509      3512      3513      3462      3509      3512      3514
      3462      3509      3512      3515      3463      3462      3509      3510
      3463      3462      3509      3511      3463      3462      3509      3512
      3464      3462      3509      3510      3464      3462      3509      3511
      3464      3462      3509      3512      3465      3468      3471      3472
      3465      3468      3471      3473      3465      3468      3471      3474
      3466      3465      3468      3469      3466      3465      3468      3470
      3466      3465      3468      3471      3467      3465      3468      3469
      3467      3465      3468      3470      3467      3465      3468      3471
      3468      3471      3474      3475      3468      3471      3474      3476
      3468      3471      3474      3477      3469      3468      3471      3472
      3469      3468      3471      3473      3469      3468      3471      3474
      3470      3468      3471      3472      3470      3468      3471      3473
      3470      3468      3471      3474      3471      3474      3477      3478
      3471      3474      3477      3479      3471      3474      3477      3480
      3472      3471      3474      3475      3472      3471      3474      3476
      3472      3471      3474      3477      3473      3471      3474      3475
      3473      3471      3474      3476      3473      3471      3474      3477
      3474      3477      3480      3481      3474      3477      3480      3482
      3474      3477      3480      3483      3475      3474      3477      3478
      3475      3474      3477      3479      3475      3474      3477      3480
      3476      3474      3477      3478      3476      3474      3477      3479
      3476      3474      3477      3480      3477      3480      3483      3484
      3477      3480      3483      3485      3477      3480      3483      3488
      3478      3477      3480      3481      3478      3477      3480      3482
      3478      3477      3480      3483      3479      3477      3480      3481
      3479      3477      3480      3482      3479      3477      3480      3483
      3480      3483      3485      3486      3480      3483      3485      3487
      3480      3483      3485      3488      3480      3483      3488      3485
      3480      3483      3488      3489      3480      3483      3488      3490
      3481      3480      3483      3484      3481      3480      3483      3485
      3481      3480      3483      3488      3482      3480      3483      3484
      3482      3480      3483      3485      3482      3480      3483      3488
      3483      3485      3488      3489      3483      3485      3488      3490
      3483      3488      3485      3486      3483      3488      3485      3487
      3483      3488      3490      3491      3483      3488      3490      3492
      3483      3488      3490      3493      3484      3483      3485      3486
      3484      3483      3485      3487      3484      3483      3485      3488
      3484      3483      3488      3485      3484      3483      3488      3489
      3484      3483      3488      3490      3485      3483      3488      3489
      3485      3483      3488      3490      3485      3488      3490      3491
      3485      3488      3490      3492      3485      3488      3490      3493
      3486      3485      3483      3488      3486      3485      3488      3489
      3486      3485      3488      3490      3487      3485      3483      3488
      3487      3485      3488      3489      3487      3485      3488      3490
      3488      3490      3493      3494      3488      3490      3493      3495
      3488      3490      3493      3496      3489      3488      3490      3491
      3489      3488      3490      3492      3489      3488      3490      3493
      3490      3493      3496      3497      3490      3493      3496      3498
      3490      3493      3496      3499      3491      3490      3493      3494
      3491      3490      3493      3495      3491      3490      3493      3496
      3492      3490      3493      3494      3492      3490      3493      3495
      3492      3490      3493      3496      3493      3496      3499      3500
      3493      3496      3499      3501      3493      3496      3499      3502
      3494      3493      3496      3497      3494      3493      3496      3498
      3494      3493      3496      3499      3495      3493      3496      3497
      3495      3493      3496      3498      3495      3493      3496      3499
      3496      3499      3502      3503      3496      3499      3502      3504
      3496      3499      3502      3505      3497      3496      3499      3500
      3497      3496      3499      3501      3497      3496      3499      3502
      3498      3496      3499      3500      3498      3496      3499      3501
      3498      3496      3499      3502      3499      3502      3505      3506
      3499      3502      3505      3507      3499      3502      3505      3508
      3500      3499      3502      3503      3500      3499      3502      3504
      3500      3499      3502      3505      3501      3499      3502      3503
      3501      3499      3502      3504      3501      3499      3502      3505
      3503      3502      3505      3506      3503      3502      3505      3507
      3503      3502      3505      3508      3504      3502      3505      3506
      3504      3502      3505      3507      3504      3502      3505      3508
      3509      3512      3515      3516      3509      3512      3515      3517
      3509      3512      3515      3518      3510      3509      3512      3513
      3510      3509      3512      3514      3510      3509      3512      3515
      3511      3509      3512      3513      3511      3509      3512      3514
      3511      3509      3512      3515      3512      3515      3518      3519
      3512      3515      3518      3520      3512      3515      3518      3521
      3513      3512      3515      3516      3513      3512      3515      3517
      3513      3512      3515      3518      3514      3512      3515      3516
      3514      3512      3515      3517      3514      3512      3515      3518
      3515      3518      3521      3522      3515      3518      3521      3523
      3515      3518      3521      3524      3516      3515      3518      3519
      3516      3515      3518      3520      3516      3515      3518      3521
      3517      3515      3518      3519      3517      3515      3518      3520
      3517      3515      3518      3521      3518      3521      3524      3525
      3518      3521      3524      3526      3518      3521      3524      3527
      3519      3518      3521      3522      3519      3518      3521      3523
      3519      3518      3521      3524      3520      3518      3521      3522
      3520      3518      3521      3523      3520      3518      3521      3524
      3521      3524      3527      3528      3521      3524      3527      3529
      3521      3524      3527      3530      3522      3521      3524      3525
      3522      3521      3524      3526      3522      3521      3524      3527
      3523      3521      3524      3525      3523      3521      3524      3526
      3523      3521      3524      3527      3524      3527      3530      3531
      3524      3527      3530      3532      3524      3527      3530      3533
      3525      3524      3527      3528      3525      3524      3527      3529
      3525      3524      3527      3530      3526      3524      3527      3528
      3526      3524      3527      3529      3526      3524      3527      3530
      3527      3530      3533      3534      3527      3530      3533      3535
      3527      3530      3533      3536      3528      3527      3530      3531
      3528      3527      3530      3532      3528      3527      3530      3533
      3529      3527      3530      3531      3529      3527      3530      3532
      3529      3527      3530      3533      3530      3533      3536      3537
      3530      3533      3536      3538      3530      3533      3536      3539
      3531      3530      3533      3534      3531      3530      3533      3535
      3531      3530      3533      3536      3532      3530      3533      3534
      3532      3530      3533      3535      3532      3530      3533      3536
      3533      3536      3539      3540      3533      3536      3539      3541
      3533      3536      3539      3542      3534      3533      3536      3537
      3534      3533      3536      3538      3534      3533      3536      3539
      3535      3533      3536      3537      3535      3533      3536      3538
      3535      3533      3536      3539      3536      3539      3542      3543
      3536      3539      3542      3544      3536      3539      3542      3545
      3537      3536      3539      3540      3537      3536      3539      3541
      3537      3536      3539      3542      3538      3536      3539      3540
      3538      3536      3539      3541      3538      3536      3539      3542
      3539      3542      3545      3546      3539      3542      3545      3547
      3539      3542      3545      3548      3540      3539      3542      3543
      3540      3539      3542      3544      3540      3539      3542      3545
      3541      3539      3542      3543      3541      3539      3542      3544
      3541      3539      3542      3545      3542      3545      3548      3549
      3542      3545      3548      3550      3542      3545      3548      3551
      3543      3542      3545      3546      3543      3542      3545      3547
      3543      3542      3545      3548      3544      3542      3545      3546
      3544      3542      3545      3547      3544      3542      3545      3548
      3546      3545      3548      3549      3546      3545      3548      3550
      3546      3545      3548      3551      3547      3545      3548      3549
      3547      3545      3548      3550      3547      3545      3548      3551
      3552      3556      3559      3560      3552      3556      3559      3561
      3552      3556      3559      3566      3553      3552      3556      3557
      3553      3552      3556      3558      3553      3552      3556      3559
      3554      3552      3556      3557      3554      3552      3556      3558
      3554      3552      3556      3559      3555      3552      3556      3557
      3555      3552      3556      3558      3555      3552      3556      3559
      3556      3559      3566      3562      3557      3556      3559      3560
      3557      3556      3559      3561      3557      3556      3559      3566
      3558      3556      3559      3560      3558      3556      3559      3561
      3558      3556      3559      3566      3559      3566      3562      3563
      3559      3566      3562      3564      3559      3566      3562      3565
      3560      3559      3566      3562      3561      3559      3566      3562
      3562      3565      3567      3568      3562      3565      3567      3569
      3562      3565      3567      3570      3563      3562      3565      3567
      3564      3562      3565      3567      3565      3567      3570      3571
      3565      3567      3570      3572      3565      3567      3570      3578
      3566      3562      3565      3567      3567      3570      3572      3573
      3567      3570      3578      3579      3567      3570      3578      3580
      3567      3570      3578      3581      3568      3567      3570      3571
      3568      3567      3570      3572      3568      3567      3570      3578
      3569      3567      3570      3571      3569      3567      3570      3572
      3569      3567      3570      3578      3570      3572      3573      3574
      3570      3572      3573      3575      3570      3578      3581      3582
      3571      3570      3572      3573      3571      3570      3578      3579
      3571      3570      3578      3580      3571      3570      3578      3581
      3572      3570      3578      3579      3572      3570      3578      3580
      3572      3570      3578      3581      3572      3573      3575      3576
      3572      3573      3575      3577      3572      3573      3575      3587
      3573      3572      3570      3578      3573      3575      3587      3588
      3573      3575      3587      3589      3573      3575      3587      3590
      3574      3573      3575      3576      3574      3573      3575      3577
      3574      3573      3575      3587      3575      3587      3590      3591
      3575      3587      3590      3592      3575      3587      3590      3593
      3576      3575      3587      3588      3576      3575      3587      3589
      3576      3575      3587      3590      3577      3575      3587      3588
      3577      3575      3587      3589      3577      3575      3587      3590
      3578      3581      3582      3583      3578      3581      3582      3584
      3579      3578      3581      3582      3580      3578      3581      3582
      3581      3582      3584      3585      3581      3582      3584      3586
      3581      3582      3584      3631      3582      3584      3631      3632
      3582      3584      3631      3633      3582      3584      3631      3634
      3583      3582      3584      3585      3583      3582      3584      3586
      3583      3582      3584      3631      3584      3631      3634      3635
      3584      3631      3634      3636      3584      3631      3634      3637
      3585      3584      3631      3632      3585      3584      3631      3633
      3585      3584      3631      3634      3586      3584      3631      3632
      3586      3584      3631      3633      3586      3584      3631      3634
      3587      3590      3593      3594      3587      3590      3593      3595
      3587      3590      3593      3596      3588      3587      3590      3591
      3588      3587      3590      3592      3588      3587      3590      3593
      3589      3587      3590      3591      3589      3587      3590      3592
      3589      3587      3590      3593      3590      3593      3596      3597
      3590      3593      3596      3598      3590      3593      3596      3599
      3591      3590      3593      3594      3591      3590      3593      3595
      3591      3590      3593      3596      3592      3590      3593      3594
      3592      3590      3593      3595      3592      3590      3593      3596
      3593      3596      3599      3600      3593      3596      3599      3601
      3593      3596      3599      3602      3594      3593      3596      3597
      3594      3593      3596      3598      3594      3593      3596      3599
      3595      3593      3596      3597      3595      3593      3596      3598
      3595      3593      3596      3599      3596      3599      3602      3603
      3596      3599      3602      3604      3596      3599      3602      3605
      3597      3596      3599      3600      3597      3596      3599      3601
      3597      3596      3599      3602      3598      3596      3599      3600
      3598      3596      3599      3601      3598      3596      3599      3602
      3599      3602      3605      3606      3599      3602      3605      3607
      3599      3602      3605      3610      3600      3599      3602      3603
      3600      3599      3602      3604      3600      3599      3602      3605
      3601      3599      3602      3603      3601      3599      3602      3604
      3601      3599      3602      3605      3602      3605      3607      3608
      3602      3605      3607      3609      3602      3605      3607      3610
      3602      3605      3610      3607      3602      3605      3610      3611
      3602      3605      3610      3612      3603      3602      3605      3606
      3603      3602      3605      3607      3603      3602      3605      3610
      3604      3602      3605      3606      3604      3602      3605      3607
      3604      3602      3605      3610      3605      3607      3610      3611
      3605      3607      3610      3612      3605      3610      3607      3608
      3605      3610      3607      3609      3605      3610      3612      3613
      3605      3610      3612      3614      3605      3610      3612      3615
      3606      3605      3607      3608      3606      3605      3607      3609
      3606      3605      3607      3610      3606      3605      3610      3607
      3606      3605      3610      3611      3606      3605      3610      3612
      3607      3605      3610      3611      3607      3605      3610      3612
      3607      3610      3612      3613      3607      3610      3612      3614
      3607      3610      3612      3615      3608      3607      3605      3610
      3608      3607      3610      3611      3608      3607      3610      3612
      3609      3607      3605      3610      3609      3607      3610      3611
      3609      3607      3610      3612      3610      3612      3615      3616
      3610      3612      3615      3617      3610      3612      3615      3618
      3611      3610      3612      3613      3611      3610      3612      3614
      3611      3610      3612      3615      3612      3615      3618      3619
      3612      3615      3618      3620      3612      3615      3618      3621
      3613      3612      3615      3616      3613      3612      3615      3617
      3613      3612      3615      3618      3614      3612      3615      3616
      3614      3612      3615      3617      3614      3612      3615      3618
      3615      3618      3621      3622      3615      3618      3621      3623
      3615      3618      3621      3624      3616      3615      3618      3619
      3616      3615      3618      3620      3616      3615      3618      3621
      3617      3615      3618      3619      3617      3615      3618      3620
      3617      3615      3618      3621      3618      3621      3624      3625
      3618      3621      3624      3626      3618      3621      3624      3627
      3619      3618      3621      3622      3619      3618      3621      3623
      3619      3618      3621      3624      3620      3618      3621      3622
      3620      3618      3621      3623      3620      3618      3621      3624
      3621      3624      3627      3628      3621      3624      3627      3629
      3621      3624      3627      3630      3622      3621      3624      3625
      3622      3621      3624      3626      3622      3621      3624      3627
      3623      3621      3624      3625      3623      3621      3624      3626
      3623      3621      3624      3627      3625      3624      3627      3628
      3625      3624      3627      3629      3625      3624      3627      3630
      3626      3624      3627      3628      3626      3624      3627      3629
      3626      3624      3627      3630      3631      3634      3637      3638
      3631      3634      3637      3639      3631      3634      3637      3640
      3632      3631      3634      3635      3632      3631      3634      3636
      3632      3631      3634      3637      3633      3631      3634      3635
      3633      3631      3634      3636      3633      3631      3634      3637
      3634      3637      3640      3641      3634      3637      3640      3642
      3634      3637      3640      3643      3635      3634      3637      3638
      3635      3634      3637      3639      3635      3634      3637      3640
      3636      3634      3637      3638      3636      3634      3637      3639
      3636      3634      3637      3640      3637      3640      3643      3644
      3637      3640      3643      3645      3637      3640      3643      3646
      3638      3637      3640      3641      3638      3637      3640      3642
      3638      3637      3640      3643      3639      3637      3640      3641
      3639      3637      3640      3642      3639      3637      3640      3643
      3640      3643      3646      3647      3640      3643      3646      3648
      3640      3643      3646      3649      3641      3640      3643      3644
      3641      3640      3643      3645      3641      3640      3643      3646
      3642      3640      3643      3644      3642      3640      3643      3645
      3642      3640      3643      3646      3643      3646      3649      3650
      3643      3646      3649      3651      3643      3646      3649      3652
      3644      3643      3646      3647      3644      3643      3646      3648
      3644      3643      3646      3649      3645      3643      3646      3647
      3645      3643      3646      3648      3645      3643      3646      3649
      3646      3649      3652      3653      3646      3649      3652      3654
      3646      3649      3652      3655      3647      3646      3649      3650
      3647      3646      3649      3651      3647      3646      3649      3652
      3648      3646      3649      3650      3648      3646      3649      3651
      3648      3646      3649      3652      3649      3652      3655      3656
      3649      3652      3655      3657      3649      3652      3655      3658
      3650      3649      3652      3653      3650      3649      3652      3654
      3650      3649      3652      3655      3651      3649      3652      3653
      3651      3649      3652      3654      3651      3649      3652      3655
      3652      3655      3658      3659      3652      3655      3658      3660
      3652      3655      3658      3661      3653      3652      3655      3656
      3653      3652      3655      3657      3653      3652      3655      3658
      3654      3652      3655      3656      3654      3652      3655      3657
      3654      3652      3655      3658      3655      3658      3661      3662
      3655      3658      3661      3663      3655      3658      3661      3664
      3656      3655      3658      3659      3656      3655      3658      3660
      3656      3655      3658      3661      3657      3655      3658      3659
      3657      3655      3658      3660      3657      3655      3658      3661
      3658      3661      3664      3665      3658      3661      3664      3666
      3658      3661      3664      3667      3659      3658      3661      3662
      3659      3658      3661      3663      3659      3658      3661      3664
      3660      3658      3661      3662      3660      3658      3661      3663
      3660      3658      3661      3664      3661      3664      3667      3668
      3661      3664      3667      3669      3661      3664      3667      3670
      3662      3661      3664      3665      3662      3661      3664      3666
      3662      3661      3664      3667      3663      3661      3664      3665
      3663      3661      3664      3666      3663      3661      3664      3667
      3664      3667      3670      3671      3664      3667      3670      3672
      3664      3667      3670      3673      3665      3664      3667      3668
      3665      3664      3667      3669      3665      3664      3667      3670
      3666      3664      3667      3668      3666      3664      3667      3669
      3666      3664      3667      3670      3668      3667      3670      3671
      3668      3667      3670      3672      3668      3667      3670      3673
      3669      3667      3670      3671      3669      3667      3670      3672
      3669      3667      3670      3673      3674      3678      3681      3682
      3674      3678      3681      3683      3674      3678      3681      3688
      3675      3674      3678      3679      3675      3674      3678      3680
      3675      3674      3678      3681      3676      3674      3678      3679
      3676      3674      3678      3680      3676      3674      3678      3681
      3677      3674      3678      3679      3677      3674      3678      3680
      3677      3674      3678      3681      3678      3681      3688      3684
      3679      3678      3681      3682      3679      3678      3681      3683
      3679      3678      3681      3688      3680      3678      3681      3682
      3680      3678      3681      3683      3680      3678      3681      3688
      3681      3688      3684      3685      3681      3688      3684      3686
      3681      3688      3684      3687      3682      3681      3688      3684
      3683      3681      3688      3684      3684      3687      3689      3690
      3684      3687      3689      3691      3684      3687      3689      3692
      3685      3684      3687      3689      3686      3684      3687      3689
      3687      3689      3692      3693      3687      3689      3692      3694
      3687      3689      3692      3700      3688      3684      3687      3689
      3689      3692      3694      3695      3689      3692      3700      3701
      3689      3692      3700      3702      3689      3692      3700      3703
      3690      3689      3692      3693      3690      3689      3692      3694
      3690      3689      3692      3700      3691      3689      3692      3693
      3691      3689      3692      3694      3691      3689      3692      3700
      3692      3694      3695      3696      3692      3694      3695      3697
      3692      3700      3703      3704      3693      3692      3694      3695
      3693      3692      3700      3701      3693      3692      3700      3702
      3693      3692      3700      3703      3694      3692      3700      3701
      3694      3692      3700      3702      3694      3692      3700      3703
      3694      3695      3697      3698      3694      3695      3697      3699
      3694      3695      3697      3709      3695      3694      3692      3700
      3695      3697      3709      3710      3695      3697      3709      3711
      3695      3697      3709      3712      3696      3695      3697      3698
      3696      3695      3697      3699      3696      3695      3697      3709
      3697      3709      3712      3713      3697      3709      3712      3714
      3697      3709      3712      3715      3698      3697      3709      3710
      3698      3697      3709      3711      3698      3697      3709      3712
      3699      3697      3709      3710      3699      3697      3709      3711
      3699      3697      3709      3712      3700      3703      3704      3705
      3700      3703      3704      3706      3701      3700      3703      3704
      3702      3700      3703      3704      3703      3704      3706      3707
      3703      3704      3706      3708      3703      3704      3706      3756
      3704      3706      3756      3757      3704      3706      3756      3758
      3704      3706      3756      3759      3705      3704      3706      3707
      3705      3704      3706      3708      3705      3704      3706      3756
      3706      3756      3759      3760      3706      3756      3759      3761
      3706      3756      3759      3762      3707      3706      3756      3757
      3707      3706      3756      3758      3707      3706      3756      3759
      3708      3706      3756      3757      3708      3706      3756      3758
      3708      3706      3756      3759      3709      3712      3715      3716
      3709      3712      3715      3717      3709      3712      3715      3718
      3710      3709      3712      3713      3710      3709      3712      3714
      3710      3709      3712      3715      3711      3709      3712      3713
      3711      3709      3712      3714      3711      3709      3712      3715
      3712      3715      3718      3719      3712      3715      3718      3720
      3712      3715      3718      3721      3713      3712      3715      3716
      3713      3712      3715      3717      3713      3712      3715      3718
      3714      3712      3715      3716      3714      3712      3715      3717
      3714      3712      3715      3718      3715      3718      3721      3722
      3715      3718      3721      3723      3715      3718      3721      3724
      3716      3715      3718      3719      3716      3715      3718      3720
      3716      3715      3718      3721      3717      3715      3718      3719
      3717      3715      3718      3720      3717      3715      3718      3721
      3718      3721      3724      3725      3718      3721      3724      3726
      3718      3721      3724      3727      3719      3718      3721      3722
      3719      3718      3721      3723      3719      3718      3721      3724
      3720      3718      3721      3722      3720      3718      3721      3723
      3720      3718      3721      3724      3721      3724      3727      3728
      3721      3724      3727      3729      3722      3721      3724      3725
      3722      3721      3724      3726      3722      3721      3724      3727
      3723      3721      3724      3725      3723      3721      3724      3726
      3723      3721      3724      3727      3724      3727      3729      3730
      3724      3727      3729      3731      3725      3724      3727      3728
      3725      3724      3727      3729      3726      3724      3727      3728
      3726      3724      3727      3729      3727      3729      3731      3732
      3727      3729      3731      3733      3727      3729      3731      3734
      3728      3727      3729      3730      3728      3727      3729      3731
      3729      3731      3734      3735      3729      3731      3734      3736
      3729      3731      3734      3737      3730      3729      3731      3732
      3730      3729      3731      3733      3730      3729      3731      3734
      3731      3734      3737      3738      3731      3734      3737      3739
      3731      3734      3737      3740      3732      3731      3734      3735
      3732      3731      3734      3736      3732      3731      3734      3737
      3733      3731      3734      3735      3733      3731      3734      3736
      3733      3731      3734      3737      3734      3737      3740      3741
      3734      3737      3740      3742      3734      3737      3740      3743
      3735      3734      3737      3738      3735      3734      3737      3739
      3735      3734      3737      3740      3736      3734      3737      3738
      3736      3734      3737      3739      3736      3734      3737      3740
      3737      3740      3743      3744      3737      3740      3743      3745
      3737      3740      3743      3746      3738      3737      3740      3741
      3738      3737      3740      3742      3738      3737      3740      3743
      3739      3737      3740      3741      3739      3737      3740      3742
      3739      3737      3740      3743      3740      3743      3746      3747
      3740      3743      3746      3748      3740      3743      3746      3749
      3741      3740      3743      3744      3741      3740      3743      3745
      3741      3740      3743      3746      3742      3740      3743      3744
      3742      3740      3743      3745      3742      3740      3743      3746
      3743      3746      3749      3750      3743      3746      3749      3751
      3743      3746      3749      3752      3744      3743      3746      3747
      3744      3743      3746      3748      3744      3743      3746      3749
      3745      3743      3746      3747      3745      3743      3746      3748
      3745      3743      3746      3749      3746      3749      3752      3753
      3746      3749      3752      3754      3746      3749      3752      3755
      3747      3746      3749      3750      3747      3746      3749      3751
      3747      3746      3749      3752      3748      3746      3749      3750
      3748      3746      3749      3751      3748      3746      3749      3752
      3750      3749      3752      3753      3750      3749      3752      3754
      3750      3749      3752      3755      3751      3749      3752      3753
      3751      3749      3752      3754      3751      3749      3752      3755
      3756      3759      3762      3763      3756      3759      3762      3764
      3756      3759      3762      3765      3757      3756      3759      3760
      3757      3756      3759      3761      3757      3756      3759      3762
      3758      3756      3759      3760      3758      3756      3759      3761
      3758      3756      3759      3762      3759      3762      3765      3766
      3759      3762      3765      3767      3759      3762      3765      3768
      3760      3759      3762      3763      3760      3759      3762      3764
      3760      3759      3762      3765      3761      3759      3762      3763
      3761      3759      3762      3764      3761      3759      3762      3765
      3762      3765      3768      3769      3762      3765      3768      3770
      3762      3765      3768      3771      3763      3762      3765      3766
      3763      3762      3765      3767      3763      3762      3765      3768
      3764      3762      3765      3766      3764      3762      3765      3767
      3764      3762      3765      3768      3765      3768      3771      3772
      3765      3768      3771      3773      3765      3768      3771      3774
      3766      3765      3768      3769      3766      3765      3768      3770
      3766      3765      3768      3771      3767      3765      3768      3769
      3767      3765      3768      3770      3767      3765      3768      3771
      3768      3771      3774      3775      3768      3771      3774      3776
      3768      3771      3774      3777      3769      3768      3771      3772
      3769      3768      3771      3773      3769      3768      3771      3774
      3770      3768      3771      3772      3770      3768      3771      3773
      3770      3768      3771      3774      3771      3774      3777      3778
      3771      3774      3777      3779      3771      3774      3777      3780
      3772      3771      3774      3775      3772      3771      3774      3776
      3772      3771      3774      3777      3773      3771      3774      3775
      3773      3771      3774      3776      3773      3771      3774      3777
      3774      3777      3780      3781      3774      3777      3780      3782
      3774      3777      3780      3783      3775      3774      3777      3778
      3775      3774      3777      3779      3775      3774      3777      3780
      3776      3774      3777      3778      3776      3774      3777      3779
      3776      3774      3777      3780      3777      3780      3783      3784
      3777      3780      3783      3785      3777      3780      3783      3786
      3778      3777      3780      3781      3778      3777      3780      3782
      3778      3777      3780      3783      3779      3777      3780      3781
      3779      3777      3780      3782      3779      3777      3780      3783
      3780      3783      3786      3787      3780      3783      3786      3788
      3780      3783      3786      3789      3781      3780      3783      3784
      3781      3780      3783      3785      3781      3780      3783      3786
      3782      3780      3783      3784      3782      3780      3783      3785
      3782      3780      3783      3786      3783      3786      3789      3790
      3783      3786      3789      3791      3783      3786      3789      3792
      3784      3783      3786      3787      3784      3783      3786      3788
      3784      3783      3786      3789      3785      3783      3786      3787
      3785      3783      3786      3788      3785      3783      3786      3789
      3786      3789      3792      3793      3786      3789      3792      3794
      3786      3789      3792      3795      3787      3786      3789      3790
      3787      3786      3789      3791      3787      3786      3789      3792
      3788      3786      3789      3790      3788      3786      3789      3791
      3788      3786      3789      3792      3789      3792      3795      3796
      3789      3792      3795      3797      3789      3792      3795      3798
      3790      3789      3792      3793      3790      3789      3792      3794
      3790      3789      3792      3795      3791      3789      3792      3793
      3791      3789      3792      3794      3791      3789      3792      3795
      3793      3792      3795      3796      3793      3792      3795      3797
      3793      3792      3795      3798      3794      3792      3795      3796
      3794      3792      3795      3797      3794      3792      3795      3798
      3799      3803      3806      3807      3799      3803      3806      3808
      3799      3803      3806      3813      3800      3799      3803      3804
      3800      3799      3803      3805      3800      3799      3803      3806
      3801      3799      3803      3804      3801      3799      3803      3805
      3801      3799      3803      3806      3802      3799      3803      3804
      3802      3799      3803      3805      3802      3799      3803      3806
      3803      3806      3813      3809      3804      3803      3806      3807
      3804      3803      3806      3808      3804      3803      3806      3813
      3805      3803      3806      3807      3805      3803      3806      3808
      3805      3803      3806      3813      3806      3813      3809      3810
      3806      3813      3809      3811      3806      3813      3809      3812
      3807      3806      3813      3809      3808      3806      3813      3809
      3809      3812      3814      3815      3809      3812      3814      3816
      3809      3812      3814      3817      3810      3809      3812      3814
      3811      3809      3812      3814      3812      3814      3817      3818
      3812      3814      3817      3819      3812      3814      3817      3825
      3813      3809      3812      3814      3814      3817      3819      3820
      3814      3817      3825      3826      3814      3817      3825      3827
      3814      3817      3825      3828      3815      3814      3817      3818
      3815      3814      3817      3819      3815      3814      3817      3825
      3816      3814      3817      3818      3816      3814      3817      3819
      3816      3814      3817      3825      3817      3819      3820      3821
      3817      3819      3820      3822      3817      3825      3828      3829
      3818      3817      3819      3820      3818      3817      3825      3826
      3818      3817      3825      3827      3818      3817      3825      3828
      3819      3817      3825      3826      3819      3817      3825      3827
      3819      3817      3825      3828      3819      3820      3822      3823
      3819      3820      3822      3824      3819      3820      3822      3834
      3820      3819      3817      3825      3820      3822      3834      3835
      3820      3822      3834      3836      3820      3822      3834      3837
      3821      3820      3822      3823      3821      3820      3822      3824
      3821      3820      3822      3834      3822      3834      3837      3838
      3822      3834      3837      3839      3822      3834      3837      3840
      3823      3822      3834      3835      3823      3822      3834      3836
      3823      3822      3834      3837      3824      3822      3834      3835
      3824      3822      3834      3836      3824      3822      3834      3837
      3825      3828      3829      3830      3825      3828      3829      3831
      3826      3825      3828      3829      3827      3825      3828      3829
      3828      3829      3831      3832      3828      3829      3831      3833
      3828      3829      3831      3881      3829      3831      3881      3882
      3829      3831      3881      3883      3829      3831      3881      3884
      3830      3829      3831      3832      3830      3829      3831      3833
      3830      3829      3831      3881      3831      3881      3884      3885
      3831      3881      3884      3886      3831      3881      3884      3887
      3832      3831      3881      3882      3832      3831      3881      3883
      3832      3831      3881      3884      3833      3831      3881      3882
      3833      3831      3881      3883      3833      3831      3881      3884
      3834      3837      3840      3841      3834      3837      3840      3842
      3834      3837      3840      3843      3835      3834      3837      3838
      3835      3834      3837      3839      3835      3834      3837      3840
      3836      3834      3837      3838      3836      3834      3837      3839
      3836      3834      3837      3840      3837      3840      3843      3844
      3837      3840      3843      3845      3837      3840      3843      3846
      3838      3837      3840      3841      3838      3837      3840      3842
      3838      3837      3840      3843      3839      3837      3840      3841
      3839      3837      3840      3842      3839      3837      3840      3843
      3840      3843      3846      3847      3840      3843      3846      3848
      3840      3843      3846      3849      3841      3840      3843      3844
      3841      3840      3843      3845      3841      3840      3843      3846
      3842      3840      3843      3844      3842      3840      3843      3845
      3842      3840      3843      3846      3843      3846      3849      3850
      3843      3846      3849      3851      3843      3846      3849      3852
      3844      3843      3846      3847      3844      3843      3846      3848
      3844      3843      3846      3849      3845      3843      3846      3847
      3845      3843      3846      3848      3845      3843      3846      3849
      3846      3849      3852      3853      3846      3849      3852      3854
      3847      3846      3849      3850      3847      3846      3849      3851
      3847      3846      3849      3852      3848      3846      3849      3850
      3848      3846      3849      3851      3848      3846      3849      3852
      3849      3852      3854      3855      3849      3852      3854      3856
      3850      3849      3852      3853      3850      3849      3852      3854
      3851      3849      3852      3853      3851      3849      3852      3854
      3852      3854      3856      3857      3852      3854      3856      3858
      3852      3854      3856      3859      3853      3852      3854      3855
      3853      3852      3854      3856      3854      3856      3859      3860
      3854      3856      3859      3861      3854      3856      3859      3862
      3855      3854      3856      3857      3855      3854      3856      3858
      3855      3854      3856      3859      3856      3859      3862      3863
      3856      3859      3862      3864      3856      3859      3862      3865
      3857      3856      3859      3860      3857      3856      3859      3861
      3857      3856      3859      3862      3858      3856      3859      3860
      3858      3856      3859      3861      3858      3856      3859      3862
      3859      3862      3865      3866      3859      3862      3865      3867
      3859      3862      3865      3868      3860      3859      3862      3863
      3860      3859      3862      3864      3860      3859      3862      3865
      3861      3859      3862      3863      3861      3859      3862      3864
      3861      3859      3862      3865      3862      3865      3868      3869
      3862      3865      3868      3870      3862      3865      3868      3871
      3863      3862      3865      3866      3863      3862      3865      3867
      3863      3862      3865      3868      3864      3862      3865      3866
      3864      3862      3865      3867      3864      3862      3865      3868
      3865      3868      3871      3872      3865      3868      3871      3873
      3865      3868      3871      3874      3866      3865      3868      3869
      3866      3865      3868      3870      3866      3865      3868      3871
      3867      3865      3868      3869      3867      3865      3868      3870
      3867      3865      3868      3871      3868      3871      3874      3875
      3868      3871      3874      3876      3868      3871      3874      3877
      3869      3868      3871      3872      3869      3868      3871      3873
      3869      3868      3871      3874      3870      3868      3871      3872
      3870      3868      3871      3873      3870      3868      3871      3874
      3871      3874      3877      3878      3871      3874      3877      3879
      3871      3874      3877      3880      3872      3871      3874      3875
      3872      3871      3874      3876      3872      3871      3874      3877
      3873      3871      3874      3875      3873      3871      3874      3876
      3873      3871      3874      3877      3875      3874      3877      3878
      3875      3874      3877      3879      3875      3874      3877      3880
      3876      3874      3877      3878      3876      3874      3877      3879
      3876      3874      3877      3880      3881      3884      3887      3888
      3881      3884      3887      3889      3881      3884      3887      3890
      3882      3881      3884      3885      3882      3881      3884      3886
      3882      3881      3884      3887      3883      3881      3884      3885
      3883      3881      3884      3886      3883      3881      3884      3887
      3884      3887      3890      3891      3884      3887      3890      3892
      3884      3887      3890      3893      3885      3884      3887      3888
      3885      3884      3887      3889      3885      3884      3887      3890
      3886      3884      3887      3888      3886      3884      3887      3889
      3886      3884      3887      3890      3887      3890      3893      3894
      3887      3890      3893      3895      3887      3890      3893      3896
      3888      3887      3890      3891      3888      3887      3890      3892
      3888      3887      3890      3893      3889      3887      3890      3891
      3889      3887      3890      3892      3889      3887      3890      3893
      3890      3893      3896      3897      3890      3893      3896      3898
      3890      3893      3896      3899      3891      3890      3893      3894
      3891      3890      3893      3895      3891      3890      3893      3896
      3892      3890      3893      3894      3892      3890      3893      3895
      3892      3890      3893      3896      3893      3896      3899      3900
      3893      3896      3899      3901      3893      3896      3899      3902
      3894      3893      3896      3897      3894      3893      3896      3898
      3894      3893      3896      3899      3895      3893      3896      3897
      3895      3893      3896      3898      3895      3893      3896      3899
      3896      3899      3902      3903      3896      3899      3902      3904
      3896      3899      3902      3905      3897      3896      3899      3900
      3897      3896      3899      3901      3897      3896      3899      3902
      3898      3896      3899      3900      3898      3896      3899      3901
      3898      3896      3899      3902      3899      3902      3905      3906
      3899      3902      3905      3907      3899      3902      3905      3908
      3900      3899      3902      3903      3900      3899      3902      3904
      3900      3899      3902      3905      3901      3899      3902      3903
      3901      3899      3902      3904      3901      3899      3902      3905
      3902      3905      3908      3909      3902      3905      3908      3910
      3902      3905      3908      3911      3903      3902      3905      3906
      3903      3902      3905      3907      3903      3902      3905      3908
      3904      3902      3905      3906      3904      3902      3905      3907
      3904      3902      3905      3908      3905      3908      3911      3912
      3905      3908      3911      3913      3905      3908      3911      3914
      3906      3905      3908      3909      3906      3905      3908      3910
      3906      3905      3908      3911      3907      3905      3908      3909
      3907      3905      3908      3910      3907      3905      3908      3911
      3908      3911      3914      3915      3908      3911      3914      3916
      3908      3911      3914      3917      3909      3908      3911      3912
      3909      3908      3911      3913      3909      3908      3911      3914
      3910      3908      3911      3912      3910      3908      3911      3913
      3910      3908      3911      3914      3911      3914      3917      3918
      3911      3914      3917      3919      3911      3914      3917      3920
      3912      3911      3914      3915      3912      3911      3914      3916
      3912      3911      3914      3917      3913      3911      3914      3915
      3913      3911      3914      3916      3913      3911      3914      3917
      3914      3917      3920      3921      3914      3917      3920      3922
      3914      3917      3920      3923      3915      3914      3917      3918
      3915      3914      3917      3919      3915      3914      3917      3920
      3916      3914      3917      3918      3916      3914      3917      3919
      3916      3914      3917      3920      3918      3917      3920      3921
      3918      3917      3920      3922      3918      3917      3920      3923
      3919      3917      3920      3921      3919      3917      3920      3922
      3919      3917      3920      3923      3924      3928      3931      3932
      3924      3928      3931      3933      3924      3928      3931      3938
      3925      3924      3928      3929      3925      3924      3928      3930
      3925      3924      3928      3931      3926      3924      3928      3929
      3926      3924      3928      3930      3926      3924      3928      3931
      3927      3924      3928      3929      3927      3924      3928      3930
      3927      3924      3928      3931      3928      3931      3938      3934
      3929      3928      3931      3932      3929      3928      3931      3933
      3929      3928      3931      3938      3930      3928      3931      3932
      3930      3928      3931      3933      3930      3928      3931      3938
      3931      3938      3934      3935      3931      3938      3934      3936
      3931      3938      3934      3937      3932      3931      3938      3934
      3933      3931      3938      3934      3934      3937      3939      3940
      3934      3937      3939      3941      3934      3937      3939      3942
      3935      3934      3937      3939      3936      3934      3937      3939
      3937      3939      3942      3943      3937      3939      3942      3944
      3937      3939      3942      3950      3938      3934      3937      3939
      3939      3942      3944      3945      3939      3942      3950      3951
      3939      3942      3950      3952      3939      3942      3950      3953
      3940      3939      3942      3943      3940      3939      3942      3944
      3940      3939      3942      3950      3941      3939      3942      3943
      3941      3939      3942      3944      3941      3939      3942      3950
      3942      3944      3945      3946      3942      3944      3945      3947
      3942      3950      3953      3954      3943      3942      3944      3945
      3943      3942      3950      3951      3943      3942      3950      3952
      3943      3942      3950      3953      3944      3942      3950      3951
      3944      3942      3950      3952      3944      3942      3950      3953
      3944      3945      3947      3948      3944      3945      3947      3949
      3944      3945      3947      3959      3945      3944      3942      3950
      3945      3947      3959      3960      3945      3947      3959      3961
      3945      3947      3959      3962      3946      3945      3947      3948
      3946      3945      3947      3949      3946      3945      3947      3959
      3947      3959      3962      3963      3947      3959      3962      3964
      3947      3959      3962      3965      3948      3947      3959      3960
      3948      3947      3959      3961      3948      3947      3959      3962
      3949      3947      3959      3960      3949      3947      3959      3961
      3949      3947      3959      3962      3950      3953      3954      3955
      3950      3953      3954      3956      3951      3950      3953      3954
      3952      3950      3953      3954      3953      3954      3956      3957
      3953      3954      3956      3958      3953      3954      3956      4003
      3954      3956      4003      4004      3954      3956      4003      4005
      3954      3956      4003      4006      3955      3954      3956      3957
      3955      3954      3956      3958      3955      3954      3956      4003
      3956      4003      4006      4007      3956      4003      4006      4008
      3956      4003      4006      4009      3957      3956      4003      4004
      3957      3956      4003      4005      3957      3956      4003      4006
      3958      3956      4003      4004      3958      3956      4003      4005
      3958      3956      4003      4006      3959      3962      3965      3966
      3959      3962      3965      3967      3959      3962      3965      3968
      3960      3959      3962      3963      3960      3959      3962      3964
      3960      3959      3962      3965      3961      3959      3962      3963
      3961      3959      3962      3964      3961      3959      3962      3965
      3962      3965      3968      3969      3962      3965      3968      3970
      3962      3965      3968      3971      3963      3962      3965      3966
      3963      3962      3965      3967      3963      3962      3965      3968
      3964      3962      3965      3966      3964      3962      3965      3967
      3964      3962      3965      3968      3965      3968      3971      3972
      3965      3968      3971      3973      3965      3968      3971      3974
      3966      3965      3968      3969      3966      3965      3968      3970
      3966      3965      3968      3971      3967      3965      3968      3969
      3967      3965      3968      3970      3967      3965      3968      3971
      3968      3971      3974      3975      3968      3971      3974      3976
      3968      3971      3974      3977      3969      3968      3971      3972
      3969      3968      3971      3973      3969      3968      3971      3974
      3970      3968      3971      3972      3970      3968      3971      3973
      3970      3968      3971      3974      3971      3974      3977      3978
      3971      3974      3977      3979      3971      3974      3977      3982
      3972      3971      3974      3975      3972      3971      3974      3976
      3972      3971      3974      3977      3973      3971      3974      3975
      3973      3971      3974      3976      3973      3971      3974      3977
      3974      3977      3979      3980      3974      3977      3979      3981
      3974      3977      3979      3982      3974      3977      3982      3979
      3974      3977      3982      3983      3974      3977      3982      3984
      3975      3974      3977      3978      3975      3974      3977      3979
      3975      3974      3977      3982      3976      3974      3977      3978
      3976      3974      3977      3979      3976      3974      3977      3982
      3977      3979      3982      3983      3977      3979      3982      3984
      3977      3982      3979      3980      3977      3982      3979      3981
      3977      3982      3984      3985      3977      3982      3984      3986
      3977      3982      3984      3987      3978      3977      3979      3980
      3978      3977      3979      3981      3978      3977      3979      3982
      3978      3977      3982      3979      3978      3977      3982      3983
      3978      3977      3982      3984      3979      3977      3982      3983
      3979      3977      3982      3984      3979      3982      3984      3985
      3979      3982      3984      3986      3979      3982      3984      3987
      3980      3979      3977      3982      3980      3979      3982      3983
      3980      3979      3982      3984      3981      3979      3977      3982
      3981      3979      3982      3983      3981      3979      3982      3984
      3982      3984      3987      3988      3982      3984      3987      3989
      3982      3984      3987      3990      3983      3982      3984      3985
      3983      3982      3984      3986      3983      3982      3984      3987
      3984      3987      3990      3991      3984      3987      3990      3992
      3984      3987      3990      3993      3985      3984      3987      3988
      3985      3984      3987      3989      3985      3984      3987      3990
      3986      3984      3987      3988      3986      3984      3987      3989
      3986      3984      3987      3990      3987      3990      3993      3994
      3987      3990      3993      3995      3987      3990      3993      3996
      3988      3987      3990      3991      3988      3987      3990      3992
      3988      3987      3990      3993      3989      3987      3990      3991
      3989      3987      3990      3992      3989      3987      3990      3993
      3990      3993      3996      3997      3990      3993      3996      3998
      3990      3993      3996      3999      3991      3990      3993      3994
      3991      3990      3993      3995      3991      3990      3993      3996
      3992      3990      3993      3994      3992      3990      3993      3995
      3992      3990      3993      3996      3993      3996      3999      4000
      3993      3996      3999      4001      3993      3996      3999      4002
      3994      3993      3996      3997      3994      3993      3996      3998
      3994      3993      3996      3999      3995      3993      3996      3997
      3995      3993      3996      3998      3995      3993      3996      3999
      3997      3996      3999      4000      3997      3996      3999      4001
      3997      3996      3999      4002      3998      3996      3999      4000
      3998      3996      3999      4001      3998      3996      3999      4002
      4003      4006      4009      4010      4003      4006      4009      4011
      4003      4006      4009      4012      4004      4003      4006      4007
      4004      4003      4006      4008      4004      4003      4006      4009
      4005      4003      4006      4007      4005      4003      4006      4008
      4005      4003      4006      4009      4006      4009      4012      4013
      4006      4009      4012      4014      4006      4009      4012      4015
      4007      4006      4009      4010      4007      4006      4009      4011
      4007      4006      4009      4012      4008      4006      4009      4010
      4008      4006      4009      4011      4008      4006      4009      4012
      4009      4012      4015      4016      4009      4012      4015      4017
      4009      4012      4015      4018      4010      4009      4012      4013
      4010      4009      4012      4014      4010      4009      4012      4015
      4011      4009      4012      4013      4011      4009      4012      4014
      4011      4009      4012      4015      4012      4015      4018      4019
      4012      4015      4018      4020      4012      4015      4018      4021
      4013      4012      4015      4016      4013      4012      4015      4017
      4013      4012      4015      4018      4014      4012      4015      4016
      4014      4012      4015      4017      4014      4012      4015      4018
      4015      4018      4021      4022      4015      4018      4021      4023
      4015      4018      4021      4024      4016      4015      4018      4019
      4016      4015      4018      4020      4016      4015      4018      4021
      4017      4015      4018      4019      4017      4015      4018      4020
      4017      4015      4018      4021      4018      4021      4024      4025
      4018      4021      4024      4026      4018      4021      4024      4027
      4019      4018      4021      4022      4019      4018      4021      4023
      4019      4018      4021      4024      4020      4018      4021      4022
      4020      4018      4021      4023      4020      4018      4021      4024
      4021      4024      4027      4028      4021      4024      4027      4029
      4021      4024      4027      4030      4022      4021      4024      4025
      4022      4021      4024      4026      4022      4021      4024      4027
      4023      4021      4024      4025      4023      4021      4024      4026
      4023      4021      4024      4027      4024      4027      4030      4031
      4024      4027      4030      4032      4024      4027      4030      4033
      4025      4024      4027      4028      4025      4024      4027      4029
      4025      4024      4027      4030      4026      4024      4027      4028
      4026      4024      4027      4029      4026      4024      4027      4030
      4027      4030      4033      4034      4027      4030      4033      4035
      4027      4030      4033      4036      4028      4027      4030      4031
      4028      4027      4030      4032      4028      4027      4030      4033
      4029      4027      4030      4031      4029      4027      4030      4032
      4029      4027      4030      4033      4030      4033      4036      4037
      4030      4033      4036      4038      4030      4033      4036      4039
      4031      4030      4033      4034      4031      4030      4033      4035
      4031      4030      4033      4036      4032      4030      4033      4034
      4032      4030      4033      4035      4032      4030      4033      4036
      4033      4036      4039      4040      4033      4036      4039      4041
      4033      4036      4039      4042      4034      4033      4036      4037
      4034      4033      4036      4038      4034      4033      4036      4039
      4035      4033      4036      4037      4035      4033      4036      4038
      4035      4033      4036      4039      4036      4039      4042      4043
      4036      4039      4042      4044      4036      4039      4042      4045
      4037      4036      4039      4040      4037      4036      4039      4041
      4037      4036      4039      4042      4038      4036      4039      4040
      4038      4036      4039      4041      4038      4036      4039      4042
      4040      4039      4042      4043      4040      4039      4042      4044
      4040      4039      4042      4045      4041      4039      4042      4043
      4041      4039      4042      4044      4041      4039      4042      4045
      4046      4051      4053      4054      4046      4051      4055      4056
      4046      4051      4055      4057      4046      4051      4055      4062
      4047      4046      4049      4050      4047      4046      4051      4052
      4047      4046      4051      4053      4047      4046      4051      4055
      4048      4046      4049      4050      4048      4046      4051      4052
      4048      4046      4051      4053      4048      4046      4051      4055
      4049      4046      4051      4052      4049      4046      4051      4053
      4049      4046      4051      4055      4050      4049      4046      4051
      4051      4055      4062      4058      4052      4051      4053      4054
      4052      4051      4055      4056      4052      4051      4055      4057
      4052      4051      4055      4062      4053      4051      4055      4056
      4053      4051      4055      4057      4053      4051      4055      4062
      4054      4053      4051      4055      4055      4062      4058      4059
      4055      4062      4058      4060      4055      4062      4058      4061
      4056      4055      4062      4058      4057      4055      4062      4058
      4058      4061      4063      4064      4058      4061      4063      4065
      4058      4061      4063      4066      4059      4058      4061      4063
      4060      4058      4061      4063      4061      4063      4066      4067
      4061      4063      4066      4068      4061      4063      4066      4074
      4062      4058      4061      4063      4063      4066      4068      4069
      4063      4066      4074      4075      4063      4066      4074      4076
      4063      4066      4074      4077      4064      4063      4066      4067
      4064      4063      4066      4068      4064      4063      4066      4074
      4065      4063      4066      4067      4065      4063      4066      4068
      4065      4063      4066      4074      4066      4068      4069      4070
      4066      4068      4069      4071      4066      4074      4077      4078
      4067      4066      4068      4069      4067      4066      4074      4075
      4067      4066      4074      4076      4067      4066      4074      4077
      4068      4066      4074      4075      4068      4066      4074      4076
      4068      4066      4074      4077      4068      4069      4071      4072
      4068      4069      4071      4073      4068      4069      4071      4083
      4069      4068      4066      4074      4069      4071      4083      4084
      4069      4071      4083      4085      4069      4071      4083      4086
      4070      4069      4071      4072      4070      4069      4071      4073
      4070      4069      4071      4083      4071      4083      4086      4087
      4071      4083      4086      4088      4071      4083      4086      4089
      4072      4071      4083      4084      4072      4071      4083      4085
      4072      4071      4083      4086      4073      4071      4083      4084
      4073      4071      4083      4085      4073      4071      4083      4086
      4074      4077      4078      4079      4074      4077      4078      4080
      4075      4074      4077      4078      4076      4074      4077      4078
      4077      4078      4080      4081      4077      4078      4080      4082
      4077      4078      4080      4127      4078      4080      4127      4128
      4078      4080      4127      4129      4078      4080      4127      4130
      4079      4078      4080      4081      4079      4078      4080      4082
      4079      4078      4080      4127      4080      4127      4130      4131
      4080      4127      4130      4132      4080      4127      4130      4133
      4081      4080      4127      4128      4081      4080      4127      4129
      4081      4080      4127      4130      4082      4080      4127      4128
      4082      4080      4127      4129      4082      4080      4127      4130
      4083      4086      4089      4090      4083      4086      4089      4091
      4083      4086      4089      4092      4084      4083      4086      4087
      4084      4083      4086      4088      4084      4083      4086      4089
      4085      4083      4086      4087      4085      4083      4086      4088
      4085      4083      4086      4089      4086      4089      4092      4093
      4086      4089      4092      4094      4086      4089      4092      4095
      4087      4086      4089      4090      4087      4086      4089      4091
      4087      4086      4089      4092      4088      4086      4089      4090
      4088      4086      4089      4091      4088      4086      4089      4092
      4089      4092      4095      4096      4089      4092      4095      4097
      4089      4092      4095      4098      4090      4089      4092      4093
      4090      4089      4092      4094      4090      4089      4092      4095
      4091      4089      4092      4093      4091      4089      4092      4094
      4091      4089      4092      4095      4092      4095      4098      4099
      4092      4095      4098      4100      4092      4095      4098      4101
      4093      4092      4095      4096      4093      4092      4095      4097
      4093      4092      4095      4098      4094      4092      4095      4096
      4094      4092      4095      4097      4094      4092      4095      4098
      4095      4098      4101      4102      4095      4098      4101      4103
      4095      4098      4101      4106      4096      4095      4098      4099
      4096      4095      4098      4100      4096      4095      4098      4101
      4097      4095      4098      4099      4097      4095      4098      4100
      4097      4095      4098      4101      4098      4101      4103      4104
      4098      4101      4103      4105      4098      4101      4103      4106
      4098      4101      4106      4103      4098      4101      4106      4107
      4098      4101      4106      4108      4099      4098      4101      4102
      4099      4098      4101      4103      4099      4098      4101      4106
      4100      4098      4101      4102      4100      4098      4101      4103
      4100      4098      4101      4106      4101      4103      4106      4107
      4101      4103      4106      4108      4101      4106      4103      4104
      4101      4106      4103      4105      4101      4106      4108      4109
      4101      4106      4108      4110      4101      4106      4108      4111
      4102      4101      4103      4104      4102      4101      4103      4105
      4102      4101      4103      4106      4102      4101      4106      4103
      4102      4101      4106      4107      4102      4101      4106      4108
      4103      4101      4106      4107      4103      4101      4106      4108
      4103      4106      4108      4109      4103      4106      4108      4110
      4103      4106      4108      4111      4104      4103      4101      4106
      4104      4103      4106      4107      4104      4103      4106      4108
      4105      4103      4101      4106      4105      4103      4106      4107
      4105      4103      4106      4108      4106      4108      4111      4112
      4106      4108      4111      4113      4106      4108      4111      4114
      4107      4106      4108      4109      4107      4106      4108      4110
      4107      4106      4108      4111      4108      4111      4114      4115
      4108      4111      4114      4116      4108      4111      4114      4117
      4109      4108      4111      4112      4109      4108      4111      4113
      4109      4108      4111      4114      4110      4108      4111      4112
      4110      4108      4111      4113      4110      4108      4111      4114
      4111      4114      4117      4118      4111      4114      4117      4119
      4111      4114      4117      4120      4112      4111      4114      4115
      4112      4111      4114      4116      4112      4111      4114      4117
      4113      4111      4114      4115      4113      4111      4114      4116
      4113      4111      4114      4117      4114      4117      4120      4121
      4114      4117      4120      4122      4114      4117      4120      4123
      4115      4114      4117      4118      4115      4114      4117      4119
      4115      4114      4117      4120      4116      4114      4117      4118
      4116      4114      4117      4119      4116      4114      4117      4120
      4117      4120      4123      4124      4117      4120      4123      4125
      4117      4120      4123      4126      4118      4117      4120      4121
      4118      4117      4120      4122      4118      4117      4120      4123
      4119      4117      4120      4121      4119      4117      4120      4122
      4119      4117      4120      4123      4121      4120      4123      4124
      4121      4120      4123      4125      4121      4120      4123      4126
      4122      4120      4123      4124      4122      4120      4123      4125
      4122      4120      4123      4126      4127      4130      4133      4134
      4127      4130      4133      4135      4127      4130      4133      4136
      4128      4127      4130      4131      4128      4127      4130      4132
      4128      4127      4130      4133      4129      4127      4130      4131
      4129      4127      4130      4132      4129      4127      4130      4133
      4130      4133      4136      4137      4130      4133      4136      4138
      4130      4133      4136      4139      4131      4130      4133      4134
      4131      4130      4133      4135      4131      4130      4133      4136
      4132      4130      4133      4134      4132      4130      4133      4135
      4132      4130      4133      4136      4133      4136      4139      4140
      4133      4136      4139      4141      4133      4136      4139      4142
      4134      4133      4136      4137      4134      4133      4136      4138
      4134      4133      4136      4139      4135      4133      4136      4137
      4135      4133      4136      4138      4135      4133      4136      4139
      4136      4139      4142      4143      4136      4139      4142      4144
      4136      4139      4142      4145      4137      4136      4139      4140
      4137      4136      4139      4141      4137      4136      4139      4142
      4138      4136      4139      4140      4138      4136      4139      4141
      4138      4136      4139      4142      4139      4142      4145      4146
      4139      4142      4145      4147      4139      4142      4145      4148
      4140      4139      4142      4143      4140      4139      4142      4144
      4140      4139      4142      4145      4141      4139      4142      4143
      4141      4139      4142      4144      4141      4139      4142      4145
      4142      4145      4148      4149      4142      4145      4148      4150
      4142      4145      4148      4151      4143      4142      4145      4146
      4143      4142      4145      4147      4143      4142      4145      4148
      4144      4142      4145      4146      4144      4142      4145      4147
      4144      4142      4145      4148      4145      4148      4151      4152
      4145      4148      4151      4153      4145      4148      4151      4154
      4146      4145      4148      4149      4146      4145      4148      4150
      4146      4145      4148      4151      4147      4145      4148      4149
      4147      4145      4148      4150      4147      4145      4148      4151
      4148      4151      4154      4155      4148      4151      4154      4156
      4148      4151      4154      4157      4149      4148      4151      4152
      4149      4148      4151      4153      4149      4148      4151      4154
      4150      4148      4151      4152      4150      4148      4151      4153
      4150      4148      4151      4154      4151      4154      4157      4158
      4151      4154      4157      4159      4151      4154      4157      4160
      4152      4151      4154      4155      4152      4151      4154      4156
      4152      4151      4154      4157      4153      4151      4154      4155
      4153      4151      4154      4156      4153      4151      4154      4157
      4154      4157      4160      4161      4154      4157      4160      4162
      4154      4157      4160      4163      4155      4154      4157      4158
      4155      4154      4157      4159      4155      4154      4157      4160
      4156      4154      4157      4158      4156      4154      4157      4159
      4156      4154      4157      4160      4157      4160      4163      4164
      4157      4160      4163      4165      4157      4160      4163      4166
      4158      4157      4160      4161      4158      4157      4160      4162
      4158      4157      4160      4163      4159      4157      4160      4161
      4159      4157      4160      4162      4159      4157      4160      4163
      4160      4163      4166      4167      4160      4163      4166      4168
      4160      4163      4166      4169      4161      4160      4163      4164
      4161      4160      4163      4165      4161      4160      4163      4166
      4162      4160      4163      4164      4162      4160      4163      4165
      4162      4160      4163      4166      4164      4163      4166      4167
      4164      4163      4166      4168      4164      4163      4166      4169
      4165      4163      4166      4167      4165      4163      4166      4168
      4165      4163      4166      4169      4170      4174      4177      4178
      4170      4174      4177      4179      4170      4174      4177      4184
      4171      4170      4174      4175      4171      4170      4174      4176
      4171      4170      4174      4177      4172      4170      4174      4175
      4172      4170      4174      4176      4172      4170      4174      4177
      4173      4170      4174      4175      4173      4170      4174      4176
      4173      4170      4174      4177      4174      4177      4184      4180
      4175      4174      4177      4178      4175      4174      4177      4179
      4175      4174      4177      4184      4176      4174      4177      4178
      4176      4174      4177      4179      4176      4174      4177      4184
      4177      4184      4180      4181      4177      4184      4180      4182
      4177      4184      4180      4183      4178      4177      4184      4180
      4179      4177      4184      4180      4180      4183      4185      4186
      4180      4183      4185      4187      4180      4183      4185      4188
      4181      4180      4183      4185      4182      4180      4183      4185
      4183      4185      4188      4189      4183      4185      4188      4190
      4183      4185      4188      4196      4184      4180      4183      4185
      4185      4188      4190      4191      4185      4188      4196      4197
      4185      4188      4196      4198      4185      4188      4196      4199
      4186      4185      4188      4189      4186      4185      4188      4190
      4186      4185      4188      4196      4187      4185      4188      4189
      4187      4185      4188      4190      4187      4185      4188      4196
      4188      4190      4191      4192      4188      4190      4191      4193
      4188      4196      4199      4200      4189      4188      4190      4191
      4189      4188      4196      4197      4189      4188      4196      4198
      4189      4188      4196      4199      4190      4188      4196      4197
      4190      4188      4196      4198      4190      4188      4196      4199
      4190      4191      4193      4194      4190      4191      4193      4195
      4190      4191      4193      4205      4191      4190      4188      4196
      4191      4193      4205      4206      4191      4193      4205      4207
      4191      4193      4205      4208      4192      4191      4193      4194
      4192      4191      4193      4195      4192      4191      4193      4205
      4193      4205      4208      4209      4193      4205      4208      4210
      4193      4205      4208      4211      4194      4193      4205      4206
      4194      4193      4205      4207      4194      4193      4205      4208
      4195      4193      4205      4206      4195      4193      4205      4207
      4195      4193      4205      4208      4196      4199      4200      4201
      4196      4199      4200      4202      4197      4196      4199      4200
      4198      4196      4199      4200      4199      4200      4202      4203
      4199      4200      4202      4204      4199      4200      4202      4249
      4200      4202      4249      4250      4200      4202      4249      4251
      4200      4202      4249      4252      4201      4200      4202      4203
      4201      4200      4202      4204      4201      4200      4202      4249
      4202      4249      4252      4253      4202      4249      4252      4254
      4202      4249      4252      4255      4203      4202      4249      4250
      4203      4202      4249      4251      4203      4202      4249      4252
      4204      4202      4249      4250      4204      4202      4249      4251
      4204      4202      4249      4252      4205      4208      4211      4212
      4205      4208      4211      4213      4205      4208      4211      4214
      4206      4205      4208      4209      4206      4205      4208      4210
      4206      4205      4208      4211      4207      4205      4208      4209
      4207      4205      4208      4210      4207      4205      4208      4211
      4208      4211      4214      4215      4208      4211      4214      4216
      4208      4211      4214      4217      4209      4208      4211      4212
      4209      4208      4211      4213      4209      4208      4211      4214
      4210      4208      4211      4212      4210      4208      4211      4213
      4210      4208      4211      4214      4211      4214      4217      4218
      4211      4214      4217      4219      4211      4214      4217      4220
      4212      4211      4214      4215      4212      4211      4214      4216
      4212      4211      4214      4217      4213      4211      4214      4215
      4213      4211      4214      4216      4213      4211      4214      4217
      4214      4217      4220      4221      4214      4217      4220      4222
      4214      4217      4220      4223      4215      4214      4217      4218
      4215      4214      4217      4219      4215      4214      4217      4220
      4216      4214      4217      4218      4216      4214      4217      4219
      4216      4214      4217      4220      4217      4220      4223      4224
      4217      4220      4223      4225      4217      4220      4223      4228
      4218      4217      4220      4221      4218      4217      4220      4222
      4218      4217      4220      4223      4219      4217      4220      4221
      4219      4217      4220      4222      4219      4217      4220      4223
      4220      4223      4225      4226      4220      4223      4225      4227
      4220      4223      4225      4228      4220      4223      4228      4225
      4220      4223      4228      4229      4220      4223      4228      4230
      4221      4220      4223      4224      4221      4220      4223      4225
      4221      4220      4223      4228      4222      4220      4223      4224
      4222      4220      4223      4225      4222      4220      4223      4228
      4223      4225      4228      4229      4223      4225      4228      4230
      4223      4228      4225      4226      4223      4228      4225      4227
      4223      4228      4230      4231      4223      4228      4230      4232
      4223      4228      4230      4233      4224      4223      4225      4226
      4224      4223      4225      4227      4224      4223      4225      4228
      4224      4223      4228      4225      4224      4223      4228      4229
      4224      4223      4228      4230      4225      4223      4228      4229
      4225      4223      4228      4230      4225      4228      4230      4231
      4225      4228      4230      4232      4225      4228      4230      4233
      4226      4225      4223      4228      4226      4225      4228      4229
      4226      4225      4228      4230      4227      4225      4223      4228
      4227      4225      4228      4229      4227      4225      4228      4230
      4228      4230      4233      4234      4228      4230      4233      4235
      4228      4230      4233      4236      4229      4228      4230      4231
      4229      4228      4230      4232      4229      4228      4230      4233
      4230      4233      4236      4237      4230      4233      4236      4238
      4230      4233      4236      4239      4231      4230      4233      4234
      4231      4230      4233      4235      4231      4230      4233      4236
      4232      4230      4233      4234      4232      4230      4233      4235
      4232      4230      4233      4236      4233      4236      4239      4240
      4233      4236      4239      4241      4233      4236      4239      4242
      4234      4233      4236      4237      4234      4233      4236      4238
      4234      4233      4236      4239      4235      4233      4236      4237
      4235      4233      4236      4238      4235      4233      4236      4239
      4236      4239      4242      4243      4236      4239      4242      4244
      4236      4239      4242      4245      4237      4236      4239      4240
      4237      4236      4239      4241      4237      4236      4239      4242
      4238      4236      4239      4240      4238      4236      4239      4241
      4238      4236      4239      4242      4239      4242      4245      4246
      4239      4242      4245      4247      4239      4242      4245      4248
      4240      4239      4242      4243      4240      4239      4242      4244
      4240      4239      4242      4245      4241      4239      4242      4243
      4241      4239      4242      4244      4241      4239      4242      4245
      4243      4242      4245      4246      4243      4242      4245      4247
      4243      4242      4245      4248      4244      4242      4245      4246
      4244      4242      4245      4247      4244      4242      4245      4248
      4249      4252      4255      4256      4249      4252      4255      4257
      4249      4252      4255      4258      4250      4249      4252      4253
      4250      4249      4252      4254      4250      4249      4252      4255
      4251      4249      4252      4253      4251      4249      4252      4254
      4251      4249      4252      4255      4252      4255      4258      4259
      4252      4255      4258      4260      4252      4255      4258      4261
      4253      4252      4255      4256      4253      4252      4255      4257
      4253      4252      4255      4258      4254      4252      4255      4256
      4254      4252      4255      4257      4254      4252      4255      4258
      4255      4258      4261      4262      4255      4258      4261      4263
      4255      4258      4261      4264      4256      4255      4258      4259
      4256      4255      4258      4260      4256      4255      4258      4261
      4257      4255      4258      4259      4257      4255      4258      4260
      4257      4255      4258      4261      4258      4261      4264      4265
      4258      4261      4264      4266      4258      4261      4264      4267
      4259      4258      4261      4262      4259      4258      4261      4263
      4259      4258      4261      4264      4260      4258      4261      4262
      4260      4258      4261      4263      4260      4258      4261      4264
      4261      4264      4267      4268      4261      4264      4267      4269
      4261      4264      4267      4270      4262      4261      4264      4265
      4262      4261      4264      4266      4262      4261      4264      4267
      4263      4261      4264      4265      4263      4261      4264      4266
      4263      4261      4264      4267      4264      4267      4270      4271
      4264      4267      4270      4272      4264      4267      4270      4273
      4265      4264      4267      4268      4265      4264      4267      4269
      4265      4264      4267      4270      4266      4264      4267      4268
      4266      4264      4267      4269      4266      4264      4267      4270
      4267      4270      4273      4274      4267      4270      4273      4275
      4267      4270      4273      4276      4268      4267      4270      4271
      4268      4267      4270      4272      4268      4267      4270      4273
      4269      4267      4270      4271      4269      4267      4270      4272
      4269      4267      4270      4273      4270      4273      4276      4277
      4270      4273      4276      4278      4270      4273      4276      4279
      4271      4270      4273      4274      4271      4270      4273      4275
      4271      4270      4273      4276      4272      4270      4273      4274
      4272      4270      4273      4275      4272      4270      4273      4276
      4273      4276      4279      4280      4273      4276      4279      4281
      4273      4276      4279      4282      4274      4273      4276      4277
      4274      4273      4276      4278      4274      4273      4276      4279
      4275      4273      4276      4277      4275      4273      4276      4278
      4275      4273      4276      4279      4276      4279      4282      4283
      4276      4279      4282      4284      4276      4279      4282      4285
      4277      4276      4279      4280      4277      4276      4279      4281
      4277      4276      4279      4282      4278      4276      4279      4280
      4278      4276      4279      4281      4278      4276      4279      4282
      4279      4282      4285      4286      4279      4282      4285      4287
      4279      4282      4285      4288      4280      4279      4282      4283
      4280      4279      4282      4284      4280      4279      4282      4285
      4281      4279      4282      4283      4281      4279      4282      4284
      4281      4279      4282      4285      4283      4282      4285      4286
      4283      4282      4285      4287      4283      4282      4285      4288
      4284      4282      4285      4286      4284      4282      4285      4287
      4284      4282      4285      4288      4289      4294      4296      4297
      4289      4294      4298      4299      4289      4294      4298      4300
      4289      4294      4298      4305      4290      4289      4292      4293
      4290      4289      4294      4295      4290      4289      4294      4296
      4290      4289      4294      4298      4291      4289      4292      4293
      4291      4289      4294      4295      4291      4289      4294      4296
      4291      4289      4294      4298      4292      4289      4294      4295
      4292      4289      4294      4296      4292      4289      4294      4298
      4293      4292      4289      4294      4294      4298      4305      4301
      4295      4294      4296      4297      4295      4294      4298      4299
      4295      4294      4298      4300      4295      4294      4298      4305
      4296      4294      4298      4299      4296      4294      4298      4300
      4296      4294      4298      4305      4297      4296      4294      4298
      4298      4305      4301      4302      4298      4305      4301      4303
      4298      4305      4301      4304      4299      4298      4305      4301
      4300      4298      4305      4301      4301      4304      4306      4307
      4301      4304      4306      4308      4301      4304      4306      4309
      4302      4301      4304      4306      4303      4301      4304      4306
      4304      4306      4309      4310      4304      4306      4309      4311
      4304      4306      4309      4317      4305      4301      4304      4306
      4306      4309      4311      4312      4306      4309      4317      4318
      4306      4309      4317      4319      4306      4309      4317      4320
      4307      4306      4309      4310      4307      4306      4309      4311
      4307      4306      4309      4317      4308      4306      4309      4310
      4308      4306      4309      4311      4308      4306      4309      4317
      4309      4311      4312      4313      4309      4311      4312      4314
      4309      4317      4320      4321      4310      4309      4311      4312
      4310      4309      4317      4318      4310      4309      4317      4319
      4310      4309      4317      4320      4311      4309      4317      4318
      4311      4309      4317      4319      4311      4309      4317      4320
      4311      4312      4314      4315      4311      4312      4314      4316
      4311      4312      4314      4326      4312      4311      4309      4317
      4312      4314      4326      4327      4312      4314      4326      4328
      4312      4314      4326      4329      4313      4312      4314      4315
      4313      4312      4314      4316      4313      4312      4314      4326
      4314      4326      4329      4330      4314      4326      4329      4331
      4314      4326      4329      4332      4315      4314      4326      4327
      4315      4314      4326      4328      4315      4314      4326      4329
      4316      4314      4326      4327      4316      4314      4326      4328
      4316      4314      4326      4329      4317      4320      4321      4322
      4317      4320      4321      4323      4318      4317      4320      4321
      4319      4317      4320      4321      4320      4321      4323      4324
      4320      4321      4323      4325      4320      4321      4323      4367
      4321      4323      4367      4368      4321      4323      4367      4369
      4321      4323      4367      4370      4322      4321      4323      4324
      4322      4321      4323      4325      4322      4321      4323      4367
      4323      4367      4370      4371      4323      4367      4370      4372
      4323      4367      4370      4373      4324      4323      4367      4368
      4324      4323      4367      4369      4324      4323      4367      4370
      4325      4323      4367      4368      4325      4323      4367      4369
      4325      4323      4367      4370      4326      4329      4332      4333
      4326      4329      4332      4334      4326      4329      4332      4335
      4327      4326      4329      4330      4327      4326      4329      4331
      4327      4326      4329      4332      4328      4326      4329      4330
      4328      4326      4329      4331      4328      4326      4329      4332
      4329      4332      4335      4336      4329      4332      4335      4337
      4329      4332      4335      4338      4330      4329      4332      4333
      4330      4329      4332      4334      4330      4329      4332      4335
      4331      4329      4332      4333      4331      4329      4332      4334
      4331      4329      4332      4335      4332      4335      4338      4339
      4332      4335      4338      4340      4332      4335      4338      4341
      4333      4332      4335      4336      4333      4332      4335      4337
      4333      4332      4335      4338      4334      4332      4335      4336
      4334      4332      4335      4337      4334      4332      4335      4338
      4335      4338      4341      4342      4335      4338      4341      4343
      4335      4338      4341      4344      4336      4335      4338      4339
      4336      4335      4338      4340      4336      4335      4338      4341
      4337      4335      4338      4339      4337      4335      4338      4340
      4337      4335      4338      4341      4338      4341      4344      4345
      4338      4341      4344      4346      4339      4338      4341      4342
      4339      4338      4341      4343      4339      4338      4341      4344
      4340      4338      4341      4342      4340      4338      4341      4343
      4340      4338      4341      4344      4341      4344      4346      4347
      4341      4344      4346      4348      4342      4341      4344      4345
      4342      4341      4344      4346      4343      4341      4344      4345
      4343      4341      4344      4346      4344      4346      4348      4349
      4344      4346      4348      4350      4344      4346      4348      4351
      4345      4344      4346      4347      4345      4344      4346      4348
      4346      4348      4351      4352      4346      4348      4351      4353
      4346      4348      4351      4354      4347      4346      4348      4349
      4347      4346      4348      4350      4347      4346      4348      4351
      4348      4351      4354      4355      4348      4351      4354      4356
      4348      4351      4354      4357      4349      4348      4351      4352
      4349      4348      4351      4353      4349      4348      4351      4354
      4350      4348      4351      4352      4350      4348      4351      4353
      4350      4348      4351      4354      4351      4354      4357      4358
      4351      4354      4357      4359      4351      4354      4357      4360
      4352      4351      4354      4355      4352      4351      4354      4356
      4352      4351      4354      4357      4353      4351      4354      4355
      4353      4351      4354      4356      4353      4351      4354      4357
      4354      4357      4360      4361      4354      4357      4360      4362
      4354      4357      4360      4363      4355      4354      4357      4358
      4355      4354      4357      4359      4355      4354      4357      4360
      4356      4354      4357      4358      4356      4354      4357      4359
      4356      4354      4357      4360      4357      4360      4363      4364
      4357      4360      4363      4365      4357      4360      4363      4366
      4358      4357      4360      4361      4358      4357      4360      4362
      4358      4357      4360      4363      4359      4357      4360      4361
      4359      4357      4360      4362      4359      4357      4360      4363
      4361      4360      4363      4364      4361      4360      4363      4365
      4361      4360      4363      4366      4362      4360      4363      4364
      4362      4360      4363      4365      4362      4360      4363      4366
      4367      4370      4373      4374      4367      4370      4373      4375
      4367      4370      4373      4376      4368      4367      4370      4371
      4368      4367      4370      4372      4368      4367      4370      4373
      4369      4367      4370      4371      4369      4367      4370      4372
      4369      4367      4370      4373      4370      4373      4376      4377
      4370      4373      4376      4378      4370      4373      4376      4379
      4371      4370      4373      4374      4371      4370      4373      4375
      4371      4370      4373      4376      4372      4370      4373      4374
      4372      4370      4373      4375      4372      4370      4373      4376
      4373      4376      4379      4380      4373      4376      4379      4381
      4373      4376      4379      4382      4374      4373      4376      4377
      4374      4373      4376      4378      4374      4373      4376      4379
      4375      4373      4376      4377      4375      4373      4376      4378
      4375      4373      4376      4379      4376      4379      4382      4383
      4376      4379      4382      4384      4376      4379      4382      4385
      4377      4376      4379      4380      4377      4376      4379      4381
      4377      4376      4379      4382      4378      4376      4379      4380
      4378      4376      4379      4381      4378      4376      4379      4382
      4379      4382      4385      4386      4379      4382      4385      4387
      4379      4382      4385      4388      4380      4379      4382      4383
      4380      4379      4382      4384      4380      4379      4382      4385
      4381      4379      4382      4383      4381      4379      4382      4384
      4381      4379      4382      4385      4382      4385      4388      4389
      4382      4385      4388      4390      4382      4385      4388      4391
      4383      4382      4385      4386      4383      4382      4385      4387
      4383      4382      4385      4388      4384      4382      4385      4386
      4384      4382      4385      4387      4384      4382      4385      4388
      4385      4388      4391      4392      4385      4388      4391      4393
      4385      4388      4391      4394      4386      4385      4388      4389
      4386      4385      4388      4390      4386      4385      4388      4391
      4387      4385      4388      4389      4387      4385      4388      4390
      4387      4385      4388      4391      4388      4391      4394      4395
      4388      4391      4394      4396      4388      4391      4394      4397
      4389      4388      4391      4392      4389      4388      4391      4393
      4389      4388      4391      4394      4390      4388      4391      4392
      4390      4388      4391      4393      4390      4388      4391      4394
      4391      4394      4397      4398      4391      4394      4397      4399
      4391      4394      4397      4400      4392      4391      4394      4395
      4392      4391      4394      4396      4392      4391      4394      4397
      4393      4391      4394      4395      4393      4391      4394      4396
      4393      4391      4394      4397      4394      4397      4400      4401
      4394      4397      4400      4402      4394      4397      4400      4403
      4395      4394      4397      4398      4395      4394      4397      4399
      4395      4394      4397      4400      4396      4394      4397      4398
      4396      4394      4397      4399      4396      4394      4397      4400
      4397      4400      4403      4404      4397      4400      4403      4405
      4397      4400      4403      4406      4398      4397      4400      4401
      4398      4397      4400      4402      4398      4397      4400      4403
      4399      4397      4400      4401      4399      4397      4400      4402
      4399      4397      4400      4403      4400      4403      4406      4407
      4400      4403      4406      4408      4400      4403      4406      4409
      4401      4400      4403      4404      4401      4400      4403      4405
      4401      4400      4403      4406      4402      4400      4403      4404
      4402      4400      4403      4405      4402      4400      4403      4406
      4404      4403      4406      4407      4404      4403      4406      4408
      4404      4403      4406      4409      4405      4403      4406      4407
      4405      4403      4406      4408      4405      4403      4406      4409
      4410      4414      4417      4418      4410      4414      4417      4419
      4410      4414      4417      4424      4411      4410      4414      4415
      4411      4410      4414      4416      4411      4410      4414      4417
      4412      4410      4414      4415      4412      4410      4414      4416
      4412      4410      4414      4417      4413      4410      4414      4415
      4413      4410      4414      4416      4413      4410      4414      4417
      4414      4417      4424      4420      4415      4414      4417      4418
      4415      4414      4417      4419      4415      4414      4417      4424
      4416      4414      4417      4418      4416      4414      4417      4419
      4416      4414      4417      4424      4417      4424      4420      4421
      4417      4424      4420      4422      4417      4424      4420      4423
      4418      4417      4424      4420      4419      4417      4424      4420
      4420      4423      4425      4426      4420      4423      4425      4427
      4420      4423      4425      4428      4421      4420      4423      4425
      4422      4420      4423      4425      4423      4425      4428      4429
      4423      4425      4428      4430      4423      4425      4428      4436
      4424      4420      4423      4425      4425      4428      4430      4431
      4425      4428      4436      4437      4425      4428      4436      4438
      4425      4428      4436      4439      4426      4425      4428      4429
      4426      4425      4428      4430      4426      4425      4428      4436
      4427      4425      4428      4429      4427      4425      4428      4430
      4427      4425      4428      4436      4428      4430      4431      4432
      4428      4430      4431      4433      4428      4436      4439      4440
      4429      4428      4430      4431      4429      4428      4436      4437
      4429      4428      4436      4438      4429      4428      4436      4439
      4430      4428      4436      4437      4430      4428      4436      4438
      4430      4428      4436      4439      4430      4431      4433      4434
      4430      4431      4433      4435      4430      4431      4433      4445
      4431      4430      4428      4436      4431      4433      4445      4446
      4431      4433      4445      4447      4431      4433      4445      4448
      4432      4431      4433      4434      4432      4431      4433      4435
      4432      4431      4433      4445      4433      4445      4448      4449
      4433      4445      4448      4450      4433      4445      4448      4451
      4434      4433      4445      4446      4434      4433      4445      4447
      4434      4433      4445      4448      4435      4433      4445      4446
      4435      4433      4445      4447      4435      4433      4445      4448
      4436      4439      4440      4441      4436      4439      4440      4442
      4437      4436      4439      4440      4438      4436      4439      4440
      4439      4440      4442      4443      4439      4440      4442      4444
      4439      4440      4442      4489      4440      4442      4489      4490
      4440      4442      4489      4491      4440      4442      4489      4492
      4441      4440      4442      4443      4441      4440      4442      4444
      4441      4440      4442      4489      4442      4489      4492      4493
      4442      4489      4492      4494      4442      4489      4492      4495
      4443      4442      4489      4490      4443      4442      4489      4491
      4443      4442      4489      4492      4444      4442      4489      4490
      4444      4442      4489      4491      4444      4442      4489      4492
      4445      4448      4451      4452      4445      4448      4451      4453
      4445      4448      4451      4454      4446      4445      4448      4449
      4446      4445      4448      4450      4446      4445      4448      4451
      4447      4445      4448      4449      4447      4445      4448      4450
      4447      4445      4448      4451      4448      4451      4454      4455
      4448      4451      4454      4456      4448      4451      4454      4457
      4449      4448      4451      4452      4449      4448      4451      4453
      4449      4448      4451      4454      4450      4448      4451      4452
      4450      4448      4451      4453      4450      4448      4451      4454
      4451      4454      4457      4458      4451      4454      4457      4459
      4451      4454      4457      4460      4452      4451      4454      4455
      4452      4451      4454      4456      4452      4451      4454      4457
      4453      4451      4454      4455      4453      4451      4454      4456
      4453      4451      4454      4457      4454      4457      4460      4461
      4454      4457      4460      4462      4454      4457      4460      4463
      4455      4454      4457      4458      4455      4454      4457      4459
      4455      4454      4457      4460      4456      4454      4457      4458
      4456      4454      4457      4459      4456      4454      4457      4460
      4457      4460      4463      4464      4457      4460      4463      4465
      4457      4460      4463      4468      4458      4457      4460      4461
      4458      4457      4460      4462      4458      4457      4460      4463
      4459      4457      4460      4461      4459      4457      4460      4462
      4459      4457      4460      4463      4460      4463      4465      4466
      4460      4463      4465      4467      4460      4463      4465      4468
      4460      4463      4468      4465      4460      4463      4468      4469
      4460      4463      4468      4470      4461      4460      4463      4464
      4461      4460      4463      4465      4461      4460      4463      4468
      4462      4460      4463      4464      4462      4460      4463      4465
      4462      4460      4463      4468      4463      4465      4468      4469
      4463      4465      4468      4470      4463      4468      4465      4466
      4463      4468      4465      4467      4463      4468      4470      4471
      4463      4468      4470      4472      4463      4468      4470      4473
      4464      4463      4465      4466      4464      4463      4465      4467
      4464      4463      4465      4468      4464      4463      4468      4465
      4464      4463      4468      4469      4464      4463      4468      4470
      4465      4463      4468      4469      4465      4463      4468      4470
      4465      4468      4470      4471      4465      4468      4470      4472
      4465      4468      4470      4473      4466      4465      4463      4468
      4466      4465      4468      4469      4466      4465      4468      4470
      4467      4465      4463      4468      4467      4465      4468      4469
      4467      4465      4468      4470      4468      4470      4473      4474
      4468      4470      4473      4475      4468      4470      4473      4476
      4469      4468      4470      4471      4469      4468      4470      4472
      4469      4468      4470      4473      4470      4473      4476      4477
      4470      4473      4476      4478      4470      4473      4476      4479
      4471      4470      4473      4474      4471      4470      4473      4475
      4471      4470      4473      4476      4472      4470      4473      4474
      4472      4470      4473      4475      4472      4470      4473      4476
      4473      4476      4479      4480      4473      4476      4479      4481
      4473      4476      4479      4482      4474      4473      4476      4477
      4474      4473      4476      4478      4474      4473      4476      4479
      4475      4473      4476      4477      4475      4473      4476      4478
      4475      4473      4476      4479      4476      4479      4482      4483
      4476      4479      4482      4484      4476      4479      4482      4485
      4477      4476      4479      4480      4477      4476      4479      4481
      4477      4476      4479      4482      4478      4476      4479      4480
      4478      4476      4479      4481      4478      4476      4479      4482
      4479      4482      4485      4486      4479      4482      4485      4487
      4479      4482      4485      4488      4480      4479      4482      4483
      4480      4479      4482      4484      4480      4479      4482      4485
      4481      4479      4482      4483      4481      4479      4482      4484
      4481      4479      4482      4485      4483      4482      4485      4486
      4483      4482      4485      4487      4483      4482      4485      4488
      4484      4482      4485      4486      4484      4482      4485      4487
      4484      4482      4485      4488      4489      4492      4495      4496
      4489      4492      4495      4497      4489      4492      4495      4498
      4490      4489      4492      4493      4490      4489      4492      4494
      4490      4489      4492      4495      4491      4489      4492      4493
      4491      4489      4492      4494      4491      4489      4492      4495
      4492      4495      4498      4499      4492      4495      4498      4500
      4492      4495      4498      4501      4493      4492      4495      4496
      4493      4492      4495      4497      4493      4492      4495      4498
      4494      4492      4495      4496      4494      4492      4495      4497
      4494      4492      4495      4498      4495      4498      4501      4502
      4495      4498      4501      4503      4495      4498      4501      4504
      4496      4495      4498      4499      4496      4495      4498      4500
      4496      4495      4498      4501      4497      4495      4498      4499
      4497      4495      4498      4500      4497      4495      4498      4501
      4498      4501      4504      4505      4498      4501      4504      4506
      4498      4501      4504      4507      4499      4498      4501      4502
      4499      4498      4501      4503      4499      4498      4501      4504
      4500      4498      4501      4502      4500      4498      4501      4503
      4500      4498      4501      4504      4501      4504      4507      4508
      4501      4504      4507      4509      4501      4504      4507      4510
      4502      4501      4504      4505      4502      4501      4504      4506
      4502      4501      4504      4507      4503      4501      4504      4505
      4503      4501      4504      4506      4503      4501      4504      4507
      4504      4507      4510      4511      4504      4507      4510      4512
      4504      4507      4510      4513      4505      4504      4507      4508
      4505      4504      4507      4509      4505      4504      4507      4510
      4506      4504      4507      4508      4506      4504      4507      4509
      4506      4504      4507      4510      4507      4510      4513      4514
      4507      4510      4513      4515      4507      4510      4513      4516
      4508      4507      4510      4511      4508      4507      4510      4512
      4508      4507      4510      4513      4509      4507      4510      4511
      4509      4507      4510      4512      4509      4507      4510      4513
      4510      4513      4516      4517      4510      4513      4516      4518
      4510      4513      4516      4519      4511      4510      4513      4514
      4511      4510      4513      4515      4511      4510      4513      4516
      4512      4510      4513      4514      4512      4510      4513      4515
      4512      4510      4513      4516      4513      4516      4519      4520
      4513      4516      4519      4521      4513      4516      4519      4522
      4514      4513      4516      4517      4514      4513      4516      4518
      4514      4513      4516      4519      4515      4513      4516      4517
      4515      4513      4516      4518      4515      4513      4516      4519
      4516      4519      4522      4523      4516      4519      4522      4524
      4516      4519      4522      4525      4517      4516      4519      4520
      4517      4516      4519      4521      4517      4516      4519      4522
      4518      4516      4519      4520      4518      4516      4519      4521
      4518      4516      4519      4522      4519      4522      4525      4526
      4519      4522      4525      4527      4519      4522      4525      4528
      4520      4519      4522      4523      4520      4519      4522      4524
      4520      4519      4522      4525      4521      4519      4522      4523
      4521      4519      4522      4524      4521      4519      4522      4525
      4522      4525      4528      4529      4522      4525      4528      4530
      4522      4525      4528      4531      4523      4522      4525      4526
      4523      4522      4525      4527      4523      4522      4525      4528
      4524      4522      4525      4526      4524      4522      4525      4527
      4524      4522      4525      4528      4526      4525      4528      4529
      4526      4525      4528      4530      4526      4525      4528      4531
      4527      4525      4528      4529      4527      4525      4528      4530
      4527      4525      4528      4531      4532      4536      4539      4540
      4532      4536      4539      4541      4532      4536      4539      4546
      4533      4532      4536      4537      4533      4532      4536      4538
      4533      4532      4536      4539      4534      4532      4536      4537
      4534      4532      4536      4538      4534      4532      4536      4539
      4535      4532      4536      4537      4535      4532      4536      4538
      4535      4532      4536      4539      4536      4539      4546      4542
      4537      4536      4539      4540      4537      4536      4539      4541
      4537      4536      4539      4546      4538      4536      4539      4540
      4538      4536      4539      4541      4538      4536      4539      4546
      4539      4546      4542      4543      4539      4546      4542      4544
      4539      4546      4542      4545      4540      4539      4546      4542
      4541      4539      4546      4542      4542      4545      4547      4548
      4542      4545      4547      4549      4542      4545      4547      4550
      4543      4542      4545      4547      4544      4542      4545      4547
      4545      4547      4550      4551      4545      4547      4550      4552
      4545      4547      4550      4558      4546      4542      4545      4547
      4547      4550      4552      4553      4547      4550      4558      4559
      4547      4550      4558      4560      4547      4550      4558      4561
      4548      4547      4550      4551      4548      4547      4550      4552
      4548      4547      4550      4558      4549      4547      4550      4551
      4549      4547      4550      4552      4549      4547      4550      4558
      4550      4552      4553      4554      4550      4552      4553      4555
      4550      4558      4561      4562      4551      4550      4552      4553
      4551      4550      4558      4559      4551      4550      4558      4560
      4551      4550      4558      4561      4552      4550      4558      4559
      4552      4550      4558      4560      4552      4550      4558      4561
      4552      4553      4555      4556      4552      4553      4555      4557
      4552      4553      4555      4567      4553      4552      4550      4558
      4553      4555      4567      4568      4553      4555      4567      4569
      4553      4555      4567      4570      4554      4553      4555      4556
      4554      4553      4555      4557      4554      4553      4555      4567
      4555      4567      4570      4571      4555      4567      4570      4572
      4555      4567      4570      4573      4556      4555      4567      4568
      4556      4555      4567      4569      4556      4555      4567      4570
      4557      4555      4567      4568      4557      4555      4567      4569
      4557      4555      4567      4570      4558      4561      4562      4563
      4558      4561      4562      4564      4559      4558      4561      4562
      4560      4558      4561      4562      4561      4562      4564      4565
      4561      4562      4564      4566      4561      4562      4564      4614
      4562      4564      4614      4615      4562      4564      4614      4616
      4562      4564      4614      4617      4563      4562      4564      4565
      4563      4562      4564      4566      4563      4562      4564      4614
      4564      4614      4617      4618      4564      4614      4617      4619
      4564      4614      4617      4620      4565      4564      4614      4615
      4565      4564      4614      4616      4565      4564      4614      4617
      4566      4564      4614      4615      4566      4564      4614      4616
      4566      4564      4614      4617      4567      4570      4573      4574
      4567      4570      4573      4575      4567      4570      4573      4576
      4568      4567      4570      4571      4568      4567      4570      4572
      4568      4567      4570      4573      4569      4567      4570      4571
      4569      4567      4570      4572      4569      4567      4570      4573
      4570      4573      4576      4577      4570      4573      4576      4578
      4570      4573      4576      4579      4571      4570      4573      4574
      4571      4570      4573      4575      4571      4570      4573      4576
      4572      4570      4573      4574      4572      4570      4573      4575
      4572      4570      4573      4576      4573      4576      4579      4580
      4573      4576      4579      4581      4573      4576      4579      4582
      4574      4573      4576      4577      4574      4573      4576      4578
      4574      4573      4576      4579      4575      4573      4576      4577
      4575      4573      4576      4578      4575      4573      4576      4579
      4576      4579      4582      4583      4576      4579      4582      4584
      4576      4579      4582      4585      4577      4576      4579      4580
      4577      4576      4579      4581      4577      4576      4579      4582
      4578      4576      4579      4580      4578      4576      4579      4581
      4578      4576      4579      4582      4579      4582      4585      4586
      4579      4582      4585      4587      4580      4579      4582      4583
      4580      4579      4582      4584      4580      4579      4582      4585
      4581      4579      4582      4583      4581      4579      4582      4584
      4581      4579      4582      4585      4582      4585      4587      4588
      4582      4585      4587      4589      4583      4582      4585      4586
      4583      4582      4585      4587      4584      4582      4585      4586
      4584      4582      4585      4587      4585      4587      4589      4590
      4585      4587      4589      4591      4585      4587      4589      4592
      4586      4585      4587      4588      4586      4585      4587      4589
      4587      4589      4592      4593      4587      4589      4592      4594
      4587      4589      4592      4595      4588      4587      4589      4590
      4588      4587      4589      4591      4588      4587      4589      4592
      4589      4592      4595      4596      4589      4592      4595      4597
      4589      4592      4595      4598      4590      4589      4592      4593
      4590      4589      4592      4594      4590      4589      4592      4595
      4591      4589      4592      4593      4591      4589      4592      4594
      4591      4589      4592      4595      4592      4595      4598      4599
      4592      4595      4598      4600      4592      4595      4598      4601
      4593      4592      4595      4596      4593      4592      4595      4597
      4593      4592      4595      4598      4594      4592      4595      4596
      4594      4592      4595      4597      4594      4592      4595      4598
      4595      4598      4601      4602      4595      4598      4601      4603
      4595      4598      4601      4604      4596      4595      4598      4599
      4596      4595      4598      4600      4596      4595      4598      4601
      4597      4595      4598      4599      4597      4595      4598      4600
      4597      4595      4598      4601      4598      4601      4604      4605
      4598      4601      4604      4606      4598      4601      4604      4607
      4599      4598      4601      4602      4599      4598      4601      4603
      4599      4598      4601      4604      4600      4598      4601      4602
      4600      4598      4601      4603      4600      4598      4601      4604
      4601      4604      4607      4608      4601      4604      4607      4609
      4601      4604      4607      4610      4602      4601      4604      4605
      4602      4601      4604      4606      4602      4601      4604      4607
      4603      4601      4604      4605      4603      4601      4604      4606
      4603      4601      4604      4607      4604      4607      4610      4611
      4604      4607      4610      4612      4604      4607      4610      4613
      4605      4604      4607      4608      4605      4604      4607      4609
      4605      4604      4607      4610      4606      4604      4607      4608
      4606      4604      4607      4609      4606      4604      4607      4610
      4608      4607      4610      4611      4608      4607      4610      4612
      4608      4607      4610      4613      4609      4607      4610      4611
      4609      4607      4610      4612      4609      4607      4610      4613
      4614      4617      4620      4621      4614      4617      4620      4622
      4614      4617      4620      4623      4615      4614      4617      4618
      4615      4614      4617      4619      4615      4614      4617      4620
      4616      4614      4617      4618      4616      4614      4617      4619
      4616      4614      4617      4620      4617      4620      4623      4624
      4617      4620      4623      4625      4617      4620      4623      4626
      4618      4617      4620      4621      4618      4617      4620      4622
      4618      4617      4620      4623      4619      4617      4620      4621
      4619      4617      4620      4622      4619      4617      4620      4623
      4620      4623      4626      4627      4620      4623      4626      4628
      4620      4623      4626      4629      4621      4620      4623      4624
      4621      4620      4623      4625      4621      4620      4623      4626
      4622      4620      4623      4624      4622      4620      4623      4625
      4622      4620      4623      4626      4623      4626      4629      4630
      4623      4626      4629      4631      4623      4626      4629      4632
      4624      4623      4626      4627      4624      4623      4626      4628
      4624      4623      4626      4629      4625      4623      4626      4627
      4625      4623      4626      4628      4625      4623      4626      4629
      4626      4629      4632      4633      4626      4629      4632      4634
      4626      4629      4632      4635      4627      4626      4629      4630
      4627      4626      4629      4631      4627      4626      4629      4632
      4628      4626      4629      4630      4628      4626      4629      4631
      4628      4626      4629      4632      4629      4632      4635      4636
      4629      4632      4635      4637      4629      4632      4635      4638
      4630      4629      4632      4633      4630      4629      4632      4634
      4630      4629      4632      4635      4631      4629      4632      4633
      4631      4629      4632      4634      4631      4629      4632      4635
      4632      4635      4638      4639      4632      4635      4638      4640
      4632      4635      4638      4641      4633      4632      4635      4636
      4633      4632      4635      4637      4633      4632      4635      4638
      4634      4632      4635      4636      4634      4632      4635      4637
      4634      4632      4635      4638      4635      4638      4641      4642
      4635      4638      4641      4643      4635      4638      4641      4644
      4636      4635      4638      4639      4636      4635      4638      4640
      4636      4635      4638      4641      4637      4635      4638      4639
      4637      4635      4638      4640      4637      4635      4638      4641
      4638      4641      4644      4645      4638      4641      4644      4646
      4638      4641      4644      4647      4639      4638      4641      4642
      4639      4638      4641      4643      4639      4638      4641      4644
      4640      4638      4641      4642      4640      4638      4641      4643
      4640      4638      4641      4644      4641      4644      4647      4648
      4641      4644      4647      4649      4641      4644      4647      4650
      4642      4641      4644      4645      4642      4641      4644      4646
      4642      4641      4644      4647      4643      4641      4644      4645
      4643      4641      4644      4646      4643      4641      4644      4647
      4644      4647      4650      4651      4644      4647      4650      4652
      4644      4647      4650      4653      4645      4644      4647      4648
      4645      4644      4647      4649      4645      4644      4647      4650
      4646      4644      4647      4648      4646      4644      4647      4649
      4646      4644      4647      4650      4647      4650      4653      4654
      4647      4650      4653      4655      4647      4650      4653      4656
      4648      4647      4650      4651      4648      4647      4650      4652
      4648      4647      4650      4653      4649      4647      4650      4651
      4649      4647      4650      4652      4649      4647      4650      4653
      4651      4650      4653      4654      4651      4650      4653      4655
      4651      4650      4653      4656      4652      4650      4653      4654
      4652      4650      4653      4655      4652      4650      4653      4656
      4657      4661      4664      4665      4657      4661      4664      4666
      4657      4661      4664      4671      4658      4657      4661      4662
      4658      4657      4661      4663      4658      4657      4661      4664
      4659      4657      4661      4662      4659      4657      4661      4663
      4659      4657      4661      4664      4660      4657      4661      4662
      4660      4657      4661      4663      4660      4657      4661      4664
      4661      4664      4671      4667      4662      4661      4664      4665
      4662      4661      4664      4666      4662      4661      4664      4671
      4663      4661      4664      4665      4663      4661      4664      4666
      4663      4661      4664      4671      4664      4671      4667      4668
      4664      4671      4667      4669      4664      4671      4667      4670
      4665      4664      4671      4667      4666      4664      4671      4667
      4667      4670      4672      4673      4667      4670      4672      4674
      4667      4670      4672      4675      4668      4667      4670      4672
      4669      4667      4670      4672      4670      4672      4675      4676
      4670      4672      4675      4677      4670      4672      4675      4683
      4671      4667      4670      4672      4672      4675      4677      4678
      4672      4675      4683      4684      4672      4675      4683      4685
      4672      4675      4683      4686      4673      4672      4675      4676
      4673      4672      4675      4677      4673      4672      4675      4683
      4674      4672      4675      4676      4674      4672      4675      4677
      4674      4672      4675      4683      4675      4677      4678      4679
      4675      4677      4678      4680      4675      4683      4686      4687
      4676      4675      4677      4678      4676      4675      4683      4684
      4676      4675      4683      4685      4676      4675      4683      4686
      4677      4675      4683      4684      4677      4675      4683      4685
      4677      4675      4683      4686      4677      4678      4680      4681
      4677      4678      4680      4682      4677      4678      4680      4692
      4678      4677      4675      4683      4678      4680      4692      4693
      4678      4680      4692      4694      4678      4680      4692      4695
      4679      4678      4680      4681      4679      4678      4680      4682
      4679      4678      4680      4692      4680      4692      4695      4696
      4680      4692      4695      4697      4680      4692      4695      4698
      4681      4680      4692      4693      4681      4680      4692      4694
      4681      4680      4692      4695      4682      4680      4692      4693
      4682      4680      4692      4694      4682      4680      4692      4695
      4683      4686      4687      4688      4683      4686      4687      4689
      4684      4683      4686      4687      4685      4683      4686      4687
      4686      4687      4689      4690      4686      4687      4689      4691
      4686      4687      4689      4736      4687      4689      4736      4737
      4687      4689      4736      4738      4687      4689      4736      4739
      4688      4687      4689      4690      4688      4687      4689      4691
      4688      4687      4689      4736      4689      4736      4739      4740
      4689      4736      4739      4741      4689      4736      4739      4742
      4690      4689      4736      4737      4690      4689      4736      4738
      4690      4689      4736      4739      4691      4689      4736      4737
      4691      4689      4736      4738      4691      4689      4736      4739
      4692      4695      4698      4699      4692      4695      4698      4700
      4692      4695      4698      4701      4693      4692      4695      4696
      4693      4692      4695      4697      4693      4692      4695      4698
      4694      4692      4695      4696      4694      4692      4695      4697
      4694      4692      4695      4698      4695      4698      4701      4702
      4695      4698      4701      4703      4695      4698      4701      4704
      4696      4695      4698      4699      4696      4695      4698      4700
      4696      4695      4698      4701      4697      4695      4698      4699
      4697      4695      4698      4700      4697      4695      4698      4701
      4698      4701      4704      4705      4698      4701      4704      4706
      4698      4701      4704      4707      4699      4698      4701      4702
      4699      4698      4701      4703      4699      4698      4701      4704
      4700      4698      4701      4702      4700      4698      4701      4703
      4700      4698      4701      4704      4701      4704      4707      4708
      4701      4704      4707      4709      4701      4704      4707      4710
      4702      4701      4704      4705      4702      4701      4704      4706
      4702      4701      4704      4707      4703      4701      4704      4705
      4703      4701      4704      4706      4703      4701      4704      4707
      4704      4707      4710      4711      4704      4707      4710      4712
      4704      4707      4710      4715      4705      4704      4707      4708
      4705      4704      4707      4709      4705      4704      4707      4710
      4706      4704      4707      4708      4706      4704      4707      4709
      4706      4704      4707      4710      4707      4710      4712      4713
      4707      4710      4712      4714      4707      4710      4712      4715
      4707      4710      4715      4712      4707      4710      4715      4716
      4707      4710      4715      4717      4708      4707      4710      4711
      4708      4707      4710      4712      4708      4707      4710      4715
      4709      4707      4710      4711      4709      4707      4710      4712
      4709      4707      4710      4715      4710      4712      4715      4716
      4710      4712      4715      4717      4710      4715      4712      4713
      4710      4715      4712      4714      4710      4715      4717      4718
      4710      4715      4717      4719      4710      4715      4717      4720
      4711      4710      4712      4713      4711      4710      4712      4714
      4711      4710      4712      4715      4711      4710      4715      4712
      4711      4710      4715      4716      4711      4710      4715      4717
      4712      4710      4715      4716      4712      4710      4715      4717
      4712      4715      4717      4718      4712      4715      4717      4719
      4712      4715      4717      4720      4713      4712      4710      4715
      4713      4712      4715      4716      4713      4712      4715      4717
      4714      4712      4710      4715      4714      4712      4715      4716
      4714      4712      4715      4717      4715      4717      4720      4721
      4715      4717      4720      4722      4715      4717      4720      4723
      4716      4715      4717      4718      4716      4715      4717      4719
      4716      4715      4717      4720      4717      4720      4723      4724
      4717      4720      4723      4725      4717      4720      4723      4726
      4718      4717      4720      4721      4718      4717      4720      4722
      4718      4717      4720      4723      4719      4717      4720      4721
      4719      4717      4720      4722      4719      4717      4720      4723
      4720      4723      4726      4727      4720      4723      4726      4728
      4720      4723      4726      4729      4721      4720      4723      4724
      4721      4720      4723      4725      4721      4720      4723      4726
      4722      4720      4723      4724      4722      4720      4723      4725
      4722      4720      4723      4726      4723      4726      4729      4730
      4723      4726      4729      4731      4723      4726      4729      4732
      4724      4723      4726      4727      4724      4723      4726      4728
      4724      4723      4726      4729      4725      4723      4726      4727
      4725      4723      4726      4728      4725      4723      4726      4729
      4726      4729      4732      4733      4726      4729      4732      4734
      4726      4729      4732      4735      4727      4726      4729      4730
      4727      4726      4729      4731      4727      4726      4729      4732
      4728      4726      4729      4730      4728      4726      4729      4731
      4728      4726      4729      4732      4730      4729      4732      4733
      4730      4729      4732      4734      4730      4729      4732      4735
      4731      4729      4732      4733      4731      4729      4732      4734
      4731      4729      4732      4735      4736      4739      4742      4743
      4736      4739      4742      4744      4736      4739      4742      4745
      4737      4736      4739      4740      4737      4736      4739      4741
      4737      4736      4739      4742      4738      4736      4739      4740
      4738      4736      4739      4741      4738      4736      4739      4742
      4739      4742      4745      4746      4739      4742      4745      4747
      4739      4742      4745      4748      4740      4739      4742      4743
      4740      4739      4742      4744      4740      4739      4742      4745
      4741      4739      4742      4743      4741      4739      4742      4744
      4741      4739      4742      4745      4742      4745      4748      4749
      4742      4745      4748      4750      4742      4745      4748      4751
      4743      4742      4745      4746      4743      4742      4745      4747
      4743      4742      4745      4748      4744      4742      4745      4746
      4744      4742      4745      4747      4744      4742      4745      4748
      4745      4748      4751      4752      4745      4748      4751      4753
      4745      4748      4751      4754      4746      4745      4748      4749
      4746      4745      4748      4750      4746      4745      4748      4751
      4747      4745      4748      4749      4747      4745      4748      4750
      4747      4745      4748      4751      4748      4751      4754      4755
      4748      4751      4754      4756      4748      4751      4754      4757
      4749      4748      4751      4752      4749      4748      4751      4753
      4749      4748      4751      4754      4750      4748      4751      4752
      4750      4748      4751      4753      4750      4748      4751      4754
      4751      4754      4757      4758      4751      4754      4757      4759
      4751      4754      4757      4760      4752      4751      4754      4755
      4752      4751      4754      4756      4752      4751      4754      4757
      4753      4751      4754      4755      4753      4751      4754      4756
      4753      4751      4754      4757      4754      4757      4760      4761
      4754      4757      4760      4762      4754      4757      4760      4763
      4755      4754      4757      4758      4755      4754      4757      4759
      4755      4754      4757      4760      4756      4754      4757      4758
      4756      4754      4757      4759      4756      4754      4757      4760
      4757      4760      4763      4764      4757      4760      4763      4765
      4757      4760      4763      4766      4758      4757      4760      4761
      4758      4757      4760      4762      4758      4757      4760      4763
      4759      4757      4760      4761      4759      4757      4760      4762
      4759      4757      4760      4763      4760      4763      4766      4767
      4760      4763      4766      4768      4760      4763      4766      4769
      4761      4760      4763      4764      4761      4760      4763      4765
      4761      4760      4763      4766      4762      4760      4763      4764
      4762      4760      4763      4765      4762      4760      4763      4766
      4763      4766      4769      4770      4763      4766      4769      4771
      4763      4766      4769      4772      4764      4763      4766      4767
      4764      4763      4766      4768      4764      4763      4766      4769
      4765      4763      4766      4767      4765      4763      4766      4768
      4765      4763      4766      4769      4766      4769      4772      4773
      4766      4769      4772      4774      4766      4769      4772      4775
      4767      4766      4769      4770      4767      4766      4769      4771
      4767      4766      4769      4772      4768      4766      4769      4770
      4768      4766      4769      4771      4768      4766      4769      4772
      4770      4769      4772      4773      4770      4769      4772      4774
      4770      4769      4772      4775      4771      4769      4772      4773
      4771      4769      4772      4774      4771      4769      4772      4775
      4776      4780      4783      4784      4776      4780      4783      4785
      4776      4780      4783      4790      4777      4776      4780      4781
      4777      4776      4780      4782      4777      4776      4780      4783
      4778      4776      4780      4781      4778      4776      4780      4782
      4778      4776      4780      4783      4779      4776      4780      4781
      4779      4776      4780      4782      4779      4776      4780      4783
      4780      4783      4790      4786      4781      4780      4783      4784
      4781      4780      4783      4785      4781      4780      4783      4790
      4782      4780      4783      4784      4782      4780      4783      4785
      4782      4780      4783      4790      4783      4790      4786      4787
      4783      4790      4786      4788      4783      4790      4786      4789
      4784      4783      4790      4786      4785      4783      4790      4786
      4786      4789      4791      4792      4786      4789      4791      4793
      4786      4789      4791      4794      4787      4786      4789      4791
      4788      4786      4789      4791      4789      4791      4794      4795
      4789      4791      4794      4796      4789      4791      4794      4802
      4790      4786      4789      4791      4791      4794      4796      4797
      4791      4794      4802      4803      4791      4794      4802      4804
      4791      4794      4802      4805      4792      4791      4794      4795
      4792      4791      4794      4796      4792      4791      4794      4802
      4793      4791      4794      4795      4793      4791      4794      4796
      4793      4791      4794      4802      4794      4796      4797      4798
      4794      4796      4797      4799      4794      4802      4805      4806
      4795      4794      4796      4797      4795      4794      4802      4803
      4795      4794      4802      4804      4795      4794      4802      4805
      4796      4794      4802      4803      4796      4794      4802      4804
      4796      4794      4802      4805      4796      4797      4799      4800
      4796      4797      4799      4801      4796      4797      4799      4811
      4797      4796      4794      4802      4797      4799      4811      4812
      4797      4799      4811      4813      4797      4799      4811      4814
      4798      4797      4799      4800      4798      4797      4799      4801
      4798      4797      4799      4811      4799      4811      4814      4815
      4799      4811      4814      4816      4799      4811      4814      4817
      4800      4799      4811      4812      4800      4799      4811      4813
      4800      4799      4811      4814      4801      4799      4811      4812
      4801      4799      4811      4813      4801      4799      4811      4814
      4802      4805      4806      4807      4802      4805      4806      4808
      4803      4802      4805      4806      4804      4802      4805      4806
      4805      4806      4808      4809      4805      4806      4808      4810
      4805      4806      4808      4855      4806      4808      4855      4856
      4806      4808      4855      4857      4806      4808      4855      4858
      4807      4806      4808      4809      4807      4806      4808      4810
      4807      4806      4808      4855      4808      4855      4858      4859
      4808      4855      4858      4860      4808      4855      4858      4861
      4809      4808      4855      4856      4809      4808      4855      4857
      4809      4808      4855      4858      4810      4808      4855      4856
      4810      4808      4855      4857      4810      4808      4855      4858
      4811      4814      4817      4818      4811      4814      4817      4819
      4811      4814      4817      4820      4812      4811      4814      4815
      4812      4811      4814      4816      4812      4811      4814      4817
      4813      4811      4814      4815      4813      4811      4814      4816
      4813      4811      4814      4817      4814      4817      4820      4821
      4814      4817      4820      4822      4814      4817      4820      4823
      4815      4814      4817      4818      4815      4814      4817      4819
      4815      4814      4817      4820      4816      4814      4817      4818
      4816      4814      4817      4819      4816      4814      4817      4820
      4817      4820      4823      4824      4817      4820      4823      4825
      4817      4820      4823      4826      4818      4817      4820      4821
      4818      4817      4820      4822      4818      4817      4820      4823
      4819      4817      4820      4821      4819      4817      4820      4822
      4819      4817      4820      4823      4820      4823      4826      4827
      4820      4823      4826      4828      4820      4823      4826      4829
      4821      4820      4823      4824      4821      4820      4823      4825
      4821      4820      4823      4826      4822      4820      4823      4824
      4822      4820      4823      4825      4822      4820      4823      4826
      4823      4826      4829      4830      4823      4826      4829      4831
      4823      4826      4829      4834      4824      4823      4826      4827
      4824      4823      4826      4828      4824      4823      4826      4829
      4825      4823      4826      4827      4825      4823      4826      4828
      4825      4823      4826      4829      4826      4829      4831      4832
      4826      4829      4831      4833      4826      4829      4831      4834
      4826      4829      4834      4831      4826      4829      4834      4835
      4826      4829      4834      4836      4827      4826      4829      4830
      4827      4826      4829      4831      4827      4826      4829      4834
      4828      4826      4829      4830      4828      4826      4829      4831
      4828      4826      4829      4834      4829      4831      4834      4835
      4829      4831      4834      4836      4829      4834      4831      4832
      4829      4834      4831      4833      4829      4834      4836      4837
      4829      4834      4836      4838      4829      4834      4836      4839
      4830      4829      4831      4832      4830      4829      4831      4833
      4830      4829      4831      4834      4830      4829      4834      4831
      4830      4829      4834      4835      4830      4829      4834      4836
      4831      4829      4834      4835      4831      4829      4834      4836
      4831      4834      4836      4837      4831      4834      4836      4838
      4831      4834      4836      4839      4832      4831      4829      4834
      4832      4831      4834      4835      4832      4831      4834      4836
      4833      4831      4829      4834      4833      4831      4834      4835
      4833      4831      4834      4836      4834      4836      4839      4840
      4834      4836      4839      4841      4834      4836      4839      4842
      4835      4834      4836      4837      4835      4834      4836      4838
      4835      4834      4836      4839      4836      4839      4842      4843
      4836      4839      4842      4844      4836      4839      4842      4845
      4837      4836      4839      4840      4837      4836      4839      4841
      4837      4836      4839      4842      4838      4836      4839      4840
      4838      4836      4839      4841      4838      4836      4839      4842
      4839      4842      4845      4846      4839      4842      4845      4847
      4839      4842      4845      4848      4840      4839      4842      4843
      4840      4839      4842      4844      4840      4839      4842      4845
      4841      4839      4842      4843      4841      4839      4842      4844
      4841      4839      4842      4845      4842      4845      4848      4849
      4842      4845      4848      4850      4842      4845      4848      4851
      4843      4842      4845      4846      4843      4842      4845      4847
      4843      4842      4845      4848      4844      4842      4845      4846
      4844      4842      4845      4847      4844      4842      4845      4848
      4845      4848      4851      4852      4845      4848      4851      4853
      4845      4848      4851      4854      4846      4845      4848      4849
      4846      4845      4848      4850      4846      4845      4848      4851
      4847      4845      4848      4849      4847      4845      4848      4850
      4847      4845      4848      4851      4849      4848      4851      4852
      4849      4848      4851      4853      4849      4848      4851      4854
      4850      4848      4851      4852      4850      4848      4851      4853
      4850      4848      4851      4854      4855      4858      4861      4862
      4855      4858      4861      4863      4855      4858      4861      4864
      4856      4855      4858      4859      4856      4855      4858      4860
      4856      4855      4858      4861      4857      4855      4858      4859
      4857      4855      4858      4860      4857      4855      4858      4861
      4858      4861      4864      4865      4858      4861      4864      4866
      4858      4861      4864      4867      4859      4858      4861      4862
      4859      4858      4861      4863      4859      4858      4861      4864
      4860      4858      4861      4862      4860      4858      4861      4863
      4860      4858      4861      4864      4861      4864      4867      4868
      4861      4864      4867      4869      4861      4864      4867      4870
      4862      4861      4864      4865      4862      4861      4864      4866
      4862      4861      4864      4867      4863      4861      4864      4865
      4863      4861      4864      4866      4863      4861      4864      4867
      4864      4867      4870      4871      4864      4867      4870      4872
      4864      4867      4870      4873      4865      4864      4867      4868
      4865      4864      4867      4869      4865      4864      4867      4870
      4866      4864      4867      4868      4866      4864      4867      4869
      4866      4864      4867      4870      4867      4870      4873      4874
      4867      4870      4873      4875      4867      4870      4873      4876
      4868      4867      4870      4871      4868      4867      4870      4872
      4868      4867      4870      4873      4869      4867      4870      4871
      4869      4867      4870      4872      4869      4867      4870      4873
      4870      4873      4876      4877      4870      4873      4876      4878
      4870      4873      4876      4879      4871      4870      4873      4874
      4871      4870      4873      4875      4871      4870      4873      4876
      4872      4870      4873      4874      4872      4870      4873      4875
      4872      4870      4873      4876      4873      4876      4879      4880
      4873      4876      4879      4881      4873      4876      4879      4882
      4874      4873      4876      4877      4874      4873      4876      4878
      4874      4873      4876      4879      4875      4873      4876      4877
      4875      4873      4876      4878      4875      4873      4876      4879
      4876      4879      4882      4883      4876      4879      4882      4884
      4876      4879      4882      4885      4877      4876      4879      4880
      4877      4876      4879      4881      4877      4876      4879      4882
      4878      4876      4879      4880      4878      4876      4879      4881
      4878      4876      4879      4882      4879      4882      4885      4886
      4879      4882      4885      4887      4879      4882      4885      4888
      4880      4879      4882      4883      4880      4879      4882      4884
      4880      4879      4882      4885      4881      4879      4882      4883
      4881      4879      4882      4884      4881      4879      4882      4885
      4882      4885      4888      4889      4882      4885      4888      4890
      4882      4885      4888      4891      4883      4882      4885      4886
      4883      4882      4885      4887      4883      4882      4885      4888
      4884      4882      4885      4886      4884      4882      4885      4887
      4884      4882      4885      4888      4885      4888      4891      4892
      4885      4888      4891      4893      4885      4888      4891      4894
      4886      4885      4888      4889      4886      4885      4888      4890
      4886      4885      4888      4891      4887      4885      4888      4889
      4887      4885      4888      4890      4887      4885      4888      4891
      4888      4891      4894      4895      4888      4891      4894      4896
      4888      4891      4894      4897      4889      4888      4891      4892
      4889      4888      4891      4893      4889      4888      4891      4894
      4890      4888      4891      4892      4890      4888      4891      4893
      4890      4888      4891      4894      4892      4891      4894      4895
      4892      4891      4894      4896      4892      4891      4894      4897
      4893      4891      4894      4895      4893      4891      4894      4896
      4893      4891      4894      4897      4898      4902      4905      4906
      4898      4902      4905      4907      4898      4902      4905      4912
      4899      4898      4902      4903      4899      4898      4902      4904
      4899      4898      4902      4905      4900      4898      4902      4903
      4900      4898      4902      4904      4900      4898      4902      4905
      4901      4898      4902      4903      4901      4898      4902      4904
      4901      4898      4902      4905      4902      4905      4912      4908
      4903      4902      4905      4906      4903      4902      4905      4907
      4903      4902      4905      4912      4904      4902      4905      4906
      4904      4902      4905      4907      4904      4902      4905      4912
      4905      4912      4908      4909      4905      4912      4908      4910
      4905      4912      4908      4911      4906      4905      4912      4908
      4907      4905      4912      4908      4908      4911      4913      4914
      4908      4911      4913      4915      4908      4911      4913      4916
      4909      4908      4911      4913      4910      4908      4911      4913
      4911      4913      4916      4917      4911      4913      4916      4918
      4911      4913      4916      4924      4912      4908      4911      4913
      4913      4916      4918      4919      4913      4916      4924      4925
      4913      4916      4924      4926      4913      4916      4924      4927
      4914      4913      4916      4917      4914      4913      4916      4918
      4914      4913      4916      4924      4915      4913      4916      4917
      4915      4913      4916      4918      4915      4913      4916      4924
      4916      4918      4919      4920      4916      4918      4919      4921
      4916      4924      4927      4928      4917      4916      4918      4919
      4917      4916      4924      4925      4917      4916      4924      4926
      4917      4916      4924      4927      4918      4916      4924      4925
      4918      4916      4924      4926      4918      4916      4924      4927
      4918      4919      4921      4922      4918      4919      4921      4923
      4918      4919      4921      4933      4919      4918      4916      4924
      4919      4921      4933      4934      4919      4921      4933      4935
      4919      4921      4933      4936      4920      4919      4921      4922
      4920      4919      4921      4923      4920      4919      4921      4933
      4921      4933      4936      4937      4921      4933      4936      4938
      4921      4933      4936      4939      4922      4921      4933      4934
      4922      4921      4933      4935      4922      4921      4933      4936
      4923      4921      4933      4934      4923      4921      4933      4935
      4923      4921      4933      4936      4924      4927      4928      4929
      4924      4927      4928      4930      4925      4924      4927      4928
      4926      4924      4927      4928      4927      4928      4930      4931
      4927      4928      4930      4932      4927      4928      4930      4977
      4928      4930      4977      4978      4928      4930      4977      4979
      4928      4930      4977      4980      4929      4928      4930      4931
      4929      4928      4930      4932      4929      4928      4930      4977
      4930      4977      4980      4981      4930      4977      4980      4982
      4930      4977      4980      4983      4931      4930      4977      4978
      4931      4930      4977      4979      4931      4930      4977      4980
      4932      4930      4977      4978      4932      4930      4977      4979
      4932      4930      4977      4980      4933      4936      4939      4940
      4933      4936      4939      4941      4933      4936      4939      4942
      4934      4933      4936      4937      4934      4933      4936      4938
      4934      4933      4936      4939      4935      4933      4936      4937
      4935      4933      4936      4938      4935      4933      4936      4939
      4936      4939      4942      4943      4936      4939      4942      4944
      4936      4939      4942      4945      4937      4936      4939      4940
      4937      4936      4939      4941      4937      4936      4939      4942
      4938      4936      4939      4940      4938      4936      4939      4941
      4938      4936      4939      4942      4939      4942      4945      4946
      4939      4942      4945      4947      4939      4942      4945      4948
      4940      4939      4942      4943      4940      4939      4942      4944
      4940      4939      4942      4945      4941      4939      4942      4943
      4941      4939      4942      4944      4941      4939      4942      4945
      4942      4945      4948      4949      4942      4945      4948      4950
      4942      4945      4948      4951      4943      4942      4945      4946
      4943      4942      4945      4947      4943      4942      4945      4948
      4944      4942      4945      4946      4944      4942      4945      4947
      4944      4942      4945      4948      4945      4948      4951      4952
      4945      4948      4951      4953      4945      4948      4951      4956
      4946      4945      4948      4949      4946      4945      4948      4950
      4946      4945      4948      4951      4947      4945      4948      4949
      4947      4945      4948      4950      4947      4945      4948      4951
      4948      4951      4953      4954      4948      4951      4953      4955
      4948      4951      4953      4956      4948      4951      4956      4953
      4948      4951      4956      4957      4948      4951      4956      4958
      4949      4948      4951      4952      4949      4948      4951      4953
      4949      4948      4951      4956      4950      4948      4951      4952
      4950      4948      4951      4953      4950      4948      4951      4956
      4951      4953      4956      4957      4951      4953      4956      4958
      4951      4956      4953      4954      4951      4956      4953      4955
      4951      4956      4958      4959      4951      4956      4958      4960
      4951      4956      4958      4961      4952      4951      4953      4954
      4952      4951      4953      4955      4952      4951      4953      4956
      4952      4951      4956      4953      4952      4951      4956      4957
      4952      4951      4956      4958      4953      4951      4956      4957
      4953      4951      4956      4958      4953      4956      4958      4959
      4953      4956      4958      4960      4953      4956      4958      4961
      4954      4953      4951      4956      4954      4953      4956      4957
      4954      4953      4956      4958      4955      4953      4951      4956
      4955      4953      4956      4957      4955      4953      4956      4958
      4956      4958      4961      4962      4956      4958      4961      4963
      4956      4958      4961      4964      4957      4956      4958      4959
      4957      4956      4958      4960      4957      4956      4958      4961
      4958      4961      4964      4965      4958      4961      4964      4966
      4958      4961      4964      4967      4959      4958      4961      4962
      4959      4958      4961      4963      4959      4958      4961      4964
      4960      4958      4961      4962      4960      4958      4961      4963
      4960      4958      4961      4964      4961      4964      4967      4968
      4961      4964      4967      4969      4961      4964      4967      4970
      4962      4961      4964      4965      4962      4961      4964      4966
      4962      4961      4964      4967      4963      4961      4964      4965
      4963      4961      4964      4966      4963      4961      4964      4967
      4964      4967      4970      4971      4964      4967      4970      4972
      4964      4967      4970      4973      4965      4964      4967      4968
      4965      4964      4967      4969      4965      4964      4967      4970
      4966      4964      4967      4968      4966      4964      4967      4969
      4966      4964      4967      4970      4967      4970      4973      4974
      4967      4970      4973      4975      4967      4970      4973      4976
      4968      4967      4970      4971      4968      4967      4970      4972
      4968      4967      4970      4973      4969      4967      4970      4971
      4969      4967      4970      4972      4969      4967      4970      4973
      4971      4970      4973      4974      4971      4970      4973      4975
      4971      4970      4973      4976      4972      4970      4973      4974
      4972      4970      4973      4975      4972      4970      4973      4976
      4977      4980      4983      4984      4977      4980      4983      4985
      4977      4980      4983      4986      4978      4977      4980      4981
      4978      4977      4980      4982      4978      4977      4980      4983
      4979      4977      4980      4981      4979      4977      4980      4982
      4979      4977      4980      4983      4980      4983      4986      4987
      4980      4983      4986      4988      4980      4983      4986      4989
      4981      4980      4983      4984      4981      4980      4983      4985
      4981      4980      4983      4986      4982      4980      4983      4984
      4982      4980      4983      4985      4982      4980      4983      4986
      4983      4986      4989      4990      4983      4986      4989      4991
      4983      4986      4989      4992      4984      4983      4986      4987
      4984      4983      4986      4988      4984      4983      4986      4989
      4985      4983      4986      4987      4985      4983      4986      4988
      4985      4983      4986      4989      4986      4989      4992      4993
      4986      4989      4992      4994      4986      4989      4992      4995
      4987      4986      4989      4990      4987      4986      4989      4991
      4987      4986      4989      4992      4988      4986      4989      4990
      4988      4986      4989      4991      4988      4986      4989      4992
      4989      4992      4995      4996      4989      4992      4995      4997
      4989      4992      4995      4998      4990      4989      4992      4993
      4990      4989      4992      4994      4990      4989      4992      4995
      4991      4989      4992      4993      4991      4989      4992      4994
      4991      4989      4992      4995      4992      4995      4998      4999
      4992      4995      4998      5000      4992      4995      4998      5001
      4993      4992      4995      4996      4993      4992      4995      4997
      4993      4992      4995      4998      4994      4992      4995      4996
      4994      4992      4995      4997      4994      4992      4995      4998
      4995      4998      5001      5002      4995      4998      5001      5003
      4995      4998      5001      5004      4996      4995      4998      4999
      4996      4995      4998      5000      4996      4995      4998      5001
      4997      4995      4998      4999      4997      4995      4998      5000
      4997      4995      4998      5001      4998      5001      5004      5005
      4998      5001      5004      5006      4998      5001      5004      5007
      4999      4998      5001      5002      4999      4998      5001      5003
      4999      4998      5001      5004      5000      4998      5001      5002
      5000      4998      5001      5003      5000      4998      5001      5004
      5001      5004      5007      5008      5001      5004      5007      5009
      5001      5004      5007      5010      5002      5001      5004      5005
      5002      5001      5004      5006      5002      5001      5004      5007
      5003      5001      5004      5005      5003      5001      5004      5006
      5003      5001      5004      5007      5004      5007      5010      5011
      5004      5007      5010      5012      5004      5007      5010      5013
      5005      5004      5007      5008      5005      5004      5007      5009
      5005      5004      5007      5010      5006      5004      5007      5008
      5006      5004      5007      5009      5006      5004      5007      5010
      5007      5010      5013      5014      5007      5010      5013      5015
      5007      5010      5013      5016      5008      5007      5010      5011
      5008      5007      5010      5012      5008      5007      5010      5013
      5009      5007      5010      5011      5009      5007      5010      5012
      5009      5007      5010      5013      5010      5013      5016      5017
      5010      5013      5016      5018      5010      5013      5016      5019
      5011      5010      5013      5014      5011      5010      5013      5015
      5011      5010      5013      5016      5012      5010      5013      5014
      5012      5010      5013      5015      5012      5010      5013      5016
      5014      5013      5016      5017      5014      5013      5016      5018
      5014      5013      5016      5019      5015      5013      5016      5017
      5015      5013      5016      5018      5015      5013      5016      5019
      5020      5025      5027      5028      5020      5025      5029      5030
      5020      5025      5029      5031      5020      5025      5029      5036
      5021      5020      5023      5024      5021      5020      5025      5026
      5021      5020      5025      5027      5021      5020      5025      5029
      5022      5020      5023      5024      5022      5020      5025      5026
      5022      5020      5025      5027      5022      5020      5025      5029
      5023      5020      5025      5026      5023      5020      5025      5027
      5023      5020      5025      5029      5024      5023      5020      5025
      5025      5029      5036      5032      5026      5025      5027      5028
      5026      5025      5029      5030      5026      5025      5029      5031
      5026      5025      5029      5036      5027      5025      5029      5030
      5027      5025      5029      5031      5027      5025      5029      5036
      5028      5027      5025      5029      5029      5036      5032      5033
      5029      5036      5032      5034      5029      5036      5032      5035
      5030      5029      5036      5032      5031      5029      5036      5032
      5032      5035      5037      5038      5032      5035      5037      5039
      5032      5035      5037      5040      5033      5032      5035      5037
      5034      5032      5035      5037      5035      5037      5040      5041
      5035      5037      5040      5042      5035      5037      5040      5048
      5036      5032      5035      5037      5037      5040      5042      5043
      5037      5040      5048      5049      5037      5040      5048      5050
      5037      5040      5048      5051      5038      5037      5040      5041
      5038      5037      5040      5042      5038      5037      5040      5048
      5039      5037      5040      5041      5039      5037      5040      5042
      5039      5037      5040      5048      5040      5042      5043      5044
      5040      5042      5043      5045      5040      5048      5051      5052
      5041      5040      5042      5043      5041      5040      5048      5049
      5041      5040      5048      5050      5041      5040      5048      5051
      5042      5040      5048      5049      5042      5040      5048      5050
      5042      5040      5048      5051      5042      5043      5045      5046
      5042      5043      5045      5047      5042      5043      5045      5057
      5043      5042      5040      5048      5043      5045      5057      5058
      5043      5045      5057      5059      5043      5045      5057      5060
      5044      5043      5045      5046      5044      5043      5045      5047
      5044      5043      5045      5057      5045      5057      5060      5061
      5045      5057      5060      5062      5045      5057      5060      5063
      5046      5045      5057      5058      5046      5045      5057      5059
      5046      5045      5057      5060      5047      5045      5057      5058
      5047      5045      5057      5059      5047      5045      5057      5060
      5048      5051      5052      5053      5048      5051      5052      5054
      5049      5048      5051      5052      5050      5048      5051      5052
      5051      5052      5054      5055      5051      5052      5054      5056
      5051      5052      5054      5098      5052      5054      5098      5099
      5052      5054      5098      5100      5052      5054      5098      5101
      5053      5052      5054      5055      5053      5052      5054      5056
      5053      5052      5054      5098      5054      5098      5101      5102
      5054      5098      5101      5103      5054      5098      5101      5104
      5055      5054      5098      5099      5055      5054      5098      5100
      5055      5054      5098      5101      5056      5054      5098      5099
      5056      5054      5098      5100      5056      5054      5098      5101
      5057      5060      5063      5064      5057      5060      5063      5065
      5057      5060      5063      5066      5058      5057      5060      5061
      5058      5057      5060      5062      5058      5057      5060      5063
      5059      5057      5060      5061      5059      5057      5060      5062
      5059      5057      5060      5063      5060      5063      5066      5067
      5060      5063      5066      5068      5060      5063      5066      5069
      5061      5060      5063      5064      5061      5060      5063      5065
      5061      5060      5063      5066      5062      5060      5063      5064
      5062      5060      5063      5065      5062      5060      5063      5066
      5063      5066      5069      5070      5063      5066      5069      5071
      5063      5066      5069      5072      5064      5063      5066      5067
      5064      5063      5066      5068      5064      5063      5066      5069
      5065      5063      5066      5067      5065      5063      5066      5068
      5065      5063      5066      5069      5066      5069      5072      5073
      5066      5069      5072      5074      5066      5069      5072      5075
      5067      5066      5069      5070      5067      5066      5069      5071
      5067      5066      5069      5072      5068      5066      5069      5070
      5068      5066      5069      5071      5068      5066      5069      5072
      5069      5072      5075      5076      5069      5072      5075      5077
      5070      5069      5072      5073      5070      5069      5072      5074
      5070      5069      5072      5075      5071      5069      5072      5073
      5071      5069      5072      5074      5071      5069      5072      5075
      5072      5075      5077      5078      5072      5075      5077      5079
      5073      5072      5075      5076      5073      5072      5075      5077
      5074      5072      5075      5076      5074      5072      5075      5077
      5075      5077      5079      5080      5075      5077      5079      5081
      5075      5077      5079      5082      5076      5075      5077      5078
      5076      5075      5077      5079      5077      5079      5082      5083
      5077      5079      5082      5084      5077      5079      5082      5085
      5078      5077      5079      5080      5078      5077      5079      5081
      5078      5077      5079      5082      5079      5082      5085      5086
      5079      5082      5085      5087      5079      5082      5085      5088
      5080      5079      5082      5083      5080      5079      5082      5084
      5080      5079      5082      5085      5081      5079      5082      5083
      5081      5079      5082      5084      5081      5079      5082      5085
      5082      5085      5088      5089      5082      5085      5088      5090
      5082      5085      5088      5091      5083      5082      5085      5086
      5083      5082      5085      5087      5083      5082      5085      5088
      5084      5082      5085      5086      5084      5082      5085      5087
      5084      5082      5085      5088      5085      5088      5091      5092
      5085      5088      5091      5093      5085      5088      5091      5094
      5086      5085      5088      5089      5086      5085      5088      5090
      5086      5085      5088      5091      5087      5085      5088      5089
      5087      5085      5088      5090      5087      5085      5088      5091
      5088      5091      5094      5095      5088      5091      5094      5096
      5088      5091      5094      5097      5089      5088      5091      5092
      5089      5088      5091      5093      5089      5088      5091      5094
      5090      5088      5091      5092      5090      5088      5091      5093
      5090      5088      5091      5094      5092      5091      5094      5095
      5092      5091      5094      5096      5092      5091      5094      5097
      5093      5091      5094      5095      5093      5091      5094      5096
      5093      5091      5094      5097      5098      5101      5104      5105
      5098      5101      5104      5106      5098      5101      5104      5107
      5099      5098      5101      5102      5099      5098      5101      5103
      5099      5098      5101      5104      5100      5098      5101      5102
      5100      5098      5101      5103      5100      5098      5101      5104
      5101      5104      5107      5108      5101      5104      5107      5109
      5101      5104      5107      5110      5102      5101      5104      5105
      5102      5101      5104      5106      5102      5101      5104      5107
      5103      5101      5104      5105      5103      5101      5104      5106
      5103      5101      5104      5107      5104      5107      5110      5111
      5104      5107      5110      5112      5104      5107      5110      5113
      5105      5104      5107      5108      5105      5104      5107      5109
      5105      5104      5107      5110      5106      5104      5107      5108
      5106      5104      5107      5109      5106      5104      5107      5110
      5107      5110      5113      5114      5107      5110      5113      5115
      5107      5110      5113      5116      5108      5107      5110      5111
      5108      5107      5110      5112      5108      5107      5110      5113
      5109      5107      5110      5111      5109      5107      5110      5112
      5109      5107      5110      5113      5110      5113      5116      5117
      5110      5113      5116      5118      5110      5113      5116      5119
      5111      5110      5113      5114      5111      5110      5113      5115
      5111      5110      5113      5116      5112      5110      5113      5114
      5112      5110      5113      5115      5112      5110      5113      5116
      5113      5116      5119      5120      5113      5116      5119      5121
      5113      5116      5119      5122      5114      5113      5116      5117
      5114      5113      5116      5118      5114      5113      5116      5119
      5115      5113      5116      5117      5115      5113      5116      5118
      5115      5113      5116      5119      5116      5119      5122      5123
      5116      5119      5122      5124      5116      5119      5122      5125
      5117      5116      5119      5120      5117      5116      5119      5121
      5117      5116      5119      5122      5118      5116      5119      5120
      5118      5116      5119      5121      5118      5116      5119      5122
      5119      5122      5125      5126      5119      5122      5125      5127
      5119      5122      5125      5128      5120      5119      5122      5123
      5120      5119      5122      5124      5120      5119      5122      5125
      5121      5119      5122      5123      5121      5119      5122      5124
      5121      5119      5122      5125      5122      5125      5128      5129
      5122      5125      5128      5130      5122      5125      5128      5131
      5123      5122      5125      5126      5123      5122      5125      5127
      5123      5122      5125      5128      5124      5122      5125      5126
      5124      5122      5125      5127      5124      5122      5125      5128
      5125      5128      5131      5132      5125      5128      5131      5133
      5125      5128      5131      5134      5126      5125      5128      5129
      5126      5125      5128      5130      5126      5125      5128      5131
      5127      5125      5128      5129      5127      5125      5128      5130
      5127      5125      5128      5131      5128      5131      5134      5135
      5128      5131      5134      5136      5128      5131      5134      5137
      5129      5128      5131      5132      5129      5128      5131      5133
      5129      5128      5131      5134      5130      5128      5131      5132
      5130      5128      5131      5133      5130      5128      5131      5134
      5131      5134      5137      5138      5131      5134      5137      5139
      5131      5134      5137      5140      5132      5131      5134      5135
      5132      5131      5134      5136      5132      5131      5134      5137
      5133      5131      5134      5135      5133      5131      5134      5136
      5133      5131      5134      5137      5135      5134      5137      5138
      5135      5134      5137      5139      5135      5134      5137      5140
      5136      5134      5137      5138      5136      5134      5137      5139
      5136      5134      5137      5140      5141      5146      5148      5149
      5141      5146      5150      5151      5141      5146      5150      5152
      5141      5146      5150      5157      5142      5141      5144      5145
      5142      5141      5146      5147      5142      5141      5146      5148
      5142      5141      5146      5150      5143      5141      5144      5145
      5143      5141      5146      5147      5143      5141      5146      5148
      5143      5141      5146      5150      5144      5141      5146      5147
      5144      5141      5146      5148      5144      5141      5146      5150
      5145      5144      5141      5146      5146      5150      5157      5153
      5147      5146      5148      5149      5147      5146      5150      5151
      5147      5146      5150      5152      5147      5146      5150      5157
      5148      5146      5150      5151      5148      5146      5150      5152
      5148      5146      5150      5157      5149      5148      5146      5150
      5150      5157      5153      5154      5150      5157      5153      5155
      5150      5157      5153      5156      5151      5150      5157      5153
      5152      5150      5157      5153      5153      5156      5158      5159
      5153      5156      5158      5160      5153      5156      5158      5161
      5154      5153      5156      5158      5155      5153      5156      5158
      5156      5158      5161      5162      5156      5158      5161      5163
      5156      5158      5161      5169      5157      5153      5156      5158
      5158      5161      5163      5164      5158      5161      5169      5170
      5158      5161      5169      5171      5158      5161      5169      5172
      5159      5158      5161      5162      5159      5158      5161      5163
      5159      5158      5161      5169      5160      5158      5161      5162
      5160      5158      5161      5163      5160      5158      5161      5169
      5161      5163      5164      5165      5161      5163      5164      5166
      5161      5169      5172      5173      5162      5161      5163      5164
      5162      5161      5169      5170      5162      5161      5169      5171
      5162      5161      5169      5172      5163      5161      5169      5170
      5163      5161      5169      5171      5163      5161      5169      5172
      5163      5164      5166      5167      5163      5164      5166      5168
      5163      5164      5166      5178      5164      5163      5161      5169
      5164      5166      5178      5179      5164      5166      5178      5180
      5164      5166      5178      5181      5165      5164      5166      5167
      5165      5164      5166      5168      5165      5164      5166      5178
      5166      5178      5181      5182      5166      5178      5181      5183
      5166      5178      5181      5184      5167      5166      5178      5179
      5167      5166      5178      5180      5167      5166      5178      5181
      5168      5166      5178      5179      5168      5166      5178      5180
      5168      5166      5178      5181      5169      5172      5173      5174
      5169      5172      5173      5175      5170      5169      5172      5173
      5171      5169      5172      5173      5172      5173      5175      5176
      5172      5173      5175      5177      5172      5173      5175      5222
      5173      5175      5222      5223      5173      5175      5222      5224
      5173      5175      5222      5225      5174      5173      5175      5176
      5174      5173      5175      5177      5174      5173      5175      5222
      5175      5222      5225      5226      5175      5222      5225      5227
      5175      5222      5225      5228      5176      5175      5222      5223
      5176      5175      5222      5224      5176      5175      5222      5225
      5177      5175      5222      5223      5177      5175      5222      5224
      5177      5175      5222      5225      5178      5181      5184      5185
      5178      5181      5184      5186      5178      5181      5184      5187
      5179      5178      5181      5182      5179      5178      5181      5183
      5179      5178      5181      5184      5180      5178      5181      5182
      5180      5178      5181      5183      5180      5178      5181      5184
      5181      5184      5187      5188      5181      5184      5187      5189
      5181      5184      5187      5190      5182      5181      5184      5185
      5182      5181      5184      5186      5182      5181      5184      5187
      5183      5181      5184      5185      5183      5181      5184      5186
      5183      5181      5184      5187      5184      5187      5190      5191
      5184      5187      5190      5192      5184      5187      5190      5193
      5185      5184      5187      5188      5185      5184      5187      5189
      5185      5184      5187      5190      5186      5184      5187      5188
      5186      5184      5187      5189      5186      5184      5187      5190
      5187      5190      5193      5194      5187      5190      5193      5195
      5187      5190      5193      5196      5188      5187      5190      5191
      5188      5187      5190      5192      5188      5187      5190      5193
      5189      5187      5190      5191      5189      5187      5190      5192
      5189      5187      5190      5193      5190      5193      5196      5197
      5190      5193      5196      5198      5190      5193      5196      5201
      5191      5190      5193      5194      5191      5190      5193      5195
      5191      5190      5193      5196      5192      5190      5193      5194
      5192      5190      5193      5195      5192      5190      5193      5196
      5193      5196      5198      5199      5193      5196      5198      5200
      5193      5196      5198      5201      5193      5196      5201      5198
      5193      5196      5201      5202      5193      5196      5201      5203
      5194      5193      5196      5197      5194      5193      5196      5198
      5194      5193      5196      5201      5195      5193      5196      5197
      5195      5193      5196      5198      5195      5193      5196      5201
      5196      5198      5201      5202      5196      5198      5201      5203
      5196      5201      5198      5199      5196      5201      5198      5200
      5196      5201      5203      5204      5196      5201      5203      5205
      5196      5201      5203      5206      5197      5196      5198      5199
      5197      5196      5198      5200      5197      5196      5198      5201
      5197      5196      5201      5198      5197      5196      5201      5202
      5197      5196      5201      5203      5198      5196      5201      5202
      5198      5196      5201      5203      5198      5201      5203      5204
      5198      5201      5203      5205      5198      5201      5203      5206
      5199      5198      5196      5201      5199      5198      5201      5202
      5199      5198      5201      5203      5200      5198      5196      5201
      5200      5198      5201      5202      5200      5198      5201      5203
      5201      5203      5206      5207      5201      5203      5206      5208
      5201      5203      5206      5209      5202      5201      5203      5204
      5202      5201      5203      5205      5202      5201      5203      5206
      5203      5206      5209      5210      5203      5206      5209      5211
      5203      5206      5209      5212      5204      5203      5206      5207
      5204      5203      5206      5208      5204      5203      5206      5209
      5205      5203      5206      5207      5205      5203      5206      5208
      5205      5203      5206      5209      5206      5209      5212      5213
      5206      5209      5212      5214      5206      5209      5212      5215
      5207      5206      5209      5210      5207      5206      5209      5211
      5207      5206      5209      5212      5208      5206      5209      5210
      5208      5206      5209      5211      5208      5206      5209      5212
      5209      5212      5215      5216      5209      5212      5215      5217
      5209      5212      5215      5218      5210      5209      5212      5213
      5210      5209      5212      5214      5210      5209      5212      5215
      5211      5209      5212      5213      5211      5209      5212      5214
      5211      5209      5212      5215      5212      5215      5218      5219
      5212      5215      5218      5220      5212      5215      5218      5221
      5213      5212      5215      5216      5213      5212      5215      5217
      5213      5212      5215      5218      5214      5212      5215      5216
      5214      5212      5215      5217      5214      5212      5215      5218
      5216      5215      5218      5219      5216      5215      5218      5220
      5216      5215      5218      5221      5217      5215      5218      5219
      5217      5215      5218      5220      5217      5215      5218      5221
      5222      5225      5228      5229      5222      5225      5228      5230
      5222      5225      5228      5231      5223      5222      5225      5226
      5223      5222      5225      5227      5223      5222      5225      5228
      5224      5222      5225      5226      5224      5222      5225      5227
      5224      5222      5225      5228      5225      5228      5231      5232
      5225      5228      5231      5233      5225      5228      5231      5234
      5226      5225      5228      5229      5226      5225      5228      5230
      5226      5225      5228      5231      5227      5225      5228      5229
      5227      5225      5228      5230      5227      5225      5228      5231
      5228      5231      5234      5235      5228      5231      5234      5236
      5228      5231      5234      5237      5229      5228      5231      5232
      5229      5228      5231      5233      5229      5228      5231      5234
      5230      5228      5231      5232      5230      5228      5231      5233
      5230      5228      5231      5234      5231      5234      5237      5238
      5231      5234      5237      5239      5231      5234      5237      5240
      5232      5231      5234      5235      5232      5231      5234      5236
      5232      5231      5234      5237      5233      5231      5234      5235
      5233      5231      5234      5236      5233      5231      5234      5237
      5234      5237      5240      5241      5234      5237      5240      5242
      5234      5237      5240      5243      5235      5234      5237      5238
      5235      5234      5237      5239      5235      5234      5237      5240
      5236      5234      5237      5238      5236      5234      5237      5239
      5236      5234      5237      5240      5237      5240      5243      5244
      5237      5240      5243      5245      5237      5240      5243      5246
      5238      5237      5240      5241      5238      5237      5240      5242
      5238      5237      5240      5243      5239      5237      5240      5241
      5239      5237      5240      5242      5239      5237      5240      5243
      5240      5243      5246      5247      5240      5243      5246      5248
      5240      5243      5246      5249      5241      5240      5243      5244
      5241      5240      5243      5245      5241      5240      5243      5246
      5242      5240      5243      5244      5242      5240      5243      5245
      5242      5240      5243      5246      5243      5246      5249      5250
      5243      5246      5249      5251      5243      5246      5249      5252
      5244      5243      5246      5247      5244      5243      5246      5248
      5244      5243      5246      5249      5245      5243      5246      5247
      5245      5243      5246      5248      5245      5243      5246      5249
      5246      5249      5252      5253      5246      5249      5252      5254
      5246      5249      5252      5255      5247      5246      5249      5250
      5247      5246      5249      5251      5247      5246      5249      5252
      5248      5246      5249      5250      5248      5246      5249      5251
      5248      5246      5249      5252      5249      5252      5255      5256
      5249      5252      5255      5257      5249      5252      5255      5258
      5250      5249      5252      5253      5250      5249      5252      5254
      5250      5249      5252      5255      5251      5249      5252      5253
      5251      5249      5252      5254      5251      5249      5252      5255
      5252      5255      5258      5259      5252      5255      5258      5260
      5252      5255      5258      5261      5253      5252      5255      5256
      5253      5252      5255      5257      5253      5252      5255      5258
      5254      5252      5255      5256      5254      5252      5255      5257
      5254      5252      5255      5258      5255      5258      5261      5262
      5255      5258      5261      5263      5255      5258      5261      5264
      5256      5255      5258      5259      5256      5255      5258      5260
      5256      5255      5258      5261      5257      5255      5258      5259
      5257      5255      5258      5260      5257      5255      5258      5261
      5259      5258      5261      5262      5259      5258      5261      5263
      5259      5258      5261      5264      5260      5258      5261      5262
      5260      5258      5261      5263      5260      5258      5261      5264
      5265      5269      5272      5273      5265      5269      5272      5274
      5265      5269      5272      5279      5266      5265      5269      5270
      5266      5265      5269      5271      5266      5265      5269      5272
      5267      5265      5269      5270      5267      5265      5269      5271
      5267      5265      5269      5272      5268      5265      5269      5270
      5268      5265      5269      5271      5268      5265      5269      5272
      5269      5272      5279      5275      5270      5269      5272      5273
      5270      5269      5272      5274      5270      5269      5272      5279
      5271      5269      5272      5273      5271      5269      5272      5274
      5271      5269      5272      5279      5272      5279      5275      5276
      5272      5279      5275      5277      5272      5279      5275      5278
      5273      5272      5279      5275      5274      5272      5279      5275
      5275      5278      5280      5281      5275      5278      5280      5282
      5275      5278      5280      5283      5276      5275      5278      5280
      5277      5275      5278      5280      5278      5280      5283      5284
      5278      5280      5283      5285      5278      5280      5283      5291
      5279      5275      5278      5280      5280      5283      5285      5286
      5280      5283      5291      5292      5280      5283      5291      5293
      5280      5283      5291      5294      5281      5280      5283      5284
      5281      5280      5283      5285      5281      5280      5283      5291
      5282      5280      5283      5284      5282      5280      5283      5285
      5282      5280      5283      5291      5283      5285      5286      5287
      5283      5285      5286      5288      5283      5291      5294      5295
      5284      5283      5285      5286      5284      5283      5291      5292
      5284      5283      5291      5293      5284      5283      5291      5294
      5285      5283      5291      5292      5285      5283      5291      5293
      5285      5283      5291      5294      5285      5286      5288      5289
      5285      5286      5288      5290      5285      5286      5288      5300
      5286      5285      5283      5291      5286      5288      5300      5301
      5286      5288      5300      5302      5286      5288      5300      5303
      5287      5286      5288      5289      5287      5286      5288      5290
      5287      5286      5288      5300      5288      5300      5303      5304
      5288      5300      5303      5305      5288      5300      5303      5306
      5289      5288      5300      5301      5289      5288      5300      5302
      5289      5288      5300      5303      5290      5288      5300      5301
      5290      5288      5300      5302      5290      5288      5300      5303
      5291      5294      5295      5296      5291      5294      5295      5297
      5292      5291      5294      5295      5293      5291      5294      5295
      5294      5295      5297      5298      5294      5295      5297      5299
      5294      5295      5297      5344      5295      5297      5344      5345
      5295      5297      5344      5346      5295      5297      5344      5347
      5296      5295      5297      5298      5296      5295      5297      5299
      5296      5295      5297      5344      5297      5344      5347      5348
      5297      5344      5347      5349      5297      5344      5347      5350
      5298      5297      5344      5345      5298      5297      5344      5346
      5298      5297      5344      5347      5299      5297      5344      5345
      5299      5297      5344      5346      5299      5297      5344      5347
      5300      5303      5306      5307      5300      5303      5306      5308
      5300      5303      5306      5309      5301      5300      5303      5304
      5301      5300      5303      5305      5301      5300      5303      5306
      5302      5300      5303      5304      5302      5300      5303      5305
      5302      5300      5303      5306      5303      5306      5309      5310
      5303      5306      5309      5311      5303      5306      5309      5312
      5304      5303      5306      5307      5304      5303      5306      5308
      5304      5303      5306      5309      5305      5303      5306      5307
      5305      5303      5306      5308      5305      5303      5306      5309
      5306      5309      5312      5313      5306      5309      5312      5314
      5306      5309      5312      5315      5307      5306      5309      5310
      5307      5306      5309      5311      5307      5306      5309      5312
      5308      5306      5309      5310      5308      5306      5309      5311
      5308      5306      5309      5312      5309      5312      5315      5316
      5309      5312      5315      5317      5309      5312      5315      5318
      5310      5309      5312      5313      5310      5309      5312      5314
      5310      5309      5312      5315      5311      5309      5312      5313
      5311      5309      5312      5314      5311      5309      5312      5315
      5312      5315      5318      5319      5312      5315      5318      5320
      5312      5315      5318      5323      5313      5312      5315      5316
      5313      5312      5315      5317      5313      5312      5315      5318
      5314      5312      5315      5316      5314      5312      5315      5317
      5314      5312      5315      5318      5315      5318      5320      5321
      5315      5318      5320      5322      5315      5318      5320      5323
      5315      5318      5323      5320      5315      5318      5323      5324
      5315      5318      5323      5325      5316      5315      5318      5319
      5316      5315      5318      5320      5316      5315      5318      5323
      5317      5315      5318      5319      5317      5315      5318      5320
      5317      5315      5318      5323      5318      5320      5323      5324
      5318      5320      5323      5325      5318      5323      5320      5321
      5318      5323      5320      5322      5318      5323      5325      5326
      5318      5323      5325      5327      5318      5323      5325      5328
      5319      5318      5320      5321      5319      5318      5320      5322
      5319      5318      5320      5323      5319      5318      5323      5320
      5319      5318      5323      5324      5319      5318      5323      5325
      5320      5318      5323      5324      5320      5318      5323      5325
      5320      5323      5325      5326      5320      5323      5325      5327
      5320      5323      5325      5328      5321      5320      5318      5323
      5321      5320      5323      5324      5321      5320      5323      5325
      5322      5320      5318      5323      5322      5320      5323      5324
      5322      5320      5323      5325      5323      5325      5328      5329
      5323      5325      5328      5330      5323      5325      5328      5331
      5324      5323      5325      5326      5324      5323      5325      5327
      5324      5323      5325      5328      5325      5328      5331      5332
      5325      5328      5331      5333      5325      5328      5331      5334
      5326      5325      5328      5329      5326      5325      5328      5330
      5326      5325      5328      5331      5327      5325      5328      5329
      5327      5325      5328      5330      5327      5325      5328      5331
      5328      5331      5334      5335      5328      5331      5334      5336
      5328      5331      5334      5337      5329      5328      5331      5332
      5329      5328      5331      5333      5329      5328      5331      5334
      5330      5328      5331      5332      5330      5328      5331      5333
      5330      5328      5331      5334      5331      5334      5337      5338
      5331      5334      5337      5339      5331      5334      5337      5340
      5332      5331      5334      5335      5332      5331      5334      5336
      5332      5331      5334      5337      5333      5331      5334      5335
      5333      5331      5334      5336      5333      5331      5334      5337
      5334      5337      5340      5341      5334      5337      5340      5342
      5334      5337      5340      5343      5335      5334      5337      5338
      5335      5334      5337      5339      5335      5334      5337      5340
      5336      5334      5337      5338      5336      5334      5337      5339
      5336      5334      5337      5340      5338      5337      5340      5341
      5338      5337      5340      5342      5338      5337      5340      5343
      5339      5337      5340      5341      5339      5337      5340      5342
      5339      5337      5340      5343      5344      5347      5350      5351
      5344      5347      5350      5352      5344      5347      5350      5353
      5345      5344      5347      5348      5345      5344      5347      5349
      5345      5344      5347      5350      5346      5344      5347      5348
      5346      5344      5347      5349      5346      5344      5347      5350
      5347      5350      5353      5354      5347      5350      5353      5355
      5347      5350      5353      5356      5348      5347      5350      5351
      5348      5347      5350      5352      5348      5347      5350      5353
      5349      5347      5350      5351      5349      5347      5350      5352
      5349      5347      5350      5353      5350      5353      5356      5357
      5350      5353      5356      5358      5350      5353      5356      5359
      5351      5350      5353      5354      5351      5350      5353      5355
      5351      5350      5353      5356      5352      5350      5353      5354
      5352      5350      5353      5355      5352      5350      5353      5356
      5353      5356      5359      5360      5353      5356      5359      5361
      5353      5356      5359      5362      5354      5353      5356      5357
      5354      5353      5356      5358      5354      5353      5356      5359
      5355      5353      5356      5357      5355      5353      5356      5358
      5355      5353      5356      5359      5356      5359      5362      5363
      5356      5359      5362      5364      5356      5359      5362      5365
      5357      5356      5359      5360      5357      5356      5359      5361
      5357      5356      5359      5362      5358      5356      5359      5360
      5358      5356      5359      5361      5358      5356      5359      5362
      5359      5362      5365      5366      5359      5362      5365      5367
      5359      5362      5365      5368      5360      5359      5362      5363
      5360      5359      5362      5364      5360      5359      5362      5365
      5361      5359      5362      5363      5361      5359      5362      5364
      5361      5359      5362      5365      5362      5365      5368      5369
      5362      5365      5368      5370      5362      5365      5368      5371
      5363      5362      5365      5366      5363      5362      5365      5367
      5363      5362      5365      5368      5364      5362      5365      5366
      5364      5362      5365      5367      5364      5362      5365      5368
      5365      5368      5371      5372      5365      5368      5371      5373
      5365      5368      5371      5374      5366      5365      5368      5369
      5366      5365      5368      5370      5366      5365      5368      5371
      5367      5365      5368      5369      5367      5365      5368      5370
      5367      5365      5368      5371      5368      5371      5374      5375
      5368      5371      5374      5376      5368      5371      5374      5377
      5369      5368      5371      5372      5369      5368      5371      5373
      5369      5368      5371      5374      5370      5368      5371      5372
      5370      5368      5371      5373      5370      5368      5371      5374
      5371      5374      5377      5378      5371      5374      5377      5379
      5371      5374      5377      5380      5372      5371      5374      5375
      5372      5371      5374      5376      5372      5371      5374      5377
      5373      5371      5374      5375      5373      5371      5374      5376
      5373      5371      5374      5377      5374      5377      5380      5381
      5374      5377      5380      5382      5374      5377      5380      5383
      5375      5374      5377      5378      5375      5374      5377      5379
      5375      5374      5377      5380      5376      5374      5377      5378
      5376      5374      5377      5379      5376      5374      5377      5380
      5377      5380      5383      5384      5377      5380      5383      5385
      5377      5380      5383      5386      5378      5377      5380      5381
      5378      5377      5380      5382      5378      5377      5380      5383
      5379      5377      5380      5381      5379      5377      5380      5382
      5379      5377      5380      5383      5381      5380      5383      5384
      5381      5380      5383      5385      5381      5380      5383      5386
      5382      5380      5383      5384      5382      5380      5383      5385
      5382      5380      5383      5386      5387      5391      5394      5395
      5387      5391      5394      5396      5387      5391      5394      5401
      5388      5387      5391      5392      5388      5387      5391      5393
      5388      5387      5391      5394      5389      5387      5391      5392
      5389      5387      5391      5393      5389      5387      5391      5394
      5390      5387      5391      5392      5390      5387      5391      5393
      5390      5387      5391      5394      5391      5394      5401      5397
      5392      5391      5394      5395      5392      5391      5394      5396
      5392      5391      5394      5401      5393      5391      5394      5395
      5393      5391      5394      5396      5393      5391      5394      5401
      5394      5401      5397      5398      5394      5401      5397      5399
      5394      5401      5397      5400      5395      5394      5401      5397
      5396      5394      5401      5397      5397      5400      5402      5403
      5397      5400      5402      5404      5397      5400      5402      5405
      5398      5397      5400      5402      5399      5397      5400      5402
      5400      5402      5405      5406      5400      5402      5405      5407
      5400      5402      5405      5413      5401      5397      5400      5402
      5402      5405      5407      5408      5402      5405      5413      5414
      5402      5405      5413      5415      5402      5405      5413      5416
      5403      5402      5405      5406      5403      5402      5405      5407
      5403      5402      5405      5413      5404      5402      5405      5406
      5404      5402      5405      5407      5404      5402      5405      5413
      5405      5407      5408      5409      5405      5407      5408      5410
      5405      5413      5416      5417      5406      5405      5407      5408
      5406      5405      5413      5414      5406      5405      5413      5415
      5406      5405      5413      5416      5407      5405      5413      5414
      5407      5405      5413      5415      5407      5405      5413      5416
      5407      5408      5410      5411      5407      5408      5410      5412
      5407      5408      5410      5422      5408      5407      5405      5413
      5408      5410      5422      5423      5408      5410      5422      5424
      5408      5410      5422      5425      5409      5408      5410      5411
      5409      5408      5410      5412      5409      5408      5410      5422
      5410      5422      5425      5426      5410      5422      5425      5427
      5410      5422      5425      5428      5411      5410      5422      5423
      5411      5410      5422      5424      5411      5410      5422      5425
      5412      5410      5422      5423      5412      5410      5422      5424
      5412      5410      5422      5425      5413      5416      5417      5418
      5413      5416      5417      5419      5414      5413      5416      5417
      5415      5413      5416      5417      5416      5417      5419      5420
      5416      5417      5419      5421      5416      5417      5419      5466
      5417      5419      5466      5467      5417      5419      5466      5468
      5417      5419      5466      5469      5418      5417      5419      5420
      5418      5417      5419      5421      5418      5417      5419      5466
      5419      5466      5469      5470      5419      5466      5469      5471
      5419      5466      5469      5472      5420      5419      5466      5467
      5420      5419      5466      5468      5420      5419      5466      5469
      5421      5419      5466      5467      5421      5419      5466      5468
      5421      5419      5466      5469      5422      5425      5428      5429
      5422      5425      5428      5430      5422      5425      5428      5431
      5423      5422      5425      5426      5423      5422      5425      5427
      5423      5422      5425      5428      5424      5422      5425      5426
      5424      5422      5425      5427      5424      5422      5425      5428
      5425      5428      5431      5432      5425      5428      5431      5433
      5425      5428      5431      5434      5426      5425      5428      5429
      5426      5425      5428      5430      5426      5425      5428      5431
      5427      5425      5428      5429      5427      5425      5428      5430
      5427      5425      5428      5431      5428      5431      5434      5435
      5428      5431      5434      5436      5428      5431      5434      5437
      5429      5428      5431      5432      5429      5428      5431      5433
      5429      5428      5431      5434      5430      5428      5431      5432
      5430      5428      5431      5433      5430      5428      5431      5434
      5431      5434      5437      5438      5431      5434      5437      5439
      5431      5434      5437      5440      5432      5431      5434      5435
      5432      5431      5434      5436      5432      5431      5434      5437
      5433      5431      5434      5435      5433      5431      5434      5436
      5433      5431      5434      5437      5434      5437      5440      5441
      5434      5437      5440      5442      5434      5437      5440      5445
      5435      5434      5437      5438      5435      5434      5437      5439
      5435      5434      5437      5440      5436      5434      5437      5438
      5436      5434      5437      5439      5436      5434      5437      5440
      5437      5440      5442      5443      5437      5440      5442      5444
      5437      5440      5442      5445      5437      5440      5445      5442
      5437      5440      5445      5446      5437      5440      5445      5447
      5438      5437      5440      5441      5438      5437      5440      5442
      5438      5437      5440      5445      5439      5437      5440      5441
      5439      5437      5440      5442      5439      5437      5440      5445
      5440      5442      5445      5446      5440      5442      5445      5447
      5440      5445      5442      5443      5440      5445      5442      5444
      5440      5445      5447      5448      5440      5445      5447      5449
      5440      5445      5447      5450      5441      5440      5442      5443
      5441      5440      5442      5444      5441      5440      5442      5445
      5441      5440      5445      5442      5441      5440      5445      5446
      5441      5440      5445      5447      5442      5440      5445      5446
      5442      5440      5445      5447      5442      5445      5447      5448
      5442      5445      5447      5449      5442      5445      5447      5450
      5443      5442      5440      5445      5443      5442      5445      5446
      5443      5442      5445      5447      5444      5442      5440      5445
      5444      5442      5445      5446      5444      5442      5445      5447
      5445      5447      5450      5451      5445      5447      5450      5452
      5445      5447      5450      5453      5446      5445      5447      5448
      5446      5445      5447      5449      5446      5445      5447      5450
      5447      5450      5453      5454      5447      5450      5453      5455
      5447      5450      5453      5456      5448      5447      5450      5451
      5448      5447      5450      5452      5448      5447      5450      5453
      5449      5447      5450      5451      5449      5447      5450      5452
      5449      5447      5450      5453      5450      5453      5456      5457
      5450      5453      5456      5458      5450      5453      5456      5459
      5451      5450      5453      5454      5451      5450      5453      5455
      5451      5450      5453      5456      5452      5450      5453      5454
      5452      5450      5453      5455      5452      5450      5453      5456
      5453      5456      5459      5460      5453      5456      5459      5461
      5453      5456      5459      5462      5454      5453      5456      5457
      5454      5453      5456      5458      5454      5453      5456      5459
      5455      5453      5456      5457      5455      5453      5456      5458
      5455      5453      5456      5459      5456      5459      5462      5463
      5456      5459      5462      5464      5456      5459      5462      5465
      5457      5456      5459      5460      5457      5456      5459      5461
      5457      5456      5459      5462      5458      5456      5459      5460
      5458      5456      5459      5461      5458      5456      5459      5462
      5460      5459      5462      5463      5460      5459      5462      5464
      5460      5459      5462      5465      5461      5459      5462      5463
      5461      5459      5462      5464      5461      5459      5462      5465
      5466      5469      5472      5473      5466      5469      5472      5474
      5466      5469      5472      5475      5467      5466      5469      5470
      5467      5466      5469      5471      5467      5466      5469      5472
      5468      5466      5469      5470      5468      5466      5469      5471
      5468      5466      5469      5472      5469      5472      5475      5476
      5469      5472      5475      5477      5469      5472      5475      5478
      5470      5469      5472      5473      5470      5469      5472      5474
      5470      5469      5472      5475      5471      5469      5472      5473
      5471      5469      5472      5474      5471      5469      5472      5475
      5472      5475      5478      5479      5472      5475      5478      5480
      5472      5475      5478      5481      5473      5472      5475      5476
      5473      5472      5475      5477      5473      5472      5475      5478
      5474      5472      5475      5476      5474      5472      5475      5477
      5474      5472      5475      5478      5475      5478      5481      5482
      5475      5478      5481      5483      5475      5478      5481      5484
      5476      5475      5478      5479      5476      5475      5478      5480
      5476      5475      5478      5481      5477      5475      5478      5479
      5477      5475      5478      5480      5477      5475      5478      5481
      5478      5481      5484      5485      5478      5481      5484      5486
      5478      5481      5484      5487      5479      5478      5481      5482
      5479      5478      5481      5483      5479      5478      5481      5484
      5480      5478      5481      5482      5480      5478      5481      5483
      5480      5478      5481      5484      5481      5484      5487      5488
      5481      5484      5487      5489      5481      5484      5487      5490
      5482      5481      5484      5485      5482      5481      5484      5486
      5482      5481      5484      5487      5483      5481      5484      5485
      5483      5481      5484      5486      5483      5481      5484      5487
      5484      5487      5490      5491      5484      5487      5490      5492
      5484      5487      5490      5493      5485      5484      5487      5488
      5485      5484      5487      5489      5485      5484      5487      5490
      5486      5484      5487      5488      5486      5484      5487      5489
      5486      5484      5487      5490      5487      5490      5493      5494
      5487      5490      5493      5495      5487      5490      5493      5496
      5488      5487      5490      5491      5488      5487      5490      5492
      5488      5487      5490      5493      5489      5487      5490      5491
      5489      5487      5490      5492      5489      5487      5490      5493
      5490      5493      5496      5497      5490      5493      5496      5498
      5490      5493      5496      5499      5491      5490      5493      5494
      5491      5490      5493      5495      5491      5490      5493      5496
      5492      5490      5493      5494      5492      5490      5493      5495
      5492      5490      5493      5496      5493      5496      5499      5500
      5493      5496      5499      5501      5493      5496      5499      5502
      5494      5493      5496      5497      5494      5493      5496      5498
      5494      5493      5496      5499      5495      5493      5496      5497
      5495      5493      5496      5498      5495      5493      5496      5499
      5496      5499      5502      5503      5496      5499      5502      5504
      5496      5499      5502      5505      5497      5496      5499      5500
      5497      5496      5499      5501      5497      5496      5499      5502
      5498      5496      5499      5500      5498      5496      5499      5501
      5498      5496      5499      5502      5500      5499      5502      5503
      5500      5499      5502      5504      5500      5499      5502      5505
      5501      5499      5502      5503      5501      5499      5502      5504
      5501      5499      5502      5505      5506      5512      5509      5510
      5506      5512      5509      5511      5506      5512      5509      5513
      5506      5517      5519      5520      5506      5517      5521      5522
      5506      5517      5521      5523      5506      5517      5521      5527
      5507      5506      5512      5509      5507      5506      5517      5518
      5507      5506      5517      5519      5507      5506      5517      5521
      5508      5506      5512      5509      5508      5506      5517      5518
      5508      5506      5517      5519      5508      5506      5517      5521
      5509      5512      5506      5517      5509      5513      5514      5515
      5509      5513      5514      5516      5509      5513      5514      5549
      5510      5509      5513      5514      5511      5509      5513      5514
      5512      5506      5517      5518      5512      5506      5517      5519
      5512      5506      5517      5521      5512      5509      5513      5514
      5513      5514      5549      5550      5513      5514      5549      5551
      5513      5514      5549      5557      5514      5549      5551      5552
      5514      5549      5557      5558      5514      5549      5557      5559
      5514      5549      5557      5560      5515      5514      5549      5550
      5515      5514      5549      5551      5515      5514      5549      5557
      5516      5514      5549      5550      5516      5514      5549      5551
      5516      5514      5549      5557      5517      5521      5527      5524
      5518      5517      5519      5520      5518      5517      5521      5522
      5518      5517      5521      5523      5518      5517      5521      5527
      5519      5517      5521      5522      5519      5517      5521      5523
      5519      5517      5521      5527      5520      5519      5517      5521
      5521      5527      5524      5525      5521      5527      5524      5526
      5521      5527      5524      5528      5522      5521      5527      5524
      5523      5521      5527      5524      5524      5528      5529      5530
      5524      5528      5529      5531      5524      5528      5529      5532
      5525      5524      5528      5529      5526      5524      5528      5529
      5527      5524      5528      5529      5528      5529      5532      5533
      5528      5529      5532      5534      5528      5529      5532      5540
      5529      5532      5534      5535      5529      5532      5540      5541
      5529      5532      5540      5542      5529      5532      5540      5543
      5530      5529      5532      5533      5530      5529      5532      5534
      5530      5529      5532      5540      5531      5529      5532      5533
      5531      5529      5532      5534      5531      5529      5532      5540
      5532      5534      5535      5536      5532      5534      5535      5537
      5532      5540      5543      5544      5533      5532      5534      5535
      5533      5532      5540      5541      5533      5532      5540      5542
      5533      5532      5540      5543      5534      5532      5540      5541
      5534      5532      5540      5542      5534      5532      5540      5543
      5534      5535      5537      5538      5534      5535      5537      5539
      5534      5535      5537      5566      5535      5534      5532      5540
      5535      5537      5566      5567      5535      5537      5566      5568
      5535      5537      5566      5569      5536      5535      5537      5538
      5536      5535      5537      5539      5536      5535      5537      5566
      5537      5566      5569      5570      5537      5566      5569      5571
      5537      5566      5569      5572      5538      5537      5566      5567
      5538      5537      5566      5568      5538      5537      5566      5569
      5539      5537      5566      5567      5539      5537      5566      5568
      5539      5537      5566      5569      5540      5543      5544      5545
      5540      5543      5544      5546      5541      5540      5543      5544
      5542      5540      5543      5544      5543      5544      5546      5547
      5543      5544      5546      5548      5543      5544      5546      5613
      5544      5546      5613      5614      5544      5546      5613      5615
      5544      5546      5613      5616      5545      5544      5546      5547
      5545      5544      5546      5548      5545      5544      5546      5613
      5546      5613      5616      5617      5546      5613      5616      5618
      5546      5613      5616      5619      5547      5546      5613      5614
      5547      5546      5613      5615      5547      5546      5613      5616
      5548      5546      5613      5614      5548      5546      5613      5615
      5548      5546      5613      5616      5549      5551      5552      5553
      5549      5551      5552      5554      5549      5557      5560      5561
      5550      5549      5551      5552      5550      5549      5557      5558
      5550      5549      5557      5559      5550      5549      5557      5560
      5551      5549      5557      5558      5551      5549      5557      5559
      5551      5549      5557      5560      5551      5552      5554      5555
      5551      5552      5554      5556      5551      5552      5554      5656
      5552      5551      5549      5557      5552      5554      5656      5657
      5552      5554      5656      5658      5552      5554      5656      5659
      5553      5552      5554      5555      5553      5552      5554      5556
      5553      5552      5554      5656      5554      5656      5659      5660
      5554      5656      5659      5661      5554      5656      5659      5662
      5555      5554      5656      5657      5555      5554      5656      5658
      5555      5554      5656      5659      5556      5554      5656      5657
      5556      5554      5656      5658      5556      5554      5656      5659
      5557      5560      5561      5562      5557      5560      5561      5563
      5558      5557      5560      5561      5559      5557      5560      5561
      5560      5561      5563      5564      5560      5561      5563      5565
      5560      5561      5563      5703      5561      5563      5703      5704
      5561      5563      5703      5705      5561      5563      5703      5706
      5562      5561      5563      5564      5562      5561      5563      5565
      5562      5561      5563      5703      5563      5703      5706      5707
      5563      5703      5706      5708      5563      5703      5706      5709
      5564      5563      5703      5704      5564      5563      5703      5705
      5564      5563      5703      5706      5565      5563      5703      5704
      5565      5563      5703      5705      5565      5563      5703      5706
      5566      5569      5572      5573      5566      5569      5572      5574
      5566      5569      5572      5575      5567      5566      5569      5570
      5567      5566      5569      5571      5567      5566      5569      5572
      5568      5566      5569      5570      5568      5566      5569      5571
      5568      5566      5569      5572      5569      5572      5575      5576
      5569      5572      5575      5577      5569      5572      5575      5578
      5570      5569      5572      5573      5570      5569      5572      5574
      5570      5569      5572      5575      5571      5569      5572      5573
      5571      5569      5572      5574      5571      5569      5572      5575
      5572      5575      5578      5579      5572      5575      5578      5580
      5572      5575      5578      5581      5573      5572      5575      5576
      5573      5572      5575      5577      5573      5572      5575      5578
      5574      5572      5575      5576      5574      5572      5575      5577
      5574      5572      5575      5578      5575      5578      5581      5582
      5575      5578      5581      5583      5575      5578      5581      5584
      5576      5575      5578      5579      5576      5575      5578      5580
      5576      5575      5578      5581      5577      5575      5578      5579
      5577      5575      5578      5580      5577      5575      5578      5581
      5578      5581      5584      5585      5578      5581      5584      5586
      5578      5581      5584      5587      5579      5578      5581      5582
      5579      5578      5581      5583      5579      5578      5581      5584
      5580      5578      5581      5582      5580      5578      5581      5583
      5580      5578      5581      5584      5581      5584      5587      5588
      5581      5584      5587      5589      5581      5584      5587      5590
      5582      5581      5584      5585      5582      5581      5584      5586
      5582      5581      5584      5587      5583      5581      5584      5585
      5583      5581      5584      5586      5583      5581      5584      5587
      5584      5587      5590      5591      5584      5587      5590      5592
      5585      5584      5587      5588      5585      5584      5587      5589
      5585      5584      5587      5590      5586      5584      5587      5588
      5586      5584      5587      5589      5586      5584      5587      5590
      5587      5590      5592      5593      5587      5590      5592      5594
      5588      5587      5590      5591      5588      5587      5590      5592
      5589      5587      5590      5591      5589      5587      5590      5592
      5590      5592      5594      5595      5590      5592      5594      5596
      5590      5592      5594      5597      5591      5590      5592      5593
      5591      5590      5592      5594      5592      5594      5597      5598
      5592      5594      5597      5599      5592      5594      5597      5600
      5593      5592      5594      5595      5593      5592      5594      5596
      5593      5592      5594      5597      5594      5597      5600      5601
      5594      5597      5600      5602      5594      5597      5600      5603
      5595      5594      5597      5598      5595      5594      5597      5599
      5595      5594      5597      5600      5596      5594      5597      5598
      5596      5594      5597      5599      5596      5594      5597      5600
      5597      5600      5603      5604      5597      5600      5603      5605
      5597      5600      5603      5606      5598      5597      5600      5601
      5598      5597      5600      5602      5598      5597      5600      5603
      5599      5597      5600      5601      5599      5597      5600      5602
      5599      5597      5600      5603      5600      5603      5606      5607
      5600      5603      5606      5608      5600      5603      5606      5609
      5601      5600      5603      5604      5601      5600      5603      5605
      5601      5600      5603      5606      5602      5600      5603      5604
      5602      5600      5603      5605      5602      5600      5603      5606
      5603      5606      5609      5610      5603      5606      5609      5611
      5603      5606      5609      5612      5604      5603      5606      5607
      5604      5603      5606      5608      5604      5603      5606      5609
      5605      5603      5606      5607      5605      5603      5606      5608
      5605      5603      5606      5609      5607      5606      5609      5610
      5607      5606      5609      5611      5607      5606      5609      5612
      5608      5606      5609      5610      5608      5606      5609      5611
      5608      5606      5609      5612      5613      5616      5619      5620
      5613      5616      5619      5621      5613      5616      5619      5622
      5614      5613      5616      5617      5614      5613      5616      5618
      5614      5613      5616      5619      5615      5613      5616      5617
      5615      5613      5616      5618      5615      5613      5616      5619
      5616      5619      5622      5623      5616      5619      5622      5624
      5616      5619      5622      5625      5617      5616      5619      5620
      5617      5616      5619      5621      5617      5616      5619      5622
      5618      5616      5619      5620      5618      5616      5619      5621
      5618      5616      5619      5622      5619      5622      5625      5626
      5619      5622      5625      5627      5619      5622      5625      5628
      5620      5619      5622      5623      5620      5619      5622      5624
      5620      5619      5622      5625      5621      5619      5622      5623
      5621      5619      5622      5624      5621      5619      5622      5625
      5622      5625      5628      5629      5622      5625      5628      5630
      5622      5625      5628      5631      5623      5622      5625      5626
      5623      5622      5625      5627      5623      5622      5625      5628
      5624      5622      5625      5626      5624      5622      5625      5627
      5624      5622      5625      5628      5625      5628      5631      5632
      5625      5628      5631      5633      5625      5628      5631      5634
      5626      5625      5628      5629      5626      5625      5628      5630
      5626      5625      5628      5631      5627      5625      5628      5629
      5627      5625      5628      5630      5627      5625      5628      5631
      5628      5631      5634      5635      5628      5631      5634      5636
      5628      5631      5634      5637      5629      5628      5631      5632
      5629      5628      5631      5633      5629      5628      5631      5634
      5630      5628      5631      5632      5630      5628      5631      5633
      5630      5628      5631      5634      5631      5634      5637      5638
      5631      5634      5637      5639      5631      5634      5637      5640
      5632      5631      5634      5635      5632      5631      5634      5636
      5632      5631      5634      5637      5633      5631      5634      5635
      5633      5631      5634      5636      5633      5631      5634      5637
      5634      5637      5640      5641      5634      5637      5640      5642
      5634      5637      5640      5643      5635      5634      5637      5638
      5635      5634      5637      5639      5635      5634      5637      5640
      5636      5634      5637      5638      5636      5634      5637      5639
      5636      5634      5637      5640      5637      5640      5643      5644
      5637      5640      5643      5645      5637      5640      5643      5646
      5638      5637      5640      5641      5638      5637      5640      5642
      5638      5637      5640      5643      5639      5637      5640      5641
      5639      5637      5640      5642      5639      5637      5640      5643
      5640      5643      5646      5647      5640      5643      5646      5648
      5640      5643      5646      5649      5641      5640      5643      5644
      5641      5640      5643      5645      5641      5640      5643      5646
      5642      5640      5643      5644      5642      5640      5643      5645
      5642      5640      5643      5646      5643      5646      5649      5650
      5643      5646      5649      5651      5643      5646      5649      5652
      5644      5643      5646      5647      5644      5643      5646      5648
      5644      5643      5646      5649      5645      5643      5646      5647
      5645      5643      5646      5648      5645      5643      5646      5649
      5646      5649      5652      5653      5646      5649      5652      5654
      5646      5649      5652      5655      5647      5646      5649      5650
      5647      5646      5649      5651      5647      5646      5649      5652
      5648      5646      5649      5650      5648      5646      5649      5651
      5648      5646      5649      5652      5650      5649      5652      5653
      5650      5649      5652      5654      5650      5649      5652      5655
      5651      5649      5652      5653      5651      5649      5652      5654
      5651      5649      5652      5655      5656      5659      5662      5663
      5656      5659      5662      5664      5656      5659      5662      5665
      5657      5656      5659      5660      5657      5656      5659      5661
      5657      5656      5659      5662      5658      5656      5659      5660
      5658      5656      5659      5661      5658      5656      5659      5662
      5659      5662      5665      5666      5659      5662      5665      5667
      5659      5662      5665      5668      5660      5659      5662      5663
      5660      5659      5662      5664      5660      5659      5662      5665
      5661      5659      5662      5663      5661      5659      5662      5664
      5661      5659      5662      5665      5662      5665      5668      5669
      5662      5665      5668      5670      5662      5665      5668      5671
      5663      5662      5665      5666      5663      5662      5665      5667
      5663      5662      5665      5668      5664      5662      5665      5666
      5664      5662      5665      5667      5664      5662      5665      5668
      5665      5668      5671      5672      5665      5668      5671      5673
      5665      5668      5671      5674      5666      5665      5668      5669
      5666      5665      5668      5670      5666      5665      5668      5671
      5667      5665      5668      5669      5667      5665      5668      5670
      5667      5665      5668      5671      5668      5671      5674      5675
      5668      5671      5674      5676      5668      5671      5674      5677
      5669      5668      5671      5672      5669      5668      5671      5673
      5669      5668      5671      5674      5670      5668      5671      5672
      5670      5668      5671      5673      5670      5668      5671      5674
      5671      5674      5677      5678      5671      5674      5677      5679
      5671      5674      5677      5680      5672      5671      5674      5675
      5672      5671      5674      5676      5672      5671      5674      5677
      5673      5671      5674      5675      5673      5671      5674      5676
      5673      5671      5674      5677      5674      5677      5680      5681
      5674      5677      5680      5682      5675      5674      5677      5678
      5675      5674      5677      5679      5675      5674      5677      5680
      5676      5674      5677      5678      5676      5674      5677      5679
      5676      5674      5677      5680      5677      5680      5682      5683
      5677      5680      5682      5684      5678      5677      5680      5681
      5678      5677      5680      5682      5679      5677      5680      5681
      5679      5677      5680      5682      5680      5682      5684      5685
      5680      5682      5684      5686      5680      5682      5684      5687
      5681      5680      5682      5683      5681      5680      5682      5684
      5682      5684      5687      5688      5682      5684      5687      5689
      5682      5684      5687      5690      5683      5682      5684      5685
      5683      5682      5684      5686      5683      5682      5684      5687
      5684      5687      5690      5691      5684      5687      5690      5692
      5684      5687      5690      5693      5685      5684      5687      5688
      5685      5684      5687      5689      5685      5684      5687      5690
      5686      5684      5687      5688      5686      5684      5687      5689
      5686      5684      5687      5690      5687      5690      5693      5694
      5687      5690      5693      5695      5687      5690      5693      5696
      5688      5687      5690      5691      5688      5687      5690      5692
      5688      5687      5690      5693      5689      5687      5690      5691
      5689      5687      5690      5692      5689      5687      5690      5693
      5690      5693      5696      5697      5690      5693      5696      5698
      5690      5693      5696      5699      5691      5690      5693      5694
      5691      5690      5693      5695      5691      5690      5693      5696
      5692      5690      5693      5694      5692      5690      5693      5695
      5692      5690      5693      5696      5693      5696      5699      5700
      5693      5696      5699      5701      5693      5696      5699      5702
      5694      5693      5696      5697      5694      5693      5696      5698
      5694      5693      5696      5699      5695      5693      5696      5697
      5695      5693      5696      5698      5695      5693      5696      5699
      5697      5696      5699      5700      5697      5696      5699      5701
      5697      5696      5699      5702      5698      5696      5699      5700
      5698      5696      5699      5701      5698      5696      5699      5702
      5703      5706      5709      5710      5703      5706      5709      5711
      5703      5706      5709      5712      5704      5703      5706      5707
      5704      5703      5706      5708      5704      5703      5706      5709
      5705      5703      5706      5707      5705      5703      5706      5708
      5705      5703      5706      5709      5706      5709      5712      5713
      5706      5709      5712      5714      5706      5709      5712      5715
      5707      5706      5709      5710      5707      5706      5709      5711
      5707      5706      5709      5712      5708      5706      5709      5710
      5708      5706      5709      5711      5708      5706      5709      5712
      5709      5712      5715      5716      5709      5712      5715      5717
      5709      5712      5715      5718      5710      5709      5712      5713
      5710      5709      5712      5714      5710      5709      5712      5715
      5711      5709      5712      5713      5711      5709      5712      5714
      5711      5709      5712      5715      5712      5715      5718      5719
      5712      5715      5718      5720      5712      5715      5718      5721
      5713      5712      5715      5716      5713      5712      5715      5717
      5713      5712      5715      5718      5714      5712      5715      5716
      5714      5712      5715      5717      5714      5712      5715      5718
      5715      5718      5721      5722      5715      5718      5721      5723
      5715      5718      5721      5724      5716      5715      5718      5719
      5716      5715      5718      5720      5716      5715      5718      5721
      5717      5715      5718      5719      5717      5715      5718      5720
      5717      5715      5718      5721      5718      5721      5724      5725
      5718      5721      5724      5726      5718      5721      5724      5727
      5719      5718      5721      5722      5719      5718      5721      5723
      5719      5718      5721      5724      5720      5718      5721      5722
      5720      5718      5721      5723      5720      5718      5721      5724
      5721      5724      5727      5728      5721      5724      5727      5729
      5721      5724      5727      5730      5722      5721      5724      5725
      5722      5721      5724      5726      5722      5721      5724      5727
      5723      5721      5724      5725      5723      5721      5724      5726
      5723      5721      5724      5727      5724      5727      5730      5731
      5724      5727      5730      5732      5724      5727      5730      5733
      5725      5724      5727      5728      5725      5724      5727      5729
      5725      5724      5727      5730      5726      5724      5727      5728
      5726      5724      5727      5729      5726      5724      5727      5730
      5727      5730      5733      5734      5727      5730      5733      5735
      5727      5730      5733      5736      5728      5727      5730      5731
      5728      5727      5730      5732      5728      5727      5730      5733
      5729      5727      5730      5731      5729      5727      5730      5732
      5729      5727      5730      5733      5730      5733      5736      5737
      5730      5733      5736      5738      5730      5733      5736      5739
      5731      5730      5733      5734      5731      5730      5733      5735
      5731      5730      5733      5736      5732      5730      5733      5734
      5732      5730      5733      5735      5732      5730      5733      5736
      5733      5736      5739      5740      5733      5736      5739      5741
      5733      5736      5739      5742      5734      5733      5736      5737
      5734      5733      5736      5738      5734      5733      5736      5739
      5735      5733      5736      5737      5735      5733      5736      5738
      5735      5733      5736      5739      5736      5739      5742      5743
      5736      5739      5742      5744      5736      5739      5742      5745
      5737      5736      5739      5740      5737      5736      5739      5741
      5737      5736      5739      5742      5738      5736      5739      5740
      5738      5736      5739      5741      5738      5736      5739      5742
      5740      5739      5742      5743      5740      5739      5742      5744
      5740      5739      5742      5745      5741      5739      5742      5743
      5741      5739      5742      5744      5741      5739      5742      5745
      5746      5750      5753      5754      5746      5750      5753      5755
      5746      5750      5753      5760      5747      5746      5750      5751
      5747      5746      5750      5752      5747      5746      5750      5753
      5748      5746      5750      5751      5748      5746      5750      5752
      5748      5746      5750      5753      5749      5746      5750      5751
      5749      5746      5750      5752      5749      5746      5750      5753
      5750      5753      5760      5756      5751      5750      5753      5754
      5751      5750      5753      5755      5751      5750      5753      5760
      5752      5750      5753      5754      5752      5750      5753      5755
      5752      5750      5753      5760      5753      5760      5756      5757
      5753      5760      5756      5758      5753      5760      5756      5759
      5754      5753      5760      5756      5755      5753      5760      5756
      5756      5759      5761      5762      5756      5759      5761      5763
      5756      5759      5761      5764      5757      5756      5759      5761
      5758      5756      5759      5761      5759      5761      5764      5765
      5759      5761      5764      5766      5759      5761      5764      5772
      5760      5756      5759      5761      5761      5764      5766      5767
      5761      5764      5772      5773      5761      5764      5772      5774
      5761      5764      5772      5775      5762      5761      5764      5765
      5762      5761      5764      5766      5762      5761      5764      5772
      5763      5761      5764      5765      5763      5761      5764      5766
      5763      5761      5764      5772      5764      5766      5767      5768
      5764      5766      5767      5769      5764      5772      5775      5776
      5765      5764      5766      5767      5765      5764      5772      5773
      5765      5764      5772      5774      5765      5764      5772      5775
      5766      5764      5772      5773      5766      5764      5772      5774
      5766      5764      5772      5775      5766      5767      5769      5770
      5766      5767      5769      5771      5766      5767      5769      5781
      5767      5766      5764      5772      5767      5769      5781      5782
      5767      5769      5781      5783      5767      5769      5781      5784
      5768      5767      5769      5770      5768      5767      5769      5771
      5768      5767      5769      5781      5769      5781      5784      5785
      5769      5781      5784      5786      5769      5781      5784      5787
      5770      5769      5781      5782      5770      5769      5781      5783
      5770      5769      5781      5784      5771      5769      5781      5782
      5771      5769      5781      5783      5771      5769      5781      5784
      5772      5775      5776      5777      5772      5775      5776      5778
      5773      5772      5775      5776      5774      5772      5775      5776
      5775      5776      5778      5779      5775      5776      5778      5780
      5775      5776      5778      5825      5776      5778      5825      5826
      5776      5778      5825      5827      5776      5778      5825      5828
      5777      5776      5778      5779      5777      5776      5778      5780
      5777      5776      5778      5825      5778      5825      5828      5829
      5778      5825      5828      5830      5778      5825      5828      5831
      5779      5778      5825      5826      5779      5778      5825      5827
      5779      5778      5825      5828      5780      5778      5825      5826
      5780      5778      5825      5827      5780      5778      5825      5828
      5781      5784      5787      5788      5781      5784      5787      5789
      5781      5784      5787      5790      5782      5781      5784      5785
      5782      5781      5784      5786      5782      5781      5784      5787
      5783      5781      5784      5785      5783      5781      5784      5786
      5783      5781      5784      5787      5784      5787      5790      5791
      5784      5787      5790      5792      5784      5787      5790      5793
      5785      5784      5787      5788      5785      5784      5787      5789
      5785      5784      5787      5790      5786      5784      5787      5788
      5786      5784      5787      5789      5786      5784      5787      5790
      5787      5790      5793      5794      5787      5790      5793      5795
      5787      5790      5793      5796      5788      5787      5790      5791
      5788      5787      5790      5792      5788      5787      5790      5793
      5789      5787      5790      5791      5789      5787      5790      5792
      5789      5787      5790      5793      5790      5793      5796      5797
      5790      5793      5796      5798      5790      5793      5796      5799
      5791      5790      5793      5794      5791      5790      5793      5795
      5791      5790      5793      5796      5792      5790      5793      5794
      5792      5790      5793      5795      5792      5790      5793      5796
      5793      5796      5799      5800      5793      5796      5799      5801
      5793      5796      5799      5804      5794      5793      5796      5797
      5794      5793      5796      5798      5794      5793      5796      5799
      5795      5793      5796      5797      5795      5793      5796      5798
      5795      5793      5796      5799      5796      5799      5801      5802
      5796      5799      5801      5803      5796      5799      5801      5804
      5796      5799      5804      5801      5796      5799      5804      5805
      5796      5799      5804      5806      5797      5796      5799      5800
      5797      5796      5799      5801      5797      5796      5799      5804
      5798      5796      5799      5800      5798      5796      5799      5801
      5798      5796      5799      5804      5799      5801      5804      5805
      5799      5801      5804      5806      5799      5804      5801      5802
      5799      5804      5801      5803      5799      5804      5806      5807
      5799      5804      5806      5808      5799      5804      5806      5809
      5800      5799      5801      5802      5800      5799      5801      5803
      5800      5799      5801      5804      5800      5799      5804      5801
      5800      5799      5804      5805      5800      5799      5804      5806
      5801      5799      5804      5805      5801      5799      5804      5806
      5801      5804      5806      5807      5801      5804      5806      5808
      5801      5804      5806      5809      5802      5801      5799      5804
      5802      5801      5804      5805      5802      5801      5804      5806
      5803      5801      5799      5804      5803      5801      5804      5805
      5803      5801      5804      5806      5804      5806      5809      5810
      5804      5806      5809      5811      5804      5806      5809      5812
      5805      5804      5806      5807      5805      5804      5806      5808
      5805      5804      5806      5809      5806      5809      5812      5813
      5806      5809      5812      5814      5806      5809      5812      5815
      5807      5806      5809      5810      5807      5806      5809      5811
      5807      5806      5809      5812      5808      5806      5809      5810
      5808      5806      5809      5811      5808      5806      5809      5812
      5809      5812      5815      5816      5809      5812      5815      5817
      5809      5812      5815      5818      5810      5809      5812      5813
      5810      5809      5812      5814      5810      5809      5812      5815
      5811      5809      5812      5813      5811      5809      5812      5814
      5811      5809      5812      5815      5812      5815      5818      5819
      5812      5815      5818      5820      5812      5815      5818      5821
      5813      5812      5815      5816      5813      5812      5815      5817
      5813      5812      5815      5818      5814      5812      5815      5816
      5814      5812      5815      5817      5814      5812      5815      5818
      5815      5818      5821      5822      5815      5818      5821      5823
      5815      5818      5821      5824      5816      5815      5818      5819
      5816      5815      5818      5820      5816      5815      5818      5821
      5817      5815      5818      5819      5817      5815      5818      5820
      5817      5815      5818      5821      5819      5818      5821      5822
      5819      5818      5821      5823      5819      5818      5821      5824
      5820      5818      5821      5822      5820      5818      5821      5823
      5820      5818      5821      5824      5825      5828      5831      5832
      5825      5828      5831      5833      5825      5828      5831      5834
      5826      5825      5828      5829      5826      5825      5828      5830
      5826      5825      5828      5831      5827      5825      5828      5829
      5827      5825      5828      5830      5827      5825      5828      5831
      5828      5831      5834      5835      5828      5831      5834      5836
      5828      5831      5834      5837      5829      5828      5831      5832
      5829      5828      5831      5833      5829      5828      5831      5834
      5830      5828      5831      5832      5830      5828      5831      5833
      5830      5828      5831      5834      5831      5834      5837      5838
      5831      5834      5837      5839      5831      5834      5837      5840
      5832      5831      5834      5835      5832      5831      5834      5836
      5832      5831      5834      5837      5833      5831      5834      5835
      5833      5831      5834      5836      5833      5831      5834      5837
      5834      5837      5840      5841      5834      5837      5840      5842
      5834      5837      5840      5843      5835      5834      5837      5838
      5835      5834      5837      5839      5835      5834      5837      5840
      5836      5834      5837      5838      5836      5834      5837      5839
      5836      5834      5837      5840      5837      5840      5843      5844
      5837      5840      5843      5845      5837      5840      5843      5846
      5838      5837      5840      5841      5838      5837      5840      5842
      5838      5837      5840      5843      5839      5837      5840      5841
      5839      5837      5840      5842      5839      5837      5840      5843
      5840      5843      5846      5847      5840      5843      5846      5848
      5840      5843      5846      5849      5841      5840      5843      5844
      5841      5840      5843      5845      5841      5840      5843      5846
      5842      5840      5843      5844      5842      5840      5843      5845
      5842      5840      5843      5846      5843      5846      5849      5850
      5843      5846      5849      5851      5843      5846      5849      5852
      5844      5843      5846      5847      5844      5843      5846      5848
      5844      5843      5846      5849      5845      5843      5846      5847
      5845      5843      5846      5848      5845      5843      5846      5849
      5846      5849      5852      5853      5846      5849      5852      5854
      5846      5849      5852      5855      5847      5846      5849      5850
      5847      5846      5849      5851      5847      5846      5849      5852
      5848      5846      5849      5850      5848      5846      5849      5851
      5848      5846      5849      5852      5849      5852      5855      5856
      5849      5852      5855      5857      5849      5852      5855      5858
      5850      5849      5852      5853      5850      5849      5852      5854
      5850      5849      5852      5855      5851      5849      5852      5853
      5851      5849      5852      5854      5851      5849      5852      5855
      5852      5855      5858      5859      5852      5855      5858      5860
      5852      5855      5858      5861      5853      5852      5855      5856
      5853      5852      5855      5857      5853      5852      5855      5858
      5854      5852      5855      5856      5854      5852      5855      5857
      5854      5852      5855      5858      5855      5858      5861      5862
      5855      5858      5861      5863      5855      5858      5861      5864
      5856      5855      5858      5859      5856      5855      5858      5860
      5856      5855      5858      5861      5857      5855      5858      5859
      5857      5855      5858      5860      5857      5855      5858      5861
      5858      5861      5864      5865      5858      5861      5864      5866
      5858      5861      5864      5867      5859      5858      5861      5862
      5859      5858      5861      5863      5859      5858      5861      5864
      5860      5858      5861      5862      5860      5858      5861      5863
      5860      5858      5861      5864      5862      5861      5864      5865
      5862      5861      5864      5866      5862      5861      5864      5867
      5863      5861      5864      5865      5863      5861      5864      5866
      5863      5861      5864      5867      5868      5872      5875      5876
      5868      5872      5875      5877      5868      5872      5875      5882
      5869      5868      5872      5873      5869      5868      5872      5874
      5869      5868      5872      5875      5870      5868      5872      5873
      5870      5868      5872      5874      5870      5868      5872      5875
      5871      5868      5872      5873      5871      5868      5872      5874
      5871      5868      5872      5875      5872      5875      5882      5878
      5873      5872      5875      5876      5873      5872      5875      5877
      5873      5872      5875      5882      5874      5872      5875      5876
      5874      5872      5875      5877      5874      5872      5875      5882
      5875      5882      5878      5879      5875      5882      5878      5880
      5875      5882      5878      5881      5876      5875      5882      5878
      5877      5875      5882      5878      5878      5881      5883      5884
      5878      5881      5883      5885      5878      5881      5883      5886
      5879      5878      5881      5883      5880      5878      5881      5883
      5881      5883      5886      5887      5881      5883      5886      5888
      5881      5883      5886      5894      5882      5878      5881      5883
      5883      5886      5888      5889      5883      5886      5894      5895
      5883      5886      5894      5896      5883      5886      5894      5897
      5884      5883      5886      5887      5884      5883      5886      5888
      5884      5883      5886      5894      5885      5883      5886      5887
      5885      5883      5886      5888      5885      5883      5886      5894
      5886      5888      5889      5890      5886      5888      5889      5891
      5886      5894      5897      5898      5887      5886      5888      5889
      5887      5886      5894      5895      5887      5886      5894      5896
      5887      5886      5894      5897      5888      5886      5894      5895
      5888      5886      5894      5896      5888      5886      5894      5897
      5888      5889      5891      5892      5888      5889      5891      5893
      5888      5889      5891      5903      5889      5888      5886      5894
      5889      5891      5903      5904      5889      5891      5903      5905
      5889      5891      5903      5906      5890      5889      5891      5892
      5890      5889      5891      5893      5890      5889      5891      5903
      5891      5903      5906      5907      5891      5903      5906      5908
      5891      5903      5906      5909      5892      5891      5903      5904
      5892      5891      5903      5905      5892      5891      5903      5906
      5893      5891      5903      5904      5893      5891      5903      5905
      5893      5891      5903      5906      5894      5897      5898      5899
      5894      5897      5898      5900      5895      5894      5897      5898
      5896      5894      5897      5898      5897      5898      5900      5901
      5897      5898      5900      5902      5897      5898      5900      5947
      5898      5900      5947      5948      5898      5900      5947      5949
      5898      5900      5947      5950      5899      5898      5900      5901
      5899      5898      5900      5902      5899      5898      5900      5947
      5900      5947      5950      5951      5900      5947      5950      5952
      5900      5947      5950      5953      5901      5900      5947      5948
      5901      5900      5947      5949      5901      5900      5947      5950
      5902      5900      5947      5948      5902      5900      5947      5949
      5902      5900      5947      5950      5903      5906      5909      5910
      5903      5906      5909      5911      5903      5906      5909      5912
      5904      5903      5906      5907      5904      5903      5906      5908
      5904      5903      5906      5909      5905      5903      5906      5907
      5905      5903      5906      5908      5905      5903      5906      5909
      5906      5909      5912      5913      5906      5909      5912      5914
      5906      5909      5912      5915      5907      5906      5909      5910
      5907      5906      5909      5911      5907      5906      5909      5912
      5908      5906      5909      5910      5908      5906      5909      5911
      5908      5906      5909      5912      5909      5912      5915      5916
      5909      5912      5915      5917      5909      5912      5915      5918
      5910      5909      5912      5913      5910      5909      5912      5914
      5910      5909      5912      5915      5911      5909      5912      5913
      5911      5909      5912      5914      5911      5909      5912      5915
      5912      5915      5918      5919      5912      5915      5918      5920
      5912      5915      5918      5921      5913      5912      5915      5916
      5913      5912      5915      5917      5913      5912      5915      5918
      5914      5912      5915      5916      5914      5912      5915      5917
      5914      5912      5915      5918      5915      5918      5921      5922
      5915      5918      5921      5923      5915      5918      5921      5926
      5916      5915      5918      5919      5916      5915      5918      5920
      5916      5915      5918      5921      5917      5915      5918      5919
      5917      5915      5918      5920      5917      5915      5918      5921
      5918      5921      5923      5924      5918      5921      5923      5925
      5918      5921      5923      5926      5918      5921      5926      5923
      5918      5921      5926      5927      5918      5921      5926      5928
      5919      5918      5921      5922      5919      5918      5921      5923
      5919      5918      5921      5926      5920      5918      5921      5922
      5920      5918      5921      5923      5920      5918      5921      5926
      5921      5923      5926      5927      5921      5923      5926      5928
      5921      5926      5923      5924      5921      5926      5923      5925
      5921      5926      5928      5929      5921      5926      5928      5930
      5921      5926      5928      5931      5922      5921      5923      5924
      5922      5921      5923      5925      5922      5921      5923      5926
      5922      5921      5926      5923      5922      5921      5926      5927
      5922      5921      5926      5928      5923      5921      5926      5927
      5923      5921      5926      5928      5923      5926      5928      5929
      5923      5926      5928      5930      5923      5926      5928      5931
      5924      5923      5921      5926      5924      5923      5926      5927
      5924      5923      5926      5928      5925      5923      5921      5926
      5925      5923      5926      5927      5925      5923      5926      5928
      5926      5928      5931      5932      5926      5928      5931      5933
      5926      5928      5931      5934      5927      5926      5928      5929
      5927      5926      5928      5930      5927      5926      5928      5931
      5928      5931      5934      5935      5928      5931      5934      5936
      5928      5931      5934      5937      5929      5928      5931      5932
      5929      5928      5931      5933      5929      5928      5931      5934
      5930      5928      5931      5932      5930      5928      5931      5933
      5930      5928      5931      5934      5931      5934      5937      5938
      5931      5934      5937      5939      5931      5934      5937      5940
      5932      5931      5934      5935      5932      5931      5934      5936
      5932      5931      5934      5937      5933      5931      5934      5935
      5933      5931      5934      5936      5933      5931      5934      5937
      5934      5937      5940      5941      5934      5937      5940      5942
      5934      5937      5940      5943      5935      5934      5937      5938
      5935      5934      5937      5939      5935      5934      5937      5940
      5936      5934      5937      5938      5936      5934      5937      5939
      5936      5934      5937      5940      5937      5940      5943      5944
      5937      5940      5943      5945      5937      5940      5943      5946
      5938      5937      5940      5941      5938      5937      5940      5942
      5938      5937      5940      5943      5939      5937      5940      5941
      5939      5937      5940      5942      5939      5937      5940      5943
      5941      5940      5943      5944      5941      5940      5943      5945
      5941      5940      5943      5946      5942      5940      5943      5944
      5942      5940      5943      5945      5942      5940      5943      5946
      5947      5950      5953      5954      5947      5950      5953      5955
      5947      5950      5953      5956      5948      5947      5950      5951
      5948      5947      5950      5952      5948      5947      5950      5953
      5949      5947      5950      5951      5949      5947      5950      5952
      5949      5947      5950      5953      5950      5953      5956      5957
      5950      5953      5956      5958      5950      5953      5956      5959
      5951      5950      5953      5954      5951      5950      5953      5955
      5951      5950      5953      5956      5952      5950      5953      5954
      5952      5950      5953      5955      5952      5950      5953      5956
      5953      5956      5959      5960      5953      5956      5959      5961
      5953      5956      5959      5962      5954      5953      5956      5957
      5954      5953      5956      5958      5954      5953      5956      5959
      5955      5953      5956      5957      5955      5953      5956      5958
      5955      5953      5956      5959      5956      5959      5962      5963
      5956      5959      5962      5964      5956      5959      5962      5965
      5957      5956      5959      5960      5957      5956      5959      5961
      5957      5956      5959      5962      5958      5956      5959      5960
      5958      5956      5959      5961      5958      5956      5959      5962
      5959      5962      5965      5966      5959      5962      5965      5967
      5959      5962      5965      5968      5960      5959      5962      5963
      5960      5959      5962      5964      5960      5959      5962      5965
      5961      5959      5962      5963      5961      5959      5962      5964
      5961      5959      5962      5965      5962      5965      5968      5969
      5962      5965      5968      5970      5962      5965      5968      5971
      5963      5962      5965      5966      5963      5962      5965      5967
      5963      5962      5965      5968      5964      5962      5965      5966
      5964      5962      5965      5967      5964      5962      5965      5968
      5965      5968      5971      5972      5965      5968      5971      5973
      5965      5968      5971      5974      5966      5965      5968      5969
      5966      5965      5968      5970      5966      5965      5968      5971
      5967      5965      5968      5969      5967      5965      5968      5970
      5967      5965      5968      5971      5968      5971      5974      5975
      5968      5971      5974      5976      5968      5971      5974      5977
      5969      5968      5971      5972      5969      5968      5971      5973
      5969      5968      5971      5974      5970      5968      5971      5972
      5970      5968      5971      5973      5970      5968      5971      5974
      5971      5974      5977      5978      5971      5974      5977      5979
      5971      5974      5977      5980      5972      5971      5974      5975
      5972      5971      5974      5976      5972      5971      5974      5977
      5973      5971      5974      5975      5973      5971      5974      5976
      5973      5971      5974      5977      5974      5977      5980      5981
      5974      5977      5980      5982      5974      5977      5980      5983
      5975      5974      5977      5978      5975      5974      5977      5979
      5975      5974      5977      5980      5976      5974      5977      5978
      5976      5974      5977      5979      5976      5974      5977      5980
      5977      5980      5983      5984      5977      5980      5983      5985
      5977      5980      5983      5986      5978      5977      5980      5981
      5978      5977      5980      5982      5978      5977      5980      5983
      5979      5977      5980      5981      5979      5977      5980      5982
      5979      5977      5980      5983      5980      5983      5986      5987
      5980      5983      5986      5988      5980      5983      5986      5989
      5981      5980      5983      5984      5981      5980      5983      5985
      5981      5980      5983      5986      5982      5980      5983      5984
      5982      5980      5983      5985      5982      5980      5983      5986
      5984      5983      5986      5987      5984      5983      5986      5988
      5984      5983      5986      5989      5985      5983      5986      5987
      5985      5983      5986      5988      5985      5983      5986      5989
      5990      5994      5997      5998      5990      5994      5997      5999
      5990      5994      5997      6004      5991      5990      5994      5995
      5991      5990      5994      5996      5991      5990      5994      5997
      5992      5990      5994      5995      5992      5990      5994      5996
      5992      5990      5994      5997      5993      5990      5994      5995
      5993      5990      5994      5996      5993      5990      5994      5997
      5994      5997      6004      6000      5995      5994      5997      5998
      5995      5994      5997      5999      5995      5994      5997      6004
      5996      5994      5997      5998      5996      5994      5997      5999
      5996      5994      5997      6004      5997      6004      6000      6001
      5997      6004      6000      6002      5997      6004      6000      6003
      5998      5997      6004      6000      5999      5997      6004      6000
      6000      6003      6005      6006      6000      6003      6005      6007
      6000      6003      6005      6008      6001      6000      6003      6005
      6002      6000      6003      6005      6003      6005      6008      6009
      6003      6005      6008      6010      6003      6005      6008      6016
      6004      6000      6003      6005      6005      6008      6010      6011
      6005      6008      6016      6017      6005      6008      6016      6018
      6005      6008      6016      6019      6006      6005      6008      6009
      6006      6005      6008      6010      6006      6005      6008      6016
      6007      6005      6008      6009      6007      6005      6008      6010
      6007      6005      6008      6016      6008      6010      6011      6012
      6008      6010      6011      6013      6008      6016      6019      6020
      6009      6008      6010      6011      6009      6008      6016      6017
      6009      6008      6016      6018      6009      6008      6016      6019
      6010      6008      6016      6017      6010      6008      6016      6018
      6010      6008      6016      6019      6010      6011      6013      6014
      6010      6011      6013      6015      6010      6011      6013      6025
      6011      6010      6008      6016      6011      6013      6025      6026
      6011      6013      6025      6027      6011      6013      6025      6028
      6012      6011      6013      6014      6012      6011      6013      6015
      6012      6011      6013      6025      6013      6025      6028      6029
      6013      6025      6028      6030      6013      6025      6028      6031
      6014      6013      6025      6026      6014      6013      6025      6027
      6014      6013      6025      6028      6015      6013      6025      6026
      6015      6013      6025      6027      6015      6013      6025      6028
      6016      6019      6020      6021      6016      6019      6020      6022
      6017      6016      6019      6020      6018      6016      6019      6020
      6019      6020      6022      6023      6019      6020      6022      6024
      6019      6020      6022      6072      6020      6022      6072      6073
      6020      6022      6072      6074      6020      6022      6072      6075
      6021      6020      6022      6023      6021      6020      6022      6024
      6021      6020      6022      6072      6022      6072      6075      6076
      6022      6072      6075      6077      6022      6072      6075      6078
      6023      6022      6072      6073      6023      6022      6072      6074
      6023      6022      6072      6075      6024      6022      6072      6073
      6024      6022      6072      6074      6024      6022      6072      6075
      6025      6028      6031      6032      6025      6028      6031      6033
      6025      6028      6031      6034      6026      6025      6028      6029
      6026      6025      6028      6030      6026      6025      6028      6031
      6027      6025      6028      6029      6027      6025      6028      6030
      6027      6025      6028      6031      6028      6031      6034      6035
      6028      6031      6034      6036      6028      6031      6034      6037
      6029      6028      6031      6032      6029      6028      6031      6033
      6029      6028      6031      6034      6030      6028      6031      6032
      6030      6028      6031      6033      6030      6028      6031      6034
      6031      6034      6037      6038      6031      6034      6037      6039
      6031      6034      6037      6040      6032      6031      6034      6035
      6032      6031      6034      6036      6032      6031      6034      6037
      6033      6031      6034      6035      6033      6031      6034      6036
      6033      6031      6034      6037      6034      6037      6040      6041
      6034      6037      6040      6042      6034      6037      6040      6043
      6035      6034      6037      6038      6035      6034      6037      6039
      6035      6034      6037      6040      6036      6034      6037      6038
      6036      6034      6037      6039      6036      6034      6037      6040
      6037      6040      6043      6044      6037      6040      6043      6045
      6038      6037      6040      6041      6038      6037      6040      6042
      6038      6037      6040      6043      6039      6037      6040      6041
      6039      6037      6040      6042      6039      6037      6040      6043
      6040      6043      6045      6046      6040      6043      6045      6047
      6041      6040      6043      6044      6041      6040      6043      6045
      6042      6040      6043      6044      6042      6040      6043      6045
      6043      6045      6047      6048      6043      6045      6047      6049
      6043      6045      6047      6050      6044      6043      6045      6046
      6044      6043      6045      6047      6045      6047      6050      6051
      6045      6047      6050      6052      6045      6047      6050      6053
      6046      6045      6047      6048      6046      6045      6047      6049
      6046      6045      6047      6050      6047      6050      6053      6054
      6047      6050      6053      6055      6047      6050      6053      6056
      6048      6047      6050      6051      6048      6047      6050      6052
      6048      6047      6050      6053      6049      6047      6050      6051
      6049      6047      6050      6052      6049      6047      6050      6053
      6050      6053      6056      6057      6050      6053      6056      6058
      6050      6053      6056      6059      6051      6050      6053      6054
      6051      6050      6053      6055      6051      6050      6053      6056
      6052      6050      6053      6054      6052      6050      6053      6055
      6052      6050      6053      6056      6053      6056      6059      6060
      6053      6056      6059      6061      6053      6056      6059      6062
      6054      6053      6056      6057      6054      6053      6056      6058
      6054      6053      6056      6059      6055      6053      6056      6057
      6055      6053      6056      6058      6055      6053      6056      6059
      6056      6059      6062      6063      6056      6059      6062      6064
      6056      6059      6062      6065      6057      6056      6059      6060
      6057      6056      6059      6061      6057      6056      6059      6062
      6058      6056      6059      6060      6058      6056      6059      6061
      6058      6056      6059      6062      6059      6062      6065      6066
      6059      6062      6065      6067      6059      6062      6065      6068
      6060      6059      6062      6063      6060      6059      6062      6064
      6060      6059      6062      6065      6061      6059      6062      6063
      6061      6059      6062      6064      6061      6059      6062      6065
      6062      6065      6068      6069      6062      6065      6068      6070
      6062      6065      6068      6071      6063      6062      6065      6066
      6063      6062      6065      6067      6063      6062      6065      6068
      6064      6062      6065      6066      6064      6062      6065      6067
      6064      6062      6065      6068      6066      6065      6068      6069
      6066      6065      6068      6070      6066      6065      6068      6071
      6067      6065      6068      6069      6067      6065      6068      6070
      6067      6065      6068      6071      6072      6075      6078      6079
      6072      6075      6078      6080      6072      6075      6078      6081
      6073      6072      6075      6076      6073      6072      6075      6077
      6073      6072      6075      6078      6074      6072      6075      6076
      6074      6072      6075      6077      6074      6072      6075      6078
      6075      6078      6081      6082      6075      6078      6081      6083
      6075      6078      6081      6084      6076      6075      6078      6079
      6076      6075      6078      6080      6076      6075      6078      6081
      6077      6075      6078      6079      6077      6075      6078      6080
      6077      6075      6078      6081      6078      6081      6084      6085
      6078      6081      6084      6086      6078      6081      6084      6087
      6079      6078      6081      6082      6079      6078      6081      6083
      6079      6078      6081      6084      6080      6078      6081      6082
      6080      6078      6081      6083      6080      6078      6081      6084
      6081      6084      6087      6088      6081      6084      6087      6089
      6081      6084      6087      6090      6082      6081      6084      6085
      6082      6081      6084      6086      6082      6081      6084      6087
      6083      6081      6084      6085      6083      6081      6084      6086
      6083      6081      6084      6087      6084      6087      6090      6091
      6084      6087      6090      6092      6084      6087      6090      6093
      6085      6084      6087      6088      6085      6084      6087      6089
      6085      6084      6087      6090      6086      6084      6087      6088
      6086      6084      6087      6089      6086      6084      6087      6090
      6087      6090      6093      6094      6087      6090      6093      6095
      6087      6090      6093      6096      6088      6087      6090      6091
      6088      6087      6090      6092      6088      6087      6090      6093
      6089      6087      6090      6091      6089      6087      6090      6092
      6089      6087      6090      6093      6090      6093      6096      6097
      6090      6093      6096      6098      6090      6093      6096      6099
      6091      6090      6093      6094      6091      6090      6093      6095
      6091      6090      6093      6096      6092      6090      6093      6094
      6092      6090      6093      6095      6092      6090      6093      6096
      6093      6096      6099      6100      6093      6096      6099      6101
      6093      6096      6099      6102      6094      6093      6096      6097
      6094      6093      6096      6098      6094      6093      6096      6099
      6095      6093      6096      6097      6095      6093      6096      6098
      6095      6093      6096      6099      6096      6099      6102      6103
      6096      6099      6102      6104      6096      6099      6102      6105
      6097      6096      6099      6100      6097      6096      6099      6101
      6097      6096      6099      6102      6098      6096      6099      6100
      6098      6096      6099      6101      6098      6096      6099      6102
      6099      6102      6105      6106      6099      6102      6105      6107
      6099      6102      6105      6108      6100      6099      6102      6103
      6100      6099      6102      6104      6100      6099      6102      6105
      6101      6099      6102      6103      6101      6099      6102      6104
      6101      6099      6102      6105      6102      6105      6108      6109
      6102      6105      6108      6110      6102      6105      6108      6111
      6103      6102      6105      6106      6103      6102      6105      6107
      6103      6102      6105      6108      6104      6102      6105      6106
      6104      6102      6105      6107      6104      6102      6105      6108
      6105      6108      6111      6112      6105      6108      6111      6113
      6105      6108      6111      6114      6106      6105      6108      6109
      6106      6105      6108      6110      6106      6105      6108      6111
      6107      6105      6108      6109      6107      6105      6108      6110
      6107      6105      6108      6111      6109      6108      6111      6112
      6109      6108      6111      6113      6109      6108      6111      6114
      6110      6108      6111      6112      6110      6108      6111      6113
      6110      6108      6111      6114      6115      6119      6122      6123
      6115      6119      6122      6124      6115      6119      6122      6129
      6116      6115      6119      6120      6116      6115      6119      6121
      6116      6115      6119      6122      6117      6115      6119      6120
      6117      6115      6119      6121      6117      6115      6119      6122
      6118      6115      6119      6120      6118      6115      6119      6121
      6118      6115      6119      6122      6119      6122      6129      6125
      6120      6119      6122      6123      6120      6119      6122      6124
      6120      6119      6122      6129      6121      6119      6122      6123
      6121      6119      6122      6124      6121      6119      6122      6129
      6122      6129      6125      6126      6122      6129      6125      6127
      6122      6129      6125      6128      6123      6122      6129      6125
      6124      6122      6129      6125      6125      6128      6130      6131
      6125      6128      6130      6132      6125      6128      6130      6133
      6126      6125      6128      6130      6127      6125      6128      6130
      6128      6130      6133      6134      6128      6130      6133      6135
      6128      6130      6133      6141      6129      6125      6128      6130
      6130      6133      6135      6136      6130      6133      6141      6142
      6130      6133      6141      6143      6130      6133      6141      6144
      6131      6130      6133      6134      6131      6130      6133      6135
      6131      6130      6133      6141      6132      6130      6133      6134
      6132      6130      6133      6135      6132      6130      6133      6141
      6133      6135      6136      6137      6133      6135      6136      6138
      6133      6141      6144      6145      6134      6133      6135      6136
      6134      6133      6141      6142      6134      6133      6141      6143
      6134      6133      6141      6144      6135      6133      6141      6142
      6135      6133      6141      6143      6135      6133      6141      6144
      6135      6136      6138      6139      6135      6136      6138      6140
      6135      6136      6138      6150      6136      6135      6133      6141
      6136      6138      6150      6151      6136      6138      6150      6152
      6136      6138      6150      6153      6137      6136      6138      6139
      6137      6136      6138      6140      6137      6136      6138      6150
      6138      6150      6153      6154      6138      6150      6153      6155
      6138      6150      6153      6156      6139      6138      6150      6151
      6139      6138      6150      6152      6139      6138      6150      6153
      6140      6138      6150      6151      6140      6138      6150      6152
      6140      6138      6150      6153      6141      6144      6145      6146
      6141      6144      6145      6147      6142      6141      6144      6145
      6143      6141      6144      6145      6144      6145      6147      6148
      6144      6145      6147      6149      6144      6145      6147      6194
      6145      6147      6194      6195      6145      6147      6194      6196
      6145      6147      6194      6197      6146      6145      6147      6148
      6146      6145      6147      6149      6146      6145      6147      6194
      6147      6194      6197      6198      6147      6194      6197      6199
      6147      6194      6197      6200      6148      6147      6194      6195
      6148      6147      6194      6196      6148      6147      6194      6197
      6149      6147      6194      6195      6149      6147      6194      6196
      6149      6147      6194      6197      6150      6153      6156      6157
      6150      6153      6156      6158      6150      6153      6156      6159
      6151      6150      6153      6154      6151      6150      6153      6155
      6151      6150      6153      6156      6152      6150      6153      6154
      6152      6150      6153      6155      6152      6150      6153      6156
      6153      6156      6159      6160      6153      6156      6159      6161
      6153      6156      6159      6162      6154      6153      6156      6157
      6154      6153      6156      6158      6154      6153      6156      6159
      6155      6153      6156      6157      6155      6153      6156      6158
      6155      6153      6156      6159      6156      6159      6162      6163
      6156      6159      6162      6164      6156      6159      6162      6165
      6157      6156      6159      6160      6157      6156      6159      6161
      6157      6156      6159      6162      6158      6156      6159      6160
      6158      6156      6159      6161      6158      6156      6159      6162
      6159      6162      6165      6166      6159      6162      6165      6167
      6159      6162      6165      6168      6160      6159      6162      6163
      6160      6159      6162      6164      6160      6159      6162      6165
      6161      6159      6162      6163      6161      6159      6162      6164
      6161      6159      6162      6165      6162      6165      6168      6169
      6162      6165      6168      6170      6162      6165      6168      6173
      6163      6162      6165      6166      6163      6162      6165      6167
      6163      6162      6165      6168      6164      6162      6165      6166
      6164      6162      6165      6167      6164      6162      6165      6168
      6165      6168      6170      6171      6165      6168      6170      6172
      6165      6168      6170      6173      6165      6168      6173      6170
      6165      6168      6173      6174      6165      6168      6173      6175
      6166      6165      6168      6169      6166      6165      6168      6170
      6166      6165      6168      6173      6167      6165      6168      6169
      6167      6165      6168      6170      6167      6165      6168      6173
      6168      6170      6173      6174      6168      6170      6173      6175
      6168      6173      6170      6171      6168      6173      6170      6172
      6168      6173      6175      6176      6168      6173      6175      6177
      6168      6173      6175      6178      6169      6168      6170      6171
      6169      6168      6170      6172      6169      6168      6170      6173
      6169      6168      6173      6170      6169      6168      6173      6174
      6169      6168      6173      6175      6170      6168      6173      6174
      6170      6168      6173      6175      6170      6173      6175      6176
      6170      6173      6175      6177      6170      6173      6175      6178
      6171      6170      6168      6173      6171      6170      6173      6174
      6171      6170      6173      6175      6172      6170      6168      6173
      6172      6170      6173      6174      6172      6170      6173      6175
      6173      6175      6178      6179      6173      6175      6178      6180
      6173      6175      6178      6181      6174      6173      6175      6176
      6174      6173      6175      6177      6174      6173      6175      6178
      6175      6178      6181      6182      6175      6178      6181      6183
      6175      6178      6181      6184      6176      6175      6178      6179
      6176      6175      6178      6180      6176      6175      6178      6181
      6177      6175      6178      6179      6177      6175      6178      6180
      6177      6175      6178      6181      6178      6181      6184      6185
      6178      6181      6184      6186      6178      6181      6184      6187
      6179      6178      6181      6182      6179      6178      6181      6183
      6179      6178      6181      6184      6180      6178      6181      6182
      6180      6178      6181      6183      6180      6178      6181      6184
      6181      6184      6187      6188      6181      6184      6187      6189
      6181      6184      6187      6190      6182      6181      6184      6185
      6182      6181      6184      6186      6182      6181      6184      6187
      6183      6181      6184      6185      6183      6181      6184      6186
      6183      6181      6184      6187      6184      6187      6190      6191
      6184      6187      6190      6192      6184      6187      6190      6193
      6185      6184      6187      6188      6185      6184      6187      6189
      6185      6184      6187      6190      6186      6184      6187      6188
      6186      6184      6187      6189      6186      6184      6187      6190
      6188      6187      6190      6191      6188      6187      6190      6192
      6188      6187      6190      6193      6189      6187      6190      6191
      6189      6187      6190      6192      6189      6187      6190      6193
      6194      6197      6200      6201      6194      6197      6200      6202
      6194      6197      6200      6203      6195      6194      6197      6198
      6195      6194      6197      6199      6195      6194      6197      6200
      6196      6194      6197      6198      6196      6194      6197      6199
      6196      6194      6197      6200      6197      6200      6203      6204
      6197      6200      6203      6205      6197      6200      6203      6206
      6198      6197      6200      6201      6198      6197      6200      6202
      6198      6197      6200      6203      6199      6197      6200      6201
      6199      6197      6200      6202      6199      6197      6200      6203
      6200      6203      6206      6207      6200      6203      6206      6208
      6200      6203      6206      6209      6201      6200      6203      6204
      6201      6200      6203      6205      6201      6200      6203      6206
      6202      6200      6203      6204      6202      6200      6203      6205
      6202      6200      6203      6206      6203      6206      6209      6210
      6203      6206      6209      6211      6203      6206      6209      6212
      6204      6203      6206      6207      6204      6203      6206      6208
      6204      6203      6206      6209      6205      6203      6206      6207
      6205      6203      6206      6208      6205      6203      6206      6209
      6206      6209      6212      6213      6206      6209      6212      6214
      6206      6209      6212      6215      6207      6206      6209      6210
      6207      6206      6209      6211      6207      6206      6209      6212
      6208      6206      6209      6210      6208      6206      6209      6211
      6208      6206      6209      6212      6209      6212      6215      6216
      6209      6212      6215      6217      6209      6212      6215      6218
      6210      6209      6212      6213      6210      6209      6212      6214
      6210      6209      6212      6215      6211      6209      6212      6213
      6211      6209      6212      6214      6211      6209      6212      6215
      6212      6215      6218      6219      6212      6215      6218      6220
      6212      6215      6218      6221      6213      6212      6215      6216
      6213      6212      6215      6217      6213      6212      6215      6218
      6214      6212      6215      6216      6214      6212      6215      6217
      6214      6212      6215      6218      6215      6218      6221      6222
      6215      6218      6221      6223      6215      6218      6221      6224
      6216      6215      6218      6219      6216      6215      6218      6220
      6216      6215      6218      6221      6217      6215      6218      6219
      6217      6215      6218      6220      6217      6215      6218      6221
      6218      6221      6224      6225      6218      6221      6224      6226
      6218      6221      6224      6227      6219      6218      6221      6222
      6219      6218      6221      6223      6219      6218      6221      6224
      6220      6218      6221      6222      6220      6218      6221      6223
      6220      6218      6221      6224      6221      6224      6227      6228
      6221      6224      6227      6229      6221      6224      6227      6230
      6222      6221      6224      6225      6222      6221      6224      6226
      6222      6221      6224      6227      6223      6221      6224      6225
      6223      6221      6224      6226      6223      6221      6224      6227
      6224      6227      6230      6231      6224      6227      6230      6232
      6224      6227      6230      6233      6225      6224      6227      6228
      6225      6224      6227      6229      6225      6224      6227      6230
      6226      6224      6227      6228      6226      6224      6227      6229
      6226      6224      6227      6230      6227      6230      6233      6234
      6227      6230      6233      6235      6227      6230      6233      6236
      6228      6227      6230      6231      6228      6227      6230      6232
      6228      6227      6230      6233      6229      6227      6230      6231
      6229      6227      6230      6232      6229      6227      6230      6233
      6231      6230      6233      6234      6231      6230      6233      6235
      6231      6230      6233      6236      6232      6230      6233      6234
      6232      6230      6233      6235      6232      6230      6233      6236
      6237      6241      6244      6245      6237      6241      6244      6246
      6237      6241      6244      6251      6238      6237      6241      6242
      6238      6237      6241      6243      6238      6237      6241      6244
      6239      6237      6241      6242      6239      6237      6241      6243
      6239      6237      6241      6244      6240      6237      6241      6242
      6240      6237      6241      6243      6240      6237      6241      6244
      6241      6244      6251      6247      6242      6241      6244      6245
      6242      6241      6244      6246      6242      6241      6244      6251
      6243      6241      6244      6245      6243      6241      6244      6246
      6243      6241      6244      6251      6244      6251      6247      6248
      6244      6251      6247      6249      6244      6251      6247      6250
      6245      6244      6251      6247      6246      6244      6251      6247
      6247      6250      6252      6253      6247      6250      6252      6254
      6247      6250      6252      6255      6248      6247      6250      6252
      6249      6247      6250      6252      6250      6252      6255      6256
      6250      6252      6255      6257      6250      6252      6255      6263
      6251      6247      6250      6252      6252      6255      6257      6258
      6252      6255      6263      6264      6252      6255      6263      6265
      6252      6255      6263      6266      6253      6252      6255      6256
      6253      6252      6255      6257      6253      6252      6255      6263
      6254      6252      6255      6256      6254      6252      6255      6257
      6254      6252      6255      6263      6255      6257      6258      6259
      6255      6257      6258      6260      6255      6263      6266      6267
      6256      6255      6257      6258      6256      6255      6263      6264
      6256      6255      6263      6265      6256      6255      6263      6266
      6257      6255      6263      6264      6257      6255      6263      6265
      6257      6255      6263      6266      6257      6258      6260      6261
      6257      6258      6260      6262      6257      6258      6260      6272
      6258      6257      6255      6263      6258      6260      6272      6273
      6258      6260      6272      6274      6258      6260      6272      6275
      6259      6258      6260      6261      6259      6258      6260      6262
      6259      6258      6260      6272      6260      6272      6275      6276
      6260      6272      6275      6277      6260      6272      6275      6278
      6261      6260      6272      6273      6261      6260      6272      6274
      6261      6260      6272      6275      6262      6260      6272      6273
      6262      6260      6272      6274      6262      6260      6272      6275
      6263      6266      6267      6268      6263      6266      6267      6269
      6264      6263      6266      6267      6265      6263      6266      6267
      6266      6267      6269      6270      6266      6267      6269      6271
      6266      6267      6269      6319      6267      6269      6319      6320
      6267      6269      6319      6321      6267      6269      6319      6322
      6268      6267      6269      6270      6268      6267      6269      6271
      6268      6267      6269      6319      6269      6319      6322      6323
      6269      6319      6322      6324      6269      6319      6322      6325
      6270      6269      6319      6320      6270      6269      6319      6321
      6270      6269      6319      6322      6271      6269      6319      6320
      6271      6269      6319      6321      6271      6269      6319      6322
      6272      6275      6278      6279      6272      6275      6278      6280
      6272      6275      6278      6281      6273      6272      6275      6276
      6273      6272      6275      6277      6273      6272      6275      6278
      6274      6272      6275      6276      6274      6272      6275      6277
      6274      6272      6275      6278      6275      6278      6281      6282
      6275      6278      6281      6283      6275      6278      6281      6284
      6276      6275      6278      6279      6276      6275      6278      6280
      6276      6275      6278      6281      6277      6275      6278      6279
      6277      6275      6278      6280      6277      6275      6278      6281
      6278      6281      6284      6285      6278      6281      6284      6286
      6278      6281      6284      6287      6279      6278      6281      6282
      6279      6278      6281      6283      6279      6278      6281      6284
      6280      6278      6281      6282      6280      6278      6281      6283
      6280      6278      6281      6284      6281      6284      6287      6288
      6281      6284      6287      6289      6281      6284      6287      6290
      6282      6281      6284      6285      6282      6281      6284      6286
      6282      6281      6284      6287      6283      6281      6284      6285
      6283      6281      6284      6286      6283      6281      6284      6287
      6284      6287      6290      6291      6284      6287      6290      6292
      6285      6284      6287      6288      6285      6284      6287      6289
      6285      6284      6287      6290      6286      6284      6287      6288
      6286      6284      6287      6289      6286      6284      6287      6290
      6287      6290      6292      6293      6287      6290      6292      6294
      6288      6287      6290      6291      6288      6287      6290      6292
      6289      6287      6290      6291      6289      6287      6290      6292
      6290      6292      6294      6295      6290      6292      6294      6296
      6290      6292      6294      6297      6291      6290      6292      6293
      6291      6290      6292      6294      6292      6294      6297      6298
      6292      6294      6297      6299      6292      6294      6297      6300
      6293      6292      6294      6295      6293      6292      6294      6296
      6293      6292      6294      6297      6294      6297      6300      6301
      6294      6297      6300      6302      6294      6297      6300      6303
      6295      6294      6297      6298      6295      6294      6297      6299
      6295      6294      6297      6300      6296      6294      6297      6298
      6296      6294      6297      6299      6296      6294      6297      6300
      6297      6300      6303      6304      6297      6300      6303      6305
      6297      6300      6303      6306      6298      6297      6300      6301
      6298      6297      6300      6302      6298      6297      6300      6303
      6299      6297      6300      6301      6299      6297      6300      6302
      6299      6297      6300      6303      6300      6303      6306      6307
      6300      6303      6306      6308      6300      6303      6306      6309
      6301      6300      6303      6304      6301      6300      6303      6305
      6301      6300      6303      6306      6302      6300      6303      6304
      6302      6300      6303      6305      6302      6300      6303      6306
      6303      6306      6309      6310      6303      6306      6309      6311
      6303      6306      6309      6312      6304      6303      6306      6307
      6304      6303      6306      6308      6304      6303      6306      6309
      6305      6303      6306      6307      6305      6303      6306      6308
      6305      6303      6306      6309      6306      6309      6312      6313
      6306      6309      6312      6314      6306      6309      6312      6315
      6307      6306      6309      6310      6307      6306      6309      6311
      6307      6306      6309      6312      6308      6306      6309      6310
      6308      6306      6309      6311      6308      6306      6309      6312
      6309      6312      6315      6316      6309      6312      6315      6317
      6309      6312      6315      6318      6310      6309      6312      6313
      6310      6309      6312      6314      6310      6309      6312      6315
      6311      6309      6312      6313      6311      6309      6312      6314
      6311      6309      6312      6315      6313      6312      6315      6316
      6313      6312      6315      6317      6313      6312      6315      6318
      6314      6312      6315      6316      6314      6312      6315      6317
      6314      6312      6315      6318      6319      6322      6325      6326
      6319      6322      6325      6327      6319      6322      6325      6328
      6320      6319      6322      6323      6320      6319      6322      6324
      6320      6319      6322      6325      6321      6319      6322      6323
      6321      6319      6322      6324      6321      6319      6322      6325
      6322      6325      6328      6329      6322      6325      6328      6330
      6322      6325      6328      6331      6323      6322      6325      6326
      6323      6322      6325      6327      6323      6322      6325      6328
      6324      6322      6325      6326      6324      6322      6325      6327
      6324      6322      6325      6328      6325      6328      6331      6332
      6325      6328      6331      6333      6325      6328      6331      6334
      6326      6325      6328      6329      6326      6325      6328      6330
      6326      6325      6328      6331      6327      6325      6328      6329
      6327      6325      6328      6330      6327      6325      6328      6331
      6328      6331      6334      6335      6328      6331      6334      6336
      6328      6331      6334      6337      6329      6328      6331      6332
      6329      6328      6331      6333      6329      6328      6331      6334
      6330      6328      6331      6332      6330      6328      6331      6333
      6330      6328      6331      6334      6331      6334      6337      6338
      6331      6334      6337      6339      6331      6334      6337      6340
      6332      6331      6334      6335      6332      6331      6334      6336
      6332      6331      6334      6337      6333      6331      6334      6335
      6333      6331      6334      6336      6333      6331      6334      6337
      6334      6337      6340      6341      6334      6337      6340      6342
      6334      6337      6340      6343      6335      6334      6337      6338
      6335      6334      6337      6339      6335      6334      6337      6340
      6336      6334      6337      6338      6336      6334      6337      6339
      6336      6334      6337      6340      6337      6340      6343      6344
      6337      6340      6343      6345      6337      6340      6343      6346
      6338      6337      6340      6341      6338      6337      6340      6342
      6338      6337      6340      6343      6339      6337      6340      6341
      6339      6337      6340      6342      6339      6337      6340      6343
      6340      6343      6346      6347      6340      6343      6346      6348
      6340      6343      6346      6349      6341      6340      6343      6344
      6341      6340      6343      6345      6341      6340      6343      6346
      6342      6340      6343      6344      6342      6340      6343      6345
      6342      6340      6343      6346      6343      6346      6349      6350
      6343      6346      6349      6351      6343      6346      6349      6352
      6344      6343      6346      6347      6344      6343      6346      6348
      6344      6343      6346      6349      6345      6343      6346      6347
      6345      6343      6346      6348      6345      6343      6346      6349
      6346      6349      6352      6353      6346      6349      6352      6354
      6346      6349      6352      6355      6347      6346      6349      6350
      6347      6346      6349      6351      6347      6346      6349      6352
      6348      6346      6349      6350      6348      6346      6349      6351
      6348      6346      6349      6352      6349      6352      6355      6356
      6349      6352      6355      6357      6349      6352      6355      6358
      6350      6349      6352      6353      6350      6349      6352      6354
      6350      6349      6352      6355      6351      6349      6352      6353
      6351      6349      6352      6354      6351      6349      6352      6355
      6352      6355      6358      6359      6352      6355      6358      6360
      6352      6355      6358      6361      6353      6352      6355      6356
      6353      6352      6355      6357      6353      6352      6355      6358
      6354      6352      6355      6356      6354      6352      6355      6357
      6354      6352      6355      6358      6356      6355      6358      6359
      6356      6355      6358      6360      6356      6355      6358      6361
      6357      6355      6358      6359      6357      6355      6358      6360
      6357      6355      6358      6361      6362      6366      6369      6370
      6362      6366      6369      6371      6362      6366      6369      6376
      6363      6362      6366      6367      6363      6362      6366      6368
      6363      6362      6366      6369      6364      6362      6366      6367
      6364      6362      6366      6368      6364      6362      6366      6369
      6365      6362      6366      6367      6365      6362      6366      6368
      6365      6362      6366      6369      6366      6369      6376      6372
      6367      6366      6369      6370      6367      6366      6369      6371
      6367      6366      6369      6376      6368      6366      6369      6370
      6368      6366      6369      6371      6368      6366      6369      6376
      6369      6376      6372      6373      6369      6376      6372      6374
      6369      6376      6372      6375      6370      6369      6376      6372
      6371      6369      6376      6372      6372      6375      6377      6378
      6372      6375      6377      6379      6372      6375      6377      6380
      6373      6372      6375      6377      6374      6372      6375      6377
      6375      6377      6380      6381      6375      6377      6380      6382
      6375      6377      6380      6388      6376      6372      6375      6377
      6377      6380      6382      6383      6377      6380      6388      6389
      6377      6380      6388      6390      6377      6380      6388      6391
      6378      6377      6380      6381      6378      6377      6380      6382
      6378      6377      6380      6388      6379      6377      6380      6381
      6379      6377      6380      6382      6379      6377      6380      6388
      6380      6382      6383      6384      6380      6382      6383      6385
      6380      6388      6391      6392      6381      6380      6382      6383
      6381      6380      6388      6389      6381      6380      6388      6390
      6381      6380      6388      6391      6382      6380      6388      6389
      6382      6380      6388      6390      6382      6380      6388      6391
      6382      6383      6385      6386      6382      6383      6385      6387
      6382      6383      6385      6397      6383      6382      6380      6388
      6383      6385      6397      6398      6383      6385      6397      6399
      6383      6385      6397      6400      6384      6383      6385      6386
      6384      6383      6385      6387      6384      6383      6385      6397
      6385      6397      6400      6401      6385      6397      6400      6402
      6385      6397      6400      6403      6386      6385      6397      6398
      6386      6385      6397      6399      6386      6385      6397      6400
      6387      6385      6397      6398      6387      6385      6397      6399
      6387      6385      6397      6400      6388      6391      6392      6393
      6388      6391      6392      6394      6389      6388      6391      6392
      6390      6388      6391      6392      6391      6392      6394      6395
      6391      6392      6394      6396      6391      6392      6394      6441
      6392      6394      6441      6442      6392      6394      6441      6443
      6392      6394      6441      6444      6393      6392      6394      6395
      6393      6392      6394      6396      6393      6392      6394      6441
      6394      6441      6444      6445      6394      6441      6444      6446
      6394      6441      6444      6447      6395      6394      6441      6442
      6395      6394      6441      6443      6395      6394      6441      6444
      6396      6394      6441      6442      6396      6394      6441      6443
      6396      6394      6441      6444      6397      6400      6403      6404
      6397      6400      6403      6405      6397      6400      6403      6406
      6398      6397      6400      6401      6398      6397      6400      6402
      6398      6397      6400      6403      6399      6397      6400      6401
      6399      6397      6400      6402      6399      6397      6400      6403
      6400      6403      6406      6407      6400      6403      6406      6408
      6400      6403      6406      6409      6401      6400      6403      6404
      6401      6400      6403      6405      6401      6400      6403      6406
      6402      6400      6403      6404      6402      6400      6403      6405
      6402      6400      6403      6406      6403      6406      6409      6410
      6403      6406      6409      6411      6403      6406      6409      6412
      6404      6403      6406      6407      6404      6403      6406      6408
      6404      6403      6406      6409      6405      6403      6406      6407
      6405      6403      6406      6408      6405      6403      6406      6409
      6406      6409      6412      6413      6406      6409      6412      6414
      6406      6409      6412      6415      6407      6406      6409      6410
      6407      6406      6409      6411      6407      6406      6409      6412
      6408      6406      6409      6410      6408      6406      6409      6411
      6408      6406      6409      6412      6409      6412      6415      6416
      6409      6412      6415      6417      6409      6412      6415      6420
      6410      6409      6412      6413      6410      6409      6412      6414
      6410      6409      6412      6415      6411      6409      6412      6413
      6411      6409      6412      6414      6411      6409      6412      6415
      6412      6415      6417      6418      6412      6415      6417      6419
      6412      6415      6417      6420      6412      6415      6420      6417
      6412      6415      6420      6421      6412      6415      6420      6422
      6413      6412      6415      6416      6413      6412      6415      6417
      6413      6412      6415      6420      6414      6412      6415      6416
      6414      6412      6415      6417      6414      6412      6415      6420
      6415      6417      6420      6421      6415      6417      6420      6422
      6415      6420      6417      6418      6415      6420      6417      6419
      6415      6420      6422      6423      6415      6420      6422      6424
      6415      6420      6422      6425      6416      6415      6417      6418
      6416      6415      6417      6419      6416      6415      6417      6420
      6416      6415      6420      6417      6416      6415      6420      6421
      6416      6415      6420      6422      6417      6415      6420      6421
      6417      6415      6420      6422      6417      6420      6422      6423
      6417      6420      6422      6424      6417      6420      6422      6425
      6418      6417      6415      6420      6418      6417      6420      6421
      6418      6417      6420      6422      6419      6417      6415      6420
      6419      6417      6420      6421      6419      6417      6420      6422
      6420      6422      6425      6426      6420      6422      6425      6427
      6420      6422      6425      6428      6421      6420      6422      6423
      6421      6420      6422      6424      6421      6420      6422      6425
      6422      6425      6428      6429      6422      6425      6428      6430
      6422      6425      6428      6431      6423      6422      6425      6426
      6423      6422      6425      6427      6423      6422      6425      6428
      6424      6422      6425      6426      6424      6422      6425      6427
      6424      6422      6425      6428      6425      6428      6431      6432
      6425      6428      6431      6433      6425      6428      6431      6434
      6426      6425      6428      6429      6426      6425      6428      6430
      6426      6425      6428      6431      6427      6425      6428      6429
      6427      6425      6428      6430      6427      6425      6428      6431
      6428      6431      6434      6435      6428      6431      6434      6436
      6428      6431      6434      6437      6429      6428      6431      6432
      6429      6428      6431      6433      6429      6428      6431      6434
      6430      6428      6431      6432      6430      6428      6431      6433
      6430      6428      6431      6434      6431      6434      6437      6438
      6431      6434      6437      6439      6431      6434      6437      6440
      6432      6431      6434      6435      6432      6431      6434      6436
      6432      6431      6434      6437      6433      6431      6434      6435
      6433      6431      6434      6436      6433      6431      6434      6437
      6435      6434      6437      6438      6435      6434      6437      6439
      6435      6434      6437      6440      6436      6434      6437      6438
      6436      6434      6437      6439      6436      6434      6437      6440
      6441      6444      6447      6448      6441      6444      6447      6449
      6441      6444      6447      6450      6442      6441      6444      6445
      6442      6441      6444      6446      6442      6441      6444      6447
      6443      6441      6444      6445      6443      6441      6444      6446
      6443      6441      6444      6447      6444      6447      6450      6451
      6444      6447      6450      6452      6444      6447      6450      6453
      6445      6444      6447      6448      6445      6444      6447      6449
      6445      6444      6447      6450      6446      6444      6447      6448
      6446      6444      6447      6449      6446      6444      6447      6450
      6447      6450      6453      6454      6447      6450      6453      6455
      6447      6450      6453      6456      6448      6447      6450      6451
      6448      6447      6450      6452      6448      6447      6450      6453
      6449      6447      6450      6451      6449      6447      6450      6452
      6449      6447      6450      6453      6450      6453      6456      6457
      6450      6453      6456      6458      6450      6453      6456      6459
      6451      6450      6453      6454      6451      6450      6453      6455
      6451      6450      6453      6456      6452      6450      6453      6454
      6452      6450      6453      6455      6452      6450      6453      6456
      6453      6456      6459      6460      6453      6456      6459      6461
      6453      6456      6459      6462      6454      6453      6456      6457
      6454      6453      6456      6458      6454      6453      6456      6459
      6455      6453      6456      6457      6455      6453      6456      6458
      6455      6453      6456      6459      6456      6459      6462      6463
      6456      6459      6462      6464      6456      6459      6462      6465
      6457      6456      6459      6460      6457      6456      6459      6461
      6457      6456      6459      6462      6458      6456      6459      6460
      6458      6456      6459      6461      6458      6456      6459      6462
      6459      6462      6465      6466      6459      6462      6465      6467
      6459      6462      6465      6468      6460      6459      6462      6463
      6460      6459      6462      6464      6460      6459      6462      6465
      6461      6459      6462      6463      6461      6459      6462      6464
      6461      6459      6462      6465      6462      6465      6468      6469
      6462      6465      6468      6470      6462      6465      6468      6471
      6463      6462      6465      6466      6463      6462      6465      6467
      6463      6462      6465      6468      6464      6462      6465      6466
      6464      6462      6465      6467      6464      6462      6465      6468
      6465      6468      6471      6472      6465      6468      6471      6473
      6465      6468      6471      6474      6466      6465      6468      6469
      6466      6465      6468      6470      6466      6465      6468      6471
      6467      6465      6468      6469      6467      6465      6468      6470
      6467      6465      6468      6471      6468      6471      6474      6475
      6468      6471      6474      6476      6468      6471      6474      6477
      6469      6468      6471      6472      6469      6468      6471      6473
      6469      6468      6471      6474      6470      6468      6471      6472
      6470      6468      6471      6473      6470      6468      6471      6474
      6471      6474      6477      6478      6471      6474      6477      6479
      6471      6474      6477      6480      6472      6471      6474      6475
      6472      6471      6474      6476      6472      6471      6474      6477
      6473      6471      6474      6475      6473      6471      6474      6476
      6473      6471      6474      6477      6474      6477      6480      6481
      6474      6477      6480      6482      6474      6477      6480      6483
      6475      6474      6477      6478      6475      6474      6477      6479
      6475      6474      6477      6480      6476      6474      6477      6478
      6476      6474      6477      6479      6476      6474      6477      6480
      6478      6477      6480      6481      6478      6477      6480      6482
      6478      6477      6480      6483      6479      6477      6480      6481
      6479      6477      6480      6482      6479      6477      6480      6483
      6484      6488      6491      6492      6484      6488      6491      6493
      6484      6488      6491      6498      6485      6484      6488      6489
      6485      6484      6488      6490      6485      6484      6488      6491
      6486      6484      6488      6489      6486      6484      6488      6490
      6486      6484      6488      6491      6487      6484      6488      6489
      6487      6484      6488      6490      6487      6484      6488      6491
      6488      6491      6498      6494      6489      6488      6491      6492
      6489      6488      6491      6493      6489      6488      6491      6498
      6490      6488      6491      6492      6490      6488      6491      6493
      6490      6488      6491      6498      6491      6498      6494      6495
      6491      6498      6494      6496      6491      6498      6494      6497
      6492      6491      6498      6494      6493      6491      6498      6494
      6494      6497      6499      6500      6494      6497      6499      6501
      6494      6497      6499      6502      6495      6494      6497      6499
      6496      6494      6497      6499      6497      6499      6502      6503
      6497      6499      6502      6504      6497      6499      6502      6510
      6498      6494      6497      6499      6499      6502      6504      6505
      6499      6502      6510      6511      6499      6502      6510      6512
      6499      6502      6510      6513      6500      6499      6502      6503
      6500      6499      6502      6504      6500      6499      6502      6510
      6501      6499      6502      6503      6501      6499      6502      6504
      6501      6499      6502      6510      6502      6504      6505      6506
      6502      6504      6505      6507      6502      6510      6513      6514
      6503      6502      6504      6505      6503      6502      6510      6511
      6503      6502      6510      6512      6503      6502      6510      6513
      6504      6502      6510      6511      6504      6502      6510      6512
      6504      6502      6510      6513      6504      6505      6507      6508
      6504      6505      6507      6509      6504      6505      6507      6519
      6505      6504      6502      6510      6505      6507      6519      6520
      6505      6507      6519      6521      6505      6507      6519      6522
      6506      6505      6507      6508      6506      6505      6507      6509
      6506      6505      6507      6519      6507      6519      6522      6523
      6507      6519      6522      6524      6507      6519      6522      6525
      6508      6507      6519      6520      6508      6507      6519      6521
      6508      6507      6519      6522      6509      6507      6519      6520
      6509      6507      6519      6521      6509      6507      6519      6522
      6510      6513      6514      6515      6510      6513      6514      6516
      6511      6510      6513      6514      6512      6510      6513      6514
      6513      6514      6516      6517      6513      6514      6516      6518
      6513      6514      6516      6563      6514      6516      6563      6564
      6514      6516      6563      6565      6514      6516      6563      6566
      6515      6514      6516      6517      6515      6514      6516      6518
      6515      6514      6516      6563      6516      6563      6566      6567
      6516      6563      6566      6568      6516      6563      6566      6569
      6517      6516      6563      6564      6517      6516      6563      6565
      6517      6516      6563      6566      6518      6516      6563      6564
      6518      6516      6563      6565      6518      6516      6563      6566
      6519      6522      6525      6526      6519      6522      6525      6527
      6519      6522      6525      6528      6520      6519      6522      6523
      6520      6519      6522      6524      6520      6519      6522      6525
      6521      6519      6522      6523      6521      6519      6522      6524
      6521      6519      6522      6525      6522      6525      6528      6529
      6522      6525      6528      6530      6522      6525      6528      6531
      6523      6522      6525      6526      6523      6522      6525      6527
      6523      6522      6525      6528      6524      6522      6525      6526
      6524      6522      6525      6527      6524      6522      6525      6528
      6525      6528      6531      6532      6525      6528      6531      6533
      6525      6528      6531      6534      6526      6525      6528      6529
      6526      6525      6528      6530      6526      6525      6528      6531
      6527      6525      6528      6529      6527      6525      6528      6530
      6527      6525      6528      6531      6528      6531      6534      6535
      6528      6531      6534      6536      6528      6531      6534      6537
      6529      6528      6531      6532      6529      6528      6531      6533
      6529      6528      6531      6534      6530      6528      6531      6532
      6530      6528      6531      6533      6530      6528      6531      6534
      6531      6534      6537      6538      6531      6534      6537      6539
      6531      6534      6537      6542      6532      6531      6534      6535
      6532      6531      6534      6536      6532      6531      6534      6537
      6533      6531      6534      6535      6533      6531      6534      6536
      6533      6531      6534      6537      6534      6537      6539      6540
      6534      6537      6539      6541      6534      6537      6539      6542
      6534      6537      6542      6539      6534      6537      6542      6543
      6534      6537      6542      6544      6535      6534      6537      6538
      6535      6534      6537      6539      6535      6534      6537      6542
      6536      6534      6537      6538      6536      6534      6537      6539
      6536      6534      6537      6542      6537      6539      6542      6543
      6537      6539      6542      6544      6537      6542      6539      6540
      6537      6542      6539      6541      6537      6542      6544      6545
      6537      6542      6544      6546      6537      6542      6544      6547
      6538      6537      6539      6540      6538      6537      6539      6541
      6538      6537      6539      6542      6538      6537      6542      6539
      6538      6537      6542      6543      6538      6537      6542      6544
      6539      6537      6542      6543      6539      6537      6542      6544
      6539      6542      6544      6545      6539      6542      6544      6546
      6539      6542      6544      6547      6540      6539      6537      6542
      6540      6539      6542      6543      6540      6539      6542      6544
      6541      6539      6537      6542      6541      6539      6542      6543
      6541      6539      6542      6544      6542      6544      6547      6548
      6542      6544      6547      6549      6542      6544      6547      6550
      6543      6542      6544      6545      6543      6542      6544      6546
      6543      6542      6544      6547      6544      6547      6550      6551
      6544      6547      6550      6552      6544      6547      6550      6553
      6545      6544      6547      6548      6545      6544      6547      6549
      6545      6544      6547      6550      6546      6544      6547      6548
      6546      6544      6547      6549      6546      6544      6547      6550
      6547      6550      6553      6554      6547      6550      6553      6555
      6547      6550      6553      6556      6548      6547      6550      6551
      6548      6547      6550      6552      6548      6547      6550      6553
      6549      6547      6550      6551      6549      6547      6550      6552
      6549      6547      6550      6553      6550      6553      6556      6557
      6550      6553      6556      6558      6550      6553      6556      6559
      6551      6550      6553      6554      6551      6550      6553      6555
      6551      6550      6553      6556      6552      6550      6553      6554
      6552      6550      6553      6555      6552      6550      6553      6556
      6553      6556      6559      6560      6553      6556      6559      6561
      6553      6556      6559      6562      6554      6553      6556      6557
      6554      6553      6556      6558      6554      6553      6556      6559
      6555      6553      6556      6557      6555      6553      6556      6558
      6555      6553      6556      6559      6557      6556      6559      6560
      6557      6556      6559      6561      6557      6556      6559      6562
      6558      6556      6559      6560      6558      6556      6559      6561
      6558      6556      6559      6562      6563      6566      6569      6570
      6563      6566      6569      6571      6563      6566      6569      6572
      6564      6563      6566      6567      6564      6563      6566      6568
      6564      6563      6566      6569      6565      6563      6566      6567
      6565      6563      6566      6568      6565      6563      6566      6569
      6566      6569      6572      6573      6566      6569      6572      6574
      6566      6569      6572      6575      6567      6566      6569      6570
      6567      6566      6569      6571      6567      6566      6569      6572
      6568      6566      6569      6570      6568      6566      6569      6571
      6568      6566      6569      6572      6569      6572      6575      6576
      6569      6572      6575      6577      6569      6572      6575      6578
      6570      6569      6572      6573      6570      6569      6572      6574
      6570      6569      6572      6575      6571      6569      6572      6573
      6571      6569      6572      6574      6571      6569      6572      6575
      6572      6575      6578      6579      6572      6575      6578      6580
      6572      6575      6578      6581      6573      6572      6575      6576
      6573      6572      6575      6577      6573      6572      6575      6578
      6574      6572      6575      6576      6574      6572      6575      6577
      6574      6572      6575      6578      6575      6578      6581      6582
      6575      6578      6581      6583      6575      6578      6581      6584
      6576      6575      6578      6579      6576      6575      6578      6580
      6576      6575      6578      6581      6577      6575      6578      6579
      6577      6575      6578      6580      6577      6575      6578      6581
      6578      6581      6584      6585      6578      6581      6584      6586
      6578      6581      6584      6587      6579      6578      6581      6582
      6579      6578      6581      6583      6579      6578      6581      6584
      6580      6578      6581      6582      6580      6578      6581      6583
      6580      6578      6581      6584      6581      6584      6587      6588
      6581      6584      6587      6589      6581      6584      6587      6590
      6582      6581      6584      6585      6582      6581      6584      6586
      6582      6581      6584      6587      6583      6581      6584      6585
      6583      6581      6584      6586      6583      6581      6584      6587
      6584      6587      6590      6591      6584      6587      6590      6592
      6584      6587      6590      6593      6585      6584      6587      6588
      6585      6584      6587      6589      6585      6584      6587      6590
      6586      6584      6587      6588      6586      6584      6587      6589
      6586      6584      6587      6590      6587      6590      6593      6594
      6587      6590      6593      6595      6587      6590      6593      6596
      6588      6587      6590      6591      6588      6587      6590      6592
      6588      6587      6590      6593      6589      6587      6590      6591
      6589      6587      6590      6592      6589      6587      6590      6593
      6590      6593      6596      6597      6590      6593      6596      6598
      6590      6593      6596      6599      6591      6590      6593      6594
      6591      6590      6593      6595      6591      6590      6593      6596
      6592      6590      6593      6594      6592      6590      6593      6595
      6592      6590      6593      6596      6593      6596      6599      6600
      6593      6596      6599      6601      6593      6596      6599      6602
      6594      6593      6596      6597      6594      6593      6596      6598
      6594      6593      6596      6599      6595      6593      6596      6597
      6595      6593      6596      6598      6595      6593      6596      6599
      6597      6596      6599      6600      6597      6596      6599      6601
      6597      6596      6599      6602      6598      6596      6599      6600
      6598      6596      6599      6601      6598      6596      6599      6602
      6603      6607      6610      6611      6603      6607      6610      6612
      6603      6607      6610      6617      6604      6603      6607      6608
      6604      6603      6607      6609      6604      6603      6607      6610
      6605      6603      6607      6608      6605      6603      6607      6609
      6605      6603      6607      6610      6606      6603      6607      6608
      6606      6603      6607      6609      6606      6603      6607      6610
      6607      6610      6617      6613      6608      6607      6610      6611
      6608      6607      6610      6612      6608      6607      6610      6617
      6609      6607      6610      6611      6609      6607      6610      6612
      6609      6607      6610      6617      6610      6617      6613      6614
      6610      6617      6613      6615      6610      6617      6613      6616
      6611      6610      6617      6613      6612      6610      6617      6613
      6613      6616      6618      6619      6613      6616      6618      6620
      6613      6616      6618      6621      6614      6613      6616      6618
      6615      6613      6616      6618      6616      6618      6621      6622
      6616      6618      6621      6623      6616      6618      6621      6629
      6617      6613      6616      6618      6618      6621      6623      6624
      6618      6621      6629      6630      6618      6621      6629      6631
      6618      6621      6629      6632      6619      6618      6621      6622
      6619      6618      6621      6623      6619      6618      6621      6629
      6620      6618      6621      6622      6620      6618      6621      6623
      6620      6618      6621      6629      6621      6623      6624      6625
      6621      6623      6624      6626      6621      6629      6632      6633
      6622      6621      6623      6624      6622      6621      6629      6630
      6622      6621      6629      6631      6622      6621      6629      6632
      6623      6621      6629      6630      6623      6621      6629      6631
      6623      6621      6629      6632      6623      6624      6626      6627
      6623      6624      6626      6628      6623      6624      6626      6638
      6624      6623      6621      6629      6624      6626      6638      6639
      6624      6626      6638      6640      6624      6626      6638      6641
      6625      6624      6626      6627      6625      6624      6626      6628
      6625      6624      6626      6638      6626      6638      6641      6642
      6626      6638      6641      6643      6626      6638      6641      6644
      6627      6626      6638      6639      6627      6626      6638      6640
      6627      6626      6638      6641      6628      6626      6638      6639
      6628      6626      6638      6640      6628      6626      6638      6641
      6629      6632      6633      6634      6629      6632      6633      6635
      6630      6629      6632      6633      6631      6629      6632      6633
      6632      6633      6635      6636      6632      6633      6635      6637
      6632      6633      6635      6685      6633      6635      6685      6686
      6633      6635      6685      6687      6633      6635      6685      6688
      6634      6633      6635      6636      6634      6633      6635      6637
      6634      6633      6635      6685      6635      6685      6688      6689
      6635      6685      6688      6690      6635      6685      6688      6691
      6636      6635      6685      6686      6636      6635      6685      6687
      6636      6635      6685      6688      6637      6635      6685      6686
      6637      6635      6685      6687      6637      6635      6685      6688
      6638      6641      6644      6645      6638      6641      6644      6646
      6638      6641      6644      6647      6639      6638      6641      6642
      6639      6638      6641      6643      6639      6638      6641      6644
      6640      6638      6641      6642      6640      6638      6641      6643
      6640      6638      6641      6644      6641      6644      6647      6648
      6641      6644      6647      6649      6641      6644      6647      6650
      6642      6641      6644      6645      6642      6641      6644      6646
      6642      6641      6644      6647      6643      6641      6644      6645
      6643      6641      6644      6646      6643      6641      6644      6647
      6644      6647      6650      6651      6644      6647      6650      6652
      6644      6647      6650      6653      6645      6644      6647      6648
      6645      6644      6647      6649      6645      6644      6647      6650
      6646      6644      6647      6648      6646      6644      6647      6649
      6646      6644      6647      6650      6647      6650      6653      6654
      6647      6650      6653      6655      6647      6650      6653      6656
      6648      6647      6650      6651      6648      6647      6650      6652
      6648      6647      6650      6653      6649      6647      6650      6651
      6649      6647      6650      6652      6649      6647      6650      6653
      6650      6653      6656      6657      6650      6653      6656      6658
      6651      6650      6653      6654      6651      6650      6653      6655
      6651      6650      6653      6656      6652      6650      6653      6654
      6652      6650      6653      6655      6652      6650      6653      6656
      6653      6656      6658      6659      6653      6656      6658      6660
      6654      6653      6656      6657      6654      6653      6656      6658
      6655      6653      6656      6657      6655      6653      6656      6658
      6656      6658      6660      6661      6656      6658      6660      6662
      6656      6658      6660      6663      6657      6656      6658      6659
      6657      6656      6658      6660      6658      6660      6663      6664
      6658      6660      6663      6665      6658      6660      6663      6666
      6659      6658      6660      6661      6659      6658      6660      6662
      6659      6658      6660      6663      6660      6663      6666      6667
      6660      6663      6666      6668      6660      6663      6666      6669
      6661      6660      6663      6664      6661      6660      6663      6665
      6661      6660      6663      6666      6662      6660      6663      6664
      6662      6660      6663      6665      6662      6660      6663      6666
      6663      6666      6669      6670      6663      6666      6669      6671
      6663      6666      6669      6672      6664      6663      6666      6667
      6664      6663      6666      6668      6664      6663      6666      6669
      6665      6663      6666      6667      6665      6663      6666      6668
      6665      6663      6666      6669      6666      6669      6672      6673
      6666      6669      6672      6674      6666      6669      6672      6675
      6667      6666      6669      6670      6667      6666      6669      6671
      6667      6666      6669      6672      6668      6666      6669      6670
      6668      6666      6669      6671      6668      6666      6669      6672
      6669      6672      6675      6676      6669      6672      6675      6677
      6669      6672      6675      6678      6670      6669      6672      6673
      6670      6669      6672      6674      6670      6669      6672      6675
      6671      6669      6672      6673      6671      6669      6672      6674
      6671      6669      6672      6675      6672      6675      6678      6679
      6672      6675      6678      6680      6672      6675      6678      6681
      6673      6672      6675      6676      6673      6672      6675      6677
      6673      6672      6675      6678      6674      6672      6675      6676
      6674      6672      6675      6677      6674      6672      6675      6678
      6675      6678      6681      6682      6675      6678      6681      6683
      6675      6678      6681      6684      6676      6675      6678      6679
      6676      6675      6678      6680      6676      6675      6678      6681
      6677      6675      6678      6679      6677      6675      6678      6680
      6677      6675      6678      6681      6679      6678      6681      6682
      6679      6678      6681      6683      6679      6678      6681      6684
      6680      6678      6681      6682      6680      6678      6681      6683
      6680      6678      6681      6684      6685      6688      6691      6692
      6685      6688      6691      6693      6685      6688      6691      6694
      6686      6685      6688      6689      6686      6685      6688      6690
      6686      6685      6688      6691      6687      6685      6688      6689
      6687      6685      6688      6690      6687      6685      6688      6691
      6688      6691      6694      6695      6688      6691      6694      6696
      6688      6691      6694      6697      6689      6688      6691      6692
      6689      6688      6691      6693      6689      6688      6691      6694
      6690      6688      6691      6692      6690      6688      6691      6693
      6690      6688      6691      6694      6691      6694      6697      6698
      6691      6694      6697      6699      6691      6694      6697      6700
      6692      6691      6694      6695      6692      6691      6694      6696
      6692      6691      6694      6697      6693      6691      6694      6695
      6693      6691      6694      6696      6693      6691      6694      6697
      6694      6697      6700      6701      6694      6697      6700      6702
      6694      6697      6700      6703      6695      6694      6697      6698
      6695      6694      6697      6699      6695      6694      6697      6700
      6696      6694      6697      6698      6696      6694      6697      6699
      6696      6694      6697      6700      6697      6700      6703      6704
      6697      6700      6703      6705      6697      6700      6703      6706
      6698      6697      6700      6701      6698      6697      6700      6702
      6698      6697      6700      6703      6699      6697      6700      6701
      6699      6697      6700      6702      6699      6697      6700      6703
      6700      6703      6706      6707      6700      6703      6706      6708
      6700      6703      6706      6709      6701      6700      6703      6704
      6701      6700      6703      6705      6701      6700      6703      6706
      6702      6700      6703      6704      6702      6700      6703      6705
      6702      6700      6703      6706      6703      6706      6709      6710
      6703      6706      6709      6711      6703      6706      6709      6712
      6704      6703      6706      6707      6704      6703      6706      6708
      6704      6703      6706      6709      6705      6703      6706      6707
      6705      6703      6706      6708      6705      6703      6706      6709
      6706      6709      6712      6713      6706      6709      6712      6714
      6706      6709      6712      6715      6707      6706      6709      6710
      6707      6706      6709      6711      6707      6706      6709      6712
      6708      6706      6709      6710      6708      6706      6709      6711
      6708      6706      6709      6712      6709      6712      6715      6716
      6709      6712      6715      6717      6709      6712      6715      6718
      6710      6709      6712      6713      6710      6709      6712      6714
      6710      6709      6712      6715      6711      6709      6712      6713
      6711      6709      6712      6714      6711      6709      6712      6715
      6712      6715      6718      6719      6712      6715      6718      6720
      6712      6715      6718      6721      6713      6712      6715      6716
      6713      6712      6715      6717      6713      6712      6715      6718
      6714      6712      6715      6716      6714      6712      6715      6717
      6714      6712      6715      6718      6715      6718      6721      6722
      6715      6718      6721      6723      6715      6718      6721      6724
      6716      6715      6718      6719      6716      6715      6718      6720
      6716      6715      6718      6721      6717      6715      6718      6719
      6717      6715      6718      6720      6717      6715      6718      6721
      6718      6721      6724      6725      6718      6721      6724      6726
      6718      6721      6724      6727      6719      6718      6721      6722
      6719      6718      6721      6723      6719      6718      6721      6724
      6720      6718      6721      6722      6720      6718      6721      6723
      6720      6718      6721      6724      6722      6721      6724      6725
      6722      6721      6724      6726      6722      6721      6724      6727
      6723      6721      6724      6725      6723      6721      6724      6726
      6723      6721      6724      6727      6728      6732      6735      6736
      6728      6732      6735      6737      6728      6732      6735      6742
      6729      6728      6732      6733      6729      6728      6732      6734
      6729      6728      6732      6735      6730      6728      6732      6733
      6730      6728      6732      6734      6730      6728      6732      6735
      6731      6728      6732      6733      6731      6728      6732      6734
      6731      6728      6732      6735      6732      6735      6742      6738
      6733      6732      6735      6736      6733      6732      6735      6737
      6733      6732      6735      6742      6734      6732      6735      6736
      6734      6732      6735      6737      6734      6732      6735      6742
      6735      6742      6738      6739      6735      6742      6738      6740
      6735      6742      6738      6741      6736      6735      6742      6738
      6737      6735      6742      6738      6738      6741      6743      6744
      6738      6741      6743      6745      6738      6741      6743      6746
      6739      6738      6741      6743      6740      6738      6741      6743
      6741      6743      6746      6747      6741      6743      6746      6748
      6741      6743      6746      6754      6742      6738      6741      6743
      6743      6746      6748      6749      6743      6746      6754      6755
      6743      6746      6754      6756      6743      6746      6754      6757
      6744      6743      6746      6747      6744      6743      6746      6748
      6744      6743      6746      6754      6745      6743      6746      6747
      6745      6743      6746      6748      6745      6743      6746      6754
      6746      6748      6749      6750      6746      6748      6749      6751
      6746      6754      6757      6758      6747      6746      6748      6749
      6747      6746      6754      6755      6747      6746      6754      6756
      6747      6746      6754      6757      6748      6746      6754      6755
      6748      6746      6754      6756      6748      6746      6754      6757
      6748      6749      6751      6752      6748      6749      6751      6753
      6748      6749      6751      6763      6749      6748      6746      6754
      6749      6751      6763      6764      6749      6751      6763      6765
      6749      6751      6763      6766      6750      6749      6751      6752
      6750      6749      6751      6753      6750      6749      6751      6763
      6751      6763      6766      6767      6751      6763      6766      6768
      6751      6763      6766      6769      6752      6751      6763      6764
      6752      6751      6763      6765      6752      6751      6763      6766
      6753      6751      6763      6764      6753      6751      6763      6765
      6753      6751      6763      6766      6754      6757      6758      6759
      6754      6757      6758      6760      6755      6754      6757      6758
      6756      6754      6757      6758      6757      6758      6760      6761
      6757      6758      6760      6762      6757      6758      6760      6807
      6758      6760      6807      6808      6758      6760      6807      6809
      6758      6760      6807      6810      6759      6758      6760      6761
      6759      6758      6760      6762      6759      6758      6760      6807
      6760      6807      6810      6811      6760      6807      6810      6812
      6760      6807      6810      6813      6761      6760      6807      6808
      6761      6760      6807      6809      6761      6760      6807      6810
      6762      6760      6807      6808      6762      6760      6807      6809
      6762      6760      6807      6810      6763      6766      6769      6770
      6763      6766      6769      6771      6763      6766      6769      6772
      6764      6763      6766      6767      6764      6763      6766      6768
      6764      6763      6766      6769      6765      6763      6766      6767
      6765      6763      6766      6768      6765      6763      6766      6769
      6766      6769      6772      6773      6766      6769      6772      6774
      6766      6769      6772      6775      6767      6766      6769      6770
      6767      6766      6769      6771      6767      6766      6769      6772
      6768      6766      6769      6770      6768      6766      6769      6771
      6768      6766      6769      6772      6769      6772      6775      6776
      6769      6772      6775      6777      6769      6772      6775      6778
      6770      6769      6772      6773      6770      6769      6772      6774
      6770      6769      6772      6775      6771      6769      6772      6773
      6771      6769      6772      6774      6771      6769      6772      6775
      6772      6775      6778      6779      6772      6775      6778      6780
      6772      6775      6778      6781      6773      6772      6775      6776
      6773      6772      6775      6777      6773      6772      6775      6778
      6774      6772      6775      6776      6774      6772      6775      6777
      6774      6772      6775      6778      6775      6778      6781      6782
      6775      6778      6781      6783      6775      6778      6781      6786
      6776      6775      6778      6779      6776      6775      6778      6780
      6776      6775      6778      6781      6777      6775      6778      6779
      6777      6775      6778      6780      6777      6775      6778      6781
      6778      6781      6783      6784      6778      6781      6783      6785
      6778      6781      6783      6786      6778      6781      6786      6783
      6778      6781      6786      6787      6778      6781      6786      6788
      6779      6778      6781      6782      6779      6778      6781      6783
      6779      6778      6781      6786      6780      6778      6781      6782
      6780      6778      6781      6783      6780      6778      6781      6786
      6781      6783      6786      6787      6781      6783      6786      6788
      6781      6786      6783      6784      6781      6786      6783      6785
      6781      6786      6788      6789      6781      6786      6788      6790
      6781      6786      6788      6791      6782      6781      6783      6784
      6782      6781      6783      6785      6782      6781      6783      6786
      6782      6781      6786      6783      6782      6781      6786      6787
      6782      6781      6786      6788      6783      6781      6786      6787
      6783      6781      6786      6788      6783      6786      6788      6789
      6783      6786      6788      6790      6783      6786      6788      6791
      6784      6783      6781      6786      6784      6783      6786      6787
      6784      6783      6786      6788      6785      6783      6781      6786
      6785      6783      6786      6787      6785      6783      6786      6788
      6786      6788      6791      6792      6786      6788      6791      6793
      6786      6788      6791      6794      6787      6786      6788      6789
      6787      6786      6788      6790      6787      6786      6788      6791
      6788      6791      6794      6795      6788      6791      6794      6796
      6788      6791      6794      6797      6789      6788      6791      6792
      6789      6788      6791      6793      6789      6788      6791      6794
      6790      6788      6791      6792      6790      6788      6791      6793
      6790      6788      6791      6794      6791      6794      6797      6798
      6791      6794      6797      6799      6791      6794      6797      6800
      6792      6791      6794      6795      6792      6791      6794      6796
      6792      6791      6794      6797      6793      6791      6794      6795
      6793      6791      6794      6796      6793      6791      6794      6797
      6794      6797      6800      6801      6794      6797      6800      6802
      6794      6797      6800      6803      6795      6794      6797      6798
      6795      6794      6797      6799      6795      6794      6797      6800
      6796      6794      6797      6798      6796      6794      6797      6799
      6796      6794      6797      6800      6797      6800      6803      6804
      6797      6800      6803      6805      6797      6800      6803      6806
      6798      6797      6800      6801      6798      6797      6800      6802
      6798      6797      6800      6803      6799      6797      6800      6801
      6799      6797      6800      6802      6799      6797      6800      6803
      6801      6800      6803      6804      6801      6800      6803      6805
      6801      6800      6803      6806      6802      6800      6803      6804
      6802      6800      6803      6805      6802      6800      6803      6806
      6807      6810      6813      6814      6807      6810      6813      6815
      6807      6810      6813      6816      6808      6807      6810      6811
      6808      6807      6810      6812      6808      6807      6810      6813
      6809      6807      6810      6811      6809      6807      6810      6812
      6809      6807      6810      6813      6810      6813      6816      6817
      6810      6813      6816      6818      6810      6813      6816      6819
      6811      6810      6813      6814      6811      6810      6813      6815
      6811      6810      6813      6816      6812      6810      6813      6814
      6812      6810      6813      6815      6812      6810      6813      6816
      6813      6816      6819      6820      6813      6816      6819      6821
      6813      6816      6819      6822      6814      6813      6816      6817
      6814      6813      6816      6818      6814      6813      6816      6819
      6815      6813      6816      6817      6815      6813      6816      6818
      6815      6813      6816      6819      6816      6819      6822      6823
      6816      6819      6822      6824      6816      6819      6822      6825
      6817      6816      6819      6820      6817      6816      6819      6821
      6817      6816      6819      6822      6818      6816      6819      6820
      6818      6816      6819      6821      6818      6816      6819      6822
      6819      6822      6825      6826      6819      6822      6825      6827
      6819      6822      6825      6828      6820      6819      6822      6823
      6820      6819      6822      6824      6820      6819      6822      6825
      6821      6819      6822      6823      6821      6819      6822      6824
      6821      6819      6822      6825      6822      6825      6828      6829
      6822      6825      6828      6830      6822      6825      6828      6831
      6823      6822      6825      6826      6823      6822      6825      6827
      6823      6822      6825      6828      6824      6822      6825      6826
      6824      6822      6825      6827      6824      6822      6825      6828
      6825      6828      6831      6832      6825      6828      6831      6833
      6825      6828      6831      6834      6826      6825      6828      6829
      6826      6825      6828      6830      6826      6825      6828      6831
      6827      6825      6828      6829      6827      6825      6828      6830
      6827      6825      6828      6831      6828      6831      6834      6835
      6828      6831      6834      6836      6828      6831      6834      6837
      6829      6828      6831      6832      6829      6828      6831      6833
      6829      6828      6831      6834      6830      6828      6831      6832
      6830      6828      6831      6833      6830      6828      6831      6834
      6831      6834      6837      6838      6831      6834      6837      6839
      6831      6834      6837      6840      6832      6831      6834      6835
      6832      6831      6834      6836      6832      6831      6834      6837
      6833      6831      6834      6835      6833      6831      6834      6836
      6833      6831      6834      6837      6834      6837      6840      6841
      6834      6837      6840      6842      6834      6837      6840      6843
      6835      6834      6837      6838      6835      6834      6837      6839
      6835      6834      6837      6840      6836      6834      6837      6838
      6836      6834      6837      6839      6836      6834      6837      6840
      6837      6840      6843      6844      6837      6840      6843      6845
      6837      6840      6843      6846      6838      6837      6840      6841
      6838      6837      6840      6842      6838      6837      6840      6843
      6839      6837      6840      6841      6839      6837      6840      6842
      6839      6837      6840      6843      6841      6840      6843      6844
      6841      6840      6843      6845      6841      6840      6843      6846
      6842      6840      6843      6844      6842      6840      6843      6845
      6842      6840      6843      6846      6847      6851      6854      6855
      6847      6851      6854      6856      6847      6851      6854      6861
      6848      6847      6851      6852      6848      6847      6851      6853
      6848      6847      6851      6854      6849      6847      6851      6852
      6849      6847      6851      6853      6849      6847      6851      6854
      6850      6847      6851      6852      6850      6847      6851      6853
      6850      6847      6851      6854      6851      6854      6861      6857
      6852      6851      6854      6855      6852      6851      6854      6856
      6852      6851      6854      6861      6853      6851      6854      6855
      6853      6851      6854      6856      6853      6851      6854      6861
      6854      6861      6857      6858      6854      6861      6857      6859
      6854      6861      6857      6860      6855      6854      6861      6857
      6856      6854      6861      6857      6857      6860      6862      6863
      6857      6860      6862      6864      6857      6860      6862      6865
      6858      6857      6860      6862      6859      6857      6860      6862
      6860      6862      6865      6866      6860      6862      6865      6867
      6860      6862      6865      6873      6861      6857      6860      6862
      6862      6865      6867      6868      6862      6865      6873      6874
      6862      6865      6873      6875      6862      6865      6873      6876
      6863      6862      6865      6866      6863      6862      6865      6867
      6863      6862      6865      6873      6864      6862      6865      6866
      6864      6862      6865      6867      6864      6862      6865      6873
      6865      6867      6868      6869      6865      6867      6868      6870
      6865      6873      6876      6877      6866      6865      6867      6868
      6866      6865      6873      6874      6866      6865      6873      6875
      6866      6865      6873      6876      6867      6865      6873      6874
      6867      6865      6873      6875      6867      6865      6873      6876
      6867      6868      6870      6871      6867      6868      6870      6872
      6867      6868      6870      6882      6868      6867      6865      6873
      6868      6870      6882      6883      6868      6870      6882      6884
      6868      6870      6882      6885      6869      6868      6870      6871
      6869      6868      6870      6872      6869      6868      6870      6882
      6870      6882      6885      6886      6870      6882      6885      6887
      6870      6882      6885      6888      6871      6870      6882      6883
      6871      6870      6882      6884      6871      6870      6882      6885
      6872      6870      6882      6883      6872      6870      6882      6884
      6872      6870      6882      6885      6873      6876      6877      6878
      6873      6876      6877      6879      6874      6873      6876      6877
      6875      6873      6876      6877      6876      6877      6879      6880
      6876      6877      6879      6881      6876      6877      6879      6929
      6877      6879      6929      6930      6877      6879      6929      6931
      6877      6879      6929      6932      6878      6877      6879      6880
      6878      6877      6879      6881      6878      6877      6879      6929
      6879      6929      6932      6933      6879      6929      6932      6934
      6879      6929      6932      6935      6880      6879      6929      6930
      6880      6879      6929      6931      6880      6879      6929      6932
      6881      6879      6929      6930      6881      6879      6929      6931
      6881      6879      6929      6932      6882      6885      6888      6889
      6882      6885      6888      6890      6882      6885      6888      6891
      6883      6882      6885      6886      6883      6882      6885      6887
      6883      6882      6885      6888      6884      6882      6885      6886
      6884      6882      6885      6887      6884      6882      6885      6888
      6885      6888      6891      6892      6885      6888      6891      6893
      6885      6888      6891      6894      6886      6885      6888      6889
      6886      6885      6888      6890      6886      6885      6888      6891
      6887      6885      6888      6889      6887      6885      6888      6890
      6887      6885      6888      6891      6888      6891      6894      6895
      6888      6891      6894      6896      6888      6891      6894      6897
      6889      6888      6891      6892      6889      6888      6891      6893
      6889      6888      6891      6894      6890      6888      6891      6892
      6890      6888      6891      6893      6890      6888      6891      6894
      6891      6894      6897      6898      6891      6894      6897      6899
      6891      6894      6897      6900      6892      6891      6894      6895
      6892      6891      6894      6896      6892      6891      6894      6897
      6893      6891      6894      6895      6893      6891      6894      6896
      6893      6891      6894      6897      6894      6897      6900      6901
      6894      6897      6900      6902      6895      6894      6897      6898
      6895      6894      6897      6899      6895      6894      6897      6900
      6896      6894      6897      6898      6896      6894      6897      6899
      6896      6894      6897      6900      6897      6900      6902      6903
      6897      6900      6902      6904      6898      6897      6900      6901
      6898      6897      6900      6902      6899      6897      6900      6901
      6899      6897      6900      6902      6900      6902      6904      6905
      6900      6902      6904      6906      6900      6902      6904      6907
      6901      6900      6902      6903      6901      6900      6902      6904
      6902      6904      6907      6908      6902      6904      6907      6909
      6902      6904      6907      6910      6903      6902      6904      6905
      6903      6902      6904      6906      6903      6902      6904      6907
      6904      6907      6910      6911      6904      6907      6910      6912
      6904      6907      6910      6913      6905      6904      6907      6908
      6905      6904      6907      6909      6905      6904      6907      6910
      6906      6904      6907      6908      6906      6904      6907      6909
      6906      6904      6907      6910      6907      6910      6913      6914
      6907      6910      6913      6915      6907      6910      6913      6916
      6908      6907      6910      6911      6908      6907      6910      6912
      6908      6907      6910      6913      6909      6907      6910      6911
      6909      6907      6910      6912      6909      6907      6910      6913
      6910      6913      6916      6917      6910      6913      6916      6918
      6910      6913      6916      6919      6911      6910      6913      6914
      6911      6910      6913      6915      6911      6910      6913      6916
      6912      6910      6913      6914      6912      6910      6913      6915
      6912      6910      6913      6916      6913      6916      6919      6920
      6913      6916      6919      6921      6913      6916      6919      6922
      6914      6913      6916      6917      6914      6913      6916      6918
      6914      6913      6916      6919      6915      6913      6916      6917
      6915      6913      6916      6918      6915      6913      6916      6919
      6916      6919      6922      6923      6916      6919      6922      6924
      6916      6919      6922      6925      6917      6916      6919      6920
      6917      6916      6919      6921      6917      6916      6919      6922
      6918      6916      6919      6920      6918      6916      6919      6921
      6918      6916      6919      6922      6919      6922      6925      6926
      6919      6922      6925      6927      6919      6922      6925      6928
      6920      6919      6922      6923      6920      6919      6922      6924
      6920      6919      6922      6925      6921      6919      6922      6923
      6921      6919      6922      6924      6921      6919      6922      6925
      6923      6922      6925      6926      6923      6922      6925      6927
      6923      6922      6925      6928      6924      6922      6925      6926
      6924      6922      6925      6927      6924      6922      6925      6928
      6929      6932      6935      6936      6929      6932      6935      6937
      6929      6932      6935      6938      6930      6929      6932      6933
      6930      6929      6932      6934      6930      6929      6932      6935
      6931      6929      6932      6933      6931      6929      6932      6934
      6931      6929      6932      6935      6932      6935      6938      6939
      6932      6935      6938      6940      6932      6935      6938      6941
      6933      6932      6935      6936      6933      6932      6935      6937
      6933      6932      6935      6938      6934      6932      6935      6936
      6934      6932      6935      6937      6934      6932      6935      6938
      6935      6938      6941      6942      6935      6938      6941      6943
      6935      6938      6941      6944      6936      6935      6938      6939
      6936      6935      6938      6940      6936      6935      6938      6941
      6937      6935      6938      6939      6937      6935      6938      6940
      6937      6935      6938      6941      6938      6941      6944      6945
      6938      6941      6944      6946      6938      6941      6944      6947
      6939      6938      6941      6942      6939      6938      6941      6943
      6939      6938      6941      6944      6940      6938      6941      6942
      6940      6938      6941      6943      6940      6938      6941      6944
      6941      6944      6947      6948      6941      6944      6947      6949
      6941      6944      6947      6950      6942      6941      6944      6945
      6942      6941      6944      6946      6942      6941      6944      6947
      6943      6941      6944      6945      6943      6941      6944      6946
      6943      6941      6944      6947      6944      6947      6950      6951
      6944      6947      6950      6952      6944      6947      6950      6953
      6945      6944      6947      6948      6945      6944      6947      6949
      6945      6944      6947      6950      6946      6944      6947      6948
      6946      6944      6947      6949      6946      6944      6947      6950
      6947      6950      6953      6954      6947      6950      6953      6955
      6947      6950      6953      6956      6948      6947      6950      6951
      6948      6947      6950      6952      6948      6947      6950      6953
      6949      6947      6950      6951      6949      6947      6950      6952
      6949      6947      6950      6953      6950      6953      6956      6957
      6950      6953      6956      6958      6950      6953      6956      6959
      6951      6950      6953      6954      6951      6950      6953      6955
      6951      6950      6953      6956      6952      6950      6953      6954
      6952      6950      6953      6955      6952      6950      6953      6956
      6953      6956      6959      6960      6953      6956      6959      6961
      6953      6956      6959      6962      6954      6953      6956      6957
      6954      6953      6956      6958      6954      6953      6956      6959
      6955      6953      6956      6957      6955      6953      6956      6958
      6955      6953      6956      6959      6956      6959      6962      6963
      6956      6959      6962      6964      6956      6959      6962      6965
      6957      6956      6959      6960      6957      6956      6959      6961
      6957      6956      6959      6962      6958      6956      6959      6960
      6958      6956      6959      6961      6958      6956      6959      6962
      6959      6962      6965      6966      6959      6962      6965      6967
      6959      6962      6965      6968      6960      6959      6962      6963
      6960      6959      6962      6964      6960      6959      6962      6965
      6961      6959      6962      6963      6961      6959      6962      6964
      6961      6959      6962      6965      6962      6965      6968      6969
      6962      6965      6968      6970      6962      6965      6968      6971
      6963      6962      6965      6966      6963      6962      6965      6967
      6963      6962      6965      6968      6964      6962      6965      6966
      6964      6962      6965      6967      6964      6962      6965      6968
      6966      6965      6968      6969      6966      6965      6968      6970
      6966      6965      6968      6971      6967      6965      6968      6969
      6967      6965      6968      6970      6967      6965      6968      6971
      6972      6976      6979      6980      6972      6976      6979      6981
      6972      6976      6979      6986      6973      6972      6976      6977
      6973      6972      6976      6978      6973      6972      6976      6979
      6974      6972      6976      6977      6974      6972      6976      6978
      6974      6972      6976      6979      6975      6972      6976      6977
      6975      6972      6976      6978      6975      6972      6976      6979
      6976      6979      6986      6982      6977      6976      6979      6980
      6977      6976      6979      6981      6977      6976      6979      6986
      6978      6976      6979      6980      6978      6976      6979      6981
      6978      6976      6979      6986      6979      6986      6982      6983
      6979      6986      6982      6984      6979      6986      6982      6985
      6980      6979      6986      6982      6981      6979      6986      6982
      6982      6985      6987      6988      6982      6985      6987      6989
      6982      6985      6987      6990      6983      6982      6985      6987
      6984      6982      6985      6987      6985      6987      6990      6991
      6985      6987      6990      6992      6985      6987      6990      6998
      6986      6982      6985      6987      6987      6990      6992      6993
      6987      6990      6998      6999      6987      6990      6998      7000
      6987      6990      6998      7001      6988      6987      6990      6991
      6988      6987      6990      6992      6988      6987      6990      6998
      6989      6987      6990      6991      6989      6987      6990      6992
      6989      6987      6990      6998      6990      6992      6993      6994
      6990      6992      6993      6995      6990      6998      7001      7002
      6991      6990      6992      6993      6991      6990      6998      6999
      6991      6990      6998      7000      6991      6990      6998      7001
      6992      6990      6998      6999      6992      6990      6998      7000
      6992      6990      6998      7001      6992      6993      6995      6996
      6992      6993      6995      6997      6992      6993      6995      7007
      6993      6992      6990      6998      6993      6995      7007      7008
      6993      6995      7007      7009      6993      6995      7007      7010
      6994      6993      6995      6996      6994      6993      6995      6997
      6994      6993      6995      7007      6995      7007      7010      7011
      6995      7007      7010      7012      6995      7007      7010      7013
      6996      6995      7007      7008      6996      6995      7007      7009
      6996      6995      7007      7010      6997      6995      7007      7008
      6997      6995      7007      7009      6997      6995      7007      7010
      6998      7001      7002      7003      6998      7001      7002      7004
      6999      6998      7001      7002      7000      6998      7001      7002
      7001      7002      7004      7005      7001      7002      7004      7006
      7001      7002      7004      7051      7002      7004      7051      7052
      7002      7004      7051      7053      7002      7004      7051      7054
      7003      7002      7004      7005      7003      7002      7004      7006
      7003      7002      7004      7051      7004      7051      7054      7055
      7004      7051      7054      7056      7004      7051      7054      7057
      7005      7004      7051      7052      7005      7004      7051      7053
      7005      7004      7051      7054      7006      7004      7051      7052
      7006      7004      7051      7053      7006      7004      7051      7054
      7007      7010      7013      7014      7007      7010      7013      7015
      7007      7010      7013      7016      7008      7007      7010      7011
      7008      7007      7010      7012      7008      7007      7010      7013
      7009      7007      7010      7011      7009      7007      7010      7012
      7009      7007      7010      7013      7010      7013      7016      7017
      7010      7013      7016      7018      7010      7013      7016      7019
      7011      7010      7013      7014      7011      7010      7013      7015
      7011      7010      7013      7016      7012      7010      7013      7014
      7012      7010      7013      7015      7012      7010      7013      7016
      7013      7016      7019      7020      7013      7016      7019      7021
      7013      7016      7019      7022      7014      7013      7016      7017
      7014      7013      7016      7018      7014      7013      7016      7019
      7015      7013      7016      7017      7015      7013      7016      7018
      7015      7013      7016      7019      7016      7019      7022      7023
      7016      7019      7022      7024      7016      7019      7022      7025
      7017      7016      7019      7020      7017      7016      7019      7021
      7017      7016      7019      7022      7018      7016      7019      7020
      7018      7016      7019      7021      7018      7016      7019      7022
      7019      7022      7025      7026      7019      7022      7025      7027
      7019      7022      7025      7030      7020      7019      7022      7023
      7020      7019      7022      7024      7020      7019      7022      7025
      7021      7019      7022      7023      7021      7019      7022      7024
      7021      7019      7022      7025      7022      7025      7027      7028
      7022      7025      7027      7029      7022      7025      7027      7030
      7022      7025      7030      7027      7022      7025      7030      7031
      7022      7025      7030      7032      7023      7022      7025      7026
      7023      7022      7025      7027      7023      7022      7025      7030
      7024      7022      7025      7026      7024      7022      7025      7027
      7024      7022      7025      7030      7025      7027      7030      7031
      7025      7027      7030      7032      7025      7030      7027      7028
      7025      7030      7027      7029      7025      7030      7032      7033
      7025      7030      7032      7034      7025      7030      7032      7035
      7026      7025      7027      7028      7026      7025      7027      7029
      7026      7025      7027      7030      7026      7025      7030      7027
      7026      7025      7030      7031      7026      7025      7030      7032
      7027      7025      7030      7031      7027      7025      7030      7032
      7027      7030      7032      7033      7027      7030      7032      7034
      7027      7030      7032      7035      7028      7027      7025      7030
      7028      7027      7030      7031      7028      7027      7030      7032
      7029      7027      7025      7030      7029      7027      7030      7031
      7029      7027      7030      7032      7030      7032      7035      7036
      7030      7032      7035      7037      7030      7032      7035      7038
      7031      7030      7032      7033      7031      7030      7032      7034
      7031      7030      7032      7035      7032      7035      7038      7039
      7032      7035      7038      7040      7032      7035      7038      7041
      7033      7032      7035      7036      7033      7032      7035      7037
      7033      7032      7035      7038      7034      7032      7035      7036
      7034      7032      7035      7037      7034      7032      7035      7038
      7035      7038      7041      7042      7035      7038      7041      7043
      7035      7038      7041      7044      7036      7035      7038      7039
      7036      7035      7038      7040      7036      7035      7038      7041
      7037      7035      7038      7039      7037      7035      7038      7040
      7037      7035      7038      7041      7038      7041      7044      7045
      7038      7041      7044      7046      7038      7041      7044      7047
      7039      7038      7041      7042      7039      7038      7041      7043
      7039      7038      7041      7044      7040      7038      7041      7042
      7040      7038      7041      7043      7040      7038      7041      7044
      7041      7044      7047      7048      7041      7044      7047      7049
      7041      7044      7047      7050      7042      7041      7044      7045
      7042      7041      7044      7046      7042      7041      7044      7047
      7043      7041      7044      7045      7043      7041      7044      7046
      7043      7041      7044      7047      7045      7044      7047      7048
      7045      7044      7047      7049      7045      7044      7047      7050
      7046      7044      7047      7048      7046      7044      7047      7049
      7046      7044      7047      7050      7051      7054      7057      7058
      7051      7054      7057      7059      7051      7054      7057      7060
      7052      7051      7054      7055      7052      7051      7054      7056
      7052      7051      7054      7057      7053      7051      7054      7055
      7053      7051      7054      7056      7053      7051      7054      7057
      7054      7057      7060      7061      7054      7057      7060      7062
      7054      7057      7060      7063      7055      7054      7057      7058
      7055      7054      7057      7059      7055      7054      7057      7060
      7056      7054      7057      7058      7056      7054      7057      7059
      7056      7054      7057      7060      7057      7060      7063      7064
      7057      7060      7063      7065      7057      7060      7063      7066
      7058      7057      7060      7061      7058      7057      7060      7062
      7058      7057      7060      7063      7059      7057      7060      7061
      7059      7057      7060      7062      7059      7057      7060      7063
      7060      7063      7066      7067      7060      7063      7066      7068
      7060      7063      7066      7069      7061      7060      7063      7064
      7061      7060      7063      7065      7061      7060      7063      7066
      7062      7060      7063      7064      7062      7060      7063      7065
      7062      7060      7063      7066      7063      7066      7069      7070
      7063      7066      7069      7071      7063      7066      7069      7072
      7064      7063      7066      7067      7064      7063      7066      7068
      7064      7063      7066      7069      7065      7063      7066      7067
      7065      7063      7066      7068      7065      7063      7066      7069
      7066      7069      7072      7073      7066      7069      7072      7074
      7066      7069      7072      7075      7067      7066      7069      7070
      7067      7066      7069      7071      7067      7066      7069      7072
      7068      7066      7069      7070      7068      7066      7069      7071
      7068      7066      7069      7072      7069      7072      7075      7076
      7069      7072      7075      7077      7069      7072      7075      7078
      7070      7069      7072      7073      7070      7069      7072      7074
      7070      7069      7072      7075      7071      7069      7072      7073
      7071      7069      7072      7074      7071      7069      7072      7075
      7072      7075      7078      7079      7072      7075      7078      7080
      7072      7075      7078      7081      7073      7072      7075      7076
      7073      7072      7075      7077      7073      7072      7075      7078
      7074      7072      7075      7076      7074      7072      7075      7077
      7074      7072      7075      7078      7075      7078      7081      7082
      7075      7078      7081      7083      7075      7078      7081      7084
      7076      7075      7078      7079      7076      7075      7078      7080
      7076      7075      7078      7081      7077      7075      7078      7079
      7077      7075      7078      7080      7077      7075      7078      7081
      7078      7081      7084      7085      7078      7081      7084      7086
      7078      7081      7084      7087      7079      7078      7081      7082
      7079      7078      7081      7083      7079      7078      7081      7084
      7080      7078      7081      7082      7080      7078      7081      7083
      7080      7078      7081      7084      7081      7084      7087      7088
      7081      7084      7087      7089      7081      7084      7087      7090
      7082      7081      7084      7085      7082      7081      7084      7086
      7082      7081      7084      7087      7083      7081      7084      7085
      7083      7081      7084      7086      7083      7081      7084      7087
      7084      7087      7090      7091      7084      7087      7090      7092
      7084      7087      7090      7093      7085      7084      7087      7088
      7085      7084      7087      7089      7085      7084      7087      7090
      7086      7084      7087      7088      7086      7084      7087      7089
      7086      7084      7087      7090      7088      7087      7090      7091
      7088      7087      7090      7092      7088      7087      7090      7093
      7089      7087      7090      7091      7089      7087      7090      7092
      7089      7087      7090      7093      7094      7098      7101      7102
      7094      7098      7101      7103      7094      7098      7101      7108
      7095      7094      7098      7099      7095      7094      7098      7100
      7095      7094      7098      7101      7096      7094      7098      7099
      7096      7094      7098      7100      7096      7094      7098      7101
      7097      7094      7098      7099      7097      7094      7098      7100
      7097      7094      7098      7101      7098      7101      7108      7104
      7099      7098      7101      7102      7099      7098      7101      7103
      7099      7098      7101      7108      7100      7098      7101      7102
      7100      7098      7101      7103      7100      7098      7101      7108
      7101      7108      7104      7105      7101      7108      7104      7106
      7101      7108      7104      7107      7102      7101      7108      7104
      7103      7101      7108      7104      7104      7107      7109      7110
      7104      7107      7109      7111      7104      7107      7109      7112
      7105      7104      7107      7109      7106      7104      7107      7109
      7107      7109      7112      7113      7107      7109      7112      7114
      7107      7109      7112      7120      7108      7104      7107      7109
      7109      7112      7114      7115      7109      7112      7120      7121
      7109      7112      7120      7122      7109      7112      7120      7123
      7110      7109      7112      7113      7110      7109      7112      7114
      7110      7109      7112      7120      7111      7109      7112      7113
      7111      7109      7112      7114      7111      7109      7112      7120
      7112      7114      7115      7116      7112      7114      7115      7117
      7112      7120      7123      7124      7113      7112      7114      7115
      7113      7112      7120      7121      7113      7112      7120      7122
      7113      7112      7120      7123      7114      7112      7120      7121
      7114      7112      7120      7122      7114      7112      7120      7123
      7114      7115      7117      7118      7114      7115      7117      7119
      7114      7115      7117      7129      7115      7114      7112      7120
      7115      7117      7129      7130      7115      7117      7129      7131
      7115      7117      7129      7132      7116      7115      7117      7118
      7116      7115      7117      7119      7116      7115      7117      7129
      7117      7129      7132      7133      7117      7129      7132      7134
      7117      7129      7132      7135      7118      7117      7129      7130
      7118      7117      7129      7131      7118      7117      7129      7132
      7119      7117      7129      7130      7119      7117      7129      7131
      7119      7117      7129      7132      7120      7123      7124      7125
      7120      7123      7124      7126      7121      7120      7123      7124
      7122      7120      7123      7124      7123      7124      7126      7127
      7123      7124      7126      7128      7123      7124      7126      7173
      7124      7126      7173      7174      7124      7126      7173      7175
      7124      7126      7173      7176      7125      7124      7126      7127
      7125      7124      7126      7128      7125      7124      7126      7173
      7126      7173      7176      7177      7126      7173      7176      7178
      7126      7173      7176      7179      7127      7126      7173      7174
      7127      7126      7173      7175      7127      7126      7173      7176
      7128      7126      7173      7174      7128      7126      7173      7175
      7128      7126      7173      7176      7129      7132      7135      7136
      7129      7132      7135      7137      7129      7132      7135      7138
      7130      7129      7132      7133      7130      7129      7132      7134
      7130      7129      7132      7135      7131      7129      7132      7133
      7131      7129      7132      7134      7131      7129      7132      7135
      7132      7135      7138      7139      7132      7135      7138      7140
      7132      7135      7138      7141      7133      7132      7135      7136
      7133      7132      7135      7137      7133      7132      7135      7138
      7134      7132      7135      7136      7134      7132      7135      7137
      7134      7132      7135      7138      7135      7138      7141      7142
      7135      7138      7141      7143      7135      7138      7141      7144
      7136      7135      7138      7139      7136      7135      7138      7140
      7136      7135      7138      7141      7137      7135      7138      7139
      7137      7135      7138      7140      7137      7135      7138      7141
      7138      7141      7144      7145      7138      7141      7144      7146
      7138      7141      7144      7147      7139      7138      7141      7142
      7139      7138      7141      7143      7139      7138      7141      7144
      7140      7138      7141      7142      7140      7138      7141      7143
      7140      7138      7141      7144      7141      7144      7147      7148
      7141      7144      7147      7149      7141      7144      7147      7152
      7142      7141      7144      7145      7142      7141      7144      7146
      7142      7141      7144      7147      7143      7141      7144      7145
      7143      7141      7144      7146      7143      7141      7144      7147
      7144      7147      7149      7150      7144      7147      7149      7151
      7144      7147      7149      7152      7144      7147      7152      7149
      7144      7147      7152      7153      7144      7147      7152      7154
      7145      7144      7147      7148      7145      7144      7147      7149
      7145      7144      7147      7152      7146      7144      7147      7148
      7146      7144      7147      7149      7146      7144      7147      7152
      7147      7149      7152      7153      7147      7149      7152      7154
      7147      7152      7149      7150      7147      7152      7149      7151
      7147      7152      7154      7155      7147      7152      7154      7156
      7147      7152      7154      7157      7148      7147      7149      7150
      7148      7147      7149      7151      7148      7147      7149      7152
      7148      7147      7152      7149      7148      7147      7152      7153
      7148      7147      7152      7154      7149      7147      7152      7153
      7149      7147      7152      7154      7149      7152      7154      7155
      7149      7152      7154      7156      7149      7152      7154      7157
      7150      7149      7147      7152      7150      7149      7152      7153
      7150      7149      7152      7154      7151      7149      7147      7152
      7151      7149      7152      7153      7151      7149      7152      7154
      7152      7154      7157      7158      7152      7154      7157      7159
      7152      7154      7157      7160      7153      7152      7154      7155
      7153      7152      7154      7156      7153      7152      7154      7157
      7154      7157      7160      7161      7154      7157      7160      7162
      7154      7157      7160      7163      7155      7154      7157      7158
      7155      7154      7157      7159      7155      7154      7157      7160
      7156      7154      7157      7158      7156      7154      7157      7159
      7156      7154      7157      7160      7157      7160      7163      7164
      7157      7160      7163      7165      7157      7160      7163      7166
      7158      7157      7160      7161      7158      7157      7160      7162
      7158      7157      7160      7163      7159      7157      7160      7161
      7159      7157      7160      7162      7159      7157      7160      7163
      7160      7163      7166      7167      7160      7163      7166      7168
      7160      7163      7166      7169      7161      7160      7163      7164
      7161      7160      7163      7165      7161      7160      7163      7166
      7162      7160      7163      7164      7162      7160      7163      7165
      7162      7160      7163      7166      7163      7166      7169      7170
      7163      7166      7169      7171      7163      7166      7169      7172
      7164      7163      7166      7167      7164      7163      7166      7168
      7164      7163      7166      7169      7165      7163      7166      7167
      7165      7163      7166      7168      7165      7163      7166      7169
      7167      7166      7169      7170      7167      7166      7169      7171
      7167      7166      7169      7172      7168      7166      7169      7170
      7168      7166      7169      7171      7168      7166      7169      7172
      7173      7176      7179      7180      7173      7176      7179      7181
      7173      7176      7179      7182      7174      7173      7176      7177
      7174      7173      7176      7178      7174      7173      7176      7179
      7175      7173      7176      7177      7175      7173      7176      7178
      7175      7173      7176      7179      7176      7179      7182      7183
      7176      7179      7182      7184      7176      7179      7182      7185
      7177      7176      7179      7180      7177      7176      7179      7181
      7177      7176      7179      7182      7178      7176      7179      7180
      7178      7176      7179      7181      7178      7176      7179      7182
      7179      7182      7185      7186      7179      7182      7185      7187
      7179      7182      7185      7188      7180      7179      7182      7183
      7180      7179      7182      7184      7180      7179      7182      7185
      7181      7179      7182      7183      7181      7179      7182      7184
      7181      7179      7182      7185      7182      7185      7188      7189
      7182      7185      7188      7190      7182      7185      7188      7191
      7183      7182      7185      7186      7183      7182      7185      7187
      7183      7182      7185      7188      7184      7182      7185      7186
      7184      7182      7185      7187      7184      7182      7185      7188
      7185      7188      7191      7192      7185      7188      7191      7193
      7185      7188      7191      7194      7186      7185      7188      7189
      7186      7185      7188      7190      7186      7185      7188      7191
      7187      7185      7188      7189      7187      7185      7188      7190
      7187      7185      7188      7191      7188      7191      7194      7195
      7188      7191      7194      7196      7188      7191      7194      7197
      7189      7188      7191      7192      7189      7188      7191      7193
      7189      7188      7191      7194      7190      7188      7191      7192
      7190      7188      7191      7193      7190      7188      7191      7194
      7191      7194      7197      7198      7191      7194      7197      7199
      7191      7194      7197      7200      7192      7191      7194      7195
      7192      7191      7194      7196      7192      7191      7194      7197
      7193      7191      7194      7195      7193      7191      7194      7196
      7193      7191      7194      7197      7194      7197      7200      7201
      7194      7197      7200      7202      7194      7197      7200      7203
      7195      7194      7197      7198      7195      7194      7197      7199
      7195      7194      7197      7200      7196      7194      7197      7198
      7196      7194      7197      7199      7196      7194      7197      7200
      7197      7200      7203      7204      7197      7200      7203      7205
      7197      7200      7203      7206      7198      7197      7200      7201
      7198      7197      7200      7202      7198      7197      7200      7203
      7199      7197      7200      7201      7199      7197      7200      7202
      7199      7197      7200      7203      7200      7203      7206      7207
      7200      7203      7206      7208      7200      7203      7206      7209
      7201      7200      7203      7204      7201      7200      7203      7205
      7201      7200      7203      7206      7202      7200      7203      7204
      7202      7200      7203      7205      7202      7200      7203      7206
      7203      7206      7209      7210      7203      7206      7209      7211
      7203      7206      7209      7212      7204      7203      7206      7207
      7204      7203      7206      7208      7204      7203      7206      7209
      7205      7203      7206      7207      7205      7203      7206      7208
      7205      7203      7206      7209      7206      7209      7212      7213
      7206      7209      7212      7214      7206      7209      7212      7215
      7207      7206      7209      7210      7207      7206      7209      7211
      7207      7206      7209      7212      7208      7206      7209      7210
      7208      7206      7209      7211      7208      7206      7209      7212
      7210      7209      7212      7213      7210      7209      7212      7214
      7210      7209      7212      7215      7211      7209      7212      7213
      7211      7209      7212      7214      7211      7209      7212      7215
      7216      7220      7223      7224      7216      7220      7223      7225
      7216      7220      7223      7230      7217      7216      7220      7221
      7217      7216      7220      7222      7217      7216      7220      7223
      7218      7216      7220      7221      7218      7216      7220      7222
      7218      7216      7220      7223      7219      7216      7220      7221
      7219      7216      7220      7222      7219      7216      7220      7223
      7220      7223      7230      7226      7221      7220      7223      7224
      7221      7220      7223      7225      7221      7220      7223      7230
      7222      7220      7223      7224      7222      7220      7223      7225
      7222      7220      7223      7230      7223      7230      7226      7227
      7223      7230      7226      7228      7223      7230      7226      7229
      7224      7223      7230      7226      7225      7223      7230      7226
      7226      7229      7231      7232      7226      7229      7231      7233
      7226      7229      7231      7234      7227      7226      7229      7231
      7228      7226      7229      7231      7229      7231      7234      7235
      7229      7231      7234      7236      7229      7231      7234      7242
      7230      7226      7229      7231      7231      7234      7236      7237
      7231      7234      7242      7243      7231      7234      7242      7244
      7231      7234      7242      7245      7232      7231      7234      7235
      7232      7231      7234      7236      7232      7231      7234      7242
      7233      7231      7234      7235      7233      7231      7234      7236
      7233      7231      7234      7242      7234      7236      7237      7238
      7234      7236      7237      7239      7234      7242      7245      7246
      7235      7234      7236      7237      7235      7234      7242      7243
      7235      7234      7242      7244      7235      7234      7242      7245
      7236      7234      7242      7243      7236      7234      7242      7244
      7236      7234      7242      7245      7236      7237      7239      7240
      7236      7237      7239      7241      7236      7237      7239      7251
      7237      7236      7234      7242      7237      7239      7251      7252
      7237      7239      7251      7253      7237      7239      7251      7254
      7238      7237      7239      7240      7238      7237      7239      7241
      7238      7237      7239      7251      7239      7251      7254      7255
      7239      7251      7254      7256      7239      7251      7254      7257
      7240      7239      7251      7252      7240      7239      7251      7253
      7240      7239      7251      7254      7241      7239      7251      7252
      7241      7239      7251      7253      7241      7239      7251      7254
      7242      7245      7246      7247      7242      7245      7246      7248
      7243      7242      7245      7246      7244      7242      7245      7246
      7245      7246      7248      7249      7245      7246      7248      7250
      7245      7246      7248      7298      7246      7248      7298      7299
      7246      7248      7298      7300      7246      7248      7298      7301
      7247      7246      7248      7249      7247      7246      7248      7250
      7247      7246      7248      7298      7248      7298      7301      7302
      7248      7298      7301      7303      7248      7298      7301      7304
      7249      7248      7298      7299      7249      7248      7298      7300
      7249      7248      7298      7301      7250      7248      7298      7299
      7250      7248      7298      7300      7250      7248      7298      7301
      7251      7254      7257      7258      7251      7254      7257      7259
      7251      7254      7257      7260      7252      7251      7254      7255
      7252      7251      7254      7256      7252      7251      7254      7257
      7253      7251      7254      7255      7253      7251      7254      7256
      7253      7251      7254      7257      7254      7257      7260      7261
      7254      7257      7260      7262      7254      7257      7260      7263
      7255      7254      7257      7258      7255      7254      7257      7259
      7255      7254      7257      7260      7256      7254      7257      7258
      7256      7254      7257      7259      7256      7254      7257      7260
      7257      7260      7263      7264      7257      7260      7263      7265
      7257      7260      7263      7266      7258      7257      7260      7261
      7258      7257      7260      7262      7258      7257      7260      7263
      7259      7257      7260      7261      7259      7257      7260      7262
      7259      7257      7260      7263      7260      7263      7266      7267
      7260      7263      7266      7268      7260      7263      7266      7269
      7261      7260      7263      7264      7261      7260      7263      7265
      7261      7260      7263      7266      7262      7260      7263      7264
      7262      7260      7263      7265      7262      7260      7263      7266
      7263      7266      7269      7270      7263      7266      7269      7271
      7264      7263      7266      7267      7264      7263      7266      7268
      7264      7263      7266      7269      7265      7263      7266      7267
      7265      7263      7266      7268      7265      7263      7266      7269
      7266      7269      7271      7272      7266      7269      7271      7273
      7267      7266      7269      7270      7267      7266      7269      7271
      7268      7266      7269      7270      7268      7266      7269      7271
      7269      7271      7273      7274      7269      7271      7273      7275
      7269      7271      7273      7276      7270      7269      7271      7272
      7270      7269      7271      7273      7271      7273      7276      7277
      7271      7273      7276      7278      7271      7273      7276      7279
      7272      7271      7273      7274      7272      7271      7273      7275
      7272      7271      7273      7276      7273      7276      7279      7280
      7273      7276      7279      7281      7273      7276      7279      7282
      7274      7273      7276      7277      7274      7273      7276      7278
      7274      7273      7276      7279      7275      7273      7276      7277
      7275      7273      7276      7278      7275      7273      7276      7279
      7276      7279      7282      7283      7276      7279      7282      7284
      7276      7279      7282      7285      7277      7276      7279      7280
      7277      7276      7279      7281      7277      7276      7279      7282
      7278      7276      7279      7280      7278      7276      7279      7281
      7278      7276      7279      7282      7279      7282      7285      7286
      7279      7282      7285      7287      7279      7282      7285      7288
      7280      7279      7282      7283      7280      7279      7282      7284
      7280      7279      7282      7285      7281      7279      7282      7283
      7281      7279      7282      7284      7281      7279      7282      7285
      7282      7285      7288      7289      7282      7285      7288      7290
      7282      7285      7288      7291      7283      7282      7285      7286
      7283      7282      7285      7287      7283      7282      7285      7288
      7284      7282      7285      7286      7284      7282      7285      7287
      7284      7282      7285      7288      7285      7288      7291      7292
      7285      7288      7291      7293      7285      7288      7291      7294
      7286      7285      7288      7289      7286      7285      7288      7290
      7286      7285      7288      7291      7287      7285      7288      7289
      7287      7285      7288      7290      7287      7285      7288      7291
      7288      7291      7294      7295      7288      7291      7294      7296
      7288      7291      7294      7297      7289      7288      7291      7292
      7289      7288      7291      7293      7289      7288      7291      7294
      7290      7288      7291      7292      7290      7288      7291      7293
      7290      7288      7291      7294      7292      7291      7294      7295
      7292      7291      7294      7296      7292      7291      7294      7297
      7293      7291      7294      7295      7293      7291      7294      7296
      7293      7291      7294      7297      7298      7301      7304      7305
      7298      7301      7304      7306      7298      7301      7304      7307
      7299      7298      7301      7302      7299      7298      7301      7303
      7299      7298      7301      7304      7300      7298      7301      7302
      7300      7298      7301      7303      7300      7298      7301      7304
      7301      7304      7307      7308      7301      7304      7307      7309
      7301      7304      7307      7310      7302      7301      7304      7305
      7302      7301      7304      7306      7302      7301      7304      7307
      7303      7301      7304      7305      7303      7301      7304      7306
      7303      7301      7304      7307      7304      7307      7310      7311
      7304      7307      7310      7312      7304      7307      7310      7313
      7305      7304      7307      7308      7305      7304      7307      7309
      7305      7304      7307      7310      7306      7304      7307      7308
      7306      7304      7307      7309      7306      7304      7307      7310
      7307      7310      7313      7314      7307      7310      7313      7315
      7307      7310      7313      7316      7308      7307      7310      7311
      7308      7307      7310      7312      7308      7307      7310      7313
      7309      7307      7310      7311      7309      7307      7310      7312
      7309      7307      7310      7313      7310      7313      7316      7317
      7310      7313      7316      7318      7310      7313      7316      7319
      7311      7310      7313      7314      7311      7310      7313      7315
      7311      7310      7313      7316      7312      7310      7313      7314
      7312      7310      7313      7315      7312      7310      7313      7316
      7313      7316      7319      7320      7313      7316      7319      7321
      7313      7316      7319      7322      7314      7313      7316      7317
      7314      7313      7316      7318      7314      7313      7316      7319
      7315      7313      7316      7317      7315      7313      7316      7318
      7315      7313      7316      7319      7316      7319      7322      7323
      7316      7319      7322      7324      7316      7319      7322      7325
      7317      7316      7319      7320      7317      7316      7319      7321
      7317      7316      7319      7322      7318      7316      7319      7320
      7318      7316      7319      7321      7318      7316      7319      7322
      7319      7322      7325      7326      7319      7322      7325      7327
      7319      7322      7325      7328      7320      7319      7322      7323
      7320      7319      7322      7324      7320      7319      7322      7325
      7321      7319      7322      7323      7321      7319      7322      7324
      7321      7319      7322      7325      7322      7325      7328      7329
      7322      7325      7328      7330      7322      7325      7328      7331
      7323      7322      7325      7326      7323      7322      7325      7327
      7323      7322      7325      7328      7324      7322      7325      7326
      7324      7322      7325      7327      7324      7322      7325      7328
      7325      7328      7331      7332      7325      7328      7331      7333
      7325      7328      7331      7334      7326      7325      7328      7329
      7326      7325      7328      7330      7326      7325      7328      7331
      7327      7325      7328      7329      7327      7325      7328      7330
      7327      7325      7328      7331      7328      7331      7334      7335
      7328      7331      7334      7336      7328      7331      7334      7337
      7329      7328      7331      7332      7329      7328      7331      7333
      7329      7328      7331      7334      7330      7328      7331      7332
      7330      7328      7331      7333      7330      7328      7331      7334
      7331      7334      7337      7338      7331      7334      7337      7339
      7331      7334      7337      7340      7332      7331      7334      7335
      7332      7331      7334      7336      7332      7331      7334      7337
      7333      7331      7334      7335      7333      7331      7334      7336
      7333      7331      7334      7337      7335      7334      7337      7338
      7335      7334      7337      7339      7335      7334      7337      7340
      7336      7334      7337      7338      7336      7334      7337      7339
      7336      7334      7337      7340      7341      7345      7348      7349
      7341      7345      7348      7350      7341      7345      7348      7355
      7342      7341      7345      7346      7342      7341      7345      7347
      7342      7341      7345      7348      7343      7341      7345      7346
      7343      7341      7345      7347      7343      7341      7345      7348
      7344      7341      7345      7346      7344      7341      7345      7347
      7344      7341      7345      7348      7345      7348      7355      7351
      7346      7345      7348      7349      7346      7345      7348      7350
      7346      7345      7348      7355      7347      7345      7348      7349
      7347      7345      7348      7350      7347      7345      7348      7355
      7348      7355      7351      7352      7348      7355      7351      7353
      7348      7355      7351      7354      7349      7348      7355      7351
      7350      7348      7355      7351      7351      7354      7356      7357
      7351      7354      7356      7358      7351      7354      7356      7359
      7352      7351      7354      7356      7353      7351      7354      7356
      7354      7356      7359      7360      7354      7356      7359      7361
      7354      7356      7359      7367      7355      7351      7354      7356
      7356      7359      7361      7362      7356      7359      7367      7368
      7356      7359      7367      7369      7356      7359      7367      7370
      7357      7356      7359      7360      7357      7356      7359      7361
      7357      7356      7359      7367      7358      7356      7359      7360
      7358      7356      7359      7361      7358      7356      7359      7367
      7359      7361      7362      7363      7359      7361      7362      7364
      7359      7367      7370      7371      7360      7359      7361      7362
      7360      7359      7367      7368      7360      7359      7367      7369
      7360      7359      7367      7370      7361      7359      7367      7368
      7361      7359      7367      7369      7361      7359      7367      7370
      7361      7362      7364      7365      7361      7362      7364      7366
      7361      7362      7364      7376      7362      7361      7359      7367
      7362      7364      7376      7377      7362      7364      7376      7378
      7362      7364      7376      7379      7363      7362      7364      7365
      7363      7362      7364      7366      7363      7362      7364      7376
      7364      7376      7379      7380      7364      7376      7379      7381
      7364      7376      7379      7382      7365      7364      7376      7377
      7365      7364      7376      7378      7365      7364      7376      7379
      7366      7364      7376      7377      7366      7364      7376      7378
      7366      7364      7376      7379      7367      7370      7371      7372
      7367      7370      7371      7373      7368      7367      7370      7371
      7369      7367      7370      7371      7370      7371      7373      7374
      7370      7371      7373      7375      7370      7371      7373      7420
      7371      7373      7420      7421      7371      7373      7420      7422
      7371      7373      7420      7423      7372      7371      7373      7374
      7372      7371      7373      7375      7372      7371      7373      7420
      7373      7420      7423      7424      7373      7420      7423      7425
      7373      7420      7423      7426      7374      7373      7420      7421
      7374      7373      7420      7422      7374      7373      7420      7423
      7375      7373      7420      7421      7375      7373      7420      7422
      7375      7373      7420      7423      7376      7379      7382      7383
      7376      7379      7382      7384      7376      7379      7382      7385
      7377      7376      7379      7380      7377      7376      7379      7381
      7377      7376      7379      7382      7378      7376      7379      7380
      7378      7376      7379      7381      7378      7376      7379      7382
      7379      7382      7385      7386      7379      7382      7385      7387
      7379      7382      7385      7388      7380      7379      7382      7383
      7380      7379      7382      7384      7380      7379      7382      7385
      7381      7379      7382      7383      7381      7379      7382      7384
      7381      7379      7382      7385      7382      7385      7388      7389
      7382      7385      7388      7390      7382      7385      7388      7391
      7383      7382      7385      7386      7383      7382      7385      7387
      7383      7382      7385      7388      7384      7382      7385      7386
      7384      7382      7385      7387      7384      7382      7385      7388
      7385      7388      7391      7392      7385      7388      7391      7393
      7385      7388      7391      7394      7386      7385      7388      7389
      7386      7385      7388      7390      7386      7385      7388      7391
      7387      7385      7388      7389      7387      7385      7388      7390
      7387      7385      7388      7391      7388      7391      7394      7395
      7388      7391      7394      7396      7388      7391      7394      7399
      7389      7388      7391      7392      7389      7388      7391      7393
      7389      7388      7391      7394      7390      7388      7391      7392
      7390      7388      7391      7393      7390      7388      7391      7394
      7391      7394      7396      7397      7391      7394      7396      7398
      7391      7394      7396      7399      7391      7394      7399      7396
      7391      7394      7399      7400      7391      7394      7399      7401
      7392      7391      7394      7395      7392      7391      7394      7396
      7392      7391      7394      7399      7393      7391      7394      7395
      7393      7391      7394      7396      7393      7391      7394      7399
      7394      7396      7399      7400      7394      7396      7399      7401
      7394      7399      7396      7397      7394      7399      7396      7398
      7394      7399      7401      7402      7394      7399      7401      7403
      7394      7399      7401      7404      7395      7394      7396      7397
      7395      7394      7396      7398      7395      7394      7396      7399
      7395      7394      7399      7396      7395      7394      7399      7400
      7395      7394      7399      7401      7396      7394      7399      7400
      7396      7394      7399      7401      7396      7399      7401      7402
      7396      7399      7401      7403      7396      7399      7401      7404
      7397      7396      7394      7399      7397      7396      7399      7400
      7397      7396      7399      7401      7398      7396      7394      7399
      7398      7396      7399      7400      7398      7396      7399      7401
      7399      7401      7404      7405      7399      7401      7404      7406
      7399      7401      7404      7407      7400      7399      7401      7402
      7400      7399      7401      7403      7400      7399      7401      7404
      7401      7404      7407      7408      7401      7404      7407      7409
      7401      7404      7407      7410      7402      7401      7404      7405
      7402      7401      7404      7406      7402      7401      7404      7407
      7403      7401      7404      7405      7403      7401      7404      7406
      7403      7401      7404      7407      7404      7407      7410      7411
      7404      7407      7410      7412      7404      7407      7410      7413
      7405      7404      7407      7408      7405      7404      7407      7409
      7405      7404      7407      7410      7406      7404      7407      7408
      7406      7404      7407      7409      7406      7404      7407      7410
      7407      7410      7413      7414      7407      7410      7413      7415
      7407      7410      7413      7416      7408      7407      7410      7411
      7408      7407      7410      7412      7408      7407      7410      7413
      7409      7407      7410      7411      7409      7407      7410      7412
      7409      7407      7410      7413      7410      7413      7416      7417
      7410      7413      7416      7418      7410      7413      7416      7419
      7411      7410      7413      7414      7411      7410      7413      7415
      7411      7410      7413      7416      7412      7410      7413      7414
      7412      7410      7413      7415      7412      7410      7413      7416
      7414      7413      7416      7417      7414      7413      7416      7418
      7414      7413      7416      7419      7415      7413      7416      7417
      7415      7413      7416      7418      7415      7413      7416      7419
      7420      7423      7426      7427      7420      7423      7426      7428
      7420      7423      7426      7429      7421      7420      7423      7424
      7421      7420      7423      7425      7421      7420      7423      7426
      7422      7420      7423      7424      7422      7420      7423      7425
      7422      7420      7423      7426      7423      7426      7429      7430
      7423      7426      7429      7431      7423      7426      7429      7432
      7424      7423      7426      7427      7424      7423      7426      7428
      7424      7423      7426      7429      7425      7423      7426      7427
      7425      7423      7426      7428      7425      7423      7426      7429
      7426      7429      7432      7433      7426      7429      7432      7434
      7426      7429      7432      7435      7427      7426      7429      7430
      7427      7426      7429      7431      7427      7426      7429      7432
      7428      7426      7429      7430      7428      7426      7429      7431
      7428      7426      7429      7432      7429      7432      7435      7436
      7429      7432      7435      7437      7429      7432      7435      7438
      7430      7429      7432      7433      7430      7429      7432      7434
      7430      7429      7432      7435      7431      7429      7432      7433
      7431      7429      7432      7434      7431      7429      7432      7435
      7432      7435      7438      7439      7432      7435      7438      7440
      7432      7435      7438      7441      7433      7432      7435      7436
      7433      7432      7435      7437      7433      7432      7435      7438
      7434      7432      7435      7436      7434      7432      7435      7437
      7434      7432      7435      7438      7435      7438      7441      7442
      7435      7438      7441      7443      7435      7438      7441      7444
      7436      7435      7438      7439      7436      7435      7438      7440
      7436      7435      7438      7441      7437      7435      7438      7439
      7437      7435      7438      7440      7437      7435      7438      7441
      7438      7441      7444      7445      7438      7441      7444      7446
      7438      7441      7444      7447      7439      7438      7441      7442
      7439      7438      7441      7443      7439      7438      7441      7444
      7440      7438      7441      7442      7440      7438      7441      7443
      7440      7438      7441      7444      7441      7444      7447      7448
      7441      7444      7447      7449      7441      7444      7447      7450
      7442      7441      7444      7445      7442      7441      7444      7446
      7442      7441      7444      7447      7443      7441      7444      7445
      7443      7441      7444      7446      7443      7441      7444      7447
      7444      7447      7450      7451      7444      7447      7450      7452
      7444      7447      7450      7453      7445      7444      7447      7448
      7445      7444      7447      7449      7445      7444      7447      7450
      7446      7444      7447      7448      7446      7444      7447      7449
      7446      7444      7447      7450      7447      7450      7453      7454
      7447      7450      7453      7455      7447      7450      7453      7456
      7448      7447      7450      7451      7448      7447      7450      7452
      7448      7447      7450      7453      7449      7447      7450      7451
      7449      7447      7450      7452      7449      7447      7450      7453
      7450      7453      7456      7457      7450      7453      7456      7458
      7450      7453      7456      7459      7451      7450      7453      7454
      7451      7450      7453      7455      7451      7450      7453      7456
      7452      7450      7453      7454      7452      7450      7453      7455
      7452      7450      7453      7456      7453      7456      7459      7460
      7453      7456      7459      7461      7453      7456      7459      7462
      7454      7453      7456      7457      7454      7453      7456      7458
      7454      7453      7456      7459      7455      7453      7456      7457
      7455      7453      7456      7458      7455      7453      7456      7459
      7457      7456      7459      7460      7457      7456      7459      7461
      7457      7456      7459      7462      7458      7456      7459      7460
      7458      7456      7459      7461      7458      7456      7459      7462
      7463      7467      7470      7471      7463      7467      7470      7472
      7463      7467      7470      7477      7464      7463      7467      7468
      7464      7463      7467      7469      7464      7463      7467      7470
      7465      7463      7467      7468      7465      7463      7467      7469
      7465      7463      7467      7470      7466      7463      7467      7468
      7466      7463      7467      7469      7466      7463      7467      7470
      7467      7470      7477      7473      7468      7467      7470      7471
      7468      7467      7470      7472      7468      7467      7470      7477
      7469      7467      7470      7471      7469      7467      7470      7472
      7469      7467      7470      7477      7470      7477      7473      7474
      7470      7477      7473      7475      7470      7477      7473      7476
      7471      7470      7477      7473      7472      7470      7477      7473
      7473      7476      7478      7479      7473      7476      7478      7480
      7473      7476      7478      7481      7474      7473      7476      7478
      7475      7473      7476      7478      7476      7478      7481      7482
      7476      7478      7481      7483      7476      7478      7481      7489
      7477      7473      7476      7478      7478      7481      7483      7484
      7478      7481      7489      7490      7478      7481      7489      7491
      7478      7481      7489      7492      7479      7478      7481      7482
      7479      7478      7481      7483      7479      7478      7481      7489
      7480      7478      7481      7482      7480      7478      7481      7483
      7480      7478      7481      7489      7481      7483      7484      7485
      7481      7483      7484      7486      7481      7489      7492      7493
      7482      7481      7483      7484      7482      7481      7489      7490
      7482      7481      7489      7491      7482      7481      7489      7492
      7483      7481      7489      7490      7483      7481      7489      7491
      7483      7481      7489      7492      7483      7484      7486      7487
      7483      7484      7486      7488      7483      7484      7486      7498
      7484      7483      7481      7489      7484      7486      7498      7499
      7484      7486      7498      7500      7484      7486      7498      7501
      7485      7484      7486      7487      7485      7484      7486      7488
      7485      7484      7486      7498      7486      7498      7501      7502
      7486      7498      7501      7503      7486      7498      7501      7504
      7487      7486      7498      7499      7487      7486      7498      7500
      7487      7486      7498      7501      7488      7486      7498      7499
      7488      7486      7498      7500      7488      7486      7498      7501
      7489      7492      7493      7494      7489      7492      7493      7495
      7490      7489      7492      7493      7491      7489      7492      7493
      7492      7493      7495      7496      7492      7493      7495      7497
      7492      7493      7495      7542      7493      7495      7542      7543
      7493      7495      7542      7544      7493      7495      7542      7545
      7494      7493      7495      7496      7494      7493      7495      7497
      7494      7493      7495      7542      7495      7542      7545      7546
      7495      7542      7545      7547      7495      7542      7545      7548
      7496      7495      7542      7543      7496      7495      7542      7544
      7496      7495      7542      7545      7497      7495      7542      7543
      7497      7495      7542      7544      7497      7495      7542      7545
      7498      7501      7504      7505      7498      7501      7504      7506
      7498      7501      7504      7507      7499      7498      7501      7502
      7499      7498      7501      7503      7499      7498      7501      7504
      7500      7498      7501      7502      7500      7498      7501      7503
      7500      7498      7501      7504      7501      7504      7507      7508
      7501      7504      7507      7509      7501      7504      7507      7510
      7502      7501      7504      7505      7502      7501      7504      7506
      7502      7501      7504      7507      7503      7501      7504      7505
      7503      7501      7504      7506      7503      7501      7504      7507
      7504      7507      7510      7511      7504      7507      7510      7512
      7504      7507      7510      7513      7505      7504      7507      7508
      7505      7504      7507      7509      7505      7504      7507      7510
      7506      7504      7507      7508      7506      7504      7507      7509
      7506      7504      7507      7510      7507      7510      7513      7514
      7507      7510      7513      7515      7507      7510      7513      7516
      7508      7507      7510      7511      7508      7507      7510      7512
      7508      7507      7510      7513      7509      7507      7510      7511
      7509      7507      7510      7512      7509      7507      7510      7513
      7510      7513      7516      7517      7510      7513      7516      7518
      7510      7513      7516      7521      7511      7510      7513      7514
      7511      7510      7513      7515      7511      7510      7513      7516
      7512      7510      7513      7514      7512      7510      7513      7515
      7512      7510      7513      7516      7513      7516      7518      7519
      7513      7516      7518      7520      7513      7516      7518      7521
      7513      7516      7521      7518      7513      7516      7521      7522
      7513      7516      7521      7523      7514      7513      7516      7517
      7514      7513      7516      7518      7514      7513      7516      7521
      7515      7513      7516      7517      7515      7513      7516      7518
      7515      7513      7516      7521      7516      7518      7521      7522
      7516      7518      7521      7523      7516      7521      7518      7519
      7516      7521      7518      7520      7516      7521      7523      7524
      7516      7521      7523      7525      7516      7521      7523      7526
      7517      7516      7518      7519      7517      7516      7518      7520
      7517      7516      7518      7521      7517      7516      7521      7518
      7517      7516      7521      7522      7517      7516      7521      7523
      7518      7516      7521      7522      7518      7516      7521      7523
      7518      7521      7523      7524      7518      7521      7523      7525
      7518      7521      7523      7526      7519      7518      7516      7521
      7519      7518      7521      7522      7519      7518      7521      7523
      7520      7518      7516      7521      7520      7518      7521      7522
      7520      7518      7521      7523      7521      7523      7526      7527
      7521      7523      7526      7528      7521      7523      7526      7529
      7522      7521      7523      7524      7522      7521      7523      7525
      7522      7521      7523      7526      7523      7526      7529      7530
      7523      7526      7529      7531      7523      7526      7529      7532
      7524      7523      7526      7527      7524      7523      7526      7528
      7524      7523      7526      7529      7525      7523      7526      7527
      7525      7523      7526      7528      7525      7523      7526      7529
      7526      7529      7532      7533      7526      7529      7532      7534
      7526      7529      7532      7535      7527      7526      7529      7530
      7527      7526      7529      7531      7527      7526      7529      7532
      7528      7526      7529      7530      7528      7526      7529      7531
      7528      7526      7529      7532      7529      7532      7535      7536
      7529      7532      7535      7537      7529      7532      7535      7538
      7530      7529      7532      7533      7530      7529      7532      7534
      7530      7529      7532      7535      7531      7529      7532      7533
      7531      7529      7532      7534      7531      7529      7532      7535
      7532      7535      7538      7539      7532      7535      7538      7540
      7532      7535      7538      7541      7533      7532      7535      7536
      7533      7532      7535      7537      7533      7532      7535      7538
      7534      7532      7535      7536      7534      7532      7535      7537
      7534      7532      7535      7538      7536      7535      7538      7539
      7536      7535      7538      7540      7536      7535      7538      7541
      7537      7535      7538      7539      7537      7535      7538      7540
      7537      7535      7538      7541      7542      7545      7548      7549
      7542      7545      7548      7550      7542      7545      7548      7551
      7543      7542      7545      7546      7543      7542      7545      7547
      7543      7542      7545      7548      7544      7542      7545      7546
      7544      7542      7545      7547      7544      7542      7545      7548
      7545      7548      7551      7552      7545      7548      7551      7553
      7545      7548      7551      7554      7546      7545      7548      7549
      7546      7545      7548      7550      7546      7545      7548      7551
      7547      7545      7548      7549      7547      7545      7548      7550
      7547      7545      7548      7551      7548      7551      7554      7555
      7548      7551      7554      7556      7548      7551      7554      7557
      7549      7548      7551      7552      7549      7548      7551      7553
      7549      7548      7551      7554      7550      7548      7551      7552
      7550      7548      7551      7553      7550      7548      7551      7554
      7551      7554      7557      7558      7551      7554      7557      7559
      7551      7554      7557      7560      7552      7551      7554      7555
      7552      7551      7554      7556      7552      7551      7554      7557
      7553      7551      7554      7555      7553      7551      7554      7556
      7553      7551      7554      7557      7554      7557      7560      7561
      7554      7557      7560      7562      7554      7557      7560      7563
      7555      7554      7557      7558      7555      7554      7557      7559
      7555      7554      7557      7560      7556      7554      7557      7558
      7556      7554      7557      7559      7556      7554      7557      7560
      7557      7560      7563      7564      7557      7560      7563      7565
      7557      7560      7563      7566      7558      7557      7560      7561
      7558      7557      7560      7562      7558      7557      7560      7563
      7559      7557      7560      7561      7559      7557      7560      7562
      7559      7557      7560      7563      7560      7563      7566      7567
      7560      7563      7566      7568      7560      7563      7566      7569
      7561      7560      7563      7564      7561      7560      7563      7565
      7561      7560      7563      7566      7562      7560      7563      7564
      7562      7560      7563      7565      7562      7560      7563      7566
      7563      7566      7569      7570      7563      7566      7569      7571
      7563      7566      7569      7572      7564      7563      7566      7567
      7564      7563      7566      7568      7564      7563      7566      7569
      7565      7563      7566      7567      7565      7563      7566      7568
      7565      7563      7566      7569      7566      7569      7572      7573
      7566      7569      7572      7574      7566      7569      7572      7575
      7567      7566      7569      7570      7567      7566      7569      7571
      7567      7566      7569      7572      7568      7566      7569      7570
      7568      7566      7569      7571      7568      7566      7569      7572
      7569      7572      7575      7576      7569      7572      7575      7577
      7569      7572      7575      7578      7570      7569      7572      7573
      7570      7569      7572      7574      7570      7569      7572      7575
      7571      7569      7572      7573      7571      7569      7572      7574
      7571      7569      7572      7575      7572      7575      7578      7579
      7572      7575      7578      7580      7572      7575      7578      7581
      7573      7572      7575      7576      7573      7572      7575      7577
      7573      7572      7575      7578      7574      7572      7575      7576
      7574      7572      7575      7577      7574      7572      7575      7578
      7575      7578      7581      7582      7575      7578      7581      7583
      7575      7578      7581      7584      7576      7575      7578      7579
      7576      7575      7578      7580      7576      7575      7578      7581
      7577      7575      7578      7579      7577      7575      7578      7580
      7577      7575      7578      7581      7579      7578      7581      7582
      7579      7578      7581      7583      7579      7578      7581      7584
      7580      7578      7581      7582      7580      7578      7581      7583
      7580      7578      7581      7584      7585      7589      7592      7593
      7585      7589      7592      7594      7585      7589      7592      7599
      7586      7585      7589      7590      7586      7585      7589      7591
      7586      7585      7589      7592      7587      7585      7589      7590
      7587      7585      7589      7591      7587      7585      7589      7592
      7588      7585      7589      7590      7588      7585      7589      7591
      7588      7585      7589      7592      7589      7592      7599      7595
      7590      7589      7592      7593      7590      7589      7592      7594
      7590      7589      7592      7599      7591      7589      7592      7593
      7591      7589      7592      7594      7591      7589      7592      7599
      7592      7599      7595      7596      7592      7599      7595      7597
      7592      7599      7595      7598      7593      7592      7599      7595
      7594      7592      7599      7595      7595      7598      7600      7601
      7595      7598      7600      7602      7595      7598      7600      7603
      7596      7595      7598      7600      7597      7595      7598      7600
      7598      7600      7603      7604      7598      7600      7603      7605
      7598      7600      7603      7611      7599      7595      7598      7600
      7600      7603      7605      7606      7600      7603      7611      7612
      7600      7603      7611      7613      7600      7603      7611      7614
      7601      7600      7603      7604      7601      7600      7603      7605
      7601      7600      7603      7611      7602      7600      7603      7604
      7602      7600      7603      7605      7602      7600      7603      7611
      7603      7605      7606      7607      7603      7605      7606      7608
      7603      7611      7614      7615      7604      7603      7605      7606
      7604      7603      7611      7612      7604      7603      7611      7613
      7604      7603      7611      7614      7605      7603      7611      7612
      7605      7603      7611      7613      7605      7603      7611      7614
      7605      7606      7608      7609      7605      7606      7608      7610
      7605      7606      7608      7620      7606      7605      7603      7611
      7606      7608      7620      7621      7606      7608      7620      7622
      7606      7608      7620      7623      7607      7606      7608      7609
      7607      7606      7608      7610      7607      7606      7608      7620
      7608      7620      7623      7624      7608      7620      7623      7625
      7608      7620      7623      7626      7609      7608      7620      7621
      7609      7608      7620      7622      7609      7608      7620      7623
      7610      7608      7620      7621      7610      7608      7620      7622
      7610      7608      7620      7623      7611      7614      7615      7616
      7611      7614      7615      7617      7612      7611      7614      7615
      7613      7611      7614      7615      7614      7615      7617      7618
      7614      7615      7617      7619      7614      7615      7617      7664
      7615      7617      7664      7665      7615      7617      7664      7666
      7615      7617      7664      7667      7616      7615      7617      7618
      7616      7615      7617      7619      7616      7615      7617      7664
      7617      7664      7667      7668      7617      7664      7667      7669
      7617      7664      7667      7670      7618      7617      7664      7665
      7618      7617      7664      7666      7618      7617      7664      7667
      7619      7617      7664      7665      7619      7617      7664      7666
      7619      7617      7664      7667      7620      7623      7626      7627
      7620      7623      7626      7628      7620      7623      7626      7629
      7621      7620      7623      7624      7621      7620      7623      7625
      7621      7620      7623      7626      7622      7620      7623      7624
      7622      7620      7623      7625      7622      7620      7623      7626
      7623      7626      7629      7630      7623      7626      7629      7631
      7623      7626      7629      7632      7624      7623      7626      7627
      7624      7623      7626      7628      7624      7623      7626      7629
      7625      7623      7626      7627      7625      7623      7626      7628
      7625      7623      7626      7629      7626      7629      7632      7633
      7626      7629      7632      7634      7626      7629      7632      7635
      7627      7626      7629      7630      7627      7626      7629      7631
      7627      7626      7629      7632      7628      7626      7629      7630
      7628      7626      7629      7631      7628      7626      7629      7632
      7629      7632      7635      7636      7629      7632      7635      7637
      7629      7632      7635      7638      7630      7629      7632      7633
      7630      7629      7632      7634      7630      7629      7632      7635
      7631      7629      7632      7633      7631      7629      7632      7634
      7631      7629      7632      7635      7632      7635      7638      7639
      7632      7635      7638      7640      7632      7635      7638      7643
      7633      7632      7635      7636      7633      7632      7635      7637
      7633      7632      7635      7638      7634      7632      7635      7636
      7634      7632      7635      7637      7634      7632      7635      7638
      7635      7638      7640      7641      7635      7638      7640      7642
      7635      7638      7640      7643      7635      7638      7643      7640
      7635      7638      7643      7644      7635      7638      7643      7645
      7636      7635      7638      7639      7636      7635      7638      7640
      7636      7635      7638      7643      7637      7635      7638      7639
      7637      7635      7638      7640      7637      7635      7638      7643
      7638      7640      7643      7644      7638      7640      7643      7645
      7638      7643      7640      7641      7638      7643      7640      7642
      7638      7643      7645      7646      7638      7643      7645      7647
      7638      7643      7645      7648      7639      7638      7640      7641
      7639      7638      7640      7642      7639      7638      7640      7643
      7639      7638      7643      7640      7639      7638      7643      7644
      7639      7638      7643      7645      7640      7638      7643      7644
      7640      7638      7643      7645      7640      7643      7645      7646
      7640      7643      7645      7647      7640      7643      7645      7648
      7641      7640      7638      7643      7641      7640      7643      7644
      7641      7640      7643      7645      7642      7640      7638      7643
      7642      7640      7643      7644      7642      7640      7643      7645
      7643      7645      7648      7649      7643      7645      7648      7650
      7643      7645      7648      7651      7644      7643      7645      7646
      7644      7643      7645      7647      7644      7643      7645      7648
      7645      7648      7651      7652      7645      7648      7651      7653
      7645      7648      7651      7654      7646      7645      7648      7649
      7646      7645      7648      7650      7646      7645      7648      7651
      7647      7645      7648      7649      7647      7645      7648      7650
      7647      7645      7648      7651      7648      7651      7654      7655
      7648      7651      7654      7656      7648      7651      7654      7657
      7649      7648      7651      7652      7649      7648      7651      7653
      7649      7648      7651      7654      7650      7648      7651      7652
      7650      7648      7651      7653      7650      7648      7651      7654
      7651      7654      7657      7658      7651      7654      7657      7659
      7651      7654      7657      7660      7652      7651      7654      7655
      7652      7651      7654      7656      7652      7651      7654      7657
      7653      7651      7654      7655      7653      7651      7654      7656
      7653      7651      7654      7657      7654      7657      7660      7661
      7654      7657      7660      7662      7654      7657      7660      7663
      7655      7654      7657      7658      7655      7654      7657      7659
      7655      7654      7657      7660      7656      7654      7657      7658
      7656      7654      7657      7659      7656      7654      7657      7660
      7658      7657      7660      7661      7658      7657      7660      7662
      7658      7657      7660      7663      7659      7657      7660      7661
      7659      7657      7660      7662      7659      7657      7660      7663
      7664      7667      7670      7671      7664      7667      7670      7672
      7664      7667      7670      7673      7665      7664      7667      7668
      7665      7664      7667      7669      7665      7664      7667      7670
      7666      7664      7667      7668      7666      7664      7667      7669
      7666      7664      7667      7670      7667      7670      7673      7674
      7667      7670      7673      7675      7667      7670      7673      7676
      7668      7667      7670      7671      7668      7667      7670      7672
      7668      7667      7670      7673      7669      7667      7670      7671
      7669      7667      7670      7672      7669      7667      7670      7673
      7670      7673      7676      7677      7670      7673      7676      7678
      7670      7673      7676      7679      7671      7670      7673      7674
      7671      7670      7673      7675      7671      7670      7673      7676
      7672      7670      7673      7674      7672      7670      7673      7675
      7672      7670      7673      7676      7673      7676      7679      7680
      7673      7676      7679      7681      7673      7676      7679      7682
      7674      7673      7676      7677      7674      7673      7676      7678
      7674      7673      7676      7679      7675      7673      7676      7677
      7675      7673      7676      7678      7675      7673      7676      7679
      7676      7679      7682      7683      7676      7679      7682      7684
      7676      7679      7682      7685      7677      7676      7679      7680
      7677      7676      7679      7681      7677      7676      7679      7682
      7678      7676      7679      7680      7678      7676      7679      7681
      7678      7676      7679      7682      7679      7682      7685      7686
      7679      7682      7685      7687      7679      7682      7685      7688
      7680      7679      7682      7683      7680      7679      7682      7684
      7680      7679      7682      7685      7681      7679      7682      7683
      7681      7679      7682      7684      7681      7679      7682      7685
      7682      7685      7688      7689      7682      7685      7688      7690
      7682      7685      7688      7691      7683      7682      7685      7686
      7683      7682      7685      7687      7683      7682      7685      7688
      7684      7682      7685      7686      7684      7682      7685      7687
      7684      7682      7685      7688      7685      7688      7691      7692
      7685      7688      7691      7693      7685      7688      7691      7694
      7686      7685      7688      7689      7686      7685      7688      7690
      7686      7685      7688      7691      7687      7685      7688      7689
      7687      7685      7688      7690      7687      7685      7688      7691
      7688      7691      7694      7695      7688      7691      7694      7696
      7688      7691      7694      7697      7689      7688      7691      7692
      7689      7688      7691      7693      7689      7688      7691      7694
      7690      7688      7691      7692      7690      7688      7691      7693
      7690      7688      7691      7694      7691      7694      7697      7698
      7691      7694      7697      7699      7691      7694      7697      7700
      7692      7691      7694      7695      7692      7691      7694      7696
      7692      7691      7694      7697      7693      7691      7694      7695
      7693      7691      7694      7696      7693      7691      7694      7697
      7694      7697      7700      7701      7694      7697      7700      7702
      7694      7697      7700      7703      7695      7694      7697      7698
      7695      7694      7697      7699      7695      7694      7697      7700
      7696      7694      7697      7698      7696      7694      7697      7699
      7696      7694      7697      7700      7697      7700      7703      7704
      7697      7700      7703      7705      7697      7700      7703      7706
      7698      7697      7700      7701      7698      7697      7700      7702
      7698      7697      7700      7703      7699      7697      7700      7701
      7699      7697      7700      7702      7699      7697      7700      7703
      7701      7700      7703      7704      7701      7700      7703      7705
      7701      7700      7703      7706      7702      7700      7703      7704
      7702      7700      7703      7705      7702      7700      7703      7706
      7707      7712      7714      7715      7707      7712      7716      7717
      7707      7712      7716      7718      7707      7712      7716      7723
      7708      7707      7710      7711      7708      7707      7712      7713
      7708      7707      7712      7714      7708      7707      7712      7716
      7709      7707      7710      7711      7709      7707      7712      7713
      7709      7707      7712      7714      7709      7707      7712      7716
      7710      7707      7712      7713      7710      7707      7712      7714
      7710      7707      7712      7716      7711      7710      7707      7712
      7712      7716      7723      7719      7713      7712      7714      7715
      7713      7712      7716      7717      7713      7712      7716      7718
      7713      7712      7716      7723      7714      7712      7716      7717
      7714      7712      7716      7718      7714      7712      7716      7723
      7715      7714      7712      7716      7716      7723      7719      7720
      7716      7723      7719      7721      7716      7723      7719      7722
      7717      7716      7723      7719      7718      7716      7723      7719
      7719      7722      7724      7725      7719      7722      7724      7726
      7719      7722      7724      7727      7720      7719      7722      7724
      7721      7719      7722      7724      7722      7724      7727      7728
      7722      7724      7727      7729      7722      7724      7727      7735
      7723      7719      7722      7724      7724      7727      7729      7730
      7724      7727      7735      7736      7724      7727      7735      7737
      7724      7727      7735      7738      7725      7724      7727      7728
      7725      7724      7727      7729      7725      7724      7727      7735
      7726      7724      7727      7728      7726      7724      7727      7729
      7726      7724      7727      7735      7727      7729      7730      7731
      7727      7729      7730      7732      7727      7735      7738      7739
      7728      7727      7729      7730      7728      7727      7735      7736
      7728      7727      7735      7737      7728      7727      7735      7738
      7729      7727      7735      7736      7729      7727      7735      7737
      7729      7727      7735      7738      7729      7730      7732      7733
      7729      7730      7732      7734      7729      7730      7732      7744
      7730      7729      7727      7735      7730      7732      7744      7745
      7730      7732      7744      7746      7730      7732      7744      7747
      7731      7730      7732      7733      7731      7730      7732      7734
      7731      7730      7732      7744      7732      7744      7747      7748
      7732      7744      7747      7749      7732      7744      7747      7750
      7733      7732      7744      7745      7733      7732      7744      7746
      7733      7732      7744      7747      7734      7732      7744      7745
      7734      7732      7744      7746      7734      7732      7744      7747
      7735      7738      7739      7740      7735      7738      7739      7741
      7736      7735      7738      7739      7737      7735      7738      7739
      7738      7739      7741      7742      7738      7739      7741      7743
      7738      7739      7741      7785      7739      7741      7785      7786
      7739      7741      7785      7787      7739      7741      7785      7788
      7740      7739      7741      7742      7740      7739      7741      7743
      7740      7739      7741      7785      7741      7785      7788      7789
      7741      7785      7788      7790      7741      7785      7788      7791
      7742      7741      7785      7786      7742      7741      7785      7787
      7742      7741      7785      7788      7743      7741      7785      7786
      7743      7741      7785      7787      7743      7741      7785      7788
      7744      7747      7750      7751      7744      7747      7750      7752
      7744      7747      7750      7753      7745      7744      7747      7748
      7745      7744      7747      7749      7745      7744      7747      7750
      7746      7744      7747      7748      7746      7744      7747      7749
      7746      7744      7747      7750      7747      7750      7753      7754
      7747      7750      7753      7755      7747      7750      7753      7756
      7748      7747      7750      7751      7748      7747      7750      7752
      7748      7747      7750      7753      7749      7747      7750      7751
      7749      7747      7750      7752      7749      7747      7750      7753
      7750      7753      7756      7757      7750      7753      7756      7758
      7750      7753      7756      7759      7751      7750      7753      7754
      7751      7750      7753      7755      7751      7750      7753      7756
      7752      7750      7753      7754      7752      7750      7753      7755
      7752      7750      7753      7756      7753      7756      7759      7760
      7753      7756      7759      7761      7753      7756      7759      7762
      7754      7753      7756      7757      7754      7753      7756      7758
      7754      7753      7756      7759      7755      7753      7756      7757
      7755      7753      7756      7758      7755      7753      7756      7759
      7756      7759      7762      7763      7756      7759      7762      7764
      7757      7756      7759      7760      7757      7756      7759      7761
      7757      7756      7759      7762      7758      7756      7759      7760
      7758      7756      7759      7761      7758      7756      7759      7762
      7759      7762      7764      7765      7759      7762      7764      7766
      7760      7759      7762      7763      7760      7759      7762      7764
      7761      7759      7762      7763      7761      7759      7762      7764
      7762      7764      7766      7767      7762      7764      7766      7768
      7762      7764      7766      7769      7763      7762      7764      7765
      7763      7762      7764      7766      7764      7766      7769      7770
      7764      7766      7769      7771      7764      7766      7769      7772
      7765      7764      7766      7767      7765      7764      7766      7768
      7765      7764      7766      7769      7766      7769      7772      7773
      7766      7769      7772      7774      7766      7769      7772      7775
      7767      7766      7769      7770      7767      7766      7769      7771
      7767      7766      7769      7772      7768      7766      7769      7770
      7768      7766      7769      7771      7768      7766      7769      7772
      7769      7772      7775      7776      7769      7772      7775      7777
      7769      7772      7775      7778      7770      7769      7772      7773
      7770      7769      7772      7774      7770      7769      7772      7775
      7771      7769      7772      7773      7771      7769      7772      7774
      7771      7769      7772      7775      7772      7775      7778      7779
      7772      7775      7778      7780      7772      7775      7778      7781
      7773      7772      7775      7776      7773      7772      7775      7777
      7773      7772      7775      7778      7774      7772      7775      7776
      7774      7772      7775      7777      7774      7772      7775      7778
      7775      7778      7781      7782      7775      7778      7781      7783
      7775      7778      7781      7784      7776      7775      7778      7779
      7776      7775      7778      7780      7776      7775      7778      7781
      7777      7775      7778      7779      7777      7775      7778      7780
      7777      7775      7778      7781      7779      7778      7781      7782
      7779      7778      7781      7783      7779      7778      7781      7784
      7780      7778      7781      7782      7780      7778      7781      7783
      7780      7778      7781      7784      7785      7788      7791      7792
      7785      7788      7791      7793      7785      7788      7791      7794
      7786      7785      7788      7789      7786      7785      7788      7790
      7786      7785      7788      7791      7787      7785      7788      7789
      7787      7785      7788      7790      7787      7785      7788      7791
      7788      7791      7794      7795      7788      7791      7794      7796
      7788      7791      7794      7797      7789      7788      7791      7792
      7789      7788      7791      7793      7789      7788      7791      7794
      7790      7788      7791      7792      7790      7788      7791      7793
      7790      7788      7791      7794      7791      7794      7797      7798
      7791      7794      7797      7799      7791      7794      7797      7800
      7792      7791      7794      7795      7792      7791      7794      7796
      7792      7791      7794      7797      7793      7791      7794      7795
      7793      7791      7794      7796      7793      7791      7794      7797
      7794      7797      7800      7801      7794      7797      7800      7802
      7794      7797      7800      7803      7795      7794      7797      7798
      7795      7794      7797      7799      7795      7794      7797      7800
      7796      7794      7797      7798      7796      7794      7797      7799
      7796      7794      7797      7800      7797      7800      7803      7804
      7797      7800      7803      7805      7797      7800      7803      7806
      7798      7797      7800      7801      7798      7797      7800      7802
      7798      7797      7800      7803      7799      7797      7800      7801
      7799      7797      7800      7802      7799      7797      7800      7803
      7800      7803      7806      7807      7800      7803      7806      7808
      7800      7803      7806      7809      7801      7800      7803      7804
      7801      7800      7803      7805      7801      7800      7803      7806
      7802      7800      7803      7804      7802      7800      7803      7805
      7802      7800      7803      7806      7803      7806      7809      7810
      7803      7806      7809      7811      7803      7806      7809      7812
      7804      7803      7806      7807      7804      7803      7806      7808
      7804      7803      7806      7809      7805      7803      7806      7807
      7805      7803      7806      7808      7805      7803      7806      7809
      7806      7809      7812      7813      7806      7809      7812      7814
      7806      7809      7812      7815      7807      7806      7809      7810
      7807      7806      7809      7811      7807      7806      7809      7812
      7808      7806      7809      7810      7808      7806      7809      7811
      7808      7806      7809      7812      7809      7812      7815      7816
      7809      7812      7815      7817      7809      7812      7815      7818
      7810      7809      7812      7813      7810      7809      7812      7814
      7810      7809      7812      7815      7811      7809      7812      7813
      7811      7809      7812      7814      7811      7809      7812      7815
      7812      7815      7818      7819      7812      7815      7818      7820
      7812      7815      7818      7821      7813      7812      7815      7816
      7813      7812      7815      7817      7813      7812      7815      7818
      7814      7812      7815      7816      7814      7812      7815      7817
      7814      7812      7815      7818      7815      7818      7821      7822
      7815      7818      7821      7823      7815      7818      7821      7824
      7816      7815      7818      7819      7816      7815      7818      7820
      7816      7815      7818      7821      7817      7815      7818      7819
      7817      7815      7818      7820      7817      7815      7818      7821
      7818      7821      7824      7825      7818      7821      7824      7826
      7818      7821      7824      7827      7819      7818      7821      7822
      7819      7818      7821      7823      7819      7818      7821      7824
      7820      7818      7821      7822      7820      7818      7821      7823
      7820      7818      7821      7824      7822      7821      7824      7825
      7822      7821      7824      7826      7822      7821      7824      7827
      7823      7821      7824      7825      7823      7821      7824      7826
      7823      7821      7824      7827      7828      7833      7835      7836
      7828      7833      7837      7838      7828      7833      7837      7839
      7828      7833      7837      7844      7829      7828      7831      7832
      7829      7828      7833      7834      7829      7828      7833      7835
      7829      7828      7833      7837      7830      7828      7831      7832
      7830      7828      7833      7834      7830      7828      7833      7835
      7830      7828      7833      7837      7831      7828      7833      7834
      7831      7828      7833      7835      7831      7828      7833      7837
      7832      7831      7828      7833      7833      7837      7844      7840
      7834      7833      7835      7836      7834      7833      7837      7838
      7834      7833      7837      7839      7834      7833      7837      7844
      7835      7833      7837      7838      7835      7833      7837      7839
      7835      7833      7837      7844      7836      7835      7833      7837
      7837      7844      7840      7841      7837      7844      7840      7842
      7837      7844      7840      7843      7838      7837      7844      7840
      7839      7837      7844      7840      7840      7843      7845      7846
      7840      7843      7845      7847      7840      7843      7845      7848
      7841      7840      7843      7845      7842      7840      7843      7845
      7843      7845      7848      7849      7843      7845      7848      7850
      7843      7845      7848      7856      7844      7840      7843      7845
      7845      7848      7850      7851      7845      7848      7856      7857
      7845      7848      7856      7858      7845      7848      7856      7859
      7846      7845      7848      7849      7846      7845      7848      7850
      7846      7845      7848      7856      7847      7845      7848      7849
      7847      7845      7848      7850      7847      7845      7848      7856
      7848      7850      7851      7852      7848      7850      7851      7853
      7848      7856      7859      7860      7849      7848      7850      7851
      7849      7848      7856      7857      7849      7848      7856      7858
      7849      7848      7856      7859      7850      7848      7856      7857
      7850      7848      7856      7858      7850      7848      7856      7859
      7850      7851      7853      7854      7850      7851      7853      7855
      7850      7851      7853      7865      7851      7850      7848      7856
      7851      7853      7865      7866      7851      7853      7865      7867
      7851      7853      7865      7868      7852      7851      7853      7854
      7852      7851      7853      7855      7852      7851      7853      7865
      7853      7865      7868      7869      7853      7865      7868      7870
      7853      7865      7868      7871      7854      7853      7865      7866
      7854      7853      7865      7867      7854      7853      7865      7868
      7855      7853      7865      7866      7855      7853      7865      7867
      7855      7853      7865      7868      7856      7859      7860      7861
      7856      7859      7860      7862      7857      7856      7859      7860
      7858      7856      7859      7860      7859      7860      7862      7863
      7859      7860      7862      7864      7859      7860      7862      7906
      7860      7862      7906      7907      7860      7862      7906      7908
      7860      7862      7906      7909      7861      7860      7862      7863
      7861      7860      7862      7864      7861      7860      7862      7906
      7862      7906      7909      7910      7862      7906      7909      7911
      7862      7906      7909      7912      7863      7862      7906      7907
      7863      7862      7906      7908      7863      7862      7906      7909
      7864      7862      7906      7907      7864      7862      7906      7908
      7864      7862      7906      7909      7865      7868      7871      7872
      7865      7868      7871      7873      7865      7868      7871      7874
      7866      7865      7868      7869      7866      7865      7868      7870
      7866      7865      7868      7871      7867      7865      7868      7869
      7867      7865      7868      7870      7867      7865      7868      7871
      7868      7871      7874      7875      7868      7871      7874      7876
      7868      7871      7874      7877      7869      7868      7871      7872
      7869      7868      7871      7873      7869      7868      7871      7874
      7870      7868      7871      7872      7870      7868      7871      7873
      7870      7868      7871      7874      7871      7874      7877      7878
      7871      7874      7877      7879      7871      7874      7877      7880
      7872      7871      7874      7875      7872      7871      7874      7876
      7872      7871      7874      7877      7873      7871      7874      7875
      7873      7871      7874      7876      7873      7871      7874      7877
      7874      7877      7880      7881      7874      7877      7880      7882
      7874      7877      7880      7883      7875      7874      7877      7878
      7875      7874      7877      7879      7875      7874      7877      7880
      7876      7874      7877      7878      7876      7874      7877      7879
      7876      7874      7877      7880      7877      7880      7883      7884
      7877      7880      7883      7885      7878      7877      7880      7881
      7878      7877      7880      7882      7878      7877      7880      7883
      7879      7877      7880      7881      7879      7877      7880      7882
      7879      7877      7880      7883      7880      7883      7885      7886
      7880      7883      7885      7887      7881      7880      7883      7884
      7881      7880      7883      7885      7882      7880      7883      7884
      7882      7880      7883      7885      7883      7885      7887      7888
      7883      7885      7887      7889      7883      7885      7887      7890
      7884      7883      7885      7886      7884      7883      7885      7887
      7885      7887      7890      7891      7885      7887      7890      7892
      7885      7887      7890      7893      7886      7885      7887      7888
      7886      7885      7887      7889      7886      7885      7887      7890
      7887      7890      7893      7894      7887      7890      7893      7895
      7887      7890      7893      7896      7888      7887      7890      7891
      7888      7887      7890      7892      7888      7887      7890      7893
      7889      7887      7890      7891      7889      7887      7890      7892
      7889      7887      7890      7893      7890      7893      7896      7897
      7890      7893      7896      7898      7890      7893      7896      7899
      7891      7890      7893      7894      7891      7890      7893      7895
      7891      7890      7893      7896      7892      7890      7893      7894
      7892      7890      7893      7895      7892      7890      7893      7896
      7893      7896      7899      7900      7893      7896      7899      7901
      7893      7896      7899      7902      7894      7893      7896      7897
      7894      7893      7896      7898      7894      7893      7896      7899
      7895      7893      7896      7897      7895      7893      7896      7898
      7895      7893      7896      7899      7896      7899      7902      7903
      7896      7899      7902      7904      7896      7899      7902      7905
      7897      7896      7899      7900      7897      7896      7899      7901
      7897      7896      7899      7902      7898      7896      7899      7900
      7898      7896      7899      7901      7898      7896      7899      7902
      7900      7899      7902      7903      7900      7899      7902      7904
      7900      7899      7902      7905      7901      7899      7902      7903
      7901      7899      7902      7904      7901      7899      7902      7905
      7906      7909      7912      7913      7906      7909      7912      7914
      7906      7909      7912      7915      7907      7906      7909      7910
      7907      7906      7909      7911      7907      7906      7909      7912
      7908      7906      7909      7910      7908      7906      7909      7911
      7908      7906      7909      7912      7909      7912      7915      7916
      7909      7912      7915      7917      7909      7912      7915      7918
      7910      7909      7912      7913      7910      7909      7912      7914
      7910      7909      7912      7915      7911      7909      7912      7913
      7911      7909      7912      7914      7911      7909      7912      7915
      7912      7915      7918      7919      7912      7915      7918      7920
      7912      7915      7918      7921      7913      7912      7915      7916
      7913      7912      7915      7917      7913      7912      7915      7918
      7914      7912      7915      7916      7914      7912      7915      7917
      7914      7912      7915      7918      7915      7918      7921      7922
      7915      7918      7921      7923      7915      7918      7921      7924
      7916      7915      7918      7919      7916      7915      7918      7920
      7916      7915      7918      7921      7917      7915      7918      7919
      7917      7915      7918      7920      7917      7915      7918      7921
      7918      7921      7924      7925      7918      7921      7924      7926
      7918      7921      7924      7927      7919      7918      7921      7922
      7919      7918      7921      7923      7919      7918      7921      7924
      7920      7918      7921      7922      7920      7918      7921      7923
      7920      7918      7921      7924      7921      7924      7927      7928
      7921      7924      7927      7929      7921      7924      7927      7930
      7922      7921      7924      7925      7922      7921      7924      7926
      7922      7921      7924      7927      7923      7921      7924      7925
      7923      7921      7924      7926      7923      7921      7924      7927
      7924      7927      7930      7931      7924      7927      7930      7932
      7924      7927      7930      7933      7925      7924      7927      7928
      7925      7924      7927      7929      7925      7924      7927      7930
      7926      7924      7927      7928      7926      7924      7927      7929
      7926      7924      7927      7930      7927      7930      7933      7934
      7927      7930      7933      7935      7927      7930      7933      7936
      7928      7927      7930      7931      7928      7927      7930      7932
      7928      7927      7930      7933      7929      7927      7930      7931
      7929      7927      7930      7932      7929      7927      7930      7933
      7930      7933      7936      7937      7930      7933      7936      7938
      7930      7933      7936      7939      7931      7930      7933      7934
      7931      7930      7933      7935      7931      7930      7933      7936
      7932      7930      7933      7934      7932      7930      7933      7935
      7932      7930      7933      7936      7933      7936      7939      7940
      7933      7936      7939      7941      7933      7936      7939      7942
      7934      7933      7936      7937      7934      7933      7936      7938
      7934      7933      7936      7939      7935      7933      7936      7937
      7935      7933      7936      7938      7935      7933      7936      7939
      7936      7939      7942      7943      7936      7939      7942      7944
      7936      7939      7942      7945      7937      7936      7939      7940
      7937      7936      7939      7941      7937      7936      7939      7942
      7938      7936      7939      7940      7938      7936      7939      7941
      7938      7936      7939      7942      7939      7942      7945      7946
      7939      7942      7945      7947      7939      7942      7945      7948
      7940      7939      7942      7943      7940      7939      7942      7944
      7940      7939      7942      7945      7941      7939      7942      7943
      7941      7939      7942      7944      7941      7939      7942      7945
      7943      7942      7945      7946      7943      7942      7945      7947
      7943      7942      7945      7948      7944      7942      7945      7946
      7944      7942      7945      7947      7944      7942      7945      7948
      7949      7953      7956      7957      7949      7953      7956      7958
      7949      7953      7956      7963      7950      7949      7953      7954
      7950      7949      7953      7955      7950      7949      7953      7956
      7951      7949      7953      7954      7951      7949      7953      7955
      7951      7949      7953      7956      7952      7949      7953      7954
      7952      7949      7953      7955      7952      7949      7953      7956
      7953      7956      7963      7959      7954      7953      7956      7957
      7954      7953      7956      7958      7954      7953      7956      7963
      7955      7953      7956      7957      7955      7953      7956      7958
      7955      7953      7956      7963      7956      7963      7959      7960
      7956      7963      7959      7961      7956      7963      7959      7962
      7957      7956      7963      7959      7958      7956      7963      7959
      7959      7962      7964      7965      7959      7962      7964      7966
      7959      7962      7964      7967      7960      7959      7962      7964
      7961      7959      7962      7964      7962      7964      7967      7968
      7962      7964      7967      7969      7962      7964      7967      7975
      7963      7959      7962      7964      7964      7967      7969      7970
      7964      7967      7975      7976      7964      7967      7975      7977
      7964      7967      7975      7978      7965      7964      7967      7968
      7965      7964      7967      7969      7965      7964      7967      7975
      7966      7964      7967      7968      7966      7964      7967      7969
      7966      7964      7967      7975      7967      7969      7970      7971
      7967      7969      7970      7972      7967      7975      7978      7979
      7968      7967      7969      7970      7968      7967      7975      7976
      7968      7967      7975      7977      7968      7967      7975      7978
      7969      7967      7975      7976      7969      7967      7975      7977
      7969      7967      7975      7978      7969      7970      7972      7973
      7969      7970      7972      7974      7969      7970      7972      7984
      7970      7969      7967      7975      7970      7972      7984      7985
      7970      7972      7984      7986      7970      7972      7984      7987
      7971      7970      7972      7973      7971      7970      7972      7974
      7971      7970      7972      7984      7972      7984      7987      7988
      7972      7984      7987      7989      7972      7984      7987      7990
      7973      7972      7984      7985      7973      7972      7984      7986
      7973      7972      7984      7987      7974      7972      7984      7985
      7974      7972      7984      7986      7974      7972      7984      7987
      7975      7978      7979      7980      7975      7978      7979      7981
      7976      7975      7978      7979      7977      7975      7978      7979
      7978      7979      7981      7982      7978      7979      7981      7983
      7978      7979      7981      8028      7979      7981      8028      8029
      7979      7981      8028      8030      7979      7981      8028      8031
      7980      7979      7981      7982      7980      7979      7981      7983
      7980      7979      7981      8028      7981      8028      8031      8032
      7981      8028      8031      8033      7981      8028      8031      8034
      7982      7981      8028      8029      7982      7981      8028      8030
      7982      7981      8028      8031      7983      7981      8028      8029
      7983      7981      8028      8030      7983      7981      8028      8031
      7984      7987      7990      7991      7984      7987      7990      7992
      7984      7987      7990      7993      7985      7984      7987      7988
      7985      7984      7987      7989      7985      7984      7987      7990
      7986      7984      7987      7988      7986      7984      7987      7989
      7986      7984      7987      7990      7987      7990      7993      7994
      7987      7990      7993      7995      7987      7990      7993      7996
      7988      7987      7990      7991      7988      7987      7990      7992
      7988      7987      7990      7993      7989      7987      7990      7991
      7989      7987      7990      7992      7989      7987      7990      7993
      7990      7993      7996      7997      7990      7993      7996      7998
      7990      7993      7996      7999      7991      7990      7993      7994
      7991      7990      7993      7995      7991      7990      7993      7996
      7992      7990      7993      7994      7992      7990      7993      7995
      7992      7990      7993      7996      7993      7996      7999      8000
      7993      7996      7999      8001      7993      7996      7999      8002
      7994      7993      7996      7997      7994      7993      7996      7998
      7994      7993      7996      7999      7995      7993      7996      7997
      7995      7993      7996      7998      7995      7993      7996      7999
      7996      7999      8002      8003      7996      7999      8002      8004
      7996      7999      8002      8007      7997      7996      7999      8000
      7997      7996      7999      8001      7997      7996      7999      8002
      7998      7996      7999      8000      7998      7996      7999      8001
      7998      7996      7999      8002      7999      8002      8004      8005
      7999      8002      8004      8006      7999      8002      8004      8007
      7999      8002      8007      8004      7999      8002      8007      8008
      7999      8002      8007      8009      8000      7999      8002      8003
      8000      7999      8002      8004      8000      7999      8002      8007
      8001      7999      8002      8003      8001      7999      8002      8004
      8001      7999      8002      8007      8002      8004      8007      8008
      8002      8004      8007      8009      8002      8007      8004      8005
      8002      8007      8004      8006      8002      8007      8009      8010
      8002      8007      8009      8011      8002      8007      8009      8012
      8003      8002      8004      8005      8003      8002      8004      8006
      8003      8002      8004      8007      8003      8002      8007      8004
      8003      8002      8007      8008      8003      8002      8007      8009
      8004      8002      8007      8008      8004      8002      8007      8009
      8004      8007      8009      8010      8004      8007      8009      8011
      8004      8007      8009      8012      8005      8004      8002      8007
      8005      8004      8007      8008      8005      8004      8007      8009
      8006      8004      8002      8007      8006      8004      8007      8008
      8006      8004      8007      8009      8007      8009      8012      8013
      8007      8009      8012      8014      8007      8009      8012      8015
      8008      8007      8009      8010      8008      8007      8009      8011
      8008      8007      8009      8012      8009      8012      8015      8016
      8009      8012      8015      8017      8009      8012      8015      8018
      8010      8009      8012      8013      8010      8009      8012      8014
      8010      8009      8012      8015      8011      8009      8012      8013
      8011      8009      8012      8014      8011      8009      8012      8015
      8012      8015      8018      8019      8012      8015      8018      8020
      8012      8015      8018      8021      8013      8012      8015      8016
      8013      8012      8015      8017      8013      8012      8015      8018
      8014      8012      8015      8016      8014      8012      8015      8017
      8014      8012      8015      8018      8015      8018      8021      8022
      8015      8018      8021      8023      8015      8018      8021      8024
      8016      8015      8018      8019      8016      8015      8018      8020
      8016      8015      8018      8021      8017      8015      8018      8019
      8017      8015      8018      8020      8017      8015      8018      8021
      8018      8021      8024      8025      8018      8021      8024      8026
      8018      8021      8024      8027      8019      8018      8021      8022
      8019      8018      8021      8023      8019      8018      8021      8024
      8020      8018      8021      8022      8020      8018      8021      8023
      8020      8018      8021      8024      8022      8021      8024      8025
      8022      8021      8024      8026      8022      8021      8024      8027
      8023      8021      8024      8025      8023      8021      8024      8026
      8023      8021      8024      8027      8028      8031      8034      8035
      8028      8031      8034      8036      8028      8031      8034      8037
      8029      8028      8031      8032      8029      8028      8031      8033
      8029      8028      8031      8034      8030      8028      8031      8032
      8030      8028      8031      8033      8030      8028      8031      8034
      8031      8034      8037      8038      8031      8034      8037      8039
      8031      8034      8037      8040      8032      8031      8034      8035
      8032      8031      8034      8036      8032      8031      8034      8037
      8033      8031      8034      8035      8033      8031      8034      8036
      8033      8031      8034      8037      8034      8037      8040      8041
      8034      8037      8040      8042      8034      8037      8040      8043
      8035      8034      8037      8038      8035      8034      8037      8039
      8035      8034      8037      8040      8036      8034      8037      8038
      8036      8034      8037      8039      8036      8034      8037      8040
      8037      8040      8043      8044      8037      8040      8043      8045
      8037      8040      8043      8046      8038      8037      8040      8041
      8038      8037      8040      8042      8038      8037      8040      8043
      8039      8037      8040      8041      8039      8037      8040      8042
      8039      8037      8040      8043      8040      8043      8046      8047
      8040      8043      8046      8048      8040      8043      8046      8049
      8041      8040      8043      8044      8041      8040      8043      8045
      8041      8040      8043      8046      8042      8040      8043      8044
      8042      8040      8043      8045      8042      8040      8043      8046
      8043      8046      8049      8050      8043      8046      8049      8051
      8043      8046      8049      8052      8044      8043      8046      8047
      8044      8043      8046      8048      8044      8043      8046      8049
      8045      8043      8046      8047      8045      8043      8046      8048
      8045      8043      8046      8049      8046      8049      8052      8053
      8046      8049      8052      8054      8046      8049      8052      8055
      8047      8046      8049      8050      8047      8046      8049      8051
      8047      8046      8049      8052      8048      8046      8049      8050
      8048      8046      8049      8051      8048      8046      8049      8052
      8049      8052      8055      8056      8049      8052      8055      8057
      8049      8052      8055      8058      8050      8049      8052      8053
      8050      8049      8052      8054      8050      8049      8052      8055
      8051      8049      8052      8053      8051      8049      8052      8054
      8051      8049      8052      8055      8052      8055      8058      8059
      8052      8055      8058      8060      8052      8055      8058      8061
      8053      8052      8055      8056      8053      8052      8055      8057
      8053      8052      8055      8058      8054      8052      8055      8056
      8054      8052      8055      8057      8054      8052      8055      8058
      8055      8058      8061      8062      8055      8058      8061      8063
      8055      8058      8061      8064      8056      8055      8058      8059
      8056      8055      8058      8060      8056      8055      8058      8061
      8057      8055      8058      8059      8057      8055      8058      8060
      8057      8055      8058      8061      8058      8061      8064      8065
      8058      8061      8064      8066      8058      8061      8064      8067
      8059      8058      8061      8062      8059      8058      8061      8063
      8059      8058      8061      8064      8060      8058      8061      8062
      8060      8058      8061      8063      8060      8058      8061      8064
      8062      8061      8064      8065      8062      8061      8064      8066
      8062      8061      8064      8067      8063      8061      8064      8065
      8063      8061      8064      8066      8063      8061      8064      8067
      8068      8072      8075      8076      8068      8072      8075      8077
      8068      8072      8075      8082      8069      8068      8072      8073
      8069      8068      8072      8074      8069      8068      8072      8075
      8070      8068      8072      8073      8070      8068      8072      8074
      8070      8068      8072      8075      8071      8068      8072      8073
      8071      8068      8072      8074      8071      8068      8072      8075
      8072      8075      8082      8078      8073      8072      8075      8076
      8073      8072      8075      8077      8073      8072      8075      8082
      8074      8072      8075      8076      8074      8072      8075      8077
      8074      8072      8075      8082      8075      8082      8078      8079
      8075      8082      8078      8080      8075      8082      8078      8081
      8076      8075      8082      8078      8077      8075      8082      8078
      8078      8081      8083      8084      8078      8081      8083      8085
      8078      8081      8083      8086      8079      8078      8081      8083
      8080      8078      8081      8083      8081      8083      8086      8087
      8081      8083      8086      8088      8081      8083      8086      8094
      8082      8078      8081      8083      8083      8086      8088      8089
      8083      8086      8094      8095      8083      8086      8094      8096
      8083      8086      8094      8097      8084      8083      8086      8087
      8084      8083      8086      8088      8084      8083      8086      8094
      8085      8083      8086      8087      8085      8083      8086      8088
      8085      8083      8086      8094      8086      8088      8089      8090
      8086      8088      8089      8091      8086      8094      8097      8098
      8087      8086      8088      8089      8087      8086      8094      8095
      8087      8086      8094      8096      8087      8086      8094      8097
      8088      8086      8094      8095      8088      8086      8094      8096
      8088      8086      8094      8097      8088      8089      8091      8092
      8088      8089      8091      8093      8088      8089      8091      8103
      8089      8088      8086      8094      8089      8091      8103      8104
      8089      8091      8103      8105      8089      8091      8103      8106
      8090      8089      8091      8092      8090      8089      8091      8093
      8090      8089      8091      8103      8091      8103      8106      8107
      8091      8103      8106      8108      8091      8103      8106      8109
      8092      8091      8103      8104      8092      8091      8103      8105
      8092      8091      8103      8106      8093      8091      8103      8104
      8093      8091      8103      8105      8093      8091      8103      8106
      8094      8097      8098      8099      8094      8097      8098      8100
      8095      8094      8097      8098      8096      8094      8097      8098
      8097      8098      8100      8101      8097      8098      8100      8102
      8097      8098      8100      8150      8098      8100      8150      8151
      8098      8100      8150      8152      8098      8100      8150      8153
      8099      8098      8100      8101      8099      8098      8100      8102
      8099      8098      8100      8150      8100      8150      8153      8154
      8100      8150      8153      8155      8100      8150      8153      8156
      8101      8100      8150      8151      8101      8100      8150      8152
      8101      8100      8150      8153      8102      8100      8150      8151
      8102      8100      8150      8152      8102      8100      8150      8153
      8103      8106      8109      8110      8103      8106      8109      8111
      8103      8106      8109      8112      8104      8103      8106      8107
      8104      8103      8106      8108      8104      8103      8106      8109
      8105      8103      8106      8107      8105      8103      8106      8108
      8105      8103      8106      8109      8106      8109      8112      8113
      8106      8109      8112      8114      8106      8109      8112      8115
      8107      8106      8109      8110      8107      8106      8109      8111
      8107      8106      8109      8112      8108      8106      8109      8110
      8108      8106      8109      8111      8108      8106      8109      8112
      8109      8112      8115      8116      8109      8112      8115      8117
      8109      8112      8115      8118      8110      8109      8112      8113
      8110      8109      8112      8114      8110      8109      8112      8115
      8111      8109      8112      8113      8111      8109      8112      8114
      8111      8109      8112      8115      8112      8115      8118      8119
      8112      8115      8118      8120      8112      8115      8118      8121
      8113      8112      8115      8116      8113      8112      8115      8117
      8113      8112      8115      8118      8114      8112      8115      8116
      8114      8112      8115      8117      8114      8112      8115      8118
      8115      8118      8121      8122      8115      8118      8121      8123
      8116      8115      8118      8119      8116      8115      8118      8120
      8116      8115      8118      8121      8117      8115      8118      8119
      8117      8115      8118      8120      8117      8115      8118      8121
      8118      8121      8123      8124      8118      8121      8123      8125
      8119      8118      8121      8122      8119      8118      8121      8123
      8120      8118      8121      8122      8120      8118      8121      8123
      8121      8123      8125      8126      8121      8123      8125      8127
      8121      8123      8125      8128      8122      8121      8123      8124
      8122      8121      8123      8125      8123      8125      8128      8129
      8123      8125      8128      8130      8123      8125      8128      8131
      8124      8123      8125      8126      8124      8123      8125      8127
      8124      8123      8125      8128      8125      8128      8131      8132
      8125      8128      8131      8133      8125      8128      8131      8134
      8126      8125      8128      8129      8126      8125      8128      8130
      8126      8125      8128      8131      8127      8125      8128      8129
      8127      8125      8128      8130      8127      8125      8128      8131
      8128      8131      8134      8135      8128      8131      8134      8136
      8128      8131      8134      8137      8129      8128      8131      8132
      8129      8128      8131      8133      8129      8128      8131      8134
      8130      8128      8131      8132      8130      8128      8131      8133
      8130      8128      8131      8134      8131      8134      8137      8138
      8131      8134      8137      8139      8131      8134      8137      8140
      8132      8131      8134      8135      8132      8131      8134      8136
      8132      8131      8134      8137      8133      8131      8134      8135
      8133      8131      8134      8136      8133      8131      8134      8137
      8134      8137      8140      8141      8134      8137      8140      8142
      8134      8137      8140      8143      8135      8134      8137      8138
      8135      8134      8137      8139      8135      8134      8137      8140
      8136      8134      8137      8138      8136      8134      8137      8139
      8136      8134      8137      8140      8137      8140      8143      8144
      8137      8140      8143      8145      8137      8140      8143      8146
      8138      8137      8140      8141      8138      8137      8140      8142
      8138      8137      8140      8143      8139      8137      8140      8141
      8139      8137      8140      8142      8139      8137      8140      8143
      8140      8143      8146      8147      8140      8143      8146      8148
      8140      8143      8146      8149      8141      8140      8143      8144
      8141      8140      8143      8145      8141      8140      8143      8146
      8142      8140      8143      8144      8142      8140      8143      8145
      8142      8140      8143      8146      8144      8143      8146      8147
      8144      8143      8146      8148      8144      8143      8146      8149
      8145      8143      8146      8147      8145      8143      8146      8148
      8145      8143      8146      8149      8150      8153      8156      8157
      8150      8153      8156      8158      8150      8153      8156      8159
      8151      8150      8153      8154      8151      8150      8153      8155
      8151      8150      8153      8156      8152      8150      8153      8154
      8152      8150      8153      8155      8152      8150      8153      8156
      8153      8156      8159      8160      8153      8156      8159      8161
      8153      8156      8159      8162      8154      8153      8156      8157
      8154      8153      8156      8158      8154      8153      8156      8159
      8155      8153      8156      8157      8155      8153      8156      8158
      8155      8153      8156      8159      8156      8159      8162      8163
      8156      8159      8162      8164      8156      8159      8162      8165
      8157      8156      8159      8160      8157      8156      8159      8161
      8157      8156      8159      8162      8158      8156      8159      8160
      8158      8156      8159      8161      8158      8156      8159      8162
      8159      8162      8165      8166      8159      8162      8165      8167
      8159      8162      8165      8168      8160      8159      8162      8163
      8160      8159      8162      8164      8160      8159      8162      8165
      8161      8159      8162      8163      8161      8159      8162      8164
      8161      8159      8162      8165      8162      8165      8168      8169
      8162      8165      8168      8170      8162      8165      8168      8171
      8163      8162      8165      8166      8163      8162      8165      8167
      8163      8162      8165      8168      8164      8162      8165      8166
      8164      8162      8165      8167      8164      8162      8165      8168
      8165      8168      8171      8172      8165      8168      8171      8173
      8165      8168      8171      8174      8166      8165      8168      8169
      8166      8165      8168      8170      8166      8165      8168      8171
      8167      8165      8168      8169      8167      8165      8168      8170
      8167      8165      8168      8171      8168      8171      8174      8175
      8168      8171      8174      8176      8168      8171      8174      8177
      8169      8168      8171      8172      8169      8168      8171      8173
      8169      8168      8171      8174      8170      8168      8171      8172
      8170      8168      8171      8173      8170      8168      8171      8174
      8171      8174      8177      8178      8171      8174      8177      8179
      8171      8174      8177      8180      8172      8171      8174      8175
      8172      8171      8174      8176      8172      8171      8174      8177
      8173      8171      8174      8175      8173      8171      8174      8176
      8173      8171      8174      8177      8174      8177      8180      8181
      8174      8177      8180      8182      8174      8177      8180      8183
      8175      8174      8177      8178      8175      8174      8177      8179
      8175      8174      8177      8180      8176      8174      8177      8178
      8176      8174      8177      8179      8176      8174      8177      8180
      8177      8180      8183      8184      8177      8180      8183      8185
      8177      8180      8183      8186      8178      8177      8180      8181
      8178      8177      8180      8182      8178      8177      8180      8183
      8179      8177      8180      8181      8179      8177      8180      8182
      8179      8177      8180      8183      8180      8183      8186      8187
      8180      8183      8186      8188      8180      8183      8186      8189
      8181      8180      8183      8184      8181      8180      8183      8185
      8181      8180      8183      8186      8182      8180      8183      8184
      8182      8180      8183      8185      8182      8180      8183      8186
      8183      8186      8189      8190      8183      8186      8189      8191
      8183      8186      8189      8192      8184      8183      8186      8187
      8184      8183      8186      8188      8184      8183      8186      8189
      8185      8183      8186      8187      8185      8183      8186      8188
      8185      8183      8186      8189      8187      8186      8189      8190
      8187      8186      8189      8191      8187      8186      8189      8192
      8188      8186      8189      8190      8188      8186      8189      8191
      8188      8186      8189      8192      8193      8197      8200      8201
      8193      8197      8200      8202      8193      8197      8200      8207
      8194      8193      8197      8198      8194      8193      8197      8199
      8194      8193      8197      8200      8195      8193      8197      8198
      8195      8193      8197      8199      8195      8193      8197      8200
      8196      8193      8197      8198      8196      8193      8197      8199
      8196      8193      8197      8200      8197      8200      8207      8203
      8198      8197      8200      8201      8198      8197      8200      8202
      8198      8197      8200      8207      8199      8197      8200      8201
      8199      8197      8200      8202      8199      8197      8200      8207
      8200      8207      8203      8204      8200      8207      8203      8205
      8200      8207      8203      8206      8201      8200      8207      8203
      8202      8200      8207      8203      8203      8206      8208      8209
      8203      8206      8208      8210      8203      8206      8208      8211
      8204      8203      8206      8208      8205      8203      8206      8208
      8206      8208      8211      8212      8206      8208      8211      8213
      8206      8208      8211      8219      8207      8203      8206      8208
      8208      8211      8213      8214      8208      8211      8219      8220
      8208      8211      8219      8221      8208      8211      8219      8222
      8209      8208      8211      8212      8209      8208      8211      8213
      8209      8208      8211      8219      8210      8208      8211      8212
      8210      8208      8211      8213      8210      8208      8211      8219
      8211      8213      8214      8215      8211      8213      8214      8216
      8211      8219      8222      8223      8212      8211      8213      8214
      8212      8211      8219      8220      8212      8211      8219      8221
      8212      8211      8219      8222      8213      8211      8219      8220
      8213      8211      8219      8221      8213      8211      8219      8222
      8213      8214      8216      8217      8213      8214      8216      8218
      8213      8214      8216      8228      8214      8213      8211      8219
      8214      8216      8228      8229      8214      8216      8228      8230
      8214      8216      8228      8231      8215      8214      8216      8217
      8215      8214      8216      8218      8215      8214      8216      8228
      8216      8228      8231      8232      8216      8228      8231      8233
      8216      8228      8231      8234      8217      8216      8228      8229
      8217      8216      8228      8230      8217      8216      8228      8231
      8218      8216      8228      8229      8218      8216      8228      8230
      8218      8216      8228      8231      8219      8222      8223      8224
      8219      8222      8223      8225      8220      8219      8222      8223
      8221      8219      8222      8223      8222      8223      8225      8226
      8222      8223      8225      8227      8222      8223      8225      8269
      8223      8225      8269      8270      8223      8225      8269      8271
      8223      8225      8269      8272      8224      8223      8225      8226
      8224      8223      8225      8227      8224      8223      8225      8269
      8225      8269      8272      8273      8225      8269      8272      8274
      8225      8269      8272      8275      8226      8225      8269      8270
      8226      8225      8269      8271      8226      8225      8269      8272
      8227      8225      8269      8270      8227      8225      8269      8271
      8227      8225      8269      8272      8228      8231      8234      8235
      8228      8231      8234      8236      8228      8231      8234      8237
      8229      8228      8231      8232      8229      8228      8231      8233
      8229      8228      8231      8234      8230      8228      8231      8232
      8230      8228      8231      8233      8230      8228      8231      8234
      8231      8234      8237      8238      8231      8234      8237      8239
      8231      8234      8237      8240      8232      8231      8234      8235
      8232      8231      8234      8236      8232      8231      8234      8237
      8233      8231      8234      8235      8233      8231      8234      8236
      8233      8231      8234      8237      8234      8237      8240      8241
      8234      8237      8240      8242      8234      8237      8240      8243
      8235      8234      8237      8238      8235      8234      8237      8239
      8235      8234      8237      8240      8236      8234      8237      8238
      8236      8234      8237      8239      8236      8234      8237      8240
      8237      8240      8243      8244      8237      8240      8243      8245
      8237      8240      8243      8246      8238      8237      8240      8241
      8238      8237      8240      8242      8238      8237      8240      8243
      8239      8237      8240      8241      8239      8237      8240      8242
      8239      8237      8240      8243      8240      8243      8246      8247
      8240      8243      8246      8248      8241      8240      8243      8244
      8241      8240      8243      8245      8241      8240      8243      8246
      8242      8240      8243      8244      8242      8240      8243      8245
      8242      8240      8243      8246      8243      8246      8248      8249
      8243      8246      8248      8250      8244      8243      8246      8247
      8244      8243      8246      8248      8245      8243      8246      8247
      8245      8243      8246      8248      8246      8248      8250      8251
      8246      8248      8250      8252      8246      8248      8250      8253
      8247      8246      8248      8249      8247      8246      8248      8250
      8248      8250      8253      8254      8248      8250      8253      8255
      8248      8250      8253      8256      8249      8248      8250      8251
      8249      8248      8250      8252      8249      8248      8250      8253
      8250      8253      8256      8257      8250      8253      8256      8258
      8250      8253      8256      8259      8251      8250      8253      8254
      8251      8250      8253      8255      8251      8250      8253      8256
      8252      8250      8253      8254      8252      8250      8253      8255
      8252      8250      8253      8256      8253      8256      8259      8260
      8253      8256      8259      8261      8253      8256      8259      8262
      8254      8253      8256      8257      8254      8253      8256      8258
      8254      8253      8256      8259      8255      8253      8256      8257
      8255      8253      8256      8258      8255      8253      8256      8259
      8256      8259      8262      8263      8256      8259      8262      8264
      8256      8259      8262      8265      8257      8256      8259      8260
      8257      8256      8259      8261      8257      8256      8259      8262
      8258      8256      8259      8260      8258      8256      8259      8261
      8258      8256      8259      8262      8259      8262      8265      8266
      8259      8262      8265      8267      8259      8262      8265      8268
      8260      8259      8262      8263      8260      8259      8262      8264
      8260      8259      8262      8265      8261      8259      8262      8263
      8261      8259      8262      8264      8261      8259      8262      8265
      8263      8262      8265      8266      8263      8262      8265      8267
      8263      8262      8265      8268      8264      8262      8265      8266
      8264      8262      8265      8267      8264      8262      8265      8268
      8269      8272      8275      8276      8269      8272      8275      8277
      8269      8272      8275      8278      8270      8269      8272      8273
      8270      8269      8272      8274      8270      8269      8272      8275
      8271      8269      8272      8273      8271      8269      8272      8274
      8271      8269      8272      8275      8272      8275      8278      8279
      8272      8275      8278      8280      8272      8275      8278      8281
      8273      8272      8275      8276      8273      8272      8275      8277
      8273      8272      8275      8278      8274      8272      8275      8276
      8274      8272      8275      8277      8274      8272      8275      8278
      8275      8278      8281      8282      8275      8278      8281      8283
      8275      8278      8281      8284      8276      8275      8278      8279
      8276      8275      8278      8280      8276      8275      8278      8281
      8277      8275      8278      8279      8277      8275      8278      8280
      8277      8275      8278      8281      8278      8281      8284      8285
      8278      8281      8284      8286      8278      8281      8284      8287
      8279      8278      8281      8282      8279      8278      8281      8283
      8279      8278      8281      8284      8280      8278      8281      8282
      8280      8278      8281      8283      8280      8278      8281      8284
      8281      8284      8287      8288      8281      8284      8287      8289
      8282      8281      8284      8285      8282      8281      8284      8286
      8282      8281      8284      8287      8283      8281      8284      8285
      8283      8281      8284      8286      8283      8281      8284      8287
      8284      8287      8289      8290      8284      8287      8289      8291
      8285      8284      8287      8288      8285      8284      8287      8289
      8286      8284      8287      8288      8286      8284      8287      8289
      8287      8289      8291      8292      8287      8289      8291      8293
      8287      8289      8291      8294      8288      8287      8289      8290
      8288      8287      8289      8291      8289      8291      8294      8295
      8289      8291      8294      8296      8289      8291      8294      8297
      8290      8289      8291      8292      8290      8289      8291      8293
      8290      8289      8291      8294      8291      8294      8297      8298
      8291      8294      8297      8299      8291      8294      8297      8300
      8292      8291      8294      8295      8292      8291      8294      8296
      8292      8291      8294      8297      8293      8291      8294      8295
      8293      8291      8294      8296      8293      8291      8294      8297
      8294      8297      8300      8301      8294      8297      8300      8302
      8294      8297      8300      8303      8295      8294      8297      8298
      8295      8294      8297      8299      8295      8294      8297      8300
      8296      8294      8297      8298      8296      8294      8297      8299
      8296      8294      8297      8300      8297      8300      8303      8304
      8297      8300      8303      8305      8297      8300      8303      8306
      8298      8297      8300      8301      8298      8297      8300      8302
      8298      8297      8300      8303      8299      8297      8300      8301
      8299      8297      8300      8302      8299      8297      8300      8303
      8300      8303      8306      8307      8300      8303      8306      8308
      8300      8303      8306      8309      8301      8300      8303      8304
      8301      8300      8303      8305      8301      8300      8303      8306
      8302      8300      8303      8304      8302      8300      8303      8305
      8302      8300      8303      8306      8303      8306      8309      8310
      8303      8306      8309      8311      8303      8306      8309      8312
      8304      8303      8306      8307      8304      8303      8306      8308
      8304      8303      8306      8309      8305      8303      8306      8307
      8305      8303      8306      8308      8305      8303      8306      8309
      8306      8309      8312      8313      8306      8309      8312      8314
      8306      8309      8312      8315      8307      8306      8309      8310
      8307      8306      8309      8311      8307      8306      8309      8312
      8308      8306      8309      8310      8308      8306      8309      8311
      8308      8306      8309      8312      8310      8309      8312      8313
      8310      8309      8312      8314      8310      8309      8312      8315
      8311      8309      8312      8313      8311      8309      8312      8314
      8311      8309      8312      8315      8316      8320      8323      8324
      8316      8320      8323      8325      8316      8320      8323      8330
      8317      8316      8320      8321      8317      8316      8320      8322
      8317      8316      8320      8323      8318      8316      8320      8321
      8318      8316      8320      8322      8318      8316      8320      8323
      8319      8316      8320      8321      8319      8316      8320      8322
      8319      8316      8320      8323      8320      8323      8330      8326
      8321      8320      8323      8324      8321      8320      8323      8325
      8321      8320      8323      8330      8322      8320      8323      8324
      8322      8320      8323      8325      8322      8320      8323      8330
      8323      8330      8326      8327      8323      8330      8326      8328
      8323      8330      8326      8329      8324      8323      8330      8326
      8325      8323      8330      8326      8326      8329      8331      8332
      8326      8329      8331      8333      8326      8329      8331      8334
      8327      8326      8329      8331      8328      8326      8329      8331
      8329      8331      8334      8335      8329      8331      8334      8336
      8329      8331      8334      8342      8330      8326      8329      8331
      8331      8334      8336      8337      8331      8334      8342      8343
      8331      8334      8342      8344      8331      8334      8342      8345
      8332      8331      8334      8335      8332      8331      8334      8336
      8332      8331      8334      8342      8333      8331      8334      8335
      8333      8331      8334      8336      8333      8331      8334      8342
      8334      8336      8337      8338      8334      8336      8337      8339
      8334      8342      8345      8346      8335      8334      8336      8337
      8335      8334      8342      8343      8335      8334      8342      8344
      8335      8334      8342      8345      8336      8334      8342      8343
      8336      8334      8342      8344      8336      8334      8342      8345
      8336      8337      8339      8340      8336      8337      8339      8341
      8336      8337      8339      8351      8337      8336      8334      8342
      8337      8339      8351      8352      8337      8339      8351      8353
      8337      8339      8351      8354      8338      8337      8339      8340
      8338      8337      8339      8341      8338      8337      8339      8351
      8339      8351      8354      8355      8339      8351      8354      8356
      8339      8351      8354      8357      8340      8339      8351      8352
      8340      8339      8351      8353      8340      8339      8351      8354
      8341      8339      8351      8352      8341      8339      8351      8353
      8341      8339      8351      8354      8342      8345      8346      8347
      8342      8345      8346      8348      8343      8342      8345      8346
      8344      8342      8345      8346      8345      8346      8348      8349
      8345      8346      8348      8350      8345      8346      8348      8392
      8346      8348      8392      8393      8346      8348      8392      8394
      8346      8348      8392      8395      8347      8346      8348      8349
      8347      8346      8348      8350      8347      8346      8348      8392
      8348      8392      8395      8396      8348      8392      8395      8397
      8348      8392      8395      8398      8349      8348      8392      8393
      8349      8348      8392      8394      8349      8348      8392      8395
      8350      8348      8392      8393      8350      8348      8392      8394
      8350      8348      8392      8395      8351      8354      8357      8358
      8351      8354      8357      8359      8351      8354      8357      8360
      8352      8351      8354      8355      8352      8351      8354      8356
      8352      8351      8354      8357      8353      8351      8354      8355
      8353      8351      8354      8356      8353      8351      8354      8357
      8354      8357      8360      8361      8354      8357      8360      8362
      8354      8357      8360      8363      8355      8354      8357      8358
      8355      8354      8357      8359      8355      8354      8357      8360
      8356      8354      8357      8358      8356      8354      8357      8359
      8356      8354      8357      8360      8357      8360      8363      8364
      8357      8360      8363      8365      8357      8360      8363      8366
      8358      8357      8360      8361      8358      8357      8360      8362
      8358      8357      8360      8363      8359      8357      8360      8361
      8359      8357      8360      8362      8359      8357      8360      8363
      8360      8363      8366      8367      8360      8363      8366      8368
      8360      8363      8366      8369      8361      8360      8363      8364
      8361      8360      8363      8365      8361      8360      8363      8366
      8362      8360      8363      8364      8362      8360      8363      8365
      8362      8360      8363      8366      8363      8366      8369      8370
      8363      8366      8369      8371      8364      8363      8366      8367
      8364      8363      8366      8368      8364      8363      8366      8369
      8365      8363      8366      8367      8365      8363      8366      8368
      8365      8363      8366      8369      8366      8369      8371      8372
      8366      8369      8371      8373      8367      8366      8369      8370
      8367      8366      8369      8371      8368      8366      8369      8370
      8368      8366      8369      8371      8369      8371      8373      8374
      8369      8371      8373      8375      8369      8371      8373      8376
      8370      8369      8371      8372      8370      8369      8371      8373
      8371      8373      8376      8377      8371      8373      8376      8378
      8371      8373      8376      8379      8372      8371      8373      8374
      8372      8371      8373      8375      8372      8371      8373      8376
      8373      8376      8379      8380      8373      8376      8379      8381
      8373      8376      8379      8382      8374      8373      8376      8377
      8374      8373      8376      8378      8374      8373      8376      8379
      8375      8373      8376      8377      8375      8373      8376      8378
      8375      8373      8376      8379      8376      8379      8382      8383
      8376      8379      8382      8384      8376      8379      8382      8385
      8377      8376      8379      8380      8377      8376      8379      8381
      8377      8376      8379      8382      8378      8376      8379      8380
      8378      8376      8379      8381      8378      8376      8379      8382
      8379      8382      8385      8386      8379      8382      8385      8387
      8379      8382      8385      8388      8380      8379      8382      8383
      8380      8379      8382      8384      8380      8379      8382      8385
      8381      8379      8382      8383      8381      8379      8382      8384
      8381      8379      8382      8385      8382      8385      8388      8389
      8382      8385      8388      8390      8382      8385      8388      8391
      8383      8382      8385      8386      8383      8382      8385      8387
      8383      8382      8385      8388      8384      8382      8385      8386
      8384      8382      8385      8387      8384      8382      8385      8388
      8386      8385      8388      8389      8386      8385      8388      8390
      8386      8385      8388      8391      8387      8385      8388      8389
      8387      8385      8388      8390      8387      8385      8388      8391
      8392      8395      8398      8399      8392      8395      8398      8400
      8392      8395      8398      8401      8393      8392      8395      8396
      8393      8392      8395      8397      8393      8392      8395      8398
      8394      8392      8395      8396      8394      8392      8395      8397
      8394      8392      8395      8398      8395      8398      8401      8402
      8395      8398      8401      8403      8395      8398      8401      8404
      8396      8395      8398      8399      8396      8395      8398      8400
      8396      8395      8398      8401      8397      8395      8398      8399
      8397      8395      8398      8400      8397      8395      8398      8401
      8398      8401      8404      8405      8398      8401      8404      8406
      8398      8401      8404      8407      8399      8398      8401      8402
      8399      8398      8401      8403      8399      8398      8401      8404
      8400      8398      8401      8402      8400      8398      8401      8403
      8400      8398      8401      8404      8401      8404      8407      8408
      8401      8404      8407      8409      8401      8404      8407      8410
      8402      8401      8404      8405      8402      8401      8404      8406
      8402      8401      8404      8407      8403      8401      8404      8405
      8403      8401      8404      8406      8403      8401      8404      8407
      8404      8407      8410      8411      8404      8407      8410      8412
      8405      8404      8407      8408      8405      8404      8407      8409
      8405      8404      8407      8410      8406      8404      8407      8408
      8406      8404      8407      8409      8406      8404      8407      8410
      8407      8410      8412      8413      8407      8410      8412      8414
      8408      8407      8410      8411      8408      8407      8410      8412
      8409      8407      8410      8411      8409      8407      8410      8412
      8410      8412      8414      8415      8410      8412      8414      8416
      8410      8412      8414      8417      8411      8410      8412      8413
      8411      8410      8412      8414      8412      8414      8417      8418
      8412      8414      8417      8419      8412      8414      8417      8420
      8413      8412      8414      8415      8413      8412      8414      8416
      8413      8412      8414      8417      8414      8417      8420      8421
      8414      8417      8420      8422      8414      8417      8420      8423
      8415      8414      8417      8418      8415      8414      8417      8419
      8415      8414      8417      8420      8416      8414      8417      8418
      8416      8414      8417      8419      8416      8414      8417      8420
      8417      8420      8423      8424      8417      8420      8423      8425
      8417      8420      8423      8426      8418      8417      8420      8421
      8418      8417      8420      8422      8418      8417      8420      8423
      8419      8417      8420      8421      8419      8417      8420      8422
      8419      8417      8420      8423      8420      8423      8426      8427
      8420      8423      8426      8428      8420      8423      8426      8429
      8421      8420      8423      8424      8421      8420      8423      8425
      8421      8420      8423      8426      8422      8420      8423      8424
      8422      8420      8423      8425      8422      8420      8423      8426
      8423      8426      8429      8430      8423      8426      8429      8431
      8423      8426      8429      8432      8424      8423      8426      8427
      8424      8423      8426      8428      8424      8423      8426      8429
      8425      8423      8426      8427      8425      8423      8426      8428
      8425      8423      8426      8429      8426      8429      8432      8433
      8426      8429      8432      8434      8426      8429      8432      8435
      8427      8426      8429      8430      8427      8426      8429      8431
      8427      8426      8429      8432      8428      8426      8429      8430
      8428      8426      8429      8431      8428      8426      8429      8432
      8429      8432      8435      8436      8429      8432      8435      8437
      8429      8432      8435      8438      8430      8429      8432      8433
      8430      8429      8432      8434      8430      8429      8432      8435
      8431      8429      8432      8433      8431      8429      8432      8434
      8431      8429      8432      8435      8433      8432      8435      8436
      8433      8432      8435      8437      8433      8432      8435      8438
      8434      8432      8435      8436      8434      8432      8435      8437
      8434      8432      8435      8438      8439      8443      8446      8447
      8439      8443      8446      8448      8439      8443      8446      8453
      8440      8439      8443      8444      8440      8439      8443      8445
      8440      8439      8443      8446      8441      8439      8443      8444
      8441      8439      8443      8445      8441      8439      8443      8446
      8442      8439      8443      8444      8442      8439      8443      8445
      8442      8439      8443      8446      8443      8446      8453      8449
      8444      8443      8446      8447      8444      8443      8446      8448
      8444      8443      8446      8453      8445      8443      8446      8447
      8445      8443      8446      8448      8445      8443      8446      8453
      8446      8453      8449      8450      8446      8453      8449      8451
      8446      8453      8449      8452      8447      8446      8453      8449
      8448      8446      8453      8449      8449      8452      8454      8455
      8449      8452      8454      8456      8449      8452      8454      8457
      8450      8449      8452      8454      8451      8449      8452      8454
      8452      8454      8457      8458      8452      8454      8457      8459
      8452      8454      8457      8465      8453      8449      8452      8454
      8454      8457      8459      8460      8454      8457      8465      8466
      8454      8457      8465      8467      8454      8457      8465      8468
      8455      8454      8457      8458      8455      8454      8457      8459
      8455      8454      8457      8465      8456      8454      8457      8458
      8456      8454      8457      8459      8456      8454      8457      8465
      8457      8459      8460      8461      8457      8459      8460      8462
      8457      8465      8468      8469      8458      8457      8459      8460
      8458      8457      8465      8466      8458      8457      8465      8467
      8458      8457      8465      8468      8459      8457      8465      8466
      8459      8457      8465      8467      8459      8457      8465      8468
      8459      8460      8462      8463      8459      8460      8462      8464
      8459      8460      8462      8474      8460      8459      8457      8465
      8460      8462      8474      8475      8460      8462      8474      8476
      8460      8462      8474      8477      8461      8460      8462      8463
      8461      8460      8462      8464      8461      8460      8462      8474
      8462      8474      8477      8478      8462      8474      8477      8479
      8462      8474      8477      8480      8463      8462      8474      8475
      8463      8462      8474      8476      8463      8462      8474      8477
      8464      8462      8474      8475      8464      8462      8474      8476
      8464      8462      8474      8477      8465      8468      8469      8470
      8465      8468      8469      8471      8466      8465      8468      8469
      8467      8465      8468      8469      8468      8469      8471      8472
      8468      8469      8471      8473      8468      8469      8471      8518
      8469      8471      8518      8519      8469      8471      8518      8520
      8469      8471      8518      8521      8470      8469      8471      8472
      8470      8469      8471      8473      8470      8469      8471      8518
      8471      8518      8521      8522      8471      8518      8521      8523
      8471      8518      8521      8524      8472      8471      8518      8519
      8472      8471      8518      8520      8472      8471      8518      8521
      8473      8471      8518      8519      8473      8471      8518      8520
      8473      8471      8518      8521      8474      8477      8480      8481
      8474      8477      8480      8482      8474      8477      8480      8483
      8475      8474      8477      8478      8475      8474      8477      8479
      8475      8474      8477      8480      8476      8474      8477      8478
      8476      8474      8477      8479      8476      8474      8477      8480
      8477      8480      8483      8484      8477      8480      8483      8485
      8477      8480      8483      8486      8478      8477      8480      8481
      8478      8477      8480      8482      8478      8477      8480      8483
      8479      8477      8480      8481      8479      8477      8480      8482
      8479      8477      8480      8483      8480      8483      8486      8487
      8480      8483      8486      8488      8480      8483      8486      8489
      8481      8480      8483      8484      8481      8480      8483      8485
      8481      8480      8483      8486      8482      8480      8483      8484
      8482      8480      8483      8485      8482      8480      8483      8486
      8483      8486      8489      8490      8483      8486      8489      8491
      8483      8486      8489      8492      8484      8483      8486      8487
      8484      8483      8486      8488      8484      8483      8486      8489
      8485      8483      8486      8487      8485      8483      8486      8488
      8485      8483      8486      8489      8486      8489      8492      8493
      8486      8489      8492      8494      8486      8489      8492      8497
      8487      8486      8489      8490      8487      8486      8489      8491
      8487      8486      8489      8492      8488      8486      8489      8490
      8488      8486      8489      8491      8488      8486      8489      8492
      8489      8492      8494      8495      8489      8492      8494      8496
      8489      8492      8494      8497      8489      8492      8497      8494
      8489      8492      8497      8498      8489      8492      8497      8499
      8490      8489      8492      8493      8490      8489      8492      8494
      8490      8489      8492      8497      8491      8489      8492      8493
      8491      8489      8492      8494      8491      8489      8492      8497
      8492      8494      8497      8498      8492      8494      8497      8499
      8492      8497      8494      8495      8492      8497      8494      8496
      8492      8497      8499      8500      8492      8497      8499      8501
      8492      8497      8499      8502      8493      8492      8494      8495
      8493      8492      8494      8496      8493      8492      8494      8497
      8493      8492      8497      8494      8493      8492      8497      8498
      8493      8492      8497      8499      8494      8492      8497      8498
      8494      8492      8497      8499      8494      8497      8499      8500
      8494      8497      8499      8501      8494      8497      8499      8502
      8495      8494      8492      8497      8495      8494      8497      8498
      8495      8494      8497      8499      8496      8494      8492      8497
      8496      8494      8497      8498      8496      8494      8497      8499
      8497      8499      8502      8503      8497      8499      8502      8504
      8497      8499      8502      8505      8498      8497      8499      8500
      8498      8497      8499      8501      8498      8497      8499      8502
      8499      8502      8505      8506      8499      8502      8505      8507
      8499      8502      8505      8508      8500      8499      8502      8503
      8500      8499      8502      8504      8500      8499      8502      8505
      8501      8499      8502      8503      8501      8499      8502      8504
      8501      8499      8502      8505      8502      8505      8508      8509
      8502      8505      8508      8510      8502      8505      8508      8511
      8503      8502      8505      8506      8503      8502      8505      8507
      8503      8502      8505      8508      8504      8502      8505      8506
      8504      8502      8505      8507      8504      8502      8505      8508
      8505      8508      8511      8512      8505      8508      8511      8513
      8505      8508      8511      8514      8506      8505      8508      8509
      8506      8505      8508      8510      8506      8505      8508      8511
      8507      8505      8508      8509      8507      8505      8508      8510
      8507      8505      8508      8511      8508      8511      8514      8515
      8508      8511      8514      8516      8508      8511      8514      8517
      8509      8508      8511      8512      8509      8508      8511      8513
      8509      8508      8511      8514      8510      8508      8511      8512
      8510      8508      8511      8513      8510      8508      8511      8514
      8512      8511      8514      8515      8512      8511      8514      8516
      8512      8511      8514      8517      8513      8511      8514      8515
      8513      8511      8514      8516      8513      8511      8514      8517
      8518      8521      8524      8525      8518      8521      8524      8526
      8518      8521      8524      8527      8519      8518      8521      8522
      8519      8518      8521      8523      8519      8518      8521      8524
      8520      8518      8521      8522      8520      8518      8521      8523
      8520      8518      8521      8524      8521      8524      8527      8528
      8521      8524      8527      8529      8521      8524      8527      8530
      8522      8521      8524      8525      8522      8521      8524      8526
      8522      8521      8524      8527      8523      8521      8524      8525
      8523      8521      8524      8526      8523      8521      8524      8527
      8524      8527      8530      8531      8524      8527      8530      8532
      8524      8527      8530      8533      8525      8524      8527      8528
      8525      8524      8527      8529      8525      8524      8527      8530
      8526      8524      8527      8528      8526      8524      8527      8529
      8526      8524      8527      8530      8527      8530      8533      8534
      8527      8530      8533      8535      8527      8530      8533      8536
      8528      8527      8530      8531      8528      8527      8530      8532
      8528      8527      8530      8533      8529      8527      8530      8531
      8529      8527      8530      8532      8529      8527      8530      8533
      8530      8533      8536      8537      8530      8533      8536      8538
      8530      8533      8536      8539      8531      8530      8533      8534
      8531      8530      8533      8535      8531      8530      8533      8536
      8532      8530      8533      8534      8532      8530      8533      8535
      8532      8530      8533      8536      8533      8536      8539      8540
      8533      8536      8539      8541      8533      8536      8539      8542
      8534      8533      8536      8537      8534      8533      8536      8538
      8534      8533      8536      8539      8535      8533      8536      8537
      8535      8533      8536      8538      8535      8533      8536      8539
      8536      8539      8542      8543      8536      8539      8542      8544
      8536      8539      8542      8545      8537      8536      8539      8540
      8537      8536      8539      8541      8537      8536      8539      8542
      8538      8536      8539      8540      8538      8536      8539      8541
      8538      8536      8539      8542      8539      8542      8545      8546
      8539      8542      8545      8547      8539      8542      8545      8548
      8540      8539      8542      8543      8540      8539      8542      8544
      8540      8539      8542      8545      8541      8539      8542      8543
      8541      8539      8542      8544      8541      8539      8542      8545
      8542      8545      8548      8549      8542      8545      8548      8550
      8542      8545      8548      8551      8543      8542      8545      8546
      8543      8542      8545      8547      8543      8542      8545      8548
      8544      8542      8545      8546      8544      8542      8545      8547
      8544      8542      8545      8548      8545      8548      8551      8552
      8545      8548      8551      8553      8545      8548      8551      8554
      8546      8545      8548      8549      8546      8545      8548      8550
      8546      8545      8548      8551      8547      8545      8548      8549
      8547      8545      8548      8550      8547      8545      8548      8551
      8548      8551      8554      8555      8548      8551      8554      8556
      8548      8551      8554      8557      8549      8548      8551      8552
      8549      8548      8551      8553      8549      8548      8551      8554
      8550      8548      8551      8552      8550      8548      8551      8553
      8550      8548      8551      8554      8551      8554      8557      8558
      8551      8554      8557      8559      8551      8554      8557      8560
      8552      8551      8554      8555      8552      8551      8554      8556
      8552      8551      8554      8557      8553      8551      8554      8555
      8553      8551      8554      8556      8553      8551      8554      8557
      8555      8554      8557      8558      8555      8554      8557      8559
      8555      8554      8557      8560      8556      8554      8557      8558
      8556      8554      8557      8559      8556      8554      8557      8560
      8561      8565      8568      8569      8561      8565      8568      8570
      8561      8565      8568      8575      8562      8561      8565      8566
      8562      8561      8565      8567      8562      8561      8565      8568
      8563      8561      8565      8566      8563      8561      8565      8567
      8563      8561      8565      8568      8564      8561      8565      8566
      8564      8561      8565      8567      8564      8561      8565      8568
      8565      8568      8575      8571      8566      8565      8568      8569
      8566      8565      8568      8570      8566      8565      8568      8575
      8567      8565      8568      8569      8567      8565      8568      8570
      8567      8565      8568      8575      8568      8575      8571      8572
      8568      8575      8571      8573      8568      8575      8571      8574
      8569      8568      8575      8571      8570      8568      8575      8571
      8571      8574      8576      8577      8571      8574      8576      8578
      8571      8574      8576      8579      8572      8571      8574      8576
      8573      8571      8574      8576      8574      8576      8579      8580
      8574      8576      8579      8581      8574      8576      8579      8587
      8575      8571      8574      8576      8576      8579      8581      8582
      8576      8579      8587      8588      8576      8579      8587      8589
      8576      8579      8587      8590      8577      8576      8579      8580
      8577      8576      8579      8581      8577      8576      8579      8587
      8578      8576      8579      8580      8578      8576      8579      8581
      8578      8576      8579      8587      8579      8581      8582      8583
      8579      8581      8582      8584      8579      8587      8590      8591
      8580      8579      8581      8582      8580      8579      8587      8588
      8580      8579      8587      8589      8580      8579      8587      8590
      8581      8579      8587      8588      8581      8579      8587      8589
      8581      8579      8587      8590      8581      8582      8584      8585
      8581      8582      8584      8586      8581      8582      8584      8596
      8582      8581      8579      8587      8582      8584      8596      8597
      8582      8584      8596      8598      8582      8584      8596      8599
      8583      8582      8584      8585      8583      8582      8584      8586
      8583      8582      8584      8596      8584      8596      8599      8600
      8584      8596      8599      8601      8584      8596      8599      8602
      8585      8584      8596      8597      8585      8584      8596      8598
      8585      8584      8596      8599      8586      8584      8596      8597
      8586      8584      8596      8598      8586      8584      8596      8599
      8587      8590      8591      8592      8587      8590      8591      8593
      8588      8587      8590      8591      8589      8587      8590      8591
      8590      8591      8593      8594      8590      8591      8593      8595
      8590      8591      8593      8640      8591      8593      8640      8641
      8591      8593      8640      8642      8591      8593      8640      8643
      8592      8591      8593      8594      8592      8591      8593      8595
      8592      8591      8593      8640      8593      8640      8643      8644
      8593      8640      8643      8645      8593      8640      8643      8646
      8594      8593      8640      8641      8594      8593      8640      8642
      8594      8593      8640      8643      8595      8593      8640      8641
      8595      8593      8640      8642      8595      8593      8640      8643
      8596      8599      8602      8603      8596      8599      8602      8604
      8596      8599      8602      8605      8597      8596      8599      8600
      8597      8596      8599      8601      8597      8596      8599      8602
      8598      8596      8599      8600      8598      8596      8599      8601
      8598      8596      8599      8602      8599      8602      8605      8606
      8599      8602      8605      8607      8599      8602      8605      8608
      8600      8599      8602      8603      8600      8599      8602      8604
      8600      8599      8602      8605      8601      8599      8602      8603
      8601      8599      8602      8604      8601      8599      8602      8605
      8602      8605      8608      8609      8602      8605      8608      8610
      8602      8605      8608      8611      8603      8602      8605      8606
      8603      8602      8605      8607      8603      8602      8605      8608
      8604      8602      8605      8606      8604      8602      8605      8607
      8604      8602      8605      8608      8605      8608      8611      8612
      8605      8608      8611      8613      8605      8608      8611      8614
      8606      8605      8608      8609      8606      8605      8608      8610
      8606      8605      8608      8611      8607      8605      8608      8609
      8607      8605      8608      8610      8607      8605      8608      8611
      8608      8611      8614      8615      8608      8611      8614      8616
      8608      8611      8614      8619      8609      8608      8611      8612
      8609      8608      8611      8613      8609      8608      8611      8614
      8610      8608      8611      8612      8610      8608      8611      8613
      8610      8608      8611      8614      8611      8614      8616      8617
      8611      8614      8616      8618      8611      8614      8616      8619
      8611      8614      8619      8616      8611      8614      8619      8620
      8611      8614      8619      8621      8612      8611      8614      8615
      8612      8611      8614      8616      8612      8611      8614      8619
      8613      8611      8614      8615      8613      8611      8614      8616
      8613      8611      8614      8619      8614      8616      8619      8620
      8614      8616      8619      8621      8614      8619      8616      8617
      8614      8619      8616      8618      8614      8619      8621      8622
      8614      8619      8621      8623      8614      8619      8621      8624
      8615      8614      8616      8617      8615      8614      8616      8618
      8615      8614      8616      8619      8615      8614      8619      8616
      8615      8614      8619      8620      8615      8614      8619      8621
      8616      8614      8619      8620      8616      8614      8619      8621
      8616      8619      8621      8622      8616      8619      8621      8623
      8616      8619      8621      8624      8617      8616      8614      8619
      8617      8616      8619      8620      8617      8616      8619      8621
      8618      8616      8614      8619      8618      8616      8619      8620
      8618      8616      8619      8621      8619      8621      8624      8625
      8619      8621      8624      8626      8619      8621      8624      8627
      8620      8619      8621      8622      8620      8619      8621      8623
      8620      8619      8621      8624      8621      8624      8627      8628
      8621      8624      8627      8629      8621      8624      8627      8630
      8622      8621      8624      8625      8622      8621      8624      8626
      8622      8621      8624      8627      8623      8621      8624      8625
      8623      8621      8624      8626      8623      8621      8624      8627
      8624      8627      8630      8631      8624      8627      8630      8632
      8624      8627      8630      8633      8625      8624      8627      8628
      8625      8624      8627      8629      8625      8624      8627      8630
      8626      8624      8627      8628      8626      8624      8627      8629
      8626      8624      8627      8630      8627      8630      8633      8634
      8627      8630      8633      8635      8627      8630      8633      8636
      8628      8627      8630      8631      8628      8627      8630      8632
      8628      8627      8630      8633      8629      8627      8630      8631
      8629      8627      8630      8632      8629      8627      8630      8633
      8630      8633      8636      8637      8630      8633      8636      8638
      8630      8633      8636      8639      8631      8630      8633      8634
      8631      8630      8633      8635      8631      8630      8633      8636
      8632      8630      8633      8634      8632      8630      8633      8635
      8632      8630      8633      8636      8634      8633      8636      8637
      8634      8633      8636      8638      8634      8633      8636      8639
      8635      8633      8636      8637      8635      8633      8636      8638
      8635      8633      8636      8639      8640      8643      8646      8647
      8640      8643      8646      8648      8640      8643      8646      8649
      8641      8640      8643      8644      8641      8640      8643      8645
      8641      8640      8643      8646      8642      8640      8643      8644
      8642      8640      8643      8645      8642      8640      8643      8646
      8643      8646      8649      8650      8643      8646      8649      8651
      8643      8646      8649      8652      8644      8643      8646      8647
      8644      8643      8646      8648      8644      8643      8646      8649
      8645      8643      8646      8647      8645      8643      8646      8648
      8645      8643      8646      8649      8646      8649      8652      8653
      8646      8649      8652      8654      8646      8649      8652      8655
      8647      8646      8649      8650      8647      8646      8649      8651
      8647      8646      8649      8652      8648      8646      8649      8650
      8648      8646      8649      8651      8648      8646      8649      8652
      8649      8652      8655      8656      8649      8652      8655      8657
      8649      8652      8655      8658      8650      8649      8652      8653
      8650      8649      8652      8654      8650      8649      8652      8655
      8651      8649      8652      8653      8651      8649      8652      8654
      8651      8649      8652      8655      8652      8655      8658      8659
      8652      8655      8658      8660      8652      8655      8658      8661
      8653      8652      8655      8656      8653      8652      8655      8657
      8653      8652      8655      8658      8654      8652      8655      8656
      8654      8652      8655      8657      8654      8652      8655      8658
      8655      8658      8661      8662      8655      8658      8661      8663
      8655      8658      8661      8664      8656      8655      8658      8659
      8656      8655      8658      8660      8656      8655      8658      8661
      8657      8655      8658      8659      8657      8655      8658      8660
      8657      8655      8658      8661      8658      8661      8664      8665
      8658      8661      8664      8666      8658      8661      8664      8667
      8659      8658      8661      8662      8659      8658      8661      8663
      8659      8658      8661      8664      8660      8658      8661      8662
      8660      8658      8661      8663      8660      8658      8661      8664
      8661      8664      8667      8668      8661      8664      8667      8669
      8661      8664      8667      8670      8662      8661      8664      8665
      8662      8661      8664      8666      8662      8661      8664      8667
      8663      8661      8664      8665      8663      8661      8664      8666
      8663      8661      8664      8667      8664      8667      8670      8671
      8664      8667      8670      8672      8664      8667      8670      8673
      8665      8664      8667      8668      8665      8664      8667      8669
      8665      8664      8667      8670      8666      8664      8667      8668
      8666      8664      8667      8669      8666      8664      8667      8670
      8667      8670      8673      8674      8667      8670      8673      8675
      8667      8670      8673      8676      8668      8667      8670      8671
      8668      8667      8670      8672      8668      8667      8670      8673
      8669      8667      8670      8671      8669      8667      8670      8672
      8669      8667      8670      8673      8670      8673      8676      8677
      8670      8673      8676      8678      8670      8673      8676      8679
      8671      8670      8673      8674      8671      8670      8673      8675
      8671      8670      8673      8676      8672      8670      8673      8674
      8672      8670      8673      8675      8672      8670      8673      8676
      8673      8676      8679      8680      8673      8676      8679      8681
      8673      8676      8679      8682      8674      8673      8676      8677
      8674      8673      8676      8678      8674      8673      8676      8679
      8675      8673      8676      8677      8675      8673      8676      8678
      8675      8673      8676      8679      8677      8676      8679      8680
      8677      8676      8679      8681      8677      8676      8679      8682
      8678      8676      8679      8680      8678      8676      8679      8681
      8678      8676      8679      8682      8683      8687      8690      8691
      8683      8687      8690      8692      8683      8687      8690      8697
      8684      8683      8687      8688      8684      8683      8687      8689
      8684      8683      8687      8690      8685      8683      8687      8688
      8685      8683      8687      8689      8685      8683      8687      8690
      8686      8683      8687      8688      8686      8683      8687      8689
      8686      8683      8687      8690      8687      8690      8697      8693
      8688      8687      8690      8691      8688      8687      8690      8692
      8688      8687      8690      8697      8689      8687      8690      8691
      8689      8687      8690      8692      8689      8687      8690      8697
      8690      8697      8693      8694      8690      8697      8693      8695
      8690      8697      8693      8696      8691      8690      8697      8693
      8692      8690      8697      8693      8693      8696      8698      8699
      8693      8696      8698      8700      8693      8696      8698      8701
      8694      8693      8696      8698      8695      8693      8696      8698
      8696      8698      8701      8702      8696      8698      8701      8703
      8696      8698      8701      8709      8697      8693      8696      8698
      8698      8701      8703      8704      8698      8701      8709      8710
      8698      8701      8709      8711      8698      8701      8709      8712
      8699      8698      8701      8702      8699      8698      8701      8703
      8699      8698      8701      8709      8700      8698      8701      8702
      8700      8698      8701      8703      8700      8698      8701      8709
      8701      8703      8704      8705      8701      8703      8704      8706
      8701      8709      8712      8713      8702      8701      8703      8704
      8702      8701      8709      8710      8702      8701      8709      8711
      8702      8701      8709      8712      8703      8701      8709      8710
      8703      8701      8709      8711      8703      8701      8709      8712
      8703      8704      8706      8707      8703      8704      8706      8708
      8703      8704      8706      8718      8704      8703      8701      8709
      8704      8706      8718      8719      8704      8706      8718      8720
      8704      8706      8718      8721      8705      8704      8706      8707
      8705      8704      8706      8708      8705      8704      8706      8718
      8706      8718      8721      8722      8706      8718      8721      8723
      8706      8718      8721      8724      8707      8706      8718      8719
      8707      8706      8718      8720      8707      8706      8718      8721
      8708      8706      8718      8719      8708      8706      8718      8720
      8708      8706      8718      8721      8709      8712      8713      8714
      8709      8712      8713      8715      8710      8709      8712      8713
      8711      8709      8712      8713      8712      8713      8715      8716
      8712      8713      8715      8717      8712      8713      8715      8759
      8713      8715      8759      8760      8713      8715      8759      8761
      8713      8715      8759      8762      8714      8713      8715      8716
      8714      8713      8715      8717      8714      8713      8715      8759
      8715      8759      8762      8763      8715      8759      8762      8764
      8715      8759      8762      8765      8716      8715      8759      8760
      8716      8715      8759      8761      8716      8715      8759      8762
      8717      8715      8759      8760      8717      8715      8759      8761
      8717      8715      8759      8762      8718      8721      8724      8725
      8718      8721      8724      8726      8718      8721      8724      8727
      8719      8718      8721      8722      8719      8718      8721      8723
      8719      8718      8721      8724      8720      8718      8721      8722
      8720      8718      8721      8723      8720      8718      8721      8724
      8721      8724      8727      8728      8721      8724      8727      8729
      8721      8724      8727      8730      8722      8721      8724      8725
      8722      8721      8724      8726      8722      8721      8724      8727
      8723      8721      8724      8725      8723      8721      8724      8726
      8723      8721      8724      8727      8724      8727      8730      8731
      8724      8727      8730      8732      8724      8727      8730      8733
      8725      8724      8727      8728      8725      8724      8727      8729
      8725      8724      8727      8730      8726      8724      8727      8728
      8726      8724      8727      8729      8726      8724      8727      8730
      8727      8730      8733      8734      8727      8730      8733      8735
      8727      8730      8733      8736      8728      8727      8730      8731
      8728      8727      8730      8732      8728      8727      8730      8733
      8729      8727      8730      8731      8729      8727      8730      8732
      8729      8727      8730      8733      8730      8733      8736      8737
      8730      8733      8736      8738      8731      8730      8733      8734
      8731      8730      8733      8735      8731      8730      8733      8736
      8732      8730      8733      8734      8732      8730      8733      8735
      8732      8730      8733      8736      8733      8736      8738      8739
      8733      8736      8738      8740      8734      8733      8736      8737
      8734      8733      8736      8738      8735      8733      8736      8737
      8735      8733      8736      8738      8736      8738      8740      8741
      8736      8738      8740      8742      8736      8738      8740      8743
      8737      8736      8738      8739      8737      8736      8738      8740
      8738      8740      8743      8744      8738      8740      8743      8745
      8738      8740      8743      8746      8739      8738      8740      8741
      8739      8738      8740      8742      8739      8738      8740      8743
      8740      8743      8746      8747      8740      8743      8746      8748
      8740      8743      8746      8749      8741      8740      8743      8744
      8741      8740      8743      8745      8741      8740      8743      8746
      8742      8740      8743      8744      8742      8740      8743      8745
      8742      8740      8743      8746      8743      8746      8749      8750
      8743      8746      8749      8751      8743      8746      8749      8752
      8744      8743      8746      8747      8744      8743      8746      8748
      8744      8743      8746      8749      8745      8743      8746      8747
      8745      8743      8746      8748      8745      8743      8746      8749
      8746      8749      8752      8753      8746      8749      8752      8754
      8746      8749      8752      8755      8747      8746      8749      8750
      8747      8746      8749      8751      8747      8746      8749      8752
      8748      8746      8749      8750      8748      8746      8749      8751
      8748      8746      8749      8752      8749      8752      8755      8756
      8749      8752      8755      8757      8749      8752      8755      8758
      8750      8749      8752      8753      8750      8749      8752      8754
      8750      8749      8752      8755      8751      8749      8752      8753
      8751      8749      8752      8754      8751      8749      8752      8755
      8753      8752      8755      8756      8753      8752      8755      8757
      8753      8752      8755      8758      8754      8752      8755      8756
      8754      8752      8755      8757      8754      8752      8755      8758
      8759      8762      8765      8766      8759      8762      8765      8767
      8759      8762      8765      8768      8760      8759      8762      8763
      8760      8759      8762      8764      8760      8759      8762      8765
      8761      8759      8762      8763      8761      8759      8762      8764
      8761      8759      8762      8765      8762      8765      8768      8769
      8762      8765      8768      8770      8762      8765      8768      8771
      8763      8762      8765      8766      8763      8762      8765      8767
      8763      8762      8765      8768      8764      8762      8765      8766
      8764      8762      8765      8767      8764      8762      8765      8768
      8765      8768      8771      8772      8765      8768      8771      8773
      8765      8768      8771      8774      8766      8765      8768      8769
      8766      8765      8768      8770      8766      8765      8768      8771
      8767      8765      8768      8769      8767      8765      8768      8770
      8767      8765      8768      8771      8768      8771      8774      8775
      8768      8771      8774      8776      8768      8771      8774      8777
      8769      8768      8771      8772      8769      8768      8771      8773
      8769      8768      8771      8774      8770      8768      8771      8772
      8770      8768      8771      8773      8770      8768      8771      8774
      8771      8774      8777      8778      8771      8774      8777      8779
      8772      8771      8774      8775      8772      8771      8774      8776
      8772      8771      8774      8777      8773      8771      8774      8775
      8773      8771      8774      8776      8773      8771      8774      8777
      8774      8777      8779      8780      8774      8777      8779      8781
      8775      8774      8777      8778      8775      8774      8777      8779
      8776      8774      8777      8778      8776      8774      8777      8779
      8777      8779      8781      8782      8777      8779      8781      8783
      8777      8779      8781      8784      8778      8777      8779      8780
      8778      8777      8779      8781      8779      8781      8784      8785
      8779      8781      8784      8786      8779      8781      8784      8787
      8780      8779      8781      8782      8780      8779      8781      8783
      8780      8779      8781      8784      8781      8784      8787      8788
      8781      8784      8787      8789      8781      8784      8787      8790
      8782      8781      8784      8785      8782      8781      8784      8786
      8782      8781      8784      8787      8783      8781      8784      8785
      8783      8781      8784      8786      8783      8781      8784      8787
      8784      8787      8790      8791      8784      8787      8790      8792
      8784      8787      8790      8793      8785      8784      8787      8788
      8785      8784      8787      8789      8785      8784      8787      8790
      8786      8784      8787      8788      8786      8784      8787      8789
      8786      8784      8787      8790      8787      8790      8793      8794
      8787      8790      8793      8795      8787      8790      8793      8796
      8788      8787      8790      8791      8788      8787      8790      8792
      8788      8787      8790      8793      8789      8787      8790      8791
      8789      8787      8790      8792      8789      8787      8790      8793
      8790      8793      8796      8797      8790      8793      8796      8798
      8790      8793      8796      8799      8791      8790      8793      8794
      8791      8790      8793      8795      8791      8790      8793      8796
      8792      8790      8793      8794      8792      8790      8793      8795
      8792      8790      8793      8796      8793      8796      8799      8800
      8793      8796      8799      8801      8793      8796      8799      8802
      8794      8793      8796      8797      8794      8793      8796      8798
      8794      8793      8796      8799      8795      8793      8796      8797
      8795      8793      8796      8798      8795      8793      8796      8799
      8796      8799      8802      8803      8796      8799      8802      8804
      8796      8799      8802      8805      8797      8796      8799      8800
      8797      8796      8799      8801      8797      8796      8799      8802
      8798      8796      8799      8800      8798      8796      8799      8801
      8798      8796      8799      8802      8800      8799      8802      8803
      8800      8799      8802      8804      8800      8799      8802      8805
      8801      8799      8802      8803      8801      8799      8802      8804
      8801      8799      8802      8805      8806      8810      8813      8814
      8806      8810      8813      8815      8806      8810      8813      8820
      8807      8806      8810      8811      8807      8806      8810      8812
      8807      8806      8810      8813      8808      8806      8810      8811
      8808      8806      8810      8812      8808      8806      8810      8813
      8809      8806      8810      8811      8809      8806      8810      8812
      8809      8806      8810      8813      8810      8813      8820      8816
      8811      8810      8813      8814      8811      8810      8813      8815
      8811      8810      8813      8820      8812      8810      8813      8814
      8812      8810      8813      8815      8812      8810      8813      8820
      8813      8820      8816      8817      8813      8820      8816      8818
      8813      8820      8816      8819      8814      8813      8820      8816
      8815      8813      8820      8816      8816      8819      8821      8822
      8816      8819      8821      8823      8816      8819      8821      8824
      8817      8816      8819      8821      8818      8816      8819      8821
      8819      8821      8824      8825      8819      8821      8824      8826
      8819      8821      8824      8832      8820      8816      8819      8821
      8821      8824      8826      8827      8821      8824      8832      8833
      8821      8824      8832      8834      8821      8824      8832      8835
      8822      8821      8824      8825      8822      8821      8824      8826
      8822      8821      8824      8832      8823      8821      8824      8825
      8823      8821      8824      8826      8823      8821      8824      8832
      8824      8826      8827      8828      8824      8826      8827      8829
      8824      8832      8835      8836      8825      8824      8826      8827
      8825      8824      8832      8833      8825      8824      8832      8834
      8825      8824      8832      8835      8826      8824      8832      8833
      8826      8824      8832      8834      8826      8824      8832      8835
      8826      8827      8829      8830      8826      8827      8829      8831
      8826      8827      8829      8841      8827      8826      8824      8832
      8827      8829      8841      8842      8827      8829      8841      8843
      8827      8829      8841      8844      8828      8827      8829      8830
      8828      8827      8829      8831      8828      8827      8829      8841
      8829      8841      8844      8845      8829      8841      8844      8846
      8829      8841      8844      8847      8830      8829      8841      8842
      8830      8829      8841      8843      8830      8829      8841      8844
      8831      8829      8841      8842      8831      8829      8841      8843
      8831      8829      8841      8844      8832      8835      8836      8837
      8832      8835      8836      8838      8833      8832      8835      8836
      8834      8832      8835      8836      8835      8836      8838      8839
      8835      8836      8838      8840      8835      8836      8838      8885
      8836      8838      8885      8886      8836      8838      8885      8887
      8836      8838      8885      8888      8837      8836      8838      8839
      8837      8836      8838      8840      8837      8836      8838      8885
      8838      8885      8888      8889      8838      8885      8888      8890
      8838      8885      8888      8891      8839      8838      8885      8886
      8839      8838      8885      8887      8839      8838      8885      8888
      8840      8838      8885      8886      8840      8838      8885      8887
      8840      8838      8885      8888      8841      8844      8847      8848
      8841      8844      8847      8849      8841      8844      8847      8850
      8842      8841      8844      8845      8842      8841      8844      8846
      8842      8841      8844      8847      8843      8841      8844      8845
      8843      8841      8844      8846      8843      8841      8844      8847
      8844      8847      8850      8851      8844      8847      8850      8852
      8844      8847      8850      8853      8845      8844      8847      8848
      8845      8844      8847      8849      8845      8844      8847      8850
      8846      8844      8847      8848      8846      8844      8847      8849
      8846      8844      8847      8850      8847      8850      8853      8854
      8847      8850      8853      8855      8847      8850      8853      8856
      8848      8847      8850      8851      8848      8847      8850      8852
      8848      8847      8850      8853      8849      8847      8850      8851
      8849      8847      8850      8852      8849      8847      8850      8853
      8850      8853      8856      8857      8850      8853      8856      8858
      8850      8853      8856      8859      8851      8850      8853      8854
      8851      8850      8853      8855      8851      8850      8853      8856
      8852      8850      8853      8854      8852      8850      8853      8855
      8852      8850      8853      8856      8853      8856      8859      8860
      8853      8856      8859      8861      8853      8856      8859      8864
      8854      8853      8856      8857      8854      8853      8856      8858
      8854      8853      8856      8859      8855      8853      8856      8857
      8855      8853      8856      8858      8855      8853      8856      8859
      8856      8859      8861      8862      8856      8859      8861      8863
      8856      8859      8861      8864      8856      8859      8864      8861
      8856      8859      8864      8865      8856      8859      8864      8866
      8857      8856      8859      8860      8857      8856      8859      8861
      8857      8856      8859      8864      8858      8856      8859      8860
      8858      8856      8859      8861      8858      8856      8859      8864
      8859      8861      8864      8865      8859      8861      8864      8866
      8859      8864      8861      8862      8859      8864      8861      8863
      8859      8864      8866      8867      8859      8864      8866      8868
      8859      8864      8866      8869      8860      8859      8861      8862
      8860      8859      8861      8863      8860      8859      8861      8864
      8860      8859      8864      8861      8860      8859      8864      8865
      8860      8859      8864      8866      8861      8859      8864      8865
      8861      8859      8864      8866      8861      8864      8866      8867
      8861      8864      8866      8868      8861      8864      8866      8869
      8862      8861      8859      8864      8862      8861      8864      8865
      8862      8861      8864      8866      8863      8861      8859      8864
      8863      8861      8864      8865      8863      8861      8864      8866
      8864      8866      8869      8870      8864      8866      8869      8871
      8864      8866      8869      8872      8865      8864      8866      8867
      8865      8864      8866      8868      8865      8864      8866      8869
      8866      8869      8872      8873      8866      8869      8872      8874
      8866      8869      8872      8875      8867      8866      8869      8870
      8867      8866      8869      8871      8867      8866      8869      8872
      8868      8866      8869      8870      8868      8866      8869      8871
      8868      8866      8869      8872      8869      8872      8875      8876
      8869      8872      8875      8877      8869      8872      8875      8878
      8870      8869      8872      8873      8870      8869      8872      8874
      8870      8869      8872      8875      8871      8869      8872      8873
      8871      8869      8872      8874      8871      8869      8872      8875
      8872      8875      8878      8879      8872      8875      8878      8880
      8872      8875      8878      8881      8873      8872      8875      8876
      8873      8872      8875      8877      8873      8872      8875      8878
      8874      8872      8875      8876      8874      8872      8875      8877
      8874      8872      8875      8878      8875      8878      8881      8882
      8875      8878      8881      8883      8875      8878      8881      8884
      8876      8875      8878      8879      8876      8875      8878      8880
      8876      8875      8878      8881      8877      8875      8878      8879
      8877      8875      8878      8880      8877      8875      8878      8881
      8879      8878      8881      8882      8879      8878      8881      8883
      8879      8878      8881      8884      8880      8878      8881      8882
      8880      8878      8881      8883      8880      8878      8881      8884
      8885      8888      8891      8892      8885      8888      8891      8893
      8885      8888      8891      8894      8886      8885      8888      8889
      8886      8885      8888      8890      8886      8885      8888      8891
      8887      8885      8888      8889      8887      8885      8888      8890
      8887      8885      8888      8891      8888      8891      8894      8895
      8888      8891      8894      8896      8888      8891      8894      8897
      8889      8888      8891      8892      8889      8888      8891      8893
      8889      8888      8891      8894      8890      8888      8891      8892
      8890      8888      8891      8893      8890      8888      8891      8894
      8891      8894      8897      8898      8891      8894      8897      8899
      8891      8894      8897      8900      8892      8891      8894      8895
      8892      8891      8894      8896      8892      8891      8894      8897
      8893      8891      8894      8895      8893      8891      8894      8896
      8893      8891      8894      8897      8894      8897      8900      8901
      8894      8897      8900      8902      8894      8897      8900      8903
      8895      8894      8897      8898      8895      8894      8897      8899
      8895      8894      8897      8900      8896      8894      8897      8898
      8896      8894      8897      8899      8896      8894      8897      8900
      8897      8900      8903      8904      8897      8900      8903      8905
      8897      8900      8903      8906      8898      8897      8900      8901
      8898      8897      8900      8902      8898      8897      8900      8903
      8899      8897      8900      8901      8899      8897      8900      8902
      8899      8897      8900      8903      8900      8903      8906      8907
      8900      8903      8906      8908      8900      8903      8906      8909
      8901      8900      8903      8904      8901      8900      8903      8905
      8901      8900      8903      8906      8902      8900      8903      8904
      8902      8900      8903      8905      8902      8900      8903      8906
      8903      8906      8909      8910      8903      8906      8909      8911
      8903      8906      8909      8912      8904      8903      8906      8907
      8904      8903      8906      8908      8904      8903      8906      8909
      8905      8903      8906      8907      8905      8903      8906      8908
      8905      8903      8906      8909      8906      8909      8912      8913
      8906      8909      8912      8914      8906      8909      8912      8915
      8907      8906      8909      8910      8907      8906      8909      8911
      8907      8906      8909      8912      8908      8906      8909      8910
      8908      8906      8909      8911      8908      8906      8909      8912
      8909      8912      8915      8916      8909      8912      8915      8917
      8909      8912      8915      8918      8910      8909      8912      8913
      8910      8909      8912      8914      8910      8909      8912      8915
      8911      8909      8912      8913      8911      8909      8912      8914
      8911      8909      8912      8915      8912      8915      8918      8919
      8912      8915      8918      8920      8912      8915      8918      8921
      8913      8912      8915      8916      8913      8912      8915      8917
      8913      8912      8915      8918      8914      8912      8915      8916
      8914      8912      8915      8917      8914      8912      8915      8918
      8915      8918      8921      8922      8915      8918      8921      8923
      8915      8918      8921      8924      8916      8915      8918      8919
      8916      8915      8918      8920      8916      8915      8918      8921
      8917      8915      8918      8919      8917      8915      8918      8920
      8917      8915      8918      8921      8919      8918      8921      8922
      8919      8918      8921      8923      8919      8918      8921      8924
      8920      8918      8921      8922      8920      8918      8921      8923
      8920      8918      8921      8924      8925      8929      8932      8933
      8925      8929      8932      8934      8925      8929      8932      8939
      8926      8925      8929      8930      8926      8925      8929      8931
      8926      8925      8929      8932      8927      8925      8929      8930
      8927      8925      8929      8931      8927      8925      8929      8932
      8928      8925      8929      8930      8928      8925      8929      8931
      8928      8925      8929      8932      8929      8932      8939      8935
      8930      8929      8932      8933      8930      8929      8932      8934
      8930      8929      8932      8939      8931      8929      8932      8933
      8931      8929      8932      8934      8931      8929      8932      8939
      8932      8939      8935      8936      8932      8939      8935      8937
      8932      8939      8935      8938      8933      8932      8939      8935
      8934      8932      8939      8935      8935      8938      8940      8941
      8935      8938      8940      8942      8935      8938      8940      8943
      8936      8935      8938      8940      8937      8935      8938      8940
      8938      8940      8943      8944      8938      8940      8943      8945
      8938      8940      8943      8951      8939      8935      8938      8940
      8940      8943      8945      8946      8940      8943      8951      8952
      8940      8943      8951      8953      8940      8943      8951      8954
      8941      8940      8943      8944      8941      8940      8943      8945
      8941      8940      8943      8951      8942      8940      8943      8944
      8942      8940      8943      8945      8942      8940      8943      8951
      8943      8945      8946      8947      8943      8945      8946      8948
      8943      8951      8954      8955      8944      8943      8945      8946
      8944      8943      8951      8952      8944      8943      8951      8953
      8944      8943      8951      8954      8945      8943      8951      8952
      8945      8943      8951      8953      8945      8943      8951      8954
      8945      8946      8948      8949      8945      8946      8948      8950
      8945      8946      8948      8960      8946      8945      8943      8951
      8946      8948      8960      8961      8946      8948      8960      8962
      8946      8948      8960      8963      8947      8946      8948      8949
      8947      8946      8948      8950      8947      8946      8948      8960
      8948      8960      8963      8964      8948      8960      8963      8965
      8948      8960      8963      8966      8949      8948      8960      8961
      8949      8948      8960      8962      8949      8948      8960      8963
      8950      8948      8960      8961      8950      8948      8960      8962
      8950      8948      8960      8963      8951      8954      8955      8956
      8951      8954      8955      8957      8952      8951      8954      8955
      8953      8951      8954      8955      8954      8955      8957      8958
      8954      8955      8957      8959      8954      8955      8957      9001
      8955      8957      9001      9002      8955      8957      9001      9003
      8955      8957      9001      9004      8956      8955      8957      8958
      8956      8955      8957      8959      8956      8955      8957      9001
      8957      9001      9004      9005      8957      9001      9004      9006
      8957      9001      9004      9007      8958      8957      9001      9002
      8958      8957      9001      9003      8958      8957      9001      9004
      8959      8957      9001      9002      8959      8957      9001      9003
      8959      8957      9001      9004      8960      8963      8966      8967
      8960      8963      8966      8968      8960      8963      8966      8969
      8961      8960      8963      8964      8961      8960      8963      8965
      8961      8960      8963      8966      8962      8960      8963      8964
      8962      8960      8963      8965      8962      8960      8963      8966
      8963      8966      8969      8970      8963      8966      8969      8971
      8963      8966      8969      8972      8964      8963      8966      8967
      8964      8963      8966      8968      8964      8963      8966      8969
      8965      8963      8966      8967      8965      8963      8966      8968
      8965      8963      8966      8969      8966      8969      8972      8973
      8966      8969      8972      8974      8966      8969      8972      8975
      8967      8966      8969      8970      8967      8966      8969      8971
      8967      8966      8969      8972      8968      8966      8969      8970
      8968      8966      8969      8971      8968      8966      8969      8972
      8969      8972      8975      8976      8969      8972      8975      8977
      8969      8972      8975      8978      8970      8969      8972      8973
      8970      8969      8972      8974      8970      8969      8972      8975
      8971      8969      8972      8973      8971      8969      8972      8974
      8971      8969      8972      8975      8972      8975      8978      8979
      8972      8975      8978      8980      8973      8972      8975      8976
      8973      8972      8975      8977      8973      8972      8975      8978
      8974      8972      8975      8976      8974      8972      8975      8977
      8974      8972      8975      8978      8975      8978      8980      8981
      8975      8978      8980      8982      8976      8975      8978      8979
      8976      8975      8978      8980      8977      8975      8978      8979
      8977      8975      8978      8980      8978      8980      8982      8983
      8978      8980      8982      8984      8978      8980      8982      8985
      8979      8978      8980      8981      8979      8978      8980      8982
      8980      8982      8985      8986      8980      8982      8985      8987
      8980      8982      8985      8988      8981      8980      8982      8983
      8981      8980      8982      8984      8981      8980      8982      8985
      8982      8985      8988      8989      8982      8985      8988      8990
      8982      8985      8988      8991      8983      8982      8985      8986
      8983      8982      8985      8987      8983      8982      8985      8988
      8984      8982      8985      8986      8984      8982      8985      8987
      8984      8982      8985      8988      8985      8988      8991      8992
      8985      8988      8991      8993      8985      8988      8991      8994
      8986      8985      8988      8989      8986      8985      8988      8990
      8986      8985      8988      8991      8987      8985      8988      8989
      8987      8985      8988      8990      8987      8985      8988      8991
      8988      8991      8994      8995      8988      8991      8994      8996
      8988      8991      8994      8997      8989      8988      8991      8992
      8989      8988      8991      8993      8989      8988      8991      8994
      8990      8988      8991      8992      8990      8988      8991      8993
      8990      8988      8991      8994      8991      8994      8997      8998
      8991      8994      8997      8999      8991      8994      8997      9000
      8992      8991      8994      8995      8992      8991      8994      8996
      8992      8991      8994      8997      8993      8991      8994      8995
      8993      8991      8994      8996      8993      8991      8994      8997
      8995      8994      8997      8998      8995      8994      8997      8999
      8995      8994      8997      9000      8996      8994      8997      8998
      8996      8994      8997      8999      8996      8994      8997      9000
      9001      9004      9007      9008      9001      9004      9007      9009
      9001      9004      9007      9010      9002      9001      9004      9005
      9002      9001      9004      9006      9002      9001      9004      9007
      9003      9001      9004      9005      9003      9001      9004      9006
      9003      9001      9004      9007      9004      9007      9010      9011
      9004      9007      9010      9012      9004      9007      9010      9013
      9005      9004      9007      9008      9005      9004      9007      9009
      9005      9004      9007      9010      9006      9004      9007      9008
      9006      9004      9007      9009      9006      9004      9007      9010
      9007      9010      9013      9014      9007      9010      9013      9015
      9007      9010      9013      9016      9008      9007      9010      9011
      9008      9007      9010      9012      9008      9007      9010      9013
      9009      9007      9010      9011      9009      9007      9010      9012
      9009      9007      9010      9013      9010      9013      9016      9017
      9010      9013      9016      9018      9010      9013      9016      9019
      9011      9010      9013      9014      9011      9010      9013      9015
      9011      9010      9013      9016      9012      9010      9013      9014
      9012      9010      9013      9015      9012      9010      9013      9016
      9013      9016      9019      9020      9013      9016      9019      9021
      9014      9013      9016      9017      9014      9013      9016      9018
      9014      9013      9016      9019      9015      9013      9016      9017
      9015      9013      9016      9018      9015      9013      9016      9019
      9016      9019      9021      9022      9016      9019      9021      9023
      9017      9016      9019      9020      9017      9016      9019      9021
      9018      9016      9019      9020      9018      9016      9019      9021
      9019      9021      9023      9024      9019      9021      9023      9025
      9019      9021      9023      9026      9020      9019      9021      9022
      9020      9019      9021      9023      9021      9023      9026      9027
      9021      9023      9026      9028      9021      9023      9026      9029
      9022      9021      9023      9024      9022      9021      9023      9025
      9022      9021      9023      9026      9023      9026      9029      9030
      9023      9026      9029      9031      9023      9026      9029      9032
      9024      9023      9026      9027      9024      9023      9026      9028
      9024      9023      9026      9029      9025      9023      9026      9027
      9025      9023      9026      9028      9025      9023      9026      9029
      9026      9029      9032      9033      9026      9029      9032      9034
      9026      9029      9032      9035      9027      9026      9029      9030
      9027      9026      9029      9031      9027      9026      9029      9032
      9028      9026      9029      9030      9028      9026      9029      9031
      9028      9026      9029      9032      9029      9032      9035      9036
      9029      9032      9035      9037      9029      9032      9035      9038
      9030      9029      9032      9033      9030      9029      9032      9034
      9030      9029      9032      9035      9031      9029      9032      9033
      9031      9029      9032      9034      9031      9029      9032      9035
      9032      9035      9038      9039      9032      9035      9038      9040
      9032      9035      9038      9041      9033      9032      9035      9036
      9033      9032      9035      9037      9033      9032      9035      9038
      9034      9032      9035      9036      9034      9032      9035      9037
      9034      9032      9035      9038      9035      9038      9041      9042
      9035      9038      9041      9043      9035      9038      9041      9044
      9036      9035      9038      9039      9036      9035      9038      9040
      9036      9035      9038      9041      9037      9035      9038      9039
      9037      9035      9038      9040      9037      9035      9038      9041
      9038      9041      9044      9045      9038      9041      9044      9046
      9038      9041      9044      9047      9039      9038      9041      9042
      9039      9038      9041      9043      9039      9038      9041      9044
      9040      9038      9041      9042      9040      9038      9041      9043
      9040      9038      9041      9044      9042      9041      9044      9045
      9042      9041      9044      9046      9042      9041      9044      9047
      9043      9041      9044      9045      9043      9041      9044      9046
      9043      9041      9044      9047      9048      9053      9055      9056
      9048      9053      9057      9058      9048      9053      9057      9059
      9048      9053      9057      9064      9049      9048      9051      9052
      9049      9048      9053      9054      9049      9048      9053      9055
      9049      9048      9053      9057      9050      9048      9051      9052
      9050      9048      9053      9054      9050      9048      9053      9055
      9050      9048      9053      9057      9051      9048      9053      9054
      9051      9048      9053      9055      9051      9048      9053      9057
      9052      9051      9048      9053      9053      9057      9064      9060
      9054      9053      9055      9056      9054      9053      9057      9058
      9054      9053      9057      9059      9054      9053      9057      9064
      9055      9053      9057      9058      9055      9053      9057      9059
      9055      9053      9057      9064      9056      9055      9053      9057
      9057      9064      9060      9061      9057      9064      9060      9062
      9057      9064      9060      9063      9058      9057      9064      9060
      9059      9057      9064      9060      9060      9063      9065      9066
      9060      9063      9065      9067      9060      9063      9065      9068
      9061      9060      9063      9065      9062      9060      9063      9065
      9063      9065      9068      9069      9063      9065      9068      9070
      9063      9065      9068      9076      9064      9060      9063      9065
      9065      9068      9070      9071      9065      9068      9076      9077
      9065      9068      9076      9078      9065      9068      9076      9079
      9066      9065      9068      9069      9066      9065      9068      9070
      9066      9065      9068      9076      9067      9065      9068      9069
      9067      9065      9068      9070      9067      9065      9068      9076
      9068      9070      9071      9072      9068      9070      9071      9073
      9068      9076      9079      9080      9069      9068      9070      9071
      9069      9068      9076      9077      9069      9068      9076      9078
      9069      9068      9076      9079      9070      9068      9076      9077
      9070      9068      9076      9078      9070      9068      9076      9079
      9070      9071      9073      9074      9070      9071      9073      9075
      9070      9071      9073      9085      9071      9070      9068      9076
      9071      9073      9085      9086      9071      9073      9085      9087
      9071      9073      9085      9088      9072      9071      9073      9074
      9072      9071      9073      9075      9072      9071      9073      9085
      9073      9085      9088      9089      9073      9085      9088      9090
      9073      9085      9088      9091      9074      9073      9085      9086
      9074      9073      9085      9087      9074      9073      9085      9088
      9075      9073      9085      9086      9075      9073      9085      9087
      9075      9073      9085      9088      9076      9079      9080      9081
      9076      9079      9080      9082      9077      9076      9079      9080
      9078      9076      9079      9080      9079      9080      9082      9083
      9079      9080      9082      9084      9079      9080      9082      9129
      9080      9082      9129      9130      9080      9082      9129      9131
      9080      9082      9129      9132      9081      9080      9082      9083
      9081      9080      9082      9084      9081      9080      9082      9129
      9082      9129      9132      9133      9082      9129      9132      9134
      9082      9129      9132      9135      9083      9082      9129      9130
      9083      9082      9129      9131      9083      9082      9129      9132
      9084      9082      9129      9130      9084      9082      9129      9131
      9084      9082      9129      9132      9085      9088      9091      9092
      9085      9088      9091      9093      9085      9088      9091      9094
      9086      9085      9088      9089      9086      9085      9088      9090
      9086      9085      9088      9091      9087      9085      9088      9089
      9087      9085      9088      9090      9087      9085      9088      9091
      9088      9091      9094      9095      9088      9091      9094      9096
      9088      9091      9094      9097      9089      9088      9091      9092
      9089      9088      9091      9093      9089      9088      9091      9094
      9090      9088      9091      9092      9090      9088      9091      9093
      9090      9088      9091      9094      9091      9094      9097      9098
      9091      9094      9097      9099      9091      9094      9097      9100
      9092      9091      9094      9095      9092      9091      9094      9096
      9092      9091      9094      9097      9093      9091      9094      9095
      9093      9091      9094      9096      9093      9091      9094      9097
      9094      9097      9100      9101      9094      9097      9100      9102
      9094      9097      9100      9103      9095      9094      9097      9098
      9095      9094      9097      9099      9095      9094      9097      9100
      9096      9094      9097      9098      9096      9094      9097      9099
      9096      9094      9097      9100      9097      9100      9103      9104
      9097      9100      9103      9105      9097      9100      9103      9108
      9098      9097      9100      9101      9098      9097      9100      9102
      9098      9097      9100      9103      9099      9097      9100      9101
      9099      9097      9100      9102      9099      9097      9100      9103
      9100      9103      9105      9106      9100      9103      9105      9107
      9100      9103      9105      9108      9100      9103      9108      9105
      9100      9103      9108      9109      9100      9103      9108      9110
      9101      9100      9103      9104      9101      9100      9103      9105
      9101      9100      9103      9108      9102      9100      9103      9104
      9102      9100      9103      9105      9102      9100      9103      9108
      9103      9105      9108      9109      9103      9105      9108      9110
      9103      9108      9105      9106      9103      9108      9105      9107
      9103      9108      9110      9111      9103      9108      9110      9112
      9103      9108      9110      9113      9104      9103      9105      9106
      9104      9103      9105      9107      9104      9103      9105      9108
      9104      9103      9108      9105      9104      9103      9108      9109
      9104      9103      9108      9110      9105      9103      9108      9109
      9105      9103      9108      9110      9105      9108      9110      9111
      9105      9108      9110      9112      9105      9108      9110      9113
      9106      9105      9103      9108      9106      9105      9108      9109
      9106      9105      9108      9110      9107      9105      9103      9108
      9107      9105      9108      9109      9107      9105      9108      9110
      9108      9110      9113      9114      9108      9110      9113      9115
      9108      9110      9113      9116      9109      9108      9110      9111
      9109      9108      9110      9112      9109      9108      9110      9113
      9110      9113      9116      9117      9110      9113      9116      9118
      9110      9113      9116      9119      9111      9110      9113      9114
      9111      9110      9113      9115      9111      9110      9113      9116
      9112      9110      9113      9114      9112      9110      9113      9115
      9112      9110      9113      9116      9113      9116      9119      9120
      9113      9116      9119      9121      9113      9116      9119      9122
      9114      9113      9116      9117      9114      9113      9116      9118
      9114      9113      9116      9119      9115      9113      9116      9117
      9115      9113      9116      9118      9115      9113      9116      9119
      9116      9119      9122      9123      9116      9119      9122      9124
      9116      9119      9122      9125      9117      9116      9119      9120
      9117      9116      9119      9121      9117      9116      9119      9122
      9118      9116      9119      9120      9118      9116      9119      9121
      9118      9116      9119      9122      9119      9122      9125      9126
      9119      9122      9125      9127      9119      9122      9125      9128
      9120      9119      9122      9123      9120      9119      9122      9124
      9120      9119      9122      9125      9121      9119      9122      9123
      9121      9119      9122      9124      9121      9119      9122      9125
      9123      9122      9125      9126      9123      9122      9125      9127
      9123      9122      9125      9128      9124      9122      9125      9126
      9124      9122      9125      9127      9124      9122      9125      9128
      9129      9132      9135      9136      9129      9132      9135      9137
      9129      9132      9135      9138      9130      9129      9132      9133
      9130      9129      9132      9134      9130      9129      9132      9135
      9131      9129      9132      9133      9131      9129      9132      9134
      9131      9129      9132      9135      9132      9135      9138      9139
      9132      9135      9138      9140      9132      9135      9138      9141
      9133      9132      9135      9136      9133      9132      9135      9137
      9133      9132      9135      9138      9134      9132      9135      9136
      9134      9132      9135      9137      9134      9132      9135      9138
      9135      9138      9141      9142      9135      9138      9141      9143
      9135      9138      9141      9144      9136      9135      9138      9139
      9136      9135      9138      9140      9136      9135      9138      9141
      9137      9135      9138      9139      9137      9135      9138      9140
      9137      9135      9138      9141      9138      9141      9144      9145
      9138      9141      9144      9146      9138      9141      9144      9147
      9139      9138      9141      9142      9139      9138      9141      9143
      9139      9138      9141      9144      9140      9138      9141      9142
      9140      9138      9141      9143      9140      9138      9141      9144
      9141      9144      9147      9148      9141      9144      9147      9149
      9141      9144      9147      9150      9142      9141      9144      9145
      9142      9141      9144      9146      9142      9141      9144      9147
      9143      9141      9144      9145      9143      9141      9144      9146
      9143      9141      9144      9147      9144      9147      9150      9151
      9144      9147      9150      9152      9144      9147      9150      9153
      9145      9144      9147      9148      9145      9144      9147      9149
      9145      9144      9147      9150      9146      9144      9147      9148
      9146      9144      9147      9149      9146      9144      9147      9150
      9147      9150      9153      9154      9147      9150      9153      9155
      9147      9150      9153      9156      9148      9147      9150      9151
      9148      9147      9150      9152      9148      9147      9150      9153
      9149      9147      9150      9151      9149      9147      9150      9152
      9149      9147      9150      9153      9150      9153      9156      9157
      9150      9153      9156      9158      9150      9153      9156      9159
      9151      9150      9153      9154      9151      9150      9153      9155
      9151      9150      9153      9156      9152      9150      9153      9154
      9152      9150      9153      9155      9152      9150      9153      9156
      9153      9156      9159      9160      9153      9156      9159      9161
      9153      9156      9159      9162      9154      9153      9156      9157
      9154      9153      9156      9158      9154      9153      9156      9159
      9155      9153      9156      9157      9155      9153      9156      9158
      9155      9153      9156      9159      9156      9159      9162      9163
      9156      9159      9162      9164      9156      9159      9162      9165
      9157      9156      9159      9160      9157      9156      9159      9161
      9157      9156      9159      9162      9158      9156      9159      9160
      9158      9156      9159      9161      9158      9156      9159      9162
      9159      9162      9165      9166      9159      9162      9165      9167
      9159      9162      9165      9168      9160      9159      9162      9163
      9160      9159      9162      9164      9160      9159      9162      9165
      9161      9159      9162      9163      9161      9159      9162      9164
      9161      9159      9162      9165      9162      9165      9168      9169
      9162      9165      9168      9170      9162      9165      9168      9171
      9163      9162      9165      9166      9163      9162      9165      9167
      9163      9162      9165      9168      9164      9162      9165      9166
      9164      9162      9165      9167      9164      9162      9165      9168
      9166      9165      9168      9169      9166      9165      9168      9170
      9166      9165      9168      9171      9167      9165      9168      9169
      9167      9165      9168      9170      9167      9165      9168      9171
      9172      9176      9179      9180      9172      9176      9179      9181
      9172      9176      9179      9186      9173      9172      9176      9177
      9173      9172      9176      9178      9173      9172      9176      9179
      9174      9172      9176      9177      9174      9172      9176      9178
      9174      9172      9176      9179      9175      9172      9176      9177
      9175      9172      9176      9178      9175      9172      9176      9179
      9176      9179      9186      9182      9177      9176      9179      9180
      9177      9176      9179      9181      9177      9176      9179      9186
      9178      9176      9179      9180      9178      9176      9179      9181
      9178      9176      9179      9186      9179      9186      9182      9183
      9179      9186      9182      9184      9179      9186      9182      9185
      9180      9179      9186      9182      9181      9179      9186      9182
      9182      9185      9187      9188      9182      9185      9187      9189
      9182      9185      9187      9190      9183      9182      9185      9187
      9184      9182      9185      9187      9185      9187      9190      9191
      9185      9187      9190      9192      9185      9187      9190      9198
      9186      9182      9185      9187      9187      9190      9192      9193
      9187      9190      9198      9199      9187      9190      9198      9200
      9187      9190      9198      9201      9188      9187      9190      9191
      9188      9187      9190      9192      9188      9187      9190      9198
      9189      9187      9190      9191      9189      9187      9190      9192
      9189      9187      9190      9198      9190      9192      9193      9194
      9190      9192      9193      9195      9190      9198      9201      9202
      9191      9190      9192      9193      9191      9190      9198      9199
      9191      9190      9198      9200      9191      9190      9198      9201
      9192      9190      9198      9199      9192      9190      9198      9200
      9192      9190      9198      9201      9192      9193      9195      9196
      9192      9193      9195      9197      9192      9193      9195      9207
      9193      9192      9190      9198      9193      9195      9207      9208
      9193      9195      9207      9209      9193      9195      9207      9210
      9194      9193      9195      9196      9194      9193      9195      9197
      9194      9193      9195      9207      9195      9207      9210      9211
      9195      9207      9210      9212      9195      9207      9210      9213
      9196      9195      9207      9208      9196      9195      9207      9209
      9196      9195      9207      9210      9197      9195      9207      9208
      9197      9195      9207      9209      9197      9195      9207      9210
      9198      9201      9202      9203      9198      9201      9202      9204
      9199      9198      9201      9202      9200      9198      9201      9202
      9201      9202      9204      9205      9201      9202      9204      9206
      9201      9202      9204      9251      9202      9204      9251      9252
      9202      9204      9251      9253      9202      9204      9251      9254
      9203      9202      9204      9205      9203      9202      9204      9206
      9203      9202      9204      9251      9204      9251      9254      9255
      9204      9251      9254      9256      9204      9251      9254      9257
      9205      9204      9251      9252      9205      9204      9251      9253
      9205      9204      9251      9254      9206      9204      9251      9252
      9206      9204      9251      9253      9206      9204      9251      9254
      9207      9210      9213      9214      9207      9210      9213      9215
      9207      9210      9213      9216      9208      9207      9210      9211
      9208      9207      9210      9212      9208      9207      9210      9213
      9209      9207      9210      9211      9209      9207      9210      9212
      9209      9207      9210      9213      9210      9213      9216      9217
      9210      9213      9216      9218      9210      9213      9216      9219
      9211      9210      9213      9214      9211      9210      9213      9215
      9211      9210      9213      9216      9212      9210      9213      9214
      9212      9210      9213      9215      9212      9210      9213      9216
      9213      9216      9219      9220      9213      9216      9219      9221
      9213      9216      9219      9222      9214      9213      9216      9217
      9214      9213      9216      9218      9214      9213      9216      9219
      9215      9213      9216      9217      9215      9213      9216      9218
      9215      9213      9216      9219      9216      9219      9222      9223
      9216      9219      9222      9224      9216      9219      9222      9225
      9217      9216      9219      9220      9217      9216      9219      9221
      9217      9216      9219      9222      9218      9216      9219      9220
      9218      9216      9219      9221      9218      9216      9219      9222
      9219      9222      9225      9226      9219      9222      9225      9227
      9219      9222      9225      9230      9220      9219      9222      9223
      9220      9219      9222      9224      9220      9219      9222      9225
      9221      9219      9222      9223      9221      9219      9222      9224
      9221      9219      9222      9225      9222      9225      9227      9228
      9222      9225      9227      9229      9222      9225      9227      9230
      9222      9225      9230      9227      9222      9225      9230      9231
      9222      9225      9230      9232      9223      9222      9225      9226
      9223      9222      9225      9227      9223      9222      9225      9230
      9224      9222      9225      9226      9224      9222      9225      9227
      9224      9222      9225      9230      9225      9227      9230      9231
      9225      9227      9230      9232      9225      9230      9227      9228
      9225      9230      9227      9229      9225      9230      9232      9233
      9225      9230      9232      9234      9225      9230      9232      9235
      9226      9225      9227      9228      9226      9225      9227      9229
      9226      9225      9227      9230      9226      9225      9230      9227
      9226      9225      9230      9231      9226      9225      9230      9232
      9227      9225      9230      9231      9227      9225      9230      9232
      9227      9230      9232      9233      9227      9230      9232      9234
      9227      9230      9232      9235      9228      9227      9225      9230
      9228      9227      9230      9231      9228      9227      9230      9232
      9229      9227      9225      9230      9229      9227      9230      9231
      9229      9227      9230      9232      9230      9232      9235      9236
      9230      9232      9235      9237      9230      9232      9235      9238
      9231      9230      9232      9233      9231      9230      9232      9234
      9231      9230      9232      9235      9232      9235      9238      9239
      9232      9235      9238      9240      9232      9235      9238      9241
      9233      9232      9235      9236      9233      9232      9235      9237
      9233      9232      9235      9238      9234      9232      9235      9236
      9234      9232      9235      9237      9234      9232      9235      9238
      9235      9238      9241      9242      9235      9238      9241      9243
      9235      9238      9241      9244      9236      9235      9238      9239
      9236      9235      9238      9240      9236      9235      9238      9241
      9237      9235      9238      9239      9237      9235      9238      9240
      9237      9235      9238      9241      9238      9241      9244      9245
      9238      9241      9244      9246      9238      9241      9244      9247
      9239      9238      9241      9242      9239      9238      9241      9243
      9239      9238      9241      9244      9240      9238      9241      9242
      9240      9238      9241      9243      9240      9238      9241      9244
      9241      9244      9247      9248      9241      9244      9247      9249
      9241      9244      9247      9250      9242      9241      9244      9245
      9242      9241      9244      9246      9242      9241      9244      9247
      9243      9241      9244      9245      9243      9241      9244      9246
      9243      9241      9244      9247      9245      9244      9247      9248
      9245      9244      9247      9249      9245      9244      9247      9250
      9246      9244      9247      9248      9246      9244      9247      9249
      9246      9244      9247      9250      9251      9254      9257      9258
      9251      9254      9257      9259      9251      9254      9257      9260
      9252      9251      9254      9255      9252      9251      9254      9256
      9252      9251      9254      9257      9253      9251      9254      9255
      9253      9251      9254      9256      9253      9251      9254      9257
      9254      9257      9260      9261      9254      9257      9260      9262
      9254      9257      9260      9263      9255      9254      9257      9258
      9255      9254      9257      9259      9255      9254      9257      9260
      9256      9254      9257      9258      9256      9254      9257      9259
      9256      9254      9257      9260      9257      9260      9263      9264
      9257      9260      9263      9265      9257      9260      9263      9266
      9258      9257      9260      9261      9258      9257      9260      9262
      9258      9257      9260      9263      9259      9257      9260      9261
      9259      9257      9260      9262      9259      9257      9260      9263
      9260      9263      9266      9267      9260      9263      9266      9268
      9260      9263      9266      9269      9261      9260      9263      9264
      9261      9260      9263      9265      9261      9260      9263      9266
      9262      9260      9263      9264      9262      9260      9263      9265
      9262      9260      9263      9266      9263      9266      9269      9270
      9263      9266      9269      9271      9263      9266      9269      9272
      9264      9263      9266      9267      9264      9263      9266      9268
      9264      9263      9266      9269      9265      9263      9266      9267
      9265      9263      9266      9268      9265      9263      9266      9269
      9266      9269      9272      9273      9266      9269      9272      9274
      9266      9269      9272      9275      9267      9266      9269      9270
      9267      9266      9269      9271      9267      9266      9269      9272
      9268      9266      9269      9270      9268      9266      9269      9271
      9268      9266      9269      9272      9269      9272      9275      9276
      9269      9272      9275      9277      9269      9272      9275      9278
      9270      9269      9272      9273      9270      9269      9272      9274
      9270      9269      9272      9275      9271      9269      9272      9273
      9271      9269      9272      9274      9271      9269      9272      9275
      9272      9275      9278      9279      9272      9275      9278      9280
      9272      9275      9278      9281      9273      9272      9275      9276
      9273      9272      9275      9277      9273      9272      9275      9278
      9274      9272      9275      9276      9274      9272      9275      9277
      9274      9272      9275      9278      9275      9278      9281      9282
      9275      9278      9281      9283      9275      9278      9281      9284
      9276      9275      9278      9279      9276      9275      9278      9280
      9276      9275      9278      9281      9277      9275      9278      9279
      9277      9275      9278      9280      9277      9275      9278      9281
      9278      9281      9284      9285      9278      9281      9284      9286
      9278      9281      9284      9287      9279      9278      9281      9282
      9279      9278      9281      9283      9279      9278      9281      9284
      9280      9278      9281      9282      9280      9278      9281      9283
      9280      9278      9281      9284      9281      9284      9287      9288
      9281      9284      9287      9289      9281      9284      9287      9290
      9282      9281      9284      9285      9282      9281      9284      9286
      9282      9281      9284      9287      9283      9281      9284      9285
      9283      9281      9284      9286      9283      9281      9284      9287
      9285      9284      9287      9288      9285      9284      9287      9289
      9285      9284      9287      9290      9286      9284      9287      9288
      9286      9284      9287      9289      9286      9284      9287      9290
      9291      9295      9298      9299      9291      9295      9298      9300
      9291      9295      9298      9305      9292      9291      9295      9296
      9292      9291      9295      9297      9292      9291      9295      9298
      9293      9291      9295      9296      9293      9291      9295      9297
      9293      9291      9295      9298      9294      9291      9295      9296
      9294      9291      9295      9297      9294      9291      9295      9298
      9295      9298      9305      9301      9296      9295      9298      9299
      9296      9295      9298      9300      9296      9295      9298      9305
      9297      9295      9298      9299      9297      9295      9298      9300
      9297      9295      9298      9305      9298      9305      9301      9302
      9298      9305      9301      9303      9298      9305      9301      9304
      9299      9298      9305      9301      9300      9298      9305      9301
      9301      9304      9306      9307      9301      9304      9306      9308
      9301      9304      9306      9309      9302      9301      9304      9306
      9303      9301      9304      9306      9304      9306      9309      9310
      9304      9306      9309      9311      9304      9306      9309      9317
      9305      9301      9304      9306      9306      9309      9311      9312
      9306      9309      9317      9318      9306      9309      9317      9319
      9306      9309      9317      9320      9307      9306      9309      9310
      9307      9306      9309      9311      9307      9306      9309      9317
      9308      9306      9309      9310      9308      9306      9309      9311
      9308      9306      9309      9317      9309      9311      9312      9313
      9309      9311      9312      9314      9309      9317      9320      9321
      9310      9309      9311      9312      9310      9309      9317      9318
      9310      9309      9317      9319      9310      9309      9317      9320
      9311      9309      9317      9318      9311      9309      9317      9319
      9311      9309      9317      9320      9311      9312      9314      9315
      9311      9312      9314      9316      9311      9312      9314      9326
      9312      9311      9309      9317      9312      9314      9326      9327
      9312      9314      9326      9328      9312      9314      9326      9329
      9313      9312      9314      9315      9313      9312      9314      9316
      9313      9312      9314      9326      9314      9326      9329      9330
      9314      9326      9329      9331      9314      9326      9329      9332
      9315      9314      9326      9327      9315      9314      9326      9328
      9315      9314      9326      9329      9316      9314      9326      9327
      9316      9314      9326      9328      9316      9314      9326      9329
      9317      9320      9321      9322      9317      9320      9321      9323
      9318      9317      9320      9321      9319      9317      9320      9321
      9320      9321      9323      9324      9320      9321      9323      9325
      9320      9321      9323      9370      9321      9323      9370      9371
      9321      9323      9370      9372      9321      9323      9370      9373
      9322      9321      9323      9324      9322      9321      9323      9325
      9322      9321      9323      9370      9323      9370      9373      9374
      9323      9370      9373      9375      9323      9370      9373      9376
      9324      9323      9370      9371      9324      9323      9370      9372
      9324      9323      9370      9373      9325      9323      9370      9371
      9325      9323      9370      9372      9325      9323      9370      9373
      9326      9329      9332      9333      9326      9329      9332      9334
      9326      9329      9332      9335      9327      9326      9329      9330
      9327      9326      9329      9331      9327      9326      9329      9332
      9328      9326      9329      9330      9328      9326      9329      9331
      9328      9326      9329      9332      9329      9332      9335      9336
      9329      9332      9335      9337      9329      9332      9335      9338
      9330      9329      9332      9333      9330      9329      9332      9334
      9330      9329      9332      9335      9331      9329      9332      9333
      9331      9329      9332      9334      9331      9329      9332      9335
      9332      9335      9338      9339      9332      9335      9338      9340
      9332      9335      9338      9341      9333      9332      9335      9336
      9333      9332      9335      9337      9333      9332      9335      9338
      9334      9332      9335      9336      9334      9332      9335      9337
      9334      9332      9335      9338      9335      9338      9341      9342
      9335      9338      9341      9343      9335      9338      9341      9344
      9336      9335      9338      9339      9336      9335      9338      9340
      9336      9335      9338      9341      9337      9335      9338      9339
      9337      9335      9338      9340      9337      9335      9338      9341
      9338      9341      9344      9345      9338      9341      9344      9346
      9338      9341      9344      9349      9339      9338      9341      9342
      9339      9338      9341      9343      9339      9338      9341      9344
      9340      9338      9341      9342      9340      9338      9341      9343
      9340      9338      9341      9344      9341      9344      9346      9347
      9341      9344      9346      9348      9341      9344      9346      9349
      9341      9344      9349      9346      9341      9344      9349      9350
      9341      9344      9349      9351      9342      9341      9344      9345
      9342      9341      9344      9346      9342      9341      9344      9349
      9343      9341      9344      9345      9343      9341      9344      9346
      9343      9341      9344      9349      9344      9346      9349      9350
      9344      9346      9349      9351      9344      9349      9346      9347
      9344      9349      9346      9348      9344      9349      9351      9352
      9344      9349      9351      9353      9344      9349      9351      9354
      9345      9344      9346      9347      9345      9344      9346      9348
      9345      9344      9346      9349      9345      9344      9349      9346
      9345      9344      9349      9350      9345      9344      9349      9351
      9346      9344      9349      9350      9346      9344      9349      9351
      9346      9349      9351      9352      9346      9349      9351      9353
      9346      9349      9351      9354      9347      9346      9344      9349
      9347      9346      9349      9350      9347      9346      9349      9351
      9348      9346      9344      9349      9348      9346      9349      9350
      9348      9346      9349      9351      9349      9351      9354      9355
      9349      9351      9354      9356      9349      9351      9354      9357
      9350      9349      9351      9352      9350      9349      9351      9353
      9350      9349      9351      9354      9351      9354      9357      9358
      9351      9354      9357      9359      9351      9354      9357      9360
      9352      9351      9354      9355      9352      9351      9354      9356
      9352      9351      9354      9357      9353      9351      9354      9355
      9353      9351      9354      9356      9353      9351      9354      9357
      9354      9357      9360      9361      9354      9357      9360      9362
      9354      9357      9360      9363      9355      9354      9357      9358
      9355      9354      9357      9359      9355      9354      9357      9360
      9356      9354      9357      9358      9356      9354      9357      9359
      9356      9354      9357      9360      9357      9360      9363      9364
      9357      9360      9363      9365      9357      9360      9363      9366
      9358      9357      9360      9361      9358      9357      9360      9362
      9358      9357      9360      9363      9359      9357      9360      9361
      9359      9357      9360      9362      9359      9357      9360      9363
      9360      9363      9366      9367      9360      9363      9366      9368
      9360      9363      9366      9369      9361      9360      9363      9364
      9361      9360      9363      9365      9361      9360      9363      9366
      9362      9360      9363      9364      9362      9360      9363      9365
      9362      9360      9363      9366      9364      9363      9366      9367
      9364      9363      9366      9368      9364      9363      9366      9369
      9365      9363      9366      9367      9365      9363      9366      9368
      9365      9363      9366      9369      9370      9373      9376      9377
      9370      9373      9376      9378      9370      9373      9376      9379
      9371      9370      9373      9374      9371      9370      9373      9375
      9371      9370      9373      9376      9372      9370      9373      9374
      9372      9370      9373      9375      9372      9370      9373      9376
      9373      9376      9379      9380      9373      9376      9379      9381
      9373      9376      9379      9382      9374      9373      9376      9377
      9374      9373      9376      9378      9374      9373      9376      9379
      9375      9373      9376      9377      9375      9373      9376      9378
      9375      9373      9376      9379      9376      9379      9382      9383
      9376      9379      9382      9384      9376      9379      9382      9385
      9377      9376      9379      9380      9377      9376      9379      9381
      9377      9376      9379      9382      9378      9376      9379      9380
      9378      9376      9379      9381      9378      9376      9379      9382
      9379      9382      9385      9386      9379      9382      9385      9387
      9379      9382      9385      9388      9380      9379      9382      9383
      9380      9379      9382      9384      9380      9379      9382      9385
      9381      9379      9382      9383      9381      9379      9382      9384
      9381      9379      9382      9385      9382      9385      9388      9389
      9382      9385      9388      9390      9382      9385      9388      9391
      9383      9382      9385      9386      9383      9382      9385      9387
      9383      9382      9385      9388      9384      9382      9385      9386
      9384      9382      9385      9387      9384      9382      9385      9388
      9385      9388      9391      9392      9385      9388      9391      9393
      9385      9388      9391      9394      9386      9385      9388      9389
      9386      9385      9388      9390      9386      9385      9388      9391
      9387      9385      9388      9389      9387      9385      9388      9390
      9387      9385      9388      9391      9388      9391      9394      9395
      9388      9391      9394      9396      9388      9391      9394      9397
      9389      9388      9391      9392      9389      9388      9391      9393
      9389      9388      9391      9394      9390      9388      9391      9392
      9390      9388      9391      9393      9390      9388      9391      9394
      9391      9394      9397      9398      9391      9394      9397      9399
      9391      9394      9397      9400      9392      9391      9394      9395
      9392      9391      9394      9396      9392      9391      9394      9397
      9393      9391      9394      9395      9393      9391      9394      9396
      9393      9391      9394      9397      9394      9397      9400      9401
      9394      9397      9400      9402      9394      9397      9400      9403
      9395      9394      9397      9398      9395      9394      9397      9399
      9395      9394      9397      9400      9396      9394      9397      9398
      9396      9394      9397      9399      9396      9394      9397      9400
      9397      9400      9403      9404      9397      9400      9403      9405
      9397      9400      9403      9406      9398      9397      9400      9401
      9398      9397      9400      9402      9398      9397      9400      9403
      9399      9397      9400      9401      9399      9397      9400      9402
      9399      9397      9400      9403      9400      9403      9406      9407
      9400      9403      9406      9408      9400      9403      9406      9409
      9401      9400      9403      9404      9401      9400      9403      9405
      9401      9400      9403      9406      9402      9400      9403      9404
      9402      9400      9403      9405      9402      9400      9403      9406
      9403      9406      9409      9410      9403      9406      9409      9411
      9403      9406      9409      9412      9404      9403      9406      9407
      9404      9403      9406      9408      9404      9403      9406      9409
      9405      9403      9406      9407      9405      9403      9406      9408
      9405      9403      9406      9409      9407      9406      9409      9410
      9407      9406      9409      9411      9407      9406      9409      9412
      9408      9406      9409      9410      9408      9406      9409      9411
      9408      9406      9409      9412      9413      9417      9420      9421
      9413      9417      9420      9422      9413      9417      9420      9427
      9414      9413      9417      9418      9414      9413      9417      9419
      9414      9413      9417      9420      9415      9413      9417      9418
      9415      9413      9417      9419      9415      9413      9417      9420
      9416      9413      9417      9418      9416      9413      9417      9419
      9416      9413      9417      9420      9417      9420      9427      9423
      9418      9417      9420      9421      9418      9417      9420      9422
      9418      9417      9420      9427      9419      9417      9420      9421
      9419      9417      9420      9422      9419      9417      9420      9427
      9420      9427      9423      9424      9420      9427      9423      9425
      9420      9427      9423      9426      9421      9420      9427      9423
      9422      9420      9427      9423      9423      9426      9428      9429
      9423      9426      9428      9430      9423      9426      9428      9431
      9424      9423      9426      9428      9425      9423      9426      9428
      9426      9428      9431      9432      9426      9428      9431      9433
      9426      9428      9431      9439      9427      9423      9426      9428
      9428      9431      9433      9434      9428      9431      9439      9440
      9428      9431      9439      9441      9428      9431      9439      9442
      9429      9428      9431      9432      9429      9428      9431      9433
      9429      9428      9431      9439      9430      9428      9431      9432
      9430      9428      9431      9433      9430      9428      9431      9439
      9431      9433      9434      9435      9431      9433      9434      9436
      9431      9439      9442      9443      9432      9431      9433      9434
      9432      9431      9439      9440      9432      9431      9439      9441
      9432      9431      9439      9442      9433      9431      9439      9440
      9433      9431      9439      9441      9433      9431      9439      9442
      9433      9434      9436      9437      9433      9434      9436      9438
      9433      9434      9436      9448      9434      9433      9431      9439
      9434      9436      9448      9449      9434      9436      9448      9450
      9434      9436      9448      9451      9435      9434      9436      9437
      9435      9434      9436      9438      9435      9434      9436      9448
      9436      9448      9451      9452      9436      9448      9451      9453
      9436      9448      9451      9454      9437      9436      9448      9449
      9437      9436      9448      9450      9437      9436      9448      9451
      9438      9436      9448      9449      9438      9436      9448      9450
      9438      9436      9448      9451      9439      9442      9443      9444
      9439      9442      9443      9445      9440      9439      9442      9443
      9441      9439      9442      9443      9442      9443      9445      9446
      9442      9443      9445      9447      9442      9443      9445      9492
      9443      9445      9492      9493      9443      9445      9492      9494
      9443      9445      9492      9495      9444      9443      9445      9446
      9444      9443      9445      9447      9444      9443      9445      9492
      9445      9492      9495      9496      9445      9492      9495      9497
      9445      9492      9495      9498      9446      9445      9492      9493
      9446      9445      9492      9494      9446      9445      9492      9495
      9447      9445      9492      9493      9447      9445      9492      9494
      9447      9445      9492      9495      9448      9451      9454      9455
      9448      9451      9454      9456      9448      9451      9454      9457
      9449      9448      9451      9452      9449      9448      9451      9453
      9449      9448      9451      9454      9450      9448      9451      9452
      9450      9448      9451      9453      9450      9448      9451      9454
      9451      9454      9457      9458      9451      9454      9457      9459
      9451      9454      9457      9460      9452      9451      9454      9455
      9452      9451      9454      9456      9452      9451      9454      9457
      9453      9451      9454      9455      9453      9451      9454      9456
      9453      9451      9454      9457      9454      9457      9460      9461
      9454      9457      9460      9462      9454      9457      9460      9463
      9455      9454      9457      9458      9455      9454      9457      9459
      9455      9454      9457      9460      9456      9454      9457      9458
      9456      9454      9457      9459      9456      9454      9457      9460
      9457      9460      9463      9464      9457      9460      9463      9465
      9457      9460      9463      9466      9458      9457      9460      9461
      9458      9457      9460      9462      9458      9457      9460      9463
      9459      9457      9460      9461      9459      9457      9460      9462
      9459      9457      9460      9463      9460      9463      9466      9467
      9460      9463      9466      9468      9460      9463      9466      9471
      9461      9460      9463      9464      9461      9460      9463      9465
      9461      9460      9463      9466      9462      9460      9463      9464
      9462      9460      9463      9465      9462      9460      9463      9466
      9463      9466      9468      9469      9463      9466      9468      9470
      9463      9466      9468      9471      9463      9466      9471      9468
      9463      9466      9471      9472      9463      9466      9471      9473
      9464      9463      9466      9467      9464      9463      9466      9468
      9464      9463      9466      9471      9465      9463      9466      9467
      9465      9463      9466      9468      9465      9463      9466      9471
      9466      9468      9471      9472      9466      9468      9471      9473
      9466      9471      9468      9469      9466      9471      9468      9470
      9466      9471      9473      9474      9466      9471      9473      9475
      9466      9471      9473      9476      9467      9466      9468      9469
      9467      9466      9468      9470      9467      9466      9468      9471
      9467      9466      9471      9468      9467      9466      9471      9472
      9467      9466      9471      9473      9468      9466      9471      9472
      9468      9466      9471      9473      9468      9471      9473      9474
      9468      9471      9473      9475      9468      9471      9473      9476
      9469      9468      9466      9471      9469      9468      9471      9472
      9469      9468      9471      9473      9470      9468      9466      9471
      9470      9468      9471      9472      9470      9468      9471      9473
      9471      9473      9476      9477      9471      9473      9476      9478
      9471      9473      9476      9479      9472      9471      9473      9474
      9472      9471      9473      9475      9472      9471      9473      9476
      9473      9476      9479      9480      9473      9476      9479      9481
      9473      9476      9479      9482      9474      9473      9476      9477
      9474      9473      9476      9478      9474      9473      9476      9479
      9475      9473      9476      9477      9475      9473      9476      9478
      9475      9473      9476      9479      9476      9479      9482      9483
      9476      9479      9482      9484      9476      9479      9482      9485
      9477      9476      9479      9480      9477      9476      9479      9481
      9477      9476      9479      9482      9478      9476      9479      9480
      9478      9476      9479      9481      9478      9476      9479      9482
      9479      9482      9485      9486      9479      9482      9485      9487
      9479      9482      9485      9488      9480      9479      9482      9483
      9480      9479      9482      9484      9480      9479      9482      9485
      9481      9479      9482      9483      9481      9479      9482      9484
      9481      9479      9482      9485      9482      9485      9488      9489
      9482      9485      9488      9490      9482      9485      9488      9491
      9483      9482      9485      9486      9483      9482      9485      9487
      9483      9482      9485      9488      9484      9482      9485      9486
      9484      9482      9485      9487      9484      9482      9485      9488
      9486      9485      9488      9489      9486      9485      9488      9490
      9486      9485      9488      9491      9487      9485      9488      9489
      9487      9485      9488      9490      9487      9485      9488      9491
      9492      9495      9498      9499      9492      9495      9498      9500
      9492      9495      9498      9501      9493      9492      9495      9496
      9493      9492      9495      9497      9493      9492      9495      9498
      9494      9492      9495      9496      9494      9492      9495      9497
      9494      9492      9495      9498      9495      9498      9501      9502
      9495      9498      9501      9503      9495      9498      9501      9504
      9496      9495      9498      9499      9496      9495      9498      9500
      9496      9495      9498      9501      9497      9495      9498      9499
      9497      9495      9498      9500      9497      9495      9498      9501
      9498      9501      9504      9505      9498      9501      9504      9506
      9498      9501      9504      9507      9499      9498      9501      9502
      9499      9498      9501      9503      9499      9498      9501      9504
      9500      9498      9501      9502      9500      9498      9501      9503
      9500      9498      9501      9504      9501      9504      9507      9508
      9501      9504      9507      9509      9501      9504      9507      9510
      9502      9501      9504      9505      9502      9501      9504      9506
      9502      9501      9504      9507      9503      9501      9504      9505
      9503      9501      9504      9506      9503      9501      9504      9507
      9504      9507      9510      9511      9504      9507      9510      9512
      9504      9507      9510      9513      9505      9504      9507      9508
      9505      9504      9507      9509      9505      9504      9507      9510
      9506      9504      9507      9508      9506      9504      9507      9509
      9506      9504      9507      9510      9507      9510      9513      9514
      9507      9510      9513      9515      9507      9510      9513      9516
      9508      9507      9510      9511      9508      9507      9510      9512
      9508      9507      9510      9513      9509      9507      9510      9511
      9509      9507      9510      9512      9509      9507      9510      9513
      9510      9513      9516      9517      9510      9513      9516      9518
      9510      9513      9516      9519      9511      9510      9513      9514
      9511      9510      9513      9515      9511      9510      9513      9516
      9512      9510      9513      9514      9512      9510      9513      9515
      9512      9510      9513      9516      9513      9516      9519      9520
      9513      9516      9519      9521      9513      9516      9519      9522
      9514      9513      9516      9517      9514      9513      9516      9518
      9514      9513      9516      9519      9515      9513      9516      9517
      9515      9513      9516      9518      9515      9513      9516      9519
      9516      9519      9522      9523      9516      9519      9522      9524
      9516      9519      9522      9525      9517      9516      9519      9520
      9517      9516      9519      9521      9517      9516      9519      9522
      9518      9516      9519      9520      9518      9516      9519      9521
      9518      9516      9519      9522      9519      9522      9525      9526
      9519      9522      9525      9527      9519      9522      9525      9528
      9520      9519      9522      9523      9520      9519      9522      9524
      9520      9519      9522      9525      9521      9519      9522      9523
      9521      9519      9522      9524      9521      9519      9522      9525
      9522      9525      9528      9529      9522      9525      9528      9530
      9522      9525      9528      9531      9523      9522      9525      9526
      9523      9522      9525      9527      9523      9522      9525      9528
      9524      9522      9525      9526      9524      9522      9525      9527
      9524      9522      9525      9528      9526      9525      9528      9529
      9526      9525      9528      9530      9526      9525      9528      9531
      9527      9525      9528      9529      9527      9525      9528      9530
      9527      9525      9528      9531      9532      9537      9539      9540
      9532      9537      9541      9542      9532      9537      9541      9543
      9532      9537      9541      9548      9533      9532      9535      9536
      9533      9532      9537      9538      9533      9532      9537      9539
      9533      9532      9537      9541      9534      9532      9535      9536
      9534      9532      9537      9538      9534      9532      9537      9539
      9534      9532      9537      9541      9535      9532      9537      9538
      9535      9532      9537      9539      9535      9532      9537      9541
      9536      9535      9532      9537      9537      9541      9548      9544
      9538      9537      9539      9540      9538      9537      9541      9542
      9538      9537      9541      9543      9538      9537      9541      9548
      9539      9537      9541      9542      9539      9537      9541      9543
      9539      9537      9541      9548      9540      9539      9537      9541
      9541      9548      9544      9545      9541      9548      9544      9546
      9541      9548      9544      9547      9542      9541      9548      9544
      9543      9541      9548      9544      9544      9547      9549      9550
      9544      9547      9549      9551      9544      9547      9549      9552
      9545      9544      9547      9549      9546      9544      9547      9549
      9547      9549      9552      9553      9547      9549      9552      9554
      9547      9549      9552      9560      9548      9544      9547      9549
      9549      9552      9554      9555      9549      9552      9560      9561
      9549      9552      9560      9562      9549      9552      9560      9563
      9550      9549      9552      9553      9550      9549      9552      9554
      9550      9549      9552      9560      9551      9549      9552      9553
      9551      9549      9552      9554      9551      9549      9552      9560
      9552      9554      9555      9556      9552      9554      9555      9557
      9552      9560      9563      9564      9553      9552      9554      9555
      9553      9552      9560      9561      9553      9552      9560      9562
      9553      9552      9560      9563      9554      9552      9560      9561
      9554      9552      9560      9562      9554      9552      9560      9563
      9554      9555      9557      9558      9554      9555      9557      9559
      9554      9555      9557      9569      9555      9554      9552      9560
      9555      9557      9569      9570      9555      9557      9569      9571
      9555      9557      9569      9572      9556      9555      9557      9558
      9556      9555      9557      9559      9556      9555      9557      9569
      9557      9569      9572      9573      9557      9569      9572      9574
      9557      9569      9572      9575      9558      9557      9569      9570
      9558      9557      9569      9571      9558      9557      9569      9572
      9559      9557      9569      9570      9559      9557      9569      9571
      9559      9557      9569      9572      9560      9563      9564      9565
      9560      9563      9564      9566      9561      9560      9563      9564
      9562      9560      9563      9564      9563      9564      9566      9567
      9563      9564      9566      9568      9563      9564      9566      9610
      9564      9566      9610      9611      9564      9566      9610      9612
      9564      9566      9610      9613      9565      9564      9566      9567
      9565      9564      9566      9568      9565      9564      9566      9610
      9566      9610      9613      9614      9566      9610      9613      9615
      9566      9610      9613      9616      9567      9566      9610      9611
      9567      9566      9610      9612      9567      9566      9610      9613
      9568      9566      9610      9611      9568      9566      9610      9612
      9568      9566      9610      9613      9569      9572      9575      9576
      9569      9572      9575      9577      9569      9572      9575      9578
      9570      9569      9572      9573      9570      9569      9572      9574
      9570      9569      9572      9575      9571      9569      9572      9573
      9571      9569      9572      9574      9571      9569      9572      9575
      9572      9575      9578      9579      9572      9575      9578      9580
      9572      9575      9578      9581      9573      9572      9575      9576
      9573      9572      9575      9577      9573      9572      9575      9578
      9574      9572      9575      9576      9574      9572      9575      9577
      9574      9572      9575      9578      9575      9578      9581      9582
      9575      9578      9581      9583      9575      9578      9581      9584
      9576      9575      9578      9579      9576      9575      9578      9580
      9576      9575      9578      9581      9577      9575      9578      9579
      9577      9575      9578      9580      9577      9575      9578      9581
      9578      9581      9584      9585      9578      9581      9584      9586
      9578      9581      9584      9587      9579      9578      9581      9582
      9579      9578      9581      9583      9579      9578      9581      9584
      9580      9578      9581      9582      9580      9578      9581      9583
      9580      9578      9581      9584      9581      9584      9587      9588
      9581      9584      9587      9589      9582      9581      9584      9585
      9582      9581      9584      9586      9582      9581      9584      9587
      9583      9581      9584      9585      9583      9581      9584      9586
      9583      9581      9584      9587      9584      9587      9589      9590
      9584      9587      9589      9591      9585      9584      9587      9588
      9585      9584      9587      9589      9586      9584      9587      9588
      9586      9584      9587      9589      9587      9589      9591      9592
      9587      9589      9591      9593      9587      9589      9591      9594
      9588      9587      9589      9590      9588      9587      9589      9591
      9589      9591      9594      9595      9589      9591      9594      9596
      9589      9591      9594      9597      9590      9589      9591      9592
      9590      9589      9591      9593      9590      9589      9591      9594
      9591      9594      9597      9598      9591      9594      9597      9599
      9591      9594      9597      9600      9592      9591      9594      9595
      9592      9591      9594      9596      9592      9591      9594      9597
      9593      9591      9594      9595      9593      9591      9594      9596
      9593      9591      9594      9597      9594      9597      9600      9601
      9594      9597      9600      9602      9594      9597      9600      9603
      9595      9594      9597      9598      9595      9594      9597      9599
      9595      9594      9597      9600      9596      9594      9597      9598
      9596      9594      9597      9599      9596      9594      9597      9600
      9597      9600      9603      9604      9597      9600      9603      9605
      9597      9600      9603      9606      9598      9597      9600      9601
      9598      9597      9600      9602      9598      9597      9600      9603
      9599      9597      9600      9601      9599      9597      9600      9602
      9599      9597      9600      9603      9600      9603      9606      9607
      9600      9603      9606      9608      9600      9603      9606      9609
      9601      9600      9603      9604      9601      9600      9603      9605
      9601      9600      9603      9606      9602      9600      9603      9604
      9602      9600      9603      9605      9602      9600      9603      9606
      9604      9603      9606      9607      9604      9603      9606      9608
      9604      9603      9606      9609      9605      9603      9606      9607
      9605      9603      9606      9608      9605      9603      9606      9609
      9610      9613      9616      9617      9610      9613      9616      9618
      9610      9613      9616      9619      9611      9610      9613      9614
      9611      9610      9613      9615      9611      9610      9613      9616
      9612      9610      9613      9614      9612      9610      9613      9615
      9612      9610      9613      9616      9613      9616      9619      9620
      9613      9616      9619      9621      9613      9616      9619      9622
      9614      9613      9616      9617      9614      9613      9616      9618
      9614      9613      9616      9619      9615      9613      9616      9617
      9615      9613      9616      9618      9615      9613      9616      9619
      9616      9619      9622      9623      9616      9619      9622      9624
      9616      9619      9622      9625      9617      9616      9619      9620
      9617      9616      9619      9621      9617      9616      9619      9622
      9618      9616      9619      9620      9618      9616      9619      9621
      9618      9616      9619      9622      9619      9622      9625      9626
      9619      9622      9625      9627      9619      9622      9625      9628
      9620      9619      9622      9623      9620      9619      9622      9624
      9620      9619      9622      9625      9621      9619      9622      9623
      9621      9619      9622      9624      9621      9619      9622      9625
      9622      9625      9628      9629      9622      9625      9628      9630
      9622      9625      9628      9631      9623      9622      9625      9626
      9623      9622      9625      9627      9623      9622      9625      9628
      9624      9622      9625      9626      9624      9622      9625      9627
      9624      9622      9625      9628      9625      9628      9631      9632
      9625      9628      9631      9633      9625      9628      9631      9634
      9626      9625      9628      9629      9626      9625      9628      9630
      9626      9625      9628      9631      9627      9625      9628      9629
      9627      9625      9628      9630      9627      9625      9628      9631
      9628      9631      9634      9635      9628      9631      9634      9636
      9628      9631      9634      9637      9629      9628      9631      9632
      9629      9628      9631      9633      9629      9628      9631      9634
      9630      9628      9631      9632      9630      9628      9631      9633
      9630      9628      9631      9634      9631      9634      9637      9638
      9631      9634      9637      9639      9631      9634      9637      9640
      9632      9631      9634      9635      9632      9631      9634      9636
      9632      9631      9634      9637      9633      9631      9634      9635
      9633      9631      9634      9636      9633      9631      9634      9637
      9634      9637      9640      9641      9634      9637      9640      9642
      9634      9637      9640      9643      9635      9634      9637      9638
      9635      9634      9637      9639      9635      9634      9637      9640
      9636      9634      9637      9638      9636      9634      9637      9639
      9636      9634      9637      9640      9637      9640      9643      9644
      9637      9640      9643      9645      9637      9640      9643      9646
      9638      9637      9640      9641      9638      9637      9640      9642
      9638      9637      9640      9643      9639      9637      9640      9641
      9639      9637      9640      9642      9639      9637      9640      9643
      9640      9643      9646      9647      9640      9643      9646      9648
      9640      9643      9646      9649      9641      9640      9643      9644
      9641      9640      9643      9645      9641      9640      9643      9646
      9642      9640      9643      9644      9642      9640      9643      9645
      9642      9640      9643      9646      9643      9646      9649      9650
      9643      9646      9649      9651      9643      9646      9649      9652
      9644      9643      9646      9647      9644      9643      9646      9648
      9644      9643      9646      9649      9645      9643      9646      9647
      9645      9643      9646      9648      9645      9643      9646      9649
      9647      9646      9649      9650      9647      9646      9649      9651
      9647      9646      9649      9652      9648      9646      9649      9650
      9648      9646      9649      9651      9648      9646      9649      9652
      9653      9658      9660      9661      9653      9658      9662      9663
      9653      9658      9662      9664      9653      9658      9662      9669
      9654      9653      9656      9657      9654      9653      9658      9659
      9654      9653      9658      9660      9654      9653      9658      9662
      9655      9653      9656      9657      9655      9653      9658      9659
      9655      9653      9658      9660      9655      9653      9658      9662
      9656      9653      9658      9659      9656      9653      9658      9660
      9656      9653      9658      9662      9657      9656      9653      9658
      9658      9662      9669      9665      9659      9658      9660      9661
      9659      9658      9662      9663      9659      9658      9662      9664
      9659      9658      9662      9669      9660      9658      9662      9663
      9660      9658      9662      9664      9660      9658      9662      9669
      9661      9660      9658      9662      9662      9669      9665      9666
      9662      9669      9665      9667      9662      9669      9665      9668
      9663      9662      9669      9665      9664      9662      9669      9665
      9665      9668      9670      9671      9665      9668      9670      9672
      9665      9668      9670      9673      9666      9665      9668      9670
      9667      9665      9668      9670      9668      9670      9673      9674
      9668      9670      9673      9675      9668      9670      9673      9681
      9669      9665      9668      9670      9670      9673      9675      9676
      9670      9673      9681      9682      9670      9673      9681      9683
      9670      9673      9681      9684      9671      9670      9673      9674
      9671      9670      9673      9675      9671      9670      9673      9681
      9672      9670      9673      9674      9672      9670      9673      9675
      9672      9670      9673      9681      9673      9675      9676      9677
      9673      9675      9676      9678      9673      9681      9684      9685
      9674      9673      9675      9676      9674      9673      9681      9682
      9674      9673      9681      9683      9674      9673      9681      9684
      9675      9673      9681      9682      9675      9673      9681      9683
      9675      9673      9681      9684      9675      9676      9678      9679
      9675      9676      9678      9680      9675      9676      9678      9690
      9676      9675      9673      9681      9676      9678      9690      9691
      9676      9678      9690      9692      9676      9678      9690      9693
      9677      9676      9678      9679      9677      9676      9678      9680
      9677      9676      9678      9690      9678      9690      9693      9694
      9678      9690      9693      9695      9678      9690      9693      9696
      9679      9678      9690      9691      9679      9678      9690      9692
      9679      9678      9690      9693      9680      9678      9690      9691
      9680      9678      9690      9692      9680      9678      9690      9693
      9681      9684      9685      9686      9681      9684      9685      9687
      9682      9681      9684      9685      9683      9681      9684      9685
      9684      9685      9687      9688      9684      9685      9687      9689
      9684      9685      9687      9734      9685      9687      9734      9735
      9685      9687      9734      9736      9685      9687      9734      9737
      9686      9685      9687      9688      9686      9685      9687      9689
      9686      9685      9687      9734      9687      9734      9737      9738
      9687      9734      9737      9739      9687      9734      9737      9740
      9688      9687      9734      9735      9688      9687      9734      9736
      9688      9687      9734      9737      9689      9687      9734      9735
      9689      9687      9734      9736      9689      9687      9734      9737
      9690      9693      9696      9697      9690      9693      9696      9698
      9690      9693      9696      9699      9691      9690      9693      9694
      9691      9690      9693      9695      9691      9690      9693      9696
      9692      9690      9693      9694      9692      9690      9693      9695
      9692      9690      9693      9696      9693      9696      9699      9700
      9693      9696      9699      9701      9693      9696      9699      9702
      9694      9693      9696      9697      9694      9693      9696      9698
      9694      9693      9696      9699      9695      9693      9696      9697
      9695      9693      9696      9698      9695      9693      9696      9699
      9696      9699      9702      9703      9696      9699      9702      9704
      9696      9699      9702      9705      9697      9696      9699      9700
      9697      9696      9699      9701      9697      9696      9699      9702
      9698      9696      9699      9700      9698      9696      9699      9701
      9698      9696      9699      9702      9699      9702      9705      9706
      9699      9702      9705      9707      9699      9702      9705      9708
      9700      9699      9702      9703      9700      9699      9702      9704
      9700      9699      9702      9705      9701      9699      9702      9703
      9701      9699      9702      9704      9701      9699      9702      9705
      9702      9705      9708      9709      9702      9705      9708      9710
      9702      9705      9708      9713      9703      9702      9705      9706
      9703      9702      9705      9707      9703      9702      9705      9708
      9704      9702      9705      9706      9704      9702      9705      9707
      9704      9702      9705      9708      9705      9708      9710      9711
      9705      9708      9710      9712      9705      9708      9710      9713
      9705      9708      9713      9710      9705      9708      9713      9714
      9705      9708      9713      9715      9706      9705      9708      9709
      9706      9705      9708      9710      9706      9705      9708      9713
      9707      9705      9708      9709      9707      9705      9708      9710
      9707      9705      9708      9713      9708      9710      9713      9714
      9708      9710      9713      9715      9708      9713      9710      9711
      9708      9713      9710      9712      9708      9713      9715      9716
      9708      9713      9715      9717      9708      9713      9715      9718
      9709      9708      9710      9711      9709      9708      9710      9712
      9709      9708      9710      9713      9709      9708      9713      9710
      9709      9708      9713      9714      9709      9708      9713      9715
      9710      9708      9713      9714      9710      9708      9713      9715
      9710      9713      9715      9716      9710      9713      9715      9717
      9710      9713      9715      9718      9711      9710      9708      9713
      9711      9710      9713      9714      9711      9710      9713      9715
      9712      9710      9708      9713      9712      9710      9713      9714
      9712      9710      9713      9715      9713      9715      9718      9719
      9713      9715      9718      9720      9713      9715      9718      9721
      9714      9713      9715      9716      9714      9713      9715      9717
      9714      9713      9715      9718      9715      9718      9721      9722
      9715      9718      9721      9723      9715      9718      9721      9724
      9716      9715      9718      9719      9716      9715      9718      9720
      9716      9715      9718      9721      9717      9715      9718      9719
      9717      9715      9718      9720      9717      9715      9718      9721
      9718      9721      9724      9725      9718      9721      9724      9726
      9718      9721      9724      9727      9719      9718      9721      9722
      9719      9718      9721      9723      9719      9718      9721      9724
      9720      9718      9721      9722      9720      9718      9721      9723
      9720      9718      9721      9724      9721      9724      9727      9728
      9721      9724      9727      9729      9721      9724      9727      9730
      9722      9721      9724      9725      9722      9721      9724      9726
      9722      9721      9724      9727      9723      9721      9724      9725
      9723      9721      9724      9726      9723      9721      9724      9727
      9724      9727      9730      9731      9724      9727      9730      9732
      9724      9727      9730      9733      9725      9724      9727      9728
      9725      9724      9727      9729      9725      9724      9727      9730
      9726      9724      9727      9728      9726      9724      9727      9729
      9726      9724      9727      9730      9728      9727      9730      9731
      9728      9727      9730      9732      9728      9727      9730      9733
      9729      9727      9730      9731      9729      9727      9730      9732
      9729      9727      9730      9733      9734      9737      9740      9741
      9734      9737      9740      9742      9734      9737      9740      9743
      9735      9734      9737      9738      9735      9734      9737      9739
      9735      9734      9737      9740      9736      9734      9737      9738
      9736      9734      9737      9739      9736      9734      9737      9740
      9737      9740      9743      9744      9737      9740      9743      9745
      9737      9740      9743      9746      9738      9737      9740      9741
      9738      9737      9740      9742      9738      9737      9740      9743
      9739      9737      9740      9741      9739      9737      9740      9742
      9739      9737      9740      9743      9740      9743      9746      9747
      9740      9743      9746      9748      9740      9743      9746      9749
      9741      9740      9743      9744      9741      9740      9743      9745
      9741      9740      9743      9746      9742      9740      9743      9744
      9742      9740      9743      9745      9742      9740      9743      9746
      9743      9746      9749      9750      9743      9746      9749      9751
      9743      9746      9749      9752      9744      9743      9746      9747
      9744      9743      9746      9748      9744      9743      9746      9749
      9745      9743      9746      9747      9745      9743      9746      9748
      9745      9743      9746      9749      9746      9749      9752      9753
      9746      9749      9752      9754      9746      9749      9752      9755
      9747      9746      9749      9750      9747      9746      9749      9751
      9747      9746      9749      9752      9748      9746      9749      9750
      9748      9746      9749      9751      9748      9746      9749      9752
      9749      9752      9755      9756      9749      9752      9755      9757
      9749      9752      9755      9758      9750      9749      9752      9753
      9750      9749      9752      9754      9750      9749      9752      9755
      9751      9749      9752      9753      9751      9749      9752      9754
      9751      9749      9752      9755      9752      9755      9758      9759
      9752      9755      9758      9760      9752      9755      9758      9761
      9753      9752      9755      9756      9753      9752      9755      9757
      9753      9752      9755      9758      9754      9752      9755      9756
      9754      9752      9755      9757      9754      9752      9755      9758
      9755      9758      9761      9762      9755      9758      9761      9763
      9755      9758      9761      9764      9756      9755      9758      9759
      9756      9755      9758      9760      9756      9755      9758      9761
      9757      9755      9758      9759      9757      9755      9758      9760
      9757      9755      9758      9761      9758      9761      9764      9765
      9758      9761      9764      9766      9758      9761      9764      9767
      9759      9758      9761      9762      9759      9758      9761      9763
      9759      9758      9761      9764      9760      9758      9761      9762
      9760      9758      9761      9763      9760      9758      9761      9764
      9761      9764      9767      9768      9761      9764      9767      9769
      9761      9764      9767      9770      9762      9761      9764      9765
      9762      9761      9764      9766      9762      9761      9764      9767
      9763      9761      9764      9765      9763      9761      9764      9766
      9763      9761      9764      9767      9764      9767      9770      9771
      9764      9767      9770      9772      9764      9767      9770      9773
      9765      9764      9767      9768      9765      9764      9767      9769
      9765      9764      9767      9770      9766      9764      9767      9768
      9766      9764      9767      9769      9766      9764      9767      9770
      9767      9770      9773      9774      9767      9770      9773      9775
      9767      9770      9773      9776      9768      9767      9770      9771
      9768      9767      9770      9772      9768      9767      9770      9773
      9769      9767      9770      9771      9769      9767      9770      9772
      9769      9767      9770      9773      9771      9770      9773      9774
      9771      9770      9773      9775      9771      9770      9773      9776
      9772      9770      9773      9774      9772      9770      9773      9775
      9772      9770      9773      9776      9777      9782      9784      9785
      9777      9782      9786      9787      9777      9782      9786      9788
      9777      9782      9786      9793      9778      9777      9780      9781
      9778      9777      9782      9783      9778      9777      9782      9784
      9778      9777      9782      9786      9779      9777      9780      9781
      9779      9777      9782      9783      9779      9777      9782      9784
      9779      9777      9782      9786      9780      9777      9782      9783
      9780      9777      9782      9784      9780      9777      9782      9786
      9781      9780      9777      9782      9782      9786      9793      9789
      9783      9782      9784      9785      9783      9782      9786      9787
      9783      9782      9786      9788      9783      9782      9786      9793
      9784      9782      9786      9787      9784      9782      9786      9788
      9784      9782      9786      9793      9785      9784      9782      9786
      9786      9793      9789      9790      9786      9793      9789      9791
      9786      9793      9789      9792      9787      9786      9793      9789
      9788      9786      9793      9789      9789      9792      9794      9795
      9789      9792      9794      9796      9789      9792      9794      9797
      9790      9789      9792      9794      9791      9789      9792      9794
      9792      9794      9797      9798      9792      9794      9797      9799
      9792      9794      9797      9805      9793      9789      9792      9794
      9794      9797      9799      9800      9794      9797      9805      9806
      9794      9797      9805      9807      9794      9797      9805      9808
      9795      9794      9797      9798      9795      9794      9797      9799
      9795      9794      9797      9805      9796      9794      9797      9798
      9796      9794      9797      9799      9796      9794      9797      9805
      9797      9799      9800      9801      9797      9799      9800      9802
      9797      9805      9808      9809      9798      9797      9799      9800
      9798      9797      9805      9806      9798      9797      9805      9807
      9798      9797      9805      9808      9799      9797      9805      9806
      9799      9797      9805      9807      9799      9797      9805      9808
      9799      9800      9802      9803      9799      9800      9802      9804
      9799      9800      9802      9814      9800      9799      9797      9805
      9800      9802      9814      9815      9800      9802      9814      9816
      9800      9802      9814      9817      9801      9800      9802      9803
      9801      9800      9802      9804      9801      9800      9802      9814
      9802      9814      9817      9818      9802      9814      9817      9819
      9802      9814      9817      9820      9803      9802      9814      9815
      9803      9802      9814      9816      9803      9802      9814      9817
      9804      9802      9814      9815      9804      9802      9814      9816
      9804      9802      9814      9817      9805      9808      9809      9810
      9805      9808      9809      9811      9806      9805      9808      9809
      9807      9805      9808      9809      9808      9809      9811      9812
      9808      9809      9811      9813      9808      9809      9811      9858
      9809      9811      9858      9859      9809      9811      9858      9860
      9809      9811      9858      9861      9810      9809      9811      9812
      9810      9809      9811      9813      9810      9809      9811      9858
      9811      9858      9861      9862      9811      9858      9861      9863
      9811      9858      9861      9864      9812      9811      9858      9859
      9812      9811      9858      9860      9812      9811      9858      9861
      9813      9811      9858      9859      9813      9811      9858      9860
      9813      9811      9858      9861      9814      9817      9820      9821
      9814      9817      9820      9822      9814      9817      9820      9823
      9815      9814      9817      9818      9815      9814      9817      9819
      9815      9814      9817      9820      9816      9814      9817      9818
      9816      9814      9817      9819      9816      9814      9817      9820
      9817      9820      9823      9824      9817      9820      9823      9825
      9817      9820      9823      9826      9818      9817      9820      9821
      9818      9817      9820      9822      9818      9817      9820      9823
      9819      9817      9820      9821      9819      9817      9820      9822
      9819      9817      9820      9823      9820      9823      9826      9827
      9820      9823      9826      9828      9820      9823      9826      9829
      9821      9820      9823      9824      9821      9820      9823      9825
      9821      9820      9823      9826      9822      9820      9823      9824
      9822      9820      9823      9825      9822      9820      9823      9826
      9823      9826      9829      9830      9823      9826      9829      9831
      9823      9826      9829      9832      9824      9823      9826      9827
      9824      9823      9826      9828      9824      9823      9826      9829
      9825      9823      9826      9827      9825      9823      9826      9828
      9825      9823      9826      9829      9826      9829      9832      9833
      9826      9829      9832      9834      9826      9829      9832      9837
      9827      9826      9829      9830      9827      9826      9829      9831
      9827      9826      9829      9832      9828      9826      9829      9830
      9828      9826      9829      9831      9828      9826      9829      9832
      9829      9832      9834      9835      9829      9832      9834      9836
      9829      9832      9834      9837      9829      9832      9837      9834
      9829      9832      9837      9838      9829      9832      9837      9839
      9830      9829      9832      9833      9830      9829      9832      9834
      9830      9829      9832      9837      9831      9829      9832      9833
      9831      9829      9832      9834      9831      9829      9832      9837
      9832      9834      9837      9838      9832      9834      9837      9839
      9832      9837      9834      9835      9832      9837      9834      9836
      9832      9837      9839      9840      9832      9837      9839      9841
      9832      9837      9839      9842      9833      9832      9834      9835
      9833      9832      9834      9836      9833      9832      9834      9837
      9833      9832      9837      9834      9833      9832      9837      9838
      9833      9832      9837      9839      9834      9832      9837      9838
      9834      9832      9837      9839      9834      9837      9839      9840
      9834      9837      9839      9841      9834      9837      9839      9842
      9835      9834      9832      9837      9835      9834      9837      9838
      9835      9834      9837      9839      9836      9834      9832      9837
      9836      9834      9837      9838      9836      9834      9837      9839
      9837      9839      9842      9843      9837      9839      9842      9844
      9837      9839      9842      9845      9838      9837      9839      9840
      9838      9837      9839      9841      9838      9837      9839      9842
      9839      9842      9845      9846      9839      9842      9845      9847
      9839      9842      9845      9848      9840      9839      9842      9843
      9840      9839      9842      9844      9840      9839      9842      9845
      9841      9839      9842      9843      9841      9839      9842      9844
      9841      9839      9842      9845      9842      9845      9848      9849
      9842      9845      9848      9850      9842      9845      9848      9851
      9843      9842      9845      9846      9843      9842      9845      9847
      9843      9842      9845      9848      9844      9842      9845      9846
      9844      9842      9845      9847      9844      9842      9845      9848
      9845      9848      9851      9852      9845      9848      9851      9853
      9845      9848      9851      9854      9846      9845      9848      9849
      9846      9845      9848      9850      9846      9845      9848      9851
      9847      9845      9848      9849      9847      9845      9848      9850
      9847      9845      9848      9851      9848      9851      9854      9855
      9848      9851      9854      9856      9848      9851      9854      9857
      9849      9848      9851      9852      9849      9848      9851      9853
      9849      9848      9851      9854      9850      9848      9851      9852
      9850      9848      9851      9853      9850      9848      9851      9854
      9852      9851      9854      9855      9852      9851      9854      9856
      9852      9851      9854      9857      9853      9851      9854      9855
      9853      9851      9854      9856      9853      9851      9854      9857
      9858      9861      9864      9865      9858      9861      9864      9866
      9858      9861      9864      9867      9859      9858      9861      9862
      9859      9858      9861      9863      9859      9858      9861      9864
      9860      9858      9861      9862      9860      9858      9861      9863
      9860      9858      9861      9864      9861      9864      9867      9868
      9861      9864      9867      9869      9861      9864      9867      9870
      9862      9861      9864      9865      9862      9861      9864      9866
      9862      9861      9864      9867      9863      9861      9864      9865
      9863      9861      9864      9866      9863      9861      9864      9867
      9864      9867      9870      9871      9864      9867      9870      9872
      9864      9867      9870      9873      9865      9864      9867      9868
      9865      9864      9867      9869      9865      9864      9867      9870
      9866      9864      9867      9868      9866      9864      9867      9869
      9866      9864      9867      9870      9867      9870      9873      9874
      9867      9870      9873      9875      9867      9870      9873      9876
      9868      9867      9870      9871      9868      9867      9870      9872
      9868      9867      9870      9873      9869      9867      9870      9871
      9869      9867      9870      9872      9869      9867      9870      9873
      9870      9873      9876      9877      9870      9873      9876      9878
      9870      9873      9876      9879      9871      9870      9873      9874
      9871      9870      9873      9875      9871      9870      9873      9876
      9872      9870      9873      9874      9872      9870      9873      9875
      9872      9870      9873      9876      9873      9876      9879      9880
      9873      9876      9879      9881      9873      9876      9879      9882
      9874      9873      9876      9877      9874      9873      9876      9878
      9874      9873      9876      9879      9875      9873      9876      9877
      9875      9873      9876      9878      9875      9873      9876      9879
      9876      9879      9882      9883      9876      9879      9882      9884
      9876      9879      9882      9885      9877      9876      9879      9880
      9877      9876      9879      9881      9877      9876      9879      9882
      9878      9876      9879      9880      9878      9876      9879      9881
      9878      9876      9879      9882      9879      9882      9885      9886
      9879      9882      9885      9887      9879      9882      9885      9888
      9880      9879      9882      9883      9880      9879      9882      9884
      9880      9879      9882      9885      9881      9879      9882      9883
      9881      9879      9882      9884      9881      9879      9882      9885
      9882      9885      9888      9889      9882      9885      9888      9890
      9882      9885      9888      9891      9883      9882      9885      9886
      9883      9882      9885      9887      9883      9882      9885      9888
      9884      9882      9885      9886      9884      9882      9885      9887
      9884      9882      9885      9888      9885      9888      9891      9892
      9885      9888      9891      9893      9885      9888      9891      9894
      9886      9885      9888      9889      9886      9885      9888      9890
      9886      9885      9888      9891      9887      9885      9888      9889
      9887      9885      9888      9890      9887      9885      9888      9891
      9888      9891      9894      9895      9888      9891      9894      9896
      9888      9891      9894      9897      9889      9888      9891      9892
      9889      9888      9891      9893      9889      9888      9891      9894
      9890      9888      9891      9892      9890      9888      9891      9893
      9890      9888      9891      9894      9891      9894      9897      9898
      9891      9894      9897      9899      9891      9894      9897      9900
      9892      9891      9894      9895      9892      9891      9894      9896
      9892      9891      9894      9897      9893      9891      9894      9895
      9893      9891      9894      9896      9893      9891      9894      9897
      9895      9894      9897      9898      9895      9894      9897      9899
      9895      9894      9897      9900      9896      9894      9897      9898
      9896      9894      9897      9899      9896      9894      9897      9900
      9901      9905      9908      9909      9901      9905      9908      9910
      9901      9905      9908      9915      9902      9901      9905      9906
      9902      9901      9905      9907      9902      9901      9905      9908
      9903      9901      9905      9906      9903      9901      9905      9907
      9903      9901      9905      9908      9904      9901      9905      9906
      9904      9901      9905      9907      9904      9901      9905      9908
      9905      9908      9915      9911      9906      9905      9908      9909
      9906      9905      9908      9910      9906      9905      9908      9915
      9907      9905      9908      9909      9907      9905      9908      9910
      9907      9905      9908      9915      9908      9915      9911      9912
      9908      9915      9911      9913      9908      9915      9911      9914
      9909      9908      9915      9911      9910      9908      9915      9911
      9911      9914      9916      9917      9911      9914      9916      9918
      9911      9914      9916      9919      9912      9911      9914      9916
      9913      9911      9914      9916      9914      9916      9919      9920
      9914      9916      9919      9921      9914      9916      9919      9927
      9915      9911      9914      9916      9916      9919      9921      9922
      9916      9919      9927      9928      9916      9919      9927      9929
      9916      9919      9927      9930      9917      9916      9919      9920
      9917      9916      9919      9921      9917      9916      9919      9927
      9918      9916      9919      9920      9918      9916      9919      9921
      9918      9916      9919      9927      9919      9921      9922      9923
      9919      9921      9922      9924      9919      9927      9930      9931
      9920      9919      9921      9922      9920      9919      9927      9928
      9920      9919      9927      9929      9920      9919      9927      9930
      9921      9919      9927      9928      9921      9919      9927      9929
      9921      9919      9927      9930      9921      9922      9924      9925
      9921      9922      9924      9926      9921      9922      9924      9936
      9922      9921      9919      9927      9922      9924      9936      9937
      9922      9924      9936      9938      9922      9924      9936      9939
      9923      9922      9924      9925      9923      9922      9924      9926
      9923      9922      9924      9936      9924      9936      9939      9940
      9924      9936      9939      9941      9924      9936      9939      9942
      9925      9924      9936      9937      9925      9924      9936      9938
      9925      9924      9936      9939      9926      9924      9936      9937
      9926      9924      9936      9938      9926      9924      9936      9939
      9927      9930      9931      9932      9927      9930      9931      9933
      9928      9927      9930      9931      9929      9927      9930      9931
      9930      9931      9933      9934      9930      9931      9933      9935
      9930      9931      9933      9980      9931      9933      9980      9981
      9931      9933      9980      9982      9931      9933      9980      9983
      9932      9931      9933      9934      9932      9931      9933      9935
      9932      9931      9933      9980      9933      9980      9983      9984
      9933      9980      9983      9985      9933      9980      9983      9986
      9934      9933      9980      9981      9934      9933      9980      9982
      9934      9933      9980      9983      9935      9933      9980      9981
      9935      9933      9980      9982      9935      9933      9980      9983
      9936      9939      9942      9943      9936      9939      9942      9944
      9936      9939      9942      9945      9937      9936      9939      9940
      9937      9936      9939      9941      9937      9936      9939      9942
      9938      9936      9939      9940      9938      9936      9939      9941
      9938      9936      9939      9942      9939      9942      9945      9946
      9939      9942      9945      9947      9939      9942      9945      9948
      9940      9939      9942      9943      9940      9939      9942      9944
      9940      9939      9942      9945      9941      9939      9942      9943
      9941      9939      9942      9944      9941      9939      9942      9945
      9942      9945      9948      9949      9942      9945      9948      9950
      9942      9945      9948      9951      9943      9942      9945      9946
      9943      9942      9945      9947      9943      9942      9945      9948
      9944      9942      9945      9946      9944      9942      9945      9947
      9944      9942      9945      9948      9945      9948      9951      9952
      9945      9948      9951      9953      9945      9948      9951      9954
      9946      9945      9948      9949      9946      9945      9948      9950
      9946      9945      9948      9951      9947      9945      9948      9949
      9947      9945      9948      9950      9947      9945      9948      9951
      9948      9951      9954      9955      9948      9951      9954      9956
      9948      9951      9954      9959      9949      9948      9951      9952
      9949      9948      9951      9953      9949      9948      9951      9954
      9950      9948      9951      9952      9950      9948      9951      9953
      9950      9948      9951      9954      9951      9954      9956      9957
      9951      9954      9956      9958      9951      9954      9956      9959
      9951      9954      9959      9956      9951      9954      9959      9960
      9951      9954      9959      9961      9952      9951      9954      9955
      9952      9951      9954      9956      9952      9951      9954      9959
      9953      9951      9954      9955      9953      9951      9954      9956
      9953      9951      9954      9959      9954      9956      9959      9960
      9954      9956      9959      9961      9954      9959      9956      9957
      9954      9959      9956      9958      9954      9959      9961      9962
      9954      9959      9961      9963      9954      9959      9961      9964
      9955      9954      9956      9957      9955      9954      9956      9958
      9955      9954      9956      9959      9955      9954      9959      9956
      9955      9954      9959      9960      9955      9954      9959      9961
      9956      9954      9959      9960      9956      9954      9959      9961
      9956      9959      9961      9962      9956      9959      9961      9963
      9956      9959      9961      9964      9957      9956      9954      9959
      9957      9956      9959      9960      9957      9956      9959      9961
      9958      9956      9954      9959      9958      9956      9959      9960
      9958      9956      9959      9961      9959      9961      9964      9965
      9959      9961      9964      9966      9959      9961      9964      9967
      9960      9959      9961      9962      9960      9959      9961      9963
      9960      9959      9961      9964      9961      9964      9967      9968
      9961      9964      9967      9969      9961      9964      9967      9970
      9962      9961      9964      9965      9962      9961      9964      9966
      9962      9961      9964      9967      9963      9961      9964      9965
      9963      9961      9964      9966      9963      9961      9964      9967
      9964      9967      9970      9971      9964      9967      9970      9972
      9964      9967      9970      9973      9965      9964      9967      9968
      9965      9964      9967      9969      9965      9964      9967      9970
      9966      9964      9967      9968      9966      9964      9967      9969
      9966      9964      9967      9970      9967      9970      9973      9974
      9967      9970      9973      9975      9967      9970      9973      9976
      9968      9967      9970      9971      9968      9967      9970      9972
      9968      9967      9970      9973      9969      9967      9970      9971
      9969      9967      9970      9972      9969      9967      9970      9973
      9970      9973      9976      9977      9970      9973      9976      9978
      9970      9973      9976      9979      9971      9970      9973      9974
      9971      9970      9973      9975      9971      9970      9973      9976
      9972      9970      9973      9974      9972      9970      9973      9975
      9972      9970      9973      9976      9974      9973      9976      9977
      9974      9973      9976      9978      9974      9973      9976      9979
      9975      9973      9976      9977      9975      9973      9976      9978
      9975      9973      9976      9979      9980      9983      9986      9987
      9980      9983      9986      9988      9980      9983      9986      9989
      9981      9980      9983      9984      9981      9980      9983      9985
      9981      9980      9983      9986      9982      9980      9983      9984
      9982      9980      9983      9985      9982      9980      9983      9986
      9983      9986      9989      9990      9983      9986      9989      9991
      9983      9986      9989      9992      9984      9983      9986      9987
      9984      9983      9986      9988      9984      9983      9986      9989
      9985      9983      9986      9987      9985      9983      9986      9988
      9985      9983      9986      9989      9986      9989      9992      9993
      9986      9989      9992      9994      9986      9989      9992      9995
      9987      9986      9989      9990      9987      9986      9989      9991
      9987      9986      9989      9992      9988      9986      9989      9990
      9988      9986      9989      9991      9988      9986      9989      9992
      9989      9992      9995      9996      9989      9992      9995      9997
      9989      9992      9995      9998      9990      9989      9992      9993
      9990      9989      9992      9994      9990      9989      9992      9995
      9991      9989      9992      9993      9991      9989      9992      9994
      9991      9989      9992      9995      9992      9995      9998      9999
      9992      9995      9998     10000      9992      9995      9998     10001
      9993      9992      9995      9996      9993      9992      9995      9997
      9993      9992      9995      9998      9994      9992      9995      9996
      9994      9992      9995      9997      9994      9992      9995      9998
      9995      9998     10001     10002      9995      9998     10001     10003
      9995      9998     10001     10004      9996      9995      9998      9999
      9996      9995      9998     10000      9996      9995      9998     10001
      9997      9995      9998      9999      9997      9995      9998     10000
      9997      9995      9998     10001      9998     10001     10004     10005
      9998     10001     10004     10006      9998     10001     10004     10007
      9999      9998     10001     10002      9999      9998     10001     10003
      9999      9998     10001     10004     10000      9998     10001     10002
     10000      9998     10001     10003     10000      9998     10001     10004
     10001     10004     10007     10008     10001     10004     10007     10009
     10001     10004     10007     10010     10002     10001     10004     10005
     10002     10001     10004     10006     10002     10001     10004     10007
     10003     10001     10004     10005     10003     10001     10004     10006
     10003     10001     10004     10007     10004     10007     10010     10011
     10004     10007     10010     10012     10004     10007     10010     10013
     10005     10004     10007     10008     10005     10004     10007     10009
     10005     10004     10007     10010     10006     10004     10007     10008
     10006     10004     10007     10009     10006     10004     10007     10010
     10007     10010     10013     10014     10007     10010     10013     10015
     10007     10010     10013     10016     10008     10007     10010     10011
     10008     10007     10010     10012     10008     10007     10010     10013
     10009     10007     10010     10011     10009     10007     10010     10012
     10009     10007     10010     10013     10010     10013     10016     10017
     10010     10013     10016     10018     10010     10013     10016     10019
     10011     10010     10013     10014     10011     10010     10013     10015
     10011     10010     10013     10016     10012     10010     10013     10014
     10012     10010     10013     10015     10012     10010     10013     10016
     10013     10016     10019     10020     10013     10016     10019     10021
     10013     10016     10019     10022     10014     10013     10016     10017
     10014     10013     10016     10018     10014     10013     10016     10019
     10015     10013     10016     10017     10015     10013     10016     10018
     10015     10013     10016     10019     10017     10016     10019     10020
     10017     10016     10019     10021     10017     10016     10019     10022
     10018     10016     10019     10020     10018     10016     10019     10021
     10018     10016     10019     10022     10023     10027     10030     10031
     10023     10027     10030     10032     10023     10027     10030     10037
     10024     10023     10027     10028     10024     10023     10027     10029
     10024     10023     10027     10030     10025     10023     10027     10028
     10025     10023     10027     10029     10025     10023     10027     10030
     10026     10023     10027     10028     10026     10023     10027     10029
     10026     10023     10027     10030     10027     10030     10037     10033
     10028     10027     10030     10031     10028     10027     10030     10032
     10028     10027     10030     10037     10029     10027     10030     10031
     10029     10027     10030     10032     10029     10027     10030     10037
     10030     10037     10033     10034     10030     10037     10033     10035
     10030     10037     10033     10036     10031     10030     10037     10033
     10032     10030     10037     10033     10033     10036     10038     10039
     10033     10036     10038     10040     10033     10036     10038     10041
     10034     10033     10036     10038     10035     10033     10036     10038
     10036     10038     10041     10042     10036     10038     10041     10043
     10036     10038     10041     10049     10037     10033     10036     10038
     10038     10041     10043     10044     10038     10041     10049     10050
     10038     10041     10049     10051     10038     10041     10049     10052
     10039     10038     10041     10042     10039     10038     10041     10043
     10039     10038     10041     10049     10040     10038     10041     10042
     10040     10038     10041     10043     10040     10038     10041     10049
     10041     10043     10044     10045     10041     10043     10044     10046
     10041     10049     10052     10053     10042     10041     10043     10044
     10042     10041     10049     10050     10042     10041     10049     10051
     10042     10041     10049     10052     10043     10041     10049     10050
     10043     10041     10049     10051     10043     10041     10049     10052
     10043     10044     10046     10047     10043     10044     10046     10048
     10043     10044     10046     10058     10044     10043     10041     10049
     10044     10046     10058     10059     10044     10046     10058     10060
     10044     10046     10058     10061     10045     10044     10046     10047
     10045     10044     10046     10048     10045     10044     10046     10058
     10046     10058     10061     10062     10046     10058     10061     10063
     10046     10058     10061     10064     10047     10046     10058     10059
     10047     10046     10058     10060     10047     10046     10058     10061
     10048     10046     10058     10059     10048     10046     10058     10060
     10048     10046     10058     10061     10049     10052     10053     10054
     10049     10052     10053     10055     10050     10049     10052     10053
     10051     10049     10052     10053     10052     10053     10055     10056
     10052     10053     10055     10057     10052     10053     10055     10105
     10053     10055     10105     10106     10053     10055     10105     10107
     10053     10055     10105     10108     10054     10053     10055     10056
     10054     10053     10055     10057     10054     10053     10055     10105
     10055     10105     10108     10109     10055     10105     10108     10110
     10055     10105     10108     10111     10056     10055     10105     10106
     10056     10055     10105     10107     10056     10055     10105     10108
     10057     10055     10105     10106     10057     10055     10105     10107
     10057     10055     10105     10108     10058     10061     10064     10065
     10058     10061     10064     10066     10058     10061     10064     10067
     10059     10058     10061     10062     10059     10058     10061     10063
     10059     10058     10061     10064     10060     10058     10061     10062
     10060     10058     10061     10063     10060     10058     10061     10064
     10061     10064     10067     10068     10061     10064     10067     10069
     10061     10064     10067     10070     10062     10061     10064     10065
     10062     10061     10064     10066     10062     10061     10064     10067
     10063     10061     10064     10065     10063     10061     10064     10066
     10063     10061     10064     10067     10064     10067     10070     10071
     10064     10067     10070     10072     10064     10067     10070     10073
     10065     10064     10067     10068     10065     10064     10067     10069
     10065     10064     10067     10070     10066     10064     10067     10068
     10066     10064     10067     10069     10066     10064     10067     10070
     10067     10070     10073     10074     10067     10070     10073     10075
     10067     10070     10073     10076     10068     10067     10070     10071
     10068     10067     10070     10072     10068     10067     10070     10073
     10069     10067     10070     10071     10069     10067     10070     10072
     10069     10067     10070     10073     10070     10073     10076     10077
     10070     10073     10076     10078     10071     10070     10073     10074
     10071     10070     10073     10075     10071     10070     10073     10076
     10072     10070     10073     10074     10072     10070     10073     10075
     10072     10070     10073     10076     10073     10076     10078     10079
     10073     10076     10078     10080     10074     10073     10076     10077
     10074     10073     10076     10078     10075     10073     10076     10077
     10075     10073     10076     10078     10076     10078     10080     10081
     10076     10078     10080     10082     10076     10078     10080     10083
     10077     10076     10078     10079     10077     10076     10078     10080
     10078     10080     10083     10084     10078     10080     10083     10085
     10078     10080     10083     10086     10079     10078     10080     10081
     10079     10078     10080     10082     10079     10078     10080     10083
     10080     10083     10086     10087     10080     10083     10086     10088
     10080     10083     10086     10089     10081     10080     10083     10084
     10081     10080     10083     10085     10081     10080     10083     10086
     10082     10080     10083     10084     10082     10080     10083     10085
     10082     10080     10083     10086     10083     10086     10089     10090
     10083     10086     10089     10091     10083     10086     10089     10092
     10084     10083     10086     10087     10084     10083     10086     10088
     10084     10083     10086     10089     10085     10083     10086     10087
     10085     10083     10086     10088     10085     10083     10086     10089
     10086     10089     10092     10093     10086     10089     10092     10094
     10086     10089     10092     10095     10087     10086     10089     10090
     10087     10086     10089     10091     10087     10086     10089     10092
     10088     10086     10089     10090     10088     10086     10089     10091
     10088     10086     10089     10092     10089     10092     10095     10096
     10089     10092     10095     10097     10089     10092     10095     10098
     10090     10089     10092     10093     10090     10089     10092     10094
     10090     10089     10092     10095     10091     10089     10092     10093
     10091     10089     10092     10094     10091     10089     10092     10095
     10092     10095     10098     10099     10092     10095     10098     10100
     10092     10095     10098     10101     10093     10092     10095     10096
     10093     10092     10095     10097     10093     10092     10095     10098
     10094     10092     10095     10096     10094     10092     10095     10097
     10094     10092     10095     10098     10095     10098     10101     10102
     10095     10098     10101     10103     10095     10098     10101     10104
     10096     10095     10098     10099     10096     10095     10098     10100
     10096     10095     10098     10101     10097     10095     10098     10099
     10097     10095     10098     10100     10097     10095     10098     10101
     10099     10098     10101     10102     10099     10098     10101     10103
     10099     10098     10101     10104     10100     10098     10101     10102
     10100     10098     10101     10103     10100     10098     10101     10104
     10105     10108     10111     10112     10105     10108     10111     10113
     10105     10108     10111     10114     10106     10105     10108     10109
     10106     10105     10108     10110     10106     10105     10108     10111
     10107     10105     10108     10109     10107     10105     10108     10110
     10107     10105     10108     10111     10108     10111     10114     10115
     10108     10111     10114     10116     10108     10111     10114     10117
     10109     10108     10111     10112     10109     10108     10111     10113
     10109     10108     10111     10114     10110     10108     10111     10112
     10110     10108     10111     10113     10110     10108     10111     10114
     10111     10114     10117     10118     10111     10114     10117     10119
     10111     10114     10117     10120     10112     10111     10114     10115
     10112     10111     10114     10116     10112     10111     10114     10117
     10113     10111     10114     10115     10113     10111     10114     10116
     10113     10111     10114     10117     10114     10117     10120     10121
     10114     10117     10120     10122     10114     10117     10120     10123
     10115     10114     10117     10118     10115     10114     10117     10119
     10115     10114     10117     10120     10116     10114     10117     10118
     10116     10114     10117     10119     10116     10114     10117     10120
     10117     10120     10123     10124     10117     10120     10123     10125
     10117     10120     10123     10126     10118     10117     10120     10121
     10118     10117     10120     10122     10118     10117     10120     10123
     10119     10117     10120     10121     10119     10117     10120     10122
     10119     10117     10120     10123     10120     10123     10126     10127
     10120     10123     10126     10128     10120     10123     10126     10129
     10121     10120     10123     10124     10121     10120     10123     10125
     10121     10120     10123     10126     10122     10120     10123     10124
     10122     10120     10123     10125     10122     10120     10123     10126
     10123     10126     10129     10130     10123     10126     10129     10131
     10123     10126     10129     10132     10124     10123     10126     10127
     10124     10123     10126     10128     10124     10123     10126     10129
     10125     10123     10126     10127     10125     10123     10126     10128
     10125     10123     10126     10129     10126     10129     10132     10133
     10126     10129     10132     10134     10126     10129     10132     10135
     10127     10126     10129     10130     10127     10126     10129     10131
     10127     10126     10129     10132     10128     10126     10129     10130
     10128     10126     10129     10131     10128     10126     10129     10132
     10129     10132     10135     10136     10129     10132     10135     10137
     10129     10132     10135     10138     10130     10129     10132     10133
     10130     10129     10132     10134     10130     10129     10132     10135
     10131     10129     10132     10133     10131     10129     10132     10134
     10131     10129     10132     10135     10132     10135     10138     10139
     10132     10135     10138     10140     10132     10135     10138     10141
     10133     10132     10135     10136     10133     10132     10135     10137
     10133     10132     10135     10138     10134     10132     10135     10136
     10134     10132     10135     10137     10134     10132     10135     10138
     10135     10138     10141     10142     10135     10138     10141     10143
     10135     10138     10141     10144     10136     10135     10138     10139
     10136     10135     10138     10140     10136     10135     10138     10141
     10137     10135     10138     10139     10137     10135     10138     10140
     10137     10135     10138     10141     10138     10141     10144     10145
     10138     10141     10144     10146     10138     10141     10144     10147
     10139     10138     10141     10142     10139     10138     10141     10143
     10139     10138     10141     10144     10140     10138     10141     10142
     10140     10138     10141     10143     10140     10138     10141     10144
     10142     10141     10144     10145     10142     10141     10144     10146
     10142     10141     10144     10147     10143     10141     10144     10145
     10143     10141     10144     10146     10143     10141     10144     10147
     10148     10152     10155     10156     10148     10152     10155     10157
     10148     10152     10155     10162     10149     10148     10152     10153
     10149     10148     10152     10154     10149     10148     10152     10155
     10150     10148     10152     10153     10150     10148     10152     10154
     10150     10148     10152     10155     10151     10148     10152     10153
     10151     10148     10152     10154     10151     10148     10152     10155
     10152     10155     10162     10158     10153     10152     10155     10156
     10153     10152     10155     10157     10153     10152     10155     10162
     10154     10152     10155     10156     10154     10152     10155     10157
     10154     10152     10155     10162     10155     10162     10158     10159
     10155     10162     10158     10160     10155     10162     10158     10161
     10156     10155     10162     10158     10157     10155     10162     10158
     10158     10161     10163     10164     10158     10161     10163     10165
     10158     10161     10163     10166     10159     10158     10161     10163
     10160     10158     10161     10163     10161     10163     10166     10167
     10161     10163     10166     10168     10161     10163     10166     10174
     10162     10158     10161     10163     10163     10166     10168     10169
     10163     10166     10174     10175     10163     10166     10174     10176
     10163     10166     10174     10177     10164     10163     10166     10167
     10164     10163     10166     10168     10164     10163     10166     10174
     10165     10163     10166     10167     10165     10163     10166     10168
     10165     10163     10166     10174     10166     10168     10169     10170
     10166     10168     10169     10171     10166     10174     10177     10178
     10167     10166     10168     10169     10167     10166     10174     10175
     10167     10166     10174     10176     10167     10166     10174     10177
     10168     10166     10174     10175     10168     10166     10174     10176
     10168     10166     10174     10177     10168     10169     10171     10172
     10168     10169     10171     10173     10168     10169     10171     10183
     10169     10168     10166     10174     10169     10171     10183     10184
     10169     10171     10183     10185     10169     10171     10183     10186
     10170     10169     10171     10172     10170     10169     10171     10173
     10170     10169     10171     10183     10171     10183     10186     10187
     10171     10183     10186     10188     10171     10183     10186     10189
     10172     10171     10183     10184     10172     10171     10183     10185
     10172     10171     10183     10186     10173     10171     10183     10184
     10173     10171     10183     10185     10173     10171     10183     10186
     10174     10177     10178     10179     10174     10177     10178     10180
     10175     10174     10177     10178     10176     10174     10177     10178
     10177     10178     10180     10181     10177     10178     10180     10182
     10177     10178     10180     10227     10178     10180     10227     10228
     10178     10180     10227     10229     10178     10180     10227     10230
     10179     10178     10180     10181     10179     10178     10180     10182
     10179     10178     10180     10227     10180     10227     10230     10231
     10180     10227     10230     10232     10180     10227     10230     10233
     10181     10180     10227     10228     10181     10180     10227     10229
     10181     10180     10227     10230     10182     10180     10227     10228
     10182     10180     10227     10229     10182     10180     10227     10230
     10183     10186     10189     10190     10183     10186     10189     10191
     10183     10186     10189     10192     10184     10183     10186     10187
     10184     10183     10186     10188     10184     10183     10186     10189
     10185     10183     10186     10187     10185     10183     10186     10188
     10185     10183     10186     10189     10186     10189     10192     10193
     10186     10189     10192     10194     10186     10189     10192     10195
     10187     10186     10189     10190     10187     10186     10189     10191
     10187     10186     10189     10192     10188     10186     10189     10190
     10188     10186     10189     10191     10188     10186     10189     10192
     10189     10192     10195     10196     10189     10192     10195     10197
     10189     10192     10195     10198     10190     10189     10192     10193
     10190     10189     10192     10194     10190     10189     10192     10195
     10191     10189     10192     10193     10191     10189     10192     10194
     10191     10189     10192     10195     10192     10195     10198     10199
     10192     10195     10198     10200     10192     10195     10198     10201
     10193     10192     10195     10196     10193     10192     10195     10197
     10193     10192     10195     10198     10194     10192     10195     10196
     10194     10192     10195     10197     10194     10192     10195     10198
     10195     10198     10201     10202     10195     10198     10201     10203
     10195     10198     10201     10206     10196     10195     10198     10199
     10196     10195     10198     10200     10196     10195     10198     10201
     10197     10195     10198     10199     10197     10195     10198     10200
     10197     10195     10198     10201     10198     10201     10203     10204
     10198     10201     10203     10205     10198     10201     10203     10206
     10198     10201     10206     10203     10198     10201     10206     10207
     10198     10201     10206     10208     10199     10198     10201     10202
     10199     10198     10201     10203     10199     10198     10201     10206
     10200     10198     10201     10202     10200     10198     10201     10203
     10200     10198     10201     10206     10201     10203     10206     10207
     10201     10203     10206     10208     10201     10206     10203     10204
     10201     10206     10203     10205     10201     10206     10208     10209
     10201     10206     10208     10210     10201     10206     10208     10211
     10202     10201     10203     10204     10202     10201     10203     10205
     10202     10201     10203     10206     10202     10201     10206     10203
     10202     10201     10206     10207     10202     10201     10206     10208
     10203     10201     10206     10207     10203     10201     10206     10208
     10203     10206     10208     10209     10203     10206     10208     10210
     10203     10206     10208     10211     10204     10203     10201     10206
     10204     10203     10206     10207     10204     10203     10206     10208
     10205     10203     10201     10206     10205     10203     10206     10207
     10205     10203     10206     10208     10206     10208     10211     10212
     10206     10208     10211     10213     10206     10208     10211     10214
     10207     10206     10208     10209     10207     10206     10208     10210
     10207     10206     10208     10211     10208     10211     10214     10215
     10208     10211     10214     10216     10208     10211     10214     10217
     10209     10208     10211     10212     10209     10208     10211     10213
     10209     10208     10211     10214     10210     10208     10211     10212
     10210     10208     10211     10213     10210     10208     10211     10214
     10211     10214     10217     10218     10211     10214     10217     10219
     10211     10214     10217     10220     10212     10211     10214     10215
     10212     10211     10214     10216     10212     10211     10214     10217
     10213     10211     10214     10215     10213     10211     10214     10216
     10213     10211     10214     10217     10214     10217     10220     10221
     10214     10217     10220     10222     10214     10217     10220     10223
     10215     10214     10217     10218     10215     10214     10217     10219
     10215     10214     10217     10220     10216     10214     10217     10218
     10216     10214     10217     10219     10216     10214     10217     10220
     10217     10220     10223     10224     10217     10220     10223     10225
     10217     10220     10223     10226     10218     10217     10220     10221
     10218     10217     10220     10222     10218     10217     10220     10223
     10219     10217     10220     10221     10219     10217     10220     10222
     10219     10217     10220     10223     10221     10220     10223     10224
     10221     10220     10223     10225     10221     10220     10223     10226
     10222     10220     10223     10224     10222     10220     10223     10225
     10222     10220     10223     10226     10227     10230     10233     10234
     10227     10230     10233     10235     10227     10230     10233     10236
     10228     10227     10230     10231     10228     10227     10230     10232
     10228     10227     10230     10233     10229     10227     10230     10231
     10229     10227     10230     10232     10229     10227     10230     10233
     10230     10233     10236     10237     10230     10233     10236     10238
     10230     10233     10236     10239     10231     10230     10233     10234
     10231     10230     10233     10235     10231     10230     10233     10236
     10232     10230     10233     10234     10232     10230     10233     10235
     10232     10230     10233     10236     10233     10236     10239     10240
     10233     10236     10239     10241     10233     10236     10239     10242
     10234     10233     10236     10237     10234     10233     10236     10238
     10234     10233     10236     10239     10235     10233     10236     10237
     10235     10233     10236     10238     10235     10233     10236     10239
     10236     10239     10242     10243     10236     10239     10242     10244
     10236     10239     10242     10245     10237     10236     10239     10240
     10237     10236     10239     10241     10237     10236     10239     10242
     10238     10236     10239     10240     10238     10236     10239     10241
     10238     10236     10239     10242     10239     10242     10245     10246
     10239     10242     10245     10247     10239     10242     10245     10248
     10240     10239     10242     10243     10240     10239     10242     10244
     10240     10239     10242     10245     10241     10239     10242     10243
     10241     10239     10242     10244     10241     10239     10242     10245
     10242     10245     10248     10249     10242     10245     10248     10250
     10242     10245     10248     10251     10243     10242     10245     10246
     10243     10242     10245     10247     10243     10242     10245     10248
     10244     10242     10245     10246     10244     10242     10245     10247
     10244     10242     10245     10248     10245     10248     10251     10252
     10245     10248     10251     10253     10245     10248     10251     10254
     10246     10245     10248     10249     10246     10245     10248     10250
     10246     10245     10248     10251     10247     10245     10248     10249
     10247     10245     10248     10250     10247     10245     10248     10251
     10248     10251     10254     10255     10248     10251     10254     10256
     10248     10251     10254     10257     10249     10248     10251     10252
     10249     10248     10251     10253     10249     10248     10251     10254
     10250     10248     10251     10252     10250     10248     10251     10253
     10250     10248     10251     10254     10251     10254     10257     10258
     10251     10254     10257     10259     10251     10254     10257     10260
     10252     10251     10254     10255     10252     10251     10254     10256
     10252     10251     10254     10257     10253     10251     10254     10255
     10253     10251     10254     10256     10253     10251     10254     10257
     10254     10257     10260     10261     10254     10257     10260     10262
     10254     10257     10260     10263     10255     10254     10257     10258
     10255     10254     10257     10259     10255     10254     10257     10260
     10256     10254     10257     10258     10256     10254     10257     10259
     10256     10254     10257     10260     10257     10260     10263     10264
     10257     10260     10263     10265     10257     10260     10263     10266
     10258     10257     10260     10261     10258     10257     10260     10262
     10258     10257     10260     10263     10259     10257     10260     10261
     10259     10257     10260     10262     10259     10257     10260     10263
     10260     10263     10266     10267     10260     10263     10266     10268
     10260     10263     10266     10269     10261     10260     10263     10264
     10261     10260     10263     10265     10261     10260     10263     10266
     10262     10260     10263     10264     10262     10260     10263     10265
     10262     10260     10263     10266     10264     10263     10266     10267
     10264     10263     10266     10268     10264     10263     10266     10269
     10265     10263     10266     10267     10265     10263     10266     10268
     10265     10263     10266     10269     10270     10275     10277     10278
     10270     10275     10279     10280     10270     10275     10279     10281
     10270     10275     10279     10286     10271     10270     10273     10274
     10271     10270     10275     10276     10271     10270     10275     10277
     10271     10270     10275     10279     10272     10270     10273     10274
     10272     10270     10275     10276     10272     10270     10275     10277
     10272     10270     10275     10279     10273     10270     10275     10276
     10273     10270     10275     10277     10273     10270     10275     10279
     10274     10273     10270     10275     10275     10279     10286     10282
     10276     10275     10277     10278     10276     10275     10279     10280
     10276     10275     10279     10281     10276     10275     10279     10286
     10277     10275     10279     10280     10277     10275     10279     10281
     10277     10275     10279     10286     10278     10277     10275     10279
     10279     10286     10282     10283     10279     10286     10282     10284
     10279     10286     10282     10285     10280     10279     10286     10282
     10281     10279     10286     10282     10282     10285     10287     10288
     10282     10285     10287     10289     10282     10285     10287     10290
     10283     10282     10285     10287     10284     10282     10285     10287
     10285     10287     10290     10291     10285     10287     10290     10292
     10285     10287     10290     10298     10286     10282     10285     10287
     10287     10290     10292     10293     10287     10290     10298     10299
     10287     10290     10298     10300     10287     10290     10298     10301
     10288     10287     10290     10291     10288     10287     10290     10292
     10288     10287     10290     10298     10289     10287     10290     10291
     10289     10287     10290     10292     10289     10287     10290     10298
     10290     10292     10293     10294     10290     10292     10293     10295
     10290     10298     10301     10302     10291     10290     10292     10293
     10291     10290     10298     10299     10291     10290     10298     10300
     10291     10290     10298     10301     10292     10290     10298     10299
     10292     10290     10298     10300     10292     10290     10298     10301
     10292     10293     10295     10296     10292     10293     10295     10297
     10292     10293     10295     10307     10293     10292     10290     10298
     10293     10295     10307     10308     10293     10295     10307     10309
     10293     10295     10307     10310     10294     10293     10295     10296
     10294     10293     10295     10297     10294     10293     10295     10307
     10295     10307     10310     10311     10295     10307     10310     10312
     10295     10307     10310     10313     10296     10295     10307     10308
     10296     10295     10307     10309     10296     10295     10307     10310
     10297     10295     10307     10308     10297     10295     10307     10309
     10297     10295     10307     10310     10298     10301     10302     10303
     10298     10301     10302     10304     10299     10298     10301     10302
     10300     10298     10301     10302     10301     10302     10304     10305
     10301     10302     10304     10306     10301     10302     10304     10348
     10302     10304     10348     10349     10302     10304     10348     10350
     10302     10304     10348     10351     10303     10302     10304     10305
     10303     10302     10304     10306     10303     10302     10304     10348
     10304     10348     10351     10352     10304     10348     10351     10353
     10304     10348     10351     10354     10305     10304     10348     10349
     10305     10304     10348     10350     10305     10304     10348     10351
     10306     10304     10348     10349     10306     10304     10348     10350
     10306     10304     10348     10351     10307     10310     10313     10314
     10307     10310     10313     10315     10307     10310     10313     10316
     10308     10307     10310     10311     10308     10307     10310     10312
     10308     10307     10310     10313     10309     10307     10310     10311
     10309     10307     10310     10312     10309     10307     10310     10313
     10310     10313     10316     10317     10310     10313     10316     10318
     10310     10313     10316     10319     10311     10310     10313     10314
     10311     10310     10313     10315     10311     10310     10313     10316
     10312     10310     10313     10314     10312     10310     10313     10315
     10312     10310     10313     10316     10313     10316     10319     10320
     10313     10316     10319     10321     10313     10316     10319     10322
     10314     10313     10316     10317     10314     10313     10316     10318
     10314     10313     10316     10319     10315     10313     10316     10317
     10315     10313     10316     10318     10315     10313     10316     10319
     10316     10319     10322     10323     10316     10319     10322     10324
     10316     10319     10322     10325     10317     10316     10319     10320
     10317     10316     10319     10321     10317     10316     10319     10322
     10318     10316     10319     10320     10318     10316     10319     10321
     10318     10316     10319     10322     10319     10322     10325     10326
     10319     10322     10325     10327     10320     10319     10322     10323
     10320     10319     10322     10324     10320     10319     10322     10325
     10321     10319     10322     10323     10321     10319     10322     10324
     10321     10319     10322     10325     10322     10325     10327     10328
     10322     10325     10327     10329     10323     10322     10325     10326
     10323     10322     10325     10327     10324     10322     10325     10326
     10324     10322     10325     10327     10325     10327     10329     10330
     10325     10327     10329     10331     10325     10327     10329     10332
     10326     10325     10327     10328     10326     10325     10327     10329
     10327     10329     10332     10333     10327     10329     10332     10334
     10327     10329     10332     10335     10328     10327     10329     10330
     10328     10327     10329     10331     10328     10327     10329     10332
     10329     10332     10335     10336     10329     10332     10335     10337
     10329     10332     10335     10338     10330     10329     10332     10333
     10330     10329     10332     10334     10330     10329     10332     10335
     10331     10329     10332     10333     10331     10329     10332     10334
     10331     10329     10332     10335     10332     10335     10338     10339
     10332     10335     10338     10340     10332     10335     10338     10341
     10333     10332     10335     10336     10333     10332     10335     10337
     10333     10332     10335     10338     10334     10332     10335     10336
     10334     10332     10335     10337     10334     10332     10335     10338
     10335     10338     10341     10342     10335     10338     10341     10343
     10335     10338     10341     10344     10336     10335     10338     10339
     10336     10335     10338     10340     10336     10335     10338     10341
     10337     10335     10338     10339     10337     10335     10338     10340
     10337     10335     10338     10341     10338     10341     10344     10345
     10338     10341     10344     10346     10338     10341     10344     10347
     10339     10338     10341     10342     10339     10338     10341     10343
     10339     10338     10341     10344     10340     10338     10341     10342
     10340     10338     10341     10343     10340     10338     10341     10344
     10342     10341     10344     10345     10342     10341     10344     10346
     10342     10341     10344     10347     10343     10341     10344     10345
     10343     10341     10344     10346     10343     10341     10344     10347
     10348     10351     10354     10355     10348     10351     10354     10356
     10348     10351     10354     10357     10349     10348     10351     10352
     10349     10348     10351     10353     10349     10348     10351     10354
     10350     10348     10351     10352     10350     10348     10351     10353
     10350     10348     10351     10354     10351     10354     10357     10358
     10351     10354     10357     10359     10351     10354     10357     10360
     10352     10351     10354     10355     10352     10351     10354     10356
     10352     10351     10354     10357     10353     10351     10354     10355
     10353     10351     10354     10356     10353     10351     10354     10357
     10354     10357     10360     10361     10354     10357     10360     10362
     10354     10357     10360     10363     10355     10354     10357     10358
     10355     10354     10357     10359     10355     10354     10357     10360
     10356     10354     10357     10358     10356     10354     10357     10359
     10356     10354     10357     10360     10357     10360     10363     10364
     10357     10360     10363     10365     10357     10360     10363     10366
     10358     10357     10360     10361     10358     10357     10360     10362
     10358     10357     10360     10363     10359     10357     10360     10361
     10359     10357     10360     10362     10359     10357     10360     10363
     10360     10363     10366     10367     10360     10363     10366     10368
     10360     10363     10366     10369     10361     10360     10363     10364
     10361     10360     10363     10365     10361     10360     10363     10366
     10362     10360     10363     10364     10362     10360     10363     10365
     10362     10360     10363     10366     10363     10366     10369     10370
     10363     10366     10369     10371     10363     10366     10369     10372
     10364     10363     10366     10367     10364     10363     10366     10368
     10364     10363     10366     10369     10365     10363     10366     10367
     10365     10363     10366     10368     10365     10363     10366     10369
     10366     10369     10372     10373     10366     10369     10372     10374
     10366     10369     10372     10375     10367     10366     10369     10370
     10367     10366     10369     10371     10367     10366     10369     10372
     10368     10366     10369     10370     10368     10366     10369     10371
     10368     10366     10369     10372     10369     10372     10375     10376
     10369     10372     10375     10377     10369     10372     10375     10378
     10370     10369     10372     10373     10370     10369     10372     10374
     10370     10369     10372     10375     10371     10369     10372     10373
     10371     10369     10372     10374     10371     10369     10372     10375
     10372     10375     10378     10379     10372     10375     10378     10380
     10372     10375     10378     10381     10373     10372     10375     10376
     10373     10372     10375     10377     10373     10372     10375     10378
     10374     10372     10375     10376     10374     10372     10375     10377
     10374     10372     10375     10378     10375     10378     10381     10382
     10375     10378     10381     10383     10375     10378     10381     10384
     10376     10375     10378     10379     10376     10375     10378     10380
     10376     10375     10378     10381     10377     10375     10378     10379
     10377     10375     10378     10380     10377     10375     10378     10381
     10378     10381     10384     10385     10378     10381     10384     10386
     10378     10381     10384     10387     10379     10378     10381     10382
     10379     10378     10381     10383     10379     10378     10381     10384
     10380     10378     10381     10382     10380     10378     10381     10383
     10380     10378     10381     10384     10381     10384     10387     10388
     10381     10384     10387     10389     10381     10384     10387     10390
     10382     10381     10384     10385     10382     10381     10384     10386
     10382     10381     10384     10387     10383     10381     10384     10385
     10383     10381     10384     10386     10383     10381     10384     10387
     10385     10384     10387     10388     10385     10384     10387     10389
     10385     10384     10387     10390     10386     10384     10387     10388
     10386     10384     10387     10389     10386     10384     10387     10390
     10391     10396     10398     10399     10391     10396     10400     10401
     10391     10396     10400     10402     10391     10396     10400     10407
     10392     10391     10394     10395     10392     10391     10396     10397
     10392     10391     10396     10398     10392     10391     10396     10400
     10393     10391     10394     10395     10393     10391     10396     10397
     10393     10391     10396     10398     10393     10391     10396     10400
     10394     10391     10396     10397     10394     10391     10396     10398
     10394     10391     10396     10400     10395     10394     10391     10396
     10396     10400     10407     10403     10397     10396     10398     10399
     10397     10396     10400     10401     10397     10396     10400     10402
     10397     10396     10400     10407     10398     10396     10400     10401
     10398     10396     10400     10402     10398     10396     10400     10407
     10399     10398     10396     10400     10400     10407     10403     10404
     10400     10407     10403     10405     10400     10407     10403     10406
     10401     10400     10407     10403     10402     10400     10407     10403
     10403     10406     10408     10409     10403     10406     10408     10410
     10403     10406     10408     10411     10404     10403     10406     10408
     10405     10403     10406     10408     10406     10408     10411     10412
     10406     10408     10411     10413     10406     10408     10411     10419
     10407     10403     10406     10408     10408     10411     10413     10414
     10408     10411     10419     10420     10408     10411     10419     10421
     10408     10411     10419     10422     10409     10408     10411     10412
     10409     10408     10411     10413     10409     10408     10411     10419
     10410     10408     10411     10412     10410     10408     10411     10413
     10410     10408     10411     10419     10411     10413     10414     10415
     10411     10413     10414     10416     10411     10419     10422     10423
     10412     10411     10413     10414     10412     10411     10419     10420
     10412     10411     10419     10421     10412     10411     10419     10422
     10413     10411     10419     10420     10413     10411     10419     10421
     10413     10411     10419     10422     10413     10414     10416     10417
     10413     10414     10416     10418     10413     10414     10416     10428
     10414     10413     10411     10419     10414     10416     10428     10429
     10414     10416     10428     10430     10414     10416     10428     10431
     10415     10414     10416     10417     10415     10414     10416     10418
     10415     10414     10416     10428     10416     10428     10431     10432
     10416     10428     10431     10433     10416     10428     10431     10434
     10417     10416     10428     10429     10417     10416     10428     10430
     10417     10416     10428     10431     10418     10416     10428     10429
     10418     10416     10428     10430     10418     10416     10428     10431
     10419     10422     10423     10424     10419     10422     10423     10425
     10420     10419     10422     10423     10421     10419     10422     10423
     10422     10423     10425     10426     10422     10423     10425     10427
     10422     10423     10425     10472     10423     10425     10472     10473
     10423     10425     10472     10474     10423     10425     10472     10475
     10424     10423     10425     10426     10424     10423     10425     10427
     10424     10423     10425     10472     10425     10472     10475     10476
     10425     10472     10475     10477     10425     10472     10475     10478
     10426     10425     10472     10473     10426     10425     10472     10474
     10426     10425     10472     10475     10427     10425     10472     10473
     10427     10425     10472     10474     10427     10425     10472     10475
     10428     10431     10434     10435     10428     10431     10434     10436
     10428     10431     10434     10437     10429     10428     10431     10432
     10429     10428     10431     10433     10429     10428     10431     10434
     10430     10428     10431     10432     10430     10428     10431     10433
     10430     10428     10431     10434     10431     10434     10437     10438
     10431     10434     10437     10439     10431     10434     10437     10440
     10432     10431     10434     10435     10432     10431     10434     10436
     10432     10431     10434     10437     10433     10431     10434     10435
     10433     10431     10434     10436     10433     10431     10434     10437
     10434     10437     10440     10441     10434     10437     10440     10442
     10434     10437     10440     10443     10435     10434     10437     10438
     10435     10434     10437     10439     10435     10434     10437     10440
     10436     10434     10437     10438     10436     10434     10437     10439
     10436     10434     10437     10440     10437     10440     10443     10444
     10437     10440     10443     10445     10437     10440     10443     10446
     10438     10437     10440     10441     10438     10437     10440     10442
     10438     10437     10440     10443     10439     10437     10440     10441
     10439     10437     10440     10442     10439     10437     10440     10443
     10440     10443     10446     10447     10440     10443     10446     10448
     10440     10443     10446     10451     10441     10440     10443     10444
     10441     10440     10443     10445     10441     10440     10443     10446
     10442     10440     10443     10444     10442     10440     10443     10445
     10442     10440     10443     10446     10443     10446     10448     10449
     10443     10446     10448     10450     10443     10446     10448     10451
     10443     10446     10451     10448     10443     10446     10451     10452
     10443     10446     10451     10453     10444     10443     10446     10447
     10444     10443     10446     10448     10444     10443     10446     10451
     10445     10443     10446     10447     10445     10443     10446     10448
     10445     10443     10446     10451     10446     10448     10451     10452
     10446     10448     10451     10453     10446     10451     10448     10449
     10446     10451     10448     10450     10446     10451     10453     10454
     10446     10451     10453     10455     10446     10451     10453     10456
     10447     10446     10448     10449     10447     10446     10448     10450
     10447     10446     10448     10451     10447     10446     10451     10448
     10447     10446     10451     10452     10447     10446     10451     10453
     10448     10446     10451     10452     10448     10446     10451     10453
     10448     10451     10453     10454     10448     10451     10453     10455
     10448     10451     10453     10456     10449     10448     10446     10451
     10449     10448     10451     10452     10449     10448     10451     10453
     10450     10448     10446     10451     10450     10448     10451     10452
     10450     10448     10451     10453     10451     10453     10456     10457
     10451     10453     10456     10458     10451     10453     10456     10459
     10452     10451     10453     10454     10452     10451     10453     10455
     10452     10451     10453     10456     10453     10456     10459     10460
     10453     10456     10459     10461     10453     10456     10459     10462
     10454     10453     10456     10457     10454     10453     10456     10458
     10454     10453     10456     10459     10455     10453     10456     10457
     10455     10453     10456     10458     10455     10453     10456     10459
     10456     10459     10462     10463     10456     10459     10462     10464
     10456     10459     10462     10465     10457     10456     10459     10460
     10457     10456     10459     10461     10457     10456     10459     10462
     10458     10456     10459     10460     10458     10456     10459     10461
     10458     10456     10459     10462     10459     10462     10465     10466
     10459     10462     10465     10467     10459     10462     10465     10468
     10460     10459     10462     10463     10460     10459     10462     10464
     10460     10459     10462     10465     10461     10459     10462     10463
     10461     10459     10462     10464     10461     10459     10462     10465
     10462     10465     10468     10469     10462     10465     10468     10470
     10462     10465     10468     10471     10463     10462     10465     10466
     10463     10462     10465     10467     10463     10462     10465     10468
     10464     10462     10465     10466     10464     10462     10465     10467
     10464     10462     10465     10468     10466     10465     10468     10469
     10466     10465     10468     10470     10466     10465     10468     10471
     10467     10465     10468     10469     10467     10465     10468     10470
     10467     10465     10468     10471     10472     10475     10478     10479
     10472     10475     10478     10480     10472     10475     10478     10481
     10473     10472     10475     10476     10473     10472     10475     10477
     10473     10472     10475     10478     10474     10472     10475     10476
     10474     10472     10475     10477     10474     10472     10475     10478
     10475     10478     10481     10482     10475     10478     10481     10483
     10475     10478     10481     10484     10476     10475     10478     10479
     10476     10475     10478     10480     10476     10475     10478     10481
     10477     10475     10478     10479     10477     10475     10478     10480
     10477     10475     10478     10481     10478     10481     10484     10485
     10478     10481     10484     10486     10478     10481     10484     10487
     10479     10478     10481     10482     10479     10478     10481     10483
     10479     10478     10481     10484     10480     10478     10481     10482
     10480     10478     10481     10483     10480     10478     10481     10484
     10481     10484     10487     10488     10481     10484     10487     10489
     10481     10484     10487     10490     10482     10481     10484     10485
     10482     10481     10484     10486     10482     10481     10484     10487
     10483     10481     10484     10485     10483     10481     10484     10486
     10483     10481     10484     10487     10484     10487     10490     10491
     10484     10487     10490     10492     10484     10487     10490     10493
     10485     10484     10487     10488     10485     10484     10487     10489
     10485     10484     10487     10490     10486     10484     10487     10488
     10486     10484     10487     10489     10486     10484     10487     10490
     10487     10490     10493     10494     10487     10490     10493     10495
     10487     10490     10493     10496     10488     10487     10490     10491
     10488     10487     10490     10492     10488     10487     10490     10493
     10489     10487     10490     10491     10489     10487     10490     10492
     10489     10487     10490     10493     10490     10493     10496     10497
     10490     10493     10496     10498     10490     10493     10496     10499
     10491     10490     10493     10494     10491     10490     10493     10495
     10491     10490     10493     10496     10492     10490     10493     10494
     10492     10490     10493     10495     10492     10490     10493     10496
     10493     10496     10499     10500     10493     10496     10499     10501
     10493     10496     10499     10502     10494     10493     10496     10497
     10494     10493     10496     10498     10494     10493     10496     10499
     10495     10493     10496     10497     10495     10493     10496     10498
     10495     10493     10496     10499     10496     10499     10502     10503
     10496     10499     10502     10504     10496     10499     10502     10505
     10497     10496     10499     10500     10497     10496     10499     10501
     10497     10496     10499     10502     10498     10496     10499     10500
     10498     10496     10499     10501     10498     10496     10499     10502
     10499     10502     10505     10506     10499     10502     10505     10507
     10499     10502     10505     10508     10500     10499     10502     10503
     10500     10499     10502     10504     10500     10499     10502     10505
     10501     10499     10502     10503     10501     10499     10502     10504
     10501     10499     10502     10505     10502     10505     10508     10509
     10502     10505     10508     10510     10502     10505     10508     10511
     10503     10502     10505     10506     10503     10502     10505     10507
     10503     10502     10505     10508     10504     10502     10505     10506
     10504     10502     10505     10507     10504     10502     10505     10508
     10505     10508     10511     10512     10505     10508     10511     10513
     10505     10508     10511     10514     10506     10505     10508     10509
     10506     10505     10508     10510     10506     10505     10508     10511
     10507     10505     10508     10509     10507     10505     10508     10510
     10507     10505     10508     10511     10509     10508     10511     10512
     10509     10508     10511     10513     10509     10508     10511     10514
     10510     10508     10511     10512     10510     10508     10511     10513
     10510     10508     10511     10514     10515     10520     10522     10523
     10515     10520     10524     10525     10515     10520     10524     10526
     10515     10520     10524     10531     10516     10515     10518     10519
     10516     10515     10520     10521     10516     10515     10520     10522
     10516     10515     10520     10524     10517     10515     10518     10519
     10517     10515     10520     10521     10517     10515     10520     10522
     10517     10515     10520     10524     10518     10515     10520     10521
     10518     10515     10520     10522     10518     10515     10520     10524
     10519     10518     10515     10520     10520     10524     10531     10527
     10521     10520     10522     10523     10521     10520     10524     10525
     10521     10520     10524     10526     10521     10520     10524     10531
     10522     10520     10524     10525     10522     10520     10524     10526
     10522     10520     10524     10531     10523     10522     10520     10524
     10524     10531     10527     10528     10524     10531     10527     10529
     10524     10531     10527     10530     10525     10524     10531     10527
     10526     10524     10531     10527     10527     10530     10532     10533
     10527     10530     10532     10534     10527     10530     10532     10535
     10528     10527     10530     10532     10529     10527     10530     10532
     10530     10532     10535     10536     10530     10532     10535     10537
     10530     10532     10535     10543     10531     10527     10530     10532
     10532     10535     10537     10538     10532     10535     10543     10544
     10532     10535     10543     10545     10532     10535     10543     10546
     10533     10532     10535     10536     10533     10532     10535     10537
     10533     10532     10535     10543     10534     10532     10535     10536
     10534     10532     10535     10537     10534     10532     10535     10543
     10535     10537     10538     10539     10535     10537     10538     10540
     10535     10543     10546     10547     10536     10535     10537     10538
     10536     10535     10543     10544     10536     10535     10543     10545
     10536     10535     10543     10546     10537     10535     10543     10544
     10537     10535     10543     10545     10537     10535     10543     10546
     10537     10538     10540     10541     10537     10538     10540     10542
     10537     10538     10540     10552     10538     10537     10535     10543
     10538     10540     10552     10553     10538     10540     10552     10554
     10538     10540     10552     10555     10539     10538     10540     10541
     10539     10538     10540     10542     10539     10538     10540     10552
     10540     10552     10555     10556     10540     10552     10555     10557
     10540     10552     10555     10558     10541     10540     10552     10553
     10541     10540     10552     10554     10541     10540     10552     10555
     10542     10540     10552     10553     10542     10540     10552     10554
     10542     10540     10552     10555     10543     10546     10547     10548
     10543     10546     10547     10549     10544     10543     10546     10547
     10545     10543     10546     10547     10546     10547     10549     10550
     10546     10547     10549     10551     10546     10547     10549     10593
     10547     10549     10593     10594     10547     10549     10593     10595
     10547     10549     10593     10596     10548     10547     10549     10550
     10548     10547     10549     10551     10548     10547     10549     10593
     10549     10593     10596     10597     10549     10593     10596     10598
     10549     10593     10596     10599     10550     10549     10593     10594
     10550     10549     10593     10595     10550     10549     10593     10596
     10551     10549     10593     10594     10551     10549     10593     10595
     10551     10549     10593     10596     10552     10555     10558     10559
     10552     10555     10558     10560     10552     10555     10558     10561
     10553     10552     10555     10556     10553     10552     10555     10557
     10553     10552     10555     10558     10554     10552     10555     10556
     10554     10552     10555     10557     10554     10552     10555     10558
     10555     10558     10561     10562     10555     10558     10561     10563
     10555     10558     10561     10564     10556     10555     10558     10559
     10556     10555     10558     10560     10556     10555     10558     10561
     10557     10555     10558     10559     10557     10555     10558     10560
     10557     10555     10558     10561     10558     10561     10564     10565
     10558     10561     10564     10566     10558     10561     10564     10567
     10559     10558     10561     10562     10559     10558     10561     10563
     10559     10558     10561     10564     10560     10558     10561     10562
     10560     10558     10561     10563     10560     10558     10561     10564
     10561     10564     10567     10568     10561     10564     10567     10569
     10561     10564     10567     10570     10562     10561     10564     10565
     10562     10561     10564     10566     10562     10561     10564     10567
     10563     10561     10564     10565     10563     10561     10564     10566
     10563     10561     10564     10567     10564     10567     10570     10571
     10564     10567     10570     10572     10565     10564     10567     10568
     10565     10564     10567     10569     10565     10564     10567     10570
     10566     10564     10567     10568     10566     10564     10567     10569
     10566     10564     10567     10570     10567     10570     10572     10573
     10567     10570     10572     10574     10568     10567     10570     10571
     10568     10567     10570     10572     10569     10567     10570     10571
     10569     10567     10570     10572     10570     10572     10574     10575
     10570     10572     10574     10576     10570     10572     10574     10577
     10571     10570     10572     10573     10571     10570     10572     10574
     10572     10574     10577     10578     10572     10574     10577     10579
     10572     10574     10577     10580     10573     10572     10574     10575
     10573     10572     10574     10576     10573     10572     10574     10577
     10574     10577     10580     10581     10574     10577     10580     10582
     10574     10577     10580     10583     10575     10574     10577     10578
     10575     10574     10577     10579     10575     10574     10577     10580
     10576     10574     10577     10578     10576     10574     10577     10579
     10576     10574     10577     10580     10577     10580     10583     10584
     10577     10580     10583     10585     10577     10580     10583     10586
     10578     10577     10580     10581     10578     10577     10580     10582
     10578     10577     10580     10583     10579     10577     10580     10581
     10579     10577     10580     10582     10579     10577     10580     10583
     10580     10583     10586     10587     10580     10583     10586     10588
     10580     10583     10586     10589     10581     10580     10583     10584
     10581     10580     10583     10585     10581     10580     10583     10586
     10582     10580     10583     10584     10582     10580     10583     10585
     10582     10580     10583     10586     10583     10586     10589     10590
     10583     10586     10589     10591     10583     10586     10589     10592
     10584     10583     10586     10587     10584     10583     10586     10588
     10584     10583     10586     10589     10585     10583     10586     10587
     10585     10583     10586     10588     10585     10583     10586     10589
     10587     10586     10589     10590     10587     10586     10589     10591
     10587     10586     10589     10592     10588     10586     10589     10590
     10588     10586     10589     10591     10588     10586     10589     10592
     10593     10596     10599     10600     10593     10596     10599     10601
     10593     10596     10599     10602     10594     10593     10596     10597
     10594     10593     10596     10598     10594     10593     10596     10599
     10595     10593     10596     10597     10595     10593     10596     10598
     10595     10593     10596     10599     10596     10599     10602     10603
     10596     10599     10602     10604     10596     10599     10602     10605
     10597     10596     10599     10600     10597     10596     10599     10601
     10597     10596     10599     10602     10598     10596     10599     10600
     10598     10596     10599     10601     10598     10596     10599     10602
     10599     10602     10605     10606     10599     10602     10605     10607
     10599     10602     10605     10608     10600     10599     10602     10603
     10600     10599     10602     10604     10600     10599     10602     10605
     10601     10599     10602     10603     10601     10599     10602     10604
     10601     10599     10602     10605     10602     10605     10608     10609
     10602     10605     10608     10610     10602     10605     10608     10611
     10603     10602     10605     10606     10603     10602     10605     10607
     10603     10602     10605     10608     10604     10602     10605     10606
     10604     10602     10605     10607     10604     10602     10605     10608
     10605     10608     10611     10612     10605     10608     10611     10613
     10605     10608     10611     10614     10606     10605     10608     10609
     10606     10605     10608     10610     10606     10605     10608     10611
     10607     10605     10608     10609     10607     10605     10608     10610
     10607     10605     10608     10611     10608     10611     10614     10615
     10608     10611     10614     10616     10608     10611     10614     10617
     10609     10608     10611     10612     10609     10608     10611     10613
     10609     10608     10611     10614     10610     10608     10611     10612
     10610     10608     10611     10613     10610     10608     10611     10614
     10611     10614     10617     10618     10611     10614     10617     10619
     10611     10614     10617     10620     10612     10611     10614     10615
     10612     10611     10614     10616     10612     10611     10614     10617
     10613     10611     10614     10615     10613     10611     10614     10616
     10613     10611     10614     10617     10614     10617     10620     10621
     10614     10617     10620     10622     10614     10617     10620     10623
     10615     10614     10617     10618     10615     10614     10617     10619
     10615     10614     10617     10620     10616     10614     10617     10618
     10616     10614     10617     10619     10616     10614     10617     10620
     10617     10620     10623     10624     10617     10620     10623     10625
     10617     10620     10623     10626     10618     10617     10620     10621
     10618     10617     10620     10622     10618     10617     10620     10623
     10619     10617     10620     10621     10619     10617     10620     10622
     10619     10617     10620     10623     10620     10623     10626     10627
     10620     10623     10626     10628     10620     10623     10626     10629
     10621     10620     10623     10624     10621     10620     10623     10625
     10621     10620     10623     10626     10622     10620     10623     10624
     10622     10620     10623     10625     10622     10620     10623     10626
     10623     10626     10629     10630     10623     10626     10629     10631
     10623     10626     10629     10632     10624     10623     10626     10627
     10624     10623     10626     10628     10624     10623     10626     10629
     10625     10623     10626     10627     10625     10623     10626     10628
     10625     10623     10626     10629     10626     10629     10632     10633
     10626     10629     10632     10634     10626     10629     10632     10635
     10627     10626     10629     10630     10627     10626     10629     10631
     10627     10626     10629     10632     10628     10626     10629     10630
     10628     10626     10629     10631     10628     10626     10629     10632
     10630     10629     10632     10633     10630     10629     10632     10634
     10630     10629     10632     10635     10631     10629     10632     10633
     10631     10629     10632     10634     10631     10629     10632     10635
     10636     10640     10643     10644     10636     10640     10643     10645
     10636     10640     10643     10650     10637     10636     10640     10641
     10637     10636     10640     10642     10637     10636     10640     10643
     10638     10636     10640     10641     10638     10636     10640     10642
     10638     10636     10640     10643     10639     10636     10640     10641
     10639     10636     10640     10642     10639     10636     10640     10643
     10640     10643     10650     10646     10641     10640     10643     10644
     10641     10640     10643     10645     10641     10640     10643     10650
     10642     10640     10643     10644     10642     10640     10643     10645
     10642     10640     10643     10650     10643     10650     10646     10647
     10643     10650     10646     10648     10643     10650     10646     10649
     10644     10643     10650     10646     10645     10643     10650     10646
     10646     10649     10651     10652     10646     10649     10651     10653
     10646     10649     10651     10654     10647     10646     10649     10651
     10648     10646     10649     10651     10649     10651     10654     10655
     10649     10651     10654     10656     10649     10651     10654     10662
     10650     10646     10649     10651     10651     10654     10656     10657
     10651     10654     10662     10663     10651     10654     10662     10664
     10651     10654     10662     10665     10652     10651     10654     10655
     10652     10651     10654     10656     10652     10651     10654     10662
     10653     10651     10654     10655     10653     10651     10654     10656
     10653     10651     10654     10662     10654     10656     10657     10658
     10654     10656     10657     10659     10654     10662     10665     10666
     10655     10654     10656     10657     10655     10654     10662     10663
     10655     10654     10662     10664     10655     10654     10662     10665
     10656     10654     10662     10663     10656     10654     10662     10664
     10656     10654     10662     10665     10656     10657     10659     10660
     10656     10657     10659     10661     10656     10657     10659     10671
     10657     10656     10654     10662     10657     10659     10671     10672
     10657     10659     10671     10673     10657     10659     10671     10674
     10658     10657     10659     10660     10658     10657     10659     10661
     10658     10657     10659     10671     10659     10671     10674     10675
     10659     10671     10674     10676     10659     10671     10674     10677
     10660     10659     10671     10672     10660     10659     10671     10673
     10660     10659     10671     10674     10661     10659     10671     10672
     10661     10659     10671     10673     10661     10659     10671     10674
     10662     10665     10666     10667     10662     10665     10666     10668
     10663     10662     10665     10666     10664     10662     10665     10666
     10665     10666     10668     10669     10665     10666     10668     10670
     10665     10666     10668     10715     10666     10668     10715     10716
     10666     10668     10715     10717     10666     10668     10715     10718
     10667     10666     10668     10669     10667     10666     10668     10670
     10667     10666     10668     10715     10668     10715     10718     10719
     10668     10715     10718     10720     10668     10715     10718     10721
     10669     10668     10715     10716     10669     10668     10715     10717
     10669     10668     10715     10718     10670     10668     10715     10716
     10670     10668     10715     10717     10670     10668     10715     10718
     10671     10674     10677     10678     10671     10674     10677     10679
     10671     10674     10677     10680     10672     10671     10674     10675
     10672     10671     10674     10676     10672     10671     10674     10677
     10673     10671     10674     10675     10673     10671     10674     10676
     10673     10671     10674     10677     10674     10677     10680     10681
     10674     10677     10680     10682     10674     10677     10680     10683
     10675     10674     10677     10678     10675     10674     10677     10679
     10675     10674     10677     10680     10676     10674     10677     10678
     10676     10674     10677     10679     10676     10674     10677     10680
     10677     10680     10683     10684     10677     10680     10683     10685
     10677     10680     10683     10686     10678     10677     10680     10681
     10678     10677     10680     10682     10678     10677     10680     10683
     10679     10677     10680     10681     10679     10677     10680     10682
     10679     10677     10680     10683     10680     10683     10686     10687
     10680     10683     10686     10688     10680     10683     10686     10689
     10681     10680     10683     10684     10681     10680     10683     10685
     10681     10680     10683     10686     10682     10680     10683     10684
     10682     10680     10683     10685     10682     10680     10683     10686
     10683     10686     10689     10690     10683     10686     10689     10691
     10683     10686     10689     10694     10684     10683     10686     10687
     10684     10683     10686     10688     10684     10683     10686     10689
     10685     10683     10686     10687     10685     10683     10686     10688
     10685     10683     10686     10689     10686     10689     10691     10692
     10686     10689     10691     10693     10686     10689     10691     10694
     10686     10689     10694     10691     10686     10689     10694     10695
     10686     10689     10694     10696     10687     10686     10689     10690
     10687     10686     10689     10691     10687     10686     10689     10694
     10688     10686     10689     10690     10688     10686     10689     10691
     10688     10686     10689     10694     10689     10691     10694     10695
     10689     10691     10694     10696     10689     10694     10691     10692
     10689     10694     10691     10693     10689     10694     10696     10697
     10689     10694     10696     10698     10689     10694     10696     10699
     10690     10689     10691     10692     10690     10689     10691     10693
     10690     10689     10691     10694     10690     10689     10694     10691
     10690     10689     10694     10695     10690     10689     10694     10696
     10691     10689     10694     10695     10691     10689     10694     10696
     10691     10694     10696     10697     10691     10694     10696     10698
     10691     10694     10696     10699     10692     10691     10689     10694
     10692     10691     10694     10695     10692     10691     10694     10696
     10693     10691     10689     10694     10693     10691     10694     10695
     10693     10691     10694     10696     10694     10696     10699     10700
     10694     10696     10699     10701     10694     10696     10699     10702
     10695     10694     10696     10697     10695     10694     10696     10698
     10695     10694     10696     10699     10696     10699     10702     10703
     10696     10699     10702     10704     10696     10699     10702     10705
     10697     10696     10699     10700     10697     10696     10699     10701
     10697     10696     10699     10702     10698     10696     10699     10700
     10698     10696     10699     10701     10698     10696     10699     10702
     10699     10702     10705     10706     10699     10702     10705     10707
     10699     10702     10705     10708     10700     10699     10702     10703
     10700     10699     10702     10704     10700     10699     10702     10705
     10701     10699     10702     10703     10701     10699     10702     10704
     10701     10699     10702     10705     10702     10705     10708     10709
     10702     10705     10708     10710     10702     10705     10708     10711
     10703     10702     10705     10706     10703     10702     10705     10707
     10703     10702     10705     10708     10704     10702     10705     10706
     10704     10702     10705     10707     10704     10702     10705     10708
     10705     10708     10711     10712     10705     10708     10711     10713
     10705     10708     10711     10714     10706     10705     10708     10709
     10706     10705     10708     10710     10706     10705     10708     10711
     10707     10705     10708     10709     10707     10705     10708     10710
     10707     10705     10708     10711     10709     10708     10711     10712
     10709     10708     10711     10713     10709     10708     10711     10714
     10710     10708     10711     10712     10710     10708     10711     10713
     10710     10708     10711     10714     10715     10718     10721     10722
     10715     10718     10721     10723     10715     10718     10721     10724
     10716     10715     10718     10719     10716     10715     10718     10720
     10716     10715     10718     10721     10717     10715     10718     10719
     10717     10715     10718     10720     10717     10715     10718     10721
     10718     10721     10724     10725     10718     10721     10724     10726
     10718     10721     10724     10727     10719     10718     10721     10722
     10719     10718     10721     10723     10719     10718     10721     10724
     10720     10718     10721     10722     10720     10718     10721     10723
     10720     10718     10721     10724     10721     10724     10727     10728
     10721     10724     10727     10729     10721     10724     10727     10730
     10722     10721     10724     10725     10722     10721     10724     10726
     10722     10721     10724     10727     10723     10721     10724     10725
     10723     10721     10724     10726     10723     10721     10724     10727
     10724     10727     10730     10731     10724     10727     10730     10732
     10724     10727     10730     10733     10725     10724     10727     10728
     10725     10724     10727     10729     10725     10724     10727     10730
     10726     10724     10727     10728     10726     10724     10727     10729
     10726     10724     10727     10730     10727     10730     10733     10734
     10727     10730     10733     10735     10727     10730     10733     10736
     10728     10727     10730     10731     10728     10727     10730     10732
     10728     10727     10730     10733     10729     10727     10730     10731
     10729     10727     10730     10732     10729     10727     10730     10733
     10730     10733     10736     10737     10730     10733     10736     10738
     10730     10733     10736     10739     10731     10730     10733     10734
     10731     10730     10733     10735     10731     10730     10733     10736
     10732     10730     10733     10734     10732     10730     10733     10735
     10732     10730     10733     10736     10733     10736     10739     10740
     10733     10736     10739     10741     10733     10736     10739     10742
     10734     10733     10736     10737     10734     10733     10736     10738
     10734     10733     10736     10739     10735     10733     10736     10737
     10735     10733     10736     10738     10735     10733     10736     10739
     10736     10739     10742     10743     10736     10739     10742     10744
     10736     10739     10742     10745     10737     10736     10739     10740
     10737     10736     10739     10741     10737     10736     10739     10742
     10738     10736     10739     10740     10738     10736     10739     10741
     10738     10736     10739     10742     10739     10742     10745     10746
     10739     10742     10745     10747     10739     10742     10745     10748
     10740     10739     10742     10743     10740     10739     10742     10744
     10740     10739     10742     10745     10741     10739     10742     10743
     10741     10739     10742     10744     10741     10739     10742     10745
     10742     10745     10748     10749     10742     10745     10748     10750
     10742     10745     10748     10751     10743     10742     10745     10746
     10743     10742     10745     10747     10743     10742     10745     10748
     10744     10742     10745     10746     10744     10742     10745     10747
     10744     10742     10745     10748     10745     10748     10751     10752
     10745     10748     10751     10753     10745     10748     10751     10754
     10746     10745     10748     10749     10746     10745     10748     10750
     10746     10745     10748     10751     10747     10745     10748     10749
     10747     10745     10748     10750     10747     10745     10748     10751
     10748     10751     10754     10755     10748     10751     10754     10756
     10748     10751     10754     10757     10749     10748     10751     10752
     10749     10748     10751     10753     10749     10748     10751     10754
     10750     10748     10751     10752     10750     10748     10751     10753
     10750     10748     10751     10754     10752     10751     10754     10755
     10752     10751     10754     10756     10752     10751     10754     10757
     10753     10751     10754     10755     10753     10751     10754     10756
     10753     10751     10754     10757     10758     10762     10765     10766
     10758     10762     10765     10767     10758     10762     10765     10772
     10759     10758     10762     10763     10759     10758     10762     10764
     10759     10758     10762     10765     10760     10758     10762     10763
     10760     10758     10762     10764     10760     10758     10762     10765
     10761     10758     10762     10763     10761     10758     10762     10764
     10761     10758     10762     10765     10762     10765     10772     10768
     10763     10762     10765     10766     10763     10762     10765     10767
     10763     10762     10765     10772     10764     10762     10765     10766
     10764     10762     10765     10767     10764     10762     10765     10772
     10765     10772     10768     10769     10765     10772     10768     10770
     10765     10772     10768     10771     10766     10765     10772     10768
     10767     10765     10772     10768     10768     10771     10773     10774
     10768     10771     10773     10775     10768     10771     10773     10776
     10769     10768     10771     10773     10770     10768     10771     10773
     10771     10773     10776     10777     10771     10773     10776     10778
     10771     10773     10776     10784     10772     10768     10771     10773
     10773     10776     10778     10779     10773     10776     10784     10785
     10773     10776     10784     10786     10773     10776     10784     10787
     10774     10773     10776     10777     10774     10773     10776     10778
     10774     10773     10776     10784     10775     10773     10776     10777
     10775     10773     10776     10778     10775     10773     10776     10784
     10776     10778     10779     10780     10776     10778     10779     10781
     10776     10784     10787     10788     10777     10776     10778     10779
     10777     10776     10784     10785     10777     10776     10784     10786
     10777     10776     10784     10787     10778     10776     10784     10785
     10778     10776     10784     10786     10778     10776     10784     10787
     10778     10779     10781     10782     10778     10779     10781     10783
     10778     10779     10781     10793     10779     10778     10776     10784
     10779     10781     10793     10794     10779     10781     10793     10795
     10779     10781     10793     10796     10780     10779     10781     10782
     10780     10779     10781     10783     10780     10779     10781     10793
     10781     10793     10796     10797     10781     10793     10796     10798
     10781     10793     10796     10799     10782     10781     10793     10794
     10782     10781     10793     10795     10782     10781     10793     10796
     10783     10781     10793     10794     10783     10781     10793     10795
     10783     10781     10793     10796     10784     10787     10788     10789
     10784     10787     10788     10790     10785     10784     10787     10788
     10786     10784     10787     10788     10787     10788     10790     10791
     10787     10788     10790     10792     10787     10788     10790     10837
     10788     10790     10837     10838     10788     10790     10837     10839
     10788     10790     10837     10840     10789     10788     10790     10791
     10789     10788     10790     10792     10789     10788     10790     10837
     10790     10837     10840     10841     10790     10837     10840     10842
     10790     10837     10840     10843     10791     10790     10837     10838
     10791     10790     10837     10839     10791     10790     10837     10840
     10792     10790     10837     10838     10792     10790     10837     10839
     10792     10790     10837     10840     10793     10796     10799     10800
     10793     10796     10799     10801     10793     10796     10799     10802
     10794     10793     10796     10797     10794     10793     10796     10798
     10794     10793     10796     10799     10795     10793     10796     10797
     10795     10793     10796     10798     10795     10793     10796     10799
     10796     10799     10802     10803     10796     10799     10802     10804
     10796     10799     10802     10805     10797     10796     10799     10800
     10797     10796     10799     10801     10797     10796     10799     10802
     10798     10796     10799     10800     10798     10796     10799     10801
     10798     10796     10799     10802     10799     10802     10805     10806
     10799     10802     10805     10807     10799     10802     10805     10808
     10800     10799     10802     10803     10800     10799     10802     10804
     10800     10799     10802     10805     10801     10799     10802     10803
     10801     10799     10802     10804     10801     10799     10802     10805
     10802     10805     10808     10809     10802     10805     10808     10810
     10802     10805     10808     10811     10803     10802     10805     10806
     10803     10802     10805     10807     10803     10802     10805     10808
     10804     10802     10805     10806     10804     10802     10805     10807
     10804     10802     10805     10808     10805     10808     10811     10812
     10805     10808     10811     10813     10805     10808     10811     10816
     10806     10805     10808     10809     10806     10805     10808     10810
     10806     10805     10808     10811     10807     10805     10808     10809
     10807     10805     10808     10810     10807     10805     10808     10811
     10808     10811     10813     10814     10808     10811     10813     10815
     10808     10811     10813     10816     10808     10811     10816     10813
     10808     10811     10816     10817     10808     10811     10816     10818
     10809     10808     10811     10812     10809     10808     10811     10813
     10809     10808     10811     10816     10810     10808     10811     10812
     10810     10808     10811     10813     10810     10808     10811     10816
     10811     10813     10816     10817     10811     10813     10816     10818
     10811     10816     10813     10814     10811     10816     10813     10815
     10811     10816     10818     10819     10811     10816     10818     10820
     10811     10816     10818     10821     10812     10811     10813     10814
     10812     10811     10813     10815     10812     10811     10813     10816
     10812     10811     10816     10813     10812     10811     10816     10817
     10812     10811     10816     10818     10813     10811     10816     10817
     10813     10811     10816     10818     10813     10816     10818     10819
     10813     10816     10818     10820     10813     10816     10818     10821
     10814     10813     10811     10816     10814     10813     10816     10817
     10814     10813     10816     10818     10815     10813     10811     10816
     10815     10813     10816     10817     10815     10813     10816     10818
     10816     10818     10821     10822     10816     10818     10821     10823
     10816     10818     10821     10824     10817     10816     10818     10819
     10817     10816     10818     10820     10817     10816     10818     10821
     10818     10821     10824     10825     10818     10821     10824     10826
     10818     10821     10824     10827     10819     10818     10821     10822
     10819     10818     10821     10823     10819     10818     10821     10824
     10820     10818     10821     10822     10820     10818     10821     10823
     10820     10818     10821     10824     10821     10824     10827     10828
     10821     10824     10827     10829     10821     10824     10827     10830
     10822     10821     10824     10825     10822     10821     10824     10826
     10822     10821     10824     10827     10823     10821     10824     10825
     10823     10821     10824     10826     10823     10821     10824     10827
     10824     10827     10830     10831     10824     10827     10830     10832
     10824     10827     10830     10833     10825     10824     10827     10828
     10825     10824     10827     10829     10825     10824     10827     10830
     10826     10824     10827     10828     10826     10824     10827     10829
     10826     10824     10827     10830     10827     10830     10833     10834
     10827     10830     10833     10835     10827     10830     10833     10836
     10828     10827     10830     10831     10828     10827     10830     10832
     10828     10827     10830     10833     10829     10827     10830     10831
     10829     10827     10830     10832     10829     10827     10830     10833
     10831     10830     10833     10834     10831     10830     10833     10835
     10831     10830     10833     10836     10832     10830     10833     10834
     10832     10830     10833     10835     10832     10830     10833     10836
     10837     10840     10843     10844     10837     10840     10843     10845
     10837     10840     10843     10846     10838     10837     10840     10841
     10838     10837     10840     10842     10838     10837     10840     10843
     10839     10837     10840     10841     10839     10837     10840     10842
     10839     10837     10840     10843     10840     10843     10846     10847
     10840     10843     10846     10848     10840     10843     10846     10849
     10841     10840     10843     10844     10841     10840     10843     10845
     10841     10840     10843     10846     10842     10840     10843     10844
     10842     10840     10843     10845     10842     10840     10843     10846
     10843     10846     10849     10850     10843     10846     10849     10851
     10843     10846     10849     10852     10844     10843     10846     10847
     10844     10843     10846     10848     10844     10843     10846     10849
     10845     10843     10846     10847     10845     10843     10846     10848
     10845     10843     10846     10849     10846     10849     10852     10853
     10846     10849     10852     10854     10846     10849     10852     10855
     10847     10846     10849     10850     10847     10846     10849     10851
     10847     10846     10849     10852     10848     10846     10849     10850
     10848     10846     10849     10851     10848     10846     10849     10852
     10849     10852     10855     10856     10849     10852     10855     10857
     10849     10852     10855     10858     10850     10849     10852     10853
     10850     10849     10852     10854     10850     10849     10852     10855
     10851     10849     10852     10853     10851     10849     10852     10854
     10851     10849     10852     10855     10852     10855     10858     10859
     10852     10855     10858     10860     10852     10855     10858     10861
     10853     10852     10855     10856     10853     10852     10855     10857
     10853     10852     10855     10858     10854     10852     10855     10856
     10854     10852     10855     10857     10854     10852     10855     10858
     10855     10858     10861     10862     10855     10858     10861     10863
     10855     10858     10861     10864     10856     10855     10858     10859
     10856     10855     10858     10860     10856     10855     10858     10861
     10857     10855     10858     10859     10857     10855     10858     10860
     10857     10855     10858     10861     10858     10861     10864     10865
     10858     10861     10864     10866     10858     10861     10864     10867
     10859     10858     10861     10862     10859     10858     10861     10863
     10859     10858     10861     10864     10860     10858     10861     10862
     10860     10858     10861     10863     10860     10858     10861     10864
     10861     10864     10867     10868     10861     10864     10867     10869
     10861     10864     10867     10870     10862     10861     10864     10865
     10862     10861     10864     10866     10862     10861     10864     10867
     10863     10861     10864     10865     10863     10861     10864     10866
     10863     10861     10864     10867     10864     10867     10870     10871
     10864     10867     10870     10872     10864     10867     10870     10873
     10865     10864     10867     10868     10865     10864     10867     10869
     10865     10864     10867     10870     10866     10864     10867     10868
     10866     10864     10867     10869     10866     10864     10867     10870
     10867     10870     10873     10874     10867     10870     10873     10875
     10867     10870     10873     10876     10868     10867     10870     10871
     10868     10867     10870     10872     10868     10867     10870     10873
     10869     10867     10870     10871     10869     10867     10870     10872
     10869     10867     10870     10873     10870     10873     10876     10877
     10870     10873     10876     10878     10870     10873     10876     10879
     10871     10870     10873     10874     10871     10870     10873     10875
     10871     10870     10873     10876     10872     10870     10873     10874
     10872     10870     10873     10875     10872     10870     10873     10876
     10874     10873     10876     10877     10874     10873     10876     10878
     10874     10873     10876     10879     10875     10873     10876     10877
     10875     10873     10876     10878     10875     10873     10876     10879
     10880     10885     10887     10888     10880     10885     10889     10890
     10880     10885     10889     10891     10880     10885     10889     10896
     10881     10880     10883     10884     10881     10880     10885     10886
     10881     10880     10885     10887     10881     10880     10885     10889
     10882     10880     10883     10884     10882     10880     10885     10886
     10882     10880     10885     10887     10882     10880     10885     10889
     10883     10880     10885     10886     10883     10880     10885     10887
     10883     10880     10885     10889     10884     10883     10880     10885
     10885     10889     10896     10892     10886     10885     10887     10888
     10886     10885     10889     10890     10886     10885     10889     10891
     10886     10885     10889     10896     10887     10885     10889     10890
     10887     10885     10889     10891     10887     10885     10889     10896
     10888     10887     10885     10889     10889     10896     10892     10893
     10889     10896     10892     10894     10889     10896     10892     10895
     10890     10889     10896     10892     10891     10889     10896     10892
     10892     10895     10897     10898     10892     10895     10897     10899
     10892     10895     10897     10900     10893     10892     10895     10897
     10894     10892     10895     10897     10895     10897     10900     10901
     10895     10897     10900     10902     10895     10897     10900     10908
     10896     10892     10895     10897     10897     10900     10902     10903
     10897     10900     10908     10909     10897     10900     10908     10910
     10897     10900     10908     10911     10898     10897     10900     10901
     10898     10897     10900     10902     10898     10897     10900     10908
     10899     10897     10900     10901     10899     10897     10900     10902
     10899     10897     10900     10908     10900     10902     10903     10904
     10900     10902     10903     10905     10900     10908     10911     10912
     10901     10900     10902     10903     10901     10900     10908     10909
     10901     10900     10908     10910     10901     10900     10908     10911
     10902     10900     10908     10909     10902     10900     10908     10910
     10902     10900     10908     10911     10902     10903     10905     10906
     10902     10903     10905     10907     10902     10903     10905     10917
     10903     10902     10900     10908     10903     10905     10917     10918
     10903     10905     10917     10919     10903     10905     10917     10920
     10904     10903     10905     10906     10904     10903     10905     10907
     10904     10903     10905     10917     10905     10917     10920     10921
     10905     10917     10920     10922     10905     10917     10920     10923
     10906     10905     10917     10918     10906     10905     10917     10919
     10906     10905     10917     10920     10907     10905     10917     10918
     10907     10905     10917     10919     10907     10905     10917     10920
     10908     10911     10912     10913     10908     10911     10912     10914
     10909     10908     10911     10912     10910     10908     10911     10912
     10911     10912     10914     10915     10911     10912     10914     10916
     10911     10912     10914     10958     10912     10914     10958     10959
     10912     10914     10958     10960     10912     10914     10958     10961
     10913     10912     10914     10915     10913     10912     10914     10916
     10913     10912     10914     10958     10914     10958     10961     10962
     10914     10958     10961     10963     10914     10958     10961     10964
     10915     10914     10958     10959     10915     10914     10958     10960
     10915     10914     10958     10961     10916     10914     10958     10959
     10916     10914     10958     10960     10916     10914     10958     10961
     10917     10920     10923     10924     10917     10920     10923     10925
     10917     10920     10923     10926     10918     10917     10920     10921
     10918     10917     10920     10922     10918     10917     10920     10923
     10919     10917     10920     10921     10919     10917     10920     10922
     10919     10917     10920     10923     10920     10923     10926     10927
     10920     10923     10926     10928     10920     10923     10926     10929
     10921     10920     10923     10924     10921     10920     10923     10925
     10921     10920     10923     10926     10922     10920     10923     10924
     10922     10920     10923     10925     10922     10920     10923     10926
     10923     10926     10929     10930     10923     10926     10929     10931
     10923     10926     10929     10932     10924     10923     10926     10927
     10924     10923     10926     10928     10924     10923     10926     10929
     10925     10923     10926     10927     10925     10923     10926     10928
     10925     10923     10926     10929     10926     10929     10932     10933
     10926     10929     10932     10934     10926     10929     10932     10935
     10927     10926     10929     10930     10927     10926     10929     10931
     10927     10926     10929     10932     10928     10926     10929     10930
     10928     10926     10929     10931     10928     10926     10929     10932
     10929     10932     10935     10936     10929     10932     10935     10937
     10930     10929     10932     10933     10930     10929     10932     10934
     10930     10929     10932     10935     10931     10929     10932     10933
     10931     10929     10932     10934     10931     10929     10932     10935
     10932     10935     10937     10938     10932     10935     10937     10939
     10933     10932     10935     10936     10933     10932     10935     10937
     10934     10932     10935     10936     10934     10932     10935     10937
     10935     10937     10939     10940     10935     10937     10939     10941
     10935     10937     10939     10942     10936     10935     10937     10938
     10936     10935     10937     10939     10937     10939     10942     10943
     10937     10939     10942     10944     10937     10939     10942     10945
     10938     10937     10939     10940     10938     10937     10939     10941
     10938     10937     10939     10942     10939     10942     10945     10946
     10939     10942     10945     10947     10939     10942     10945     10948
     10940     10939     10942     10943     10940     10939     10942     10944
     10940     10939     10942     10945     10941     10939     10942     10943
     10941     10939     10942     10944     10941     10939     10942     10945
     10942     10945     10948     10949     10942     10945     10948     10950
     10942     10945     10948     10951     10943     10942     10945     10946
     10943     10942     10945     10947     10943     10942     10945     10948
     10944     10942     10945     10946     10944     10942     10945     10947
     10944     10942     10945     10948     10945     10948     10951     10952
     10945     10948     10951     10953     10945     10948     10951     10954
     10946     10945     10948     10949     10946     10945     10948     10950
     10946     10945     10948     10951     10947     10945     10948     10949
     10947     10945     10948     10950     10947     10945     10948     10951
     10948     10951     10954     10955     10948     10951     10954     10956
     10948     10951     10954     10957     10949     10948     10951     10952
     10949     10948     10951     10953     10949     10948     10951     10954
     10950     10948     10951     10952     10950     10948     10951     10953
     10950     10948     10951     10954     10952     10951     10954     10955
     10952     10951     10954     10956     10952     10951     10954     10957
     10953     10951     10954     10955     10953     10951     10954     10956
     10953     10951     10954     10957     10958     10961     10964     10965
     10958     10961     10964     10966     10958     10961     10964     10967
     10959     10958     10961     10962     10959     10958     10961     10963
     10959     10958     10961     10964     10960     10958     10961     10962
     10960     10958     10961     10963     10960     10958     10961     10964
     10961     10964     10967     10968     10961     10964     10967     10969
     10961     10964     10967     10970     10962     10961     10964     10965
     10962     10961     10964     10966     10962     10961     10964     10967
     10963     10961     10964     10965     10963     10961     10964     10966
     10963     10961     10964     10967     10964     10967     10970     10971
     10964     10967     10970     10972     10964     10967     10970     10973
     10965     10964     10967     10968     10965     10964     10967     10969
     10965     10964     10967     10970     10966     10964     10967     10968
     10966     10964     10967     10969     10966     10964     10967     10970
     10967     10970     10973     10974     10967     10970     10973     10975
     10967     10970     10973     10976     10968     10967     10970     10971
     10968     10967     10970     10972     10968     10967     10970     10973
     10969     10967     10970     10971     10969     10967     10970     10972
     10969     10967     10970     10973     10970     10973     10976     10977
     10970     10973     10976     10978     10970     10973     10976     10979
     10971     10970     10973     10974     10971     10970     10973     10975
     10971     10970     10973     10976     10972     10970     10973     10974
     10972     10970     10973     10975     10972     10970     10973     10976
     10973     10976     10979     10980     10973     10976     10979     10981
     10973     10976     10979     10982     10974     10973     10976     10977
     10974     10973     10976     10978     10974     10973     10976     10979
     10975     10973     10976     10977     10975     10973     10976     10978
     10975     10973     10976     10979     10976     10979     10982     10983
     10976     10979     10982     10984     10976     10979     10982     10985
     10977     10976     10979     10980     10977     10976     10979     10981
     10977     10976     10979     10982     10978     10976     10979     10980
     10978     10976     10979     10981     10978     10976     10979     10982
     10979     10982     10985     10986     10979     10982     10985     10987
     10979     10982     10985     10988     10980     10979     10982     10983
     10980     10979     10982     10984     10980     10979     10982     10985
     10981     10979     10982     10983     10981     10979     10982     10984
     10981     10979     10982     10985     10982     10985     10988     10989
     10982     10985     10988     10990     10982     10985     10988     10991
     10983     10982     10985     10986     10983     10982     10985     10987
     10983     10982     10985     10988     10984     10982     10985     10986
     10984     10982     10985     10987     10984     10982     10985     10988
     10985     10988     10991     10992     10985     10988     10991     10993
     10985     10988     10991     10994     10986     10985     10988     10989
     10986     10985     10988     10990     10986     10985     10988     10991
     10987     10985     10988     10989     10987     10985     10988     10990
     10987     10985     10988     10991     10988     10991     10994     10995
     10988     10991     10994     10996     10988     10991     10994     10997
     10989     10988     10991     10992     10989     10988     10991     10993
     10989     10988     10991     10994     10990     10988     10991     10992
     10990     10988     10991     10993     10990     10988     10991     10994
     10991     10994     10997     10998     10991     10994     10997     10999
     10991     10994     10997     11000     10992     10991     10994     10995
     10992     10991     10994     10996     10992     10991     10994     10997
     10993     10991     10994     10995     10993     10991     10994     10996
     10993     10991     10994     10997     10995     10994     10997     10998
     10995     10994     10997     10999     10995     10994     10997     11000
     10996     10994     10997     10998     10996     10994     10997     10999
     10996     10994     10997     11000     11001     11006     11008     11009
     11001     11006     11010     11011     11001     11006     11010     11012
     11001     11006     11010     11017     11002     11001     11004     11005
     11002     11001     11006     11007     11002     11001     11006     11008
     11002     11001     11006     11010     11003     11001     11004     11005
     11003     11001     11006     11007     11003     11001     11006     11008
     11003     11001     11006     11010     11004     11001     11006     11007
     11004     11001     11006     11008     11004     11001     11006     11010
     11005     11004     11001     11006     11006     11010     11017     11013
     11007     11006     11008     11009     11007     11006     11010     11011
     11007     11006     11010     11012     11007     11006     11010     11017
     11008     11006     11010     11011     11008     11006     11010     11012
     11008     11006     11010     11017     11009     11008     11006     11010
     11010     11017     11013     11014     11010     11017     11013     11015
     11010     11017     11013     11016     11011     11010     11017     11013
     11012     11010     11017     11013     11013     11016     11018     11019
     11013     11016     11018     11020     11013     11016     11018     11021
     11014     11013     11016     11018     11015     11013     11016     11018
     11016     11018     11021     11022     11016     11018     11021     11023
     11016     11018     11021     11029     11017     11013     11016     11018
     11018     11021     11023     11024     11018     11021     11029     11030
     11018     11021     11029     11031     11018     11021     11029     11032
     11019     11018     11021     11022     11019     11018     11021     11023
     11019     11018     11021     11029     11020     11018     11021     11022
     11020     11018     11021     11023     11020     11018     11021     11029
     11021     11023     11024     11025     11021     11023     11024     11026
     11021     11029     11032     11033     11022     11021     11023     11024
     11022     11021     11029     11030     11022     11021     11029     11031
     11022     11021     11029     11032     11023     11021     11029     11030
     11023     11021     11029     11031     11023     11021     11029     11032
     11023     11024     11026     11027     11023     11024     11026     11028
     11023     11024     11026     11038     11024     11023     11021     11029
     11024     11026     11038     11039     11024     11026     11038     11040
     11024     11026     11038     11041     11025     11024     11026     11027
     11025     11024     11026     11028     11025     11024     11026     11038
     11026     11038     11041     11042     11026     11038     11041     11043
     11026     11038     11041     11044     11027     11026     11038     11039
     11027     11026     11038     11040     11027     11026     11038     11041
     11028     11026     11038     11039     11028     11026     11038     11040
     11028     11026     11038     11041     11029     11032     11033     11034
     11029     11032     11033     11035     11030     11029     11032     11033
     11031     11029     11032     11033     11032     11033     11035     11036
     11032     11033     11035     11037     11032     11033     11035     11082
     11033     11035     11082     11083     11033     11035     11082     11084
     11033     11035     11082     11085     11034     11033     11035     11036
     11034     11033     11035     11037     11034     11033     11035     11082
     11035     11082     11085     11086     11035     11082     11085     11087
     11035     11082     11085     11088     11036     11035     11082     11083
     11036     11035     11082     11084     11036     11035     11082     11085
     11037     11035     11082     11083     11037     11035     11082     11084
     11037     11035     11082     11085     11038     11041     11044     11045
     11038     11041     11044     11046     11038     11041     11044     11047
     11039     11038     11041     11042     11039     11038     11041     11043
     11039     11038     11041     11044     11040     11038     11041     11042
     11040     11038     11041     11043     11040     11038     11041     11044
     11041     11044     11047     11048     11041     11044     11047     11049
     11041     11044     11047     11050     11042     11041     11044     11045
     11042     11041     11044     11046     11042     11041     11044     11047
     11043     11041     11044     11045     11043     11041     11044     11046
     11043     11041     11044     11047     11044     11047     11050     11051
     11044     11047     11050     11052     11044     11047     11050     11053
     11045     11044     11047     11048     11045     11044     11047     11049
     11045     11044     11047     11050     11046     11044     11047     11048
     11046     11044     11047     11049     11046     11044     11047     11050
     11047     11050     11053     11054     11047     11050     11053     11055
     11047     11050     11053     11056     11048     11047     11050     11051
     11048     11047     11050     11052     11048     11047     11050     11053
     11049     11047     11050     11051     11049     11047     11050     11052
     11049     11047     11050     11053     11050     11053     11056     11057
     11050     11053     11056     11058     11050     11053     11056     11061
     11051     11050     11053     11054     11051     11050     11053     11055
     11051     11050     11053     11056     11052     11050     11053     11054
     11052     11050     11053     11055     11052     11050     11053     11056
     11053     11056     11058     11059     11053     11056     11058     11060
     11053     11056     11058     11061     11053     11056     11061     11058
     11053     11056     11061     11062     11053     11056     11061     11063
     11054     11053     11056     11057     11054     11053     11056     11058
     11054     11053     11056     11061     11055     11053     11056     11057
     11055     11053     11056     11058     11055     11053     11056     11061
     11056     11058     11061     11062     11056     11058     11061     11063
     11056     11061     11058     11059     11056     11061     11058     11060
     11056     11061     11063     11064     11056     11061     11063     11065
     11056     11061     11063     11066     11057     11056     11058     11059
     11057     11056     11058     11060     11057     11056     11058     11061
     11057     11056     11061     11058     11057     11056     11061     11062
     11057     11056     11061     11063     11058     11056     11061     11062
     11058     11056     11061     11063     11058     11061     11063     11064
     11058     11061     11063     11065     11058     11061     11063     11066
     11059     11058     11056     11061     11059     11058     11061     11062
     11059     11058     11061     11063     11060     11058     11056     11061
     11060     11058     11061     11062     11060     11058     11061     11063
     11061     11063     11066     11067     11061     11063     11066     11068
     11061     11063     11066     11069     11062     11061     11063     11064
     11062     11061     11063     11065     11062     11061     11063     11066
     11063     11066     11069     11070     11063     11066     11069     11071
     11063     11066     11069     11072     11064     11063     11066     11067
     11064     11063     11066     11068     11064     11063     11066     11069
     11065     11063     11066     11067     11065     11063     11066     11068
     11065     11063     11066     11069     11066     11069     11072     11073
     11066     11069     11072     11074     11066     11069     11072     11075
     11067     11066     11069     11070     11067     11066     11069     11071
     11067     11066     11069     11072     11068     11066     11069     11070
     11068     11066     11069     11071     11068     11066     11069     11072
     11069     11072     11075     11076     11069     11072     11075     11077
     11069     11072     11075     11078     11070     11069     11072     11073
     11070     11069     11072     11074     11070     11069     11072     11075
     11071     11069     11072     11073     11071     11069     11072     11074
     11071     11069     11072     11075     11072     11075     11078     11079
     11072     11075     11078     11080     11072     11075     11078     11081
     11073     11072     11075     11076     11073     11072     11075     11077
     11073     11072     11075     11078     11074     11072     11075     11076
     11074     11072     11075     11077     11074     11072     11075     11078
     11076     11075     11078     11079     11076     11075     11078     11080
     11076     11075     11078     11081     11077     11075     11078     11079
     11077     11075     11078     11080     11077     11075     11078     11081
     11082     11085     11088     11089     11082     11085     11088     11090
     11082     11085     11088     11091     11083     11082     11085     11086
     11083     11082     11085     11087     11083     11082     11085     11088
     11084     11082     11085     11086     11084     11082     11085     11087
     11084     11082     11085     11088     11085     11088     11091     11092
     11085     11088     11091     11093     11085     11088     11091     11094
     11086     11085     11088     11089     11086     11085     11088     11090
     11086     11085     11088     11091     11087     11085     11088     11089
     11087     11085     11088     11090     11087     11085     11088     11091
     11088     11091     11094     11095     11088     11091     11094     11096
     11088     11091     11094     11097     11089     11088     11091     11092
     11089     11088     11091     11093     11089     11088     11091     11094
     11090     11088     11091     11092     11090     11088     11091     11093
     11090     11088     11091     11094     11091     11094     11097     11098
     11091     11094     11097     11099     11091     11094     11097     11100
     11092     11091     11094     11095     11092     11091     11094     11096
     11092     11091     11094     11097     11093     11091     11094     11095
     11093     11091     11094     11096     11093     11091     11094     11097
     11094     11097     11100     11101     11094     11097     11100     11102
     11094     11097     11100     11103     11095     11094     11097     11098
     11095     11094     11097     11099     11095     11094     11097     11100
     11096     11094     11097     11098     11096     11094     11097     11099
     11096     11094     11097     11100     11097     11100     11103     11104
     11097     11100     11103     11105     11097     11100     11103     11106
     11098     11097     11100     11101     11098     11097     11100     11102
     11098     11097     11100     11103     11099     11097     11100     11101
     11099     11097     11100     11102     11099     11097     11100     11103
     11100     11103     11106     11107     11100     11103     11106     11108
     11100     11103     11106     11109     11101     11100     11103     11104
     11101     11100     11103     11105     11101     11100     11103     11106
     11102     11100     11103     11104     11102     11100     11103     11105
     11102     11100     11103     11106     11103     11106     11109     11110
     11103     11106     11109     11111     11103     11106     11109     11112
     11104     11103     11106     11107     11104     11103     11106     11108
     11104     11103     11106     11109     11105     11103     11106     11107
     11105     11103     11106     11108     11105     11103     11106     11109
     11106     11109     11112     11113     11106     11109     11112     11114
     11106     11109     11112     11115     11107     11106     11109     11110
     11107     11106     11109     11111     11107     11106     11109     11112
     11108     11106     11109     11110     11108     11106     11109     11111
     11108     11106     11109     11112     11109     11112     11115     11116
     11109     11112     11115     11117     11109     11112     11115     11118
     11110     11109     11112     11113     11110     11109     11112     11114
     11110     11109     11112     11115     11111     11109     11112     11113
     11111     11109     11112     11114     11111     11109     11112     11115
     11112     11115     11118     11119     11112     11115     11118     11120
     11112     11115     11118     11121     11113     11112     11115     11116
     11113     11112     11115     11117     11113     11112     11115     11118
     11114     11112     11115     11116     11114     11112     11115     11117
     11114     11112     11115     11118     11115     11118     11121     11122
     11115     11118     11121     11123     11115     11118     11121     11124
     11116     11115     11118     11119     11116     11115     11118     11120
     11116     11115     11118     11121     11117     11115     11118     11119
     11117     11115     11118     11120     11117     11115     11118     11121
     11119     11118     11121     11122     11119     11118     11121     11123
     11119     11118     11121     11124     11120     11118     11121     11122
     11120     11118     11121     11123     11120     11118     11121     11124
     11125     11129     11132     11133     11125     11129     11132     11134
     11125     11129     11132     11139     11126     11125     11129     11130
     11126     11125     11129     11131     11126     11125     11129     11132
     11127     11125     11129     11130     11127     11125     11129     11131
     11127     11125     11129     11132     11128     11125     11129     11130
     11128     11125     11129     11131     11128     11125     11129     11132
     11129     11132     11139     11135     11130     11129     11132     11133
     11130     11129     11132     11134     11130     11129     11132     11139
     11131     11129     11132     11133     11131     11129     11132     11134
     11131     11129     11132     11139     11132     11139     11135     11136
     11132     11139     11135     11137     11132     11139     11135     11138
     11133     11132     11139     11135     11134     11132     11139     11135
     11135     11138     11140     11141     11135     11138     11140     11142
     11135     11138     11140     11143     11136     11135     11138     11140
     11137     11135     11138     11140     11138     11140     11143     11144
     11138     11140     11143     11145     11138     11140     11143     11151
     11139     11135     11138     11140     11140     11143     11145     11146
     11140     11143     11151     11152     11140     11143     11151     11153
     11140     11143     11151     11154     11141     11140     11143     11144
     11141     11140     11143     11145     11141     11140     11143     11151
     11142     11140     11143     11144     11142     11140     11143     11145
     11142     11140     11143     11151     11143     11145     11146     11147
     11143     11145     11146     11148     11143     11151     11154     11155
     11144     11143     11145     11146     11144     11143     11151     11152
     11144     11143     11151     11153     11144     11143     11151     11154
     11145     11143     11151     11152     11145     11143     11151     11153
     11145     11143     11151     11154     11145     11146     11148     11149
     11145     11146     11148     11150     11145     11146     11148     11160
     11146     11145     11143     11151     11146     11148     11160     11161
     11146     11148     11160     11162     11146     11148     11160     11163
     11147     11146     11148     11149     11147     11146     11148     11150
     11147     11146     11148     11160     11148     11160     11163     11164
     11148     11160     11163     11165     11148     11160     11163     11166
     11149     11148     11160     11161     11149     11148     11160     11162
     11149     11148     11160     11163     11150     11148     11160     11161
     11150     11148     11160     11162     11150     11148     11160     11163
     11151     11154     11155     11156     11151     11154     11155     11157
     11152     11151     11154     11155     11153     11151     11154     11155
     11154     11155     11157     11158     11154     11155     11157     11159
     11154     11155     11157     11204     11155     11157     11204     11205
     11155     11157     11204     11206     11155     11157     11204     11207
     11156     11155     11157     11158     11156     11155     11157     11159
     11156     11155     11157     11204     11157     11204     11207     11208
     11157     11204     11207     11209     11157     11204     11207     11210
     11158     11157     11204     11205     11158     11157     11204     11206
     11158     11157     11204     11207     11159     11157     11204     11205
     11159     11157     11204     11206     11159     11157     11204     11207
     11160     11163     11166     11167     11160     11163     11166     11168
     11160     11163     11166     11169     11161     11160     11163     11164
     11161     11160     11163     11165     11161     11160     11163     11166
     11162     11160     11163     11164     11162     11160     11163     11165
     11162     11160     11163     11166     11163     11166     11169     11170
     11163     11166     11169     11171     11163     11166     11169     11172
     11164     11163     11166     11167     11164     11163     11166     11168
     11164     11163     11166     11169     11165     11163     11166     11167
     11165     11163     11166     11168     11165     11163     11166     11169
     11166     11169     11172     11173     11166     11169     11172     11174
     11166     11169     11172     11175     11167     11166     11169     11170
     11167     11166     11169     11171     11167     11166     11169     11172
     11168     11166     11169     11170     11168     11166     11169     11171
     11168     11166     11169     11172     11169     11172     11175     11176
     11169     11172     11175     11177     11169     11172     11175     11178
     11170     11169     11172     11173     11170     11169     11172     11174
     11170     11169     11172     11175     11171     11169     11172     11173
     11171     11169     11172     11174     11171     11169     11172     11175
     11172     11175     11178     11179     11172     11175     11178     11180
     11172     11175     11178     11183     11173     11172     11175     11176
     11173     11172     11175     11177     11173     11172     11175     11178
     11174     11172     11175     11176     11174     11172     11175     11177
     11174     11172     11175     11178     11175     11178     11180     11181
     11175     11178     11180     11182     11175     11178     11180     11183
     11175     11178     11183     11180     11175     11178     11183     11184
     11175     11178     11183     11185     11176     11175     11178     11179
     11176     11175     11178     11180     11176     11175     11178     11183
     11177     11175     11178     11179     11177     11175     11178     11180
     11177     11175     11178     11183     11178     11180     11183     11184
     11178     11180     11183     11185     11178     11183     11180     11181
     11178     11183     11180     11182     11178     11183     11185     11186
     11178     11183     11185     11187     11178     11183     11185     11188
     11179     11178     11180     11181     11179     11178     11180     11182
     11179     11178     11180     11183     11179     11178     11183     11180
     11179     11178     11183     11184     11179     11178     11183     11185
     11180     11178     11183     11184     11180     11178     11183     11185
     11180     11183     11185     11186     11180     11183     11185     11187
     11180     11183     11185     11188     11181     11180     11178     11183
     11181     11180     11183     11184     11181     11180     11183     11185
     11182     11180     11178     11183     11182     11180     11183     11184
     11182     11180     11183     11185     11183     11185     11188     11189
     11183     11185     11188     11190     11183     11185     11188     11191
     11184     11183     11185     11186     11184     11183     11185     11187
     11184     11183     11185     11188     11185     11188     11191     11192
     11185     11188     11191     11193     11185     11188     11191     11194
     11186     11185     11188     11189     11186     11185     11188     11190
     11186     11185     11188     11191     11187     11185     11188     11189
     11187     11185     11188     11190     11187     11185     11188     11191
     11188     11191     11194     11195     11188     11191     11194     11196
     11188     11191     11194     11197     11189     11188     11191     11192
     11189     11188     11191     11193     11189     11188     11191     11194
     11190     11188     11191     11192     11190     11188     11191     11193
     11190     11188     11191     11194     11191     11194     11197     11198
     11191     11194     11197     11199     11191     11194     11197     11200
     11192     11191     11194     11195     11192     11191     11194     11196
     11192     11191     11194     11197     11193     11191     11194     11195
     11193     11191     11194     11196     11193     11191     11194     11197
     11194     11197     11200     11201     11194     11197     11200     11202
     11194     11197     11200     11203     11195     11194     11197     11198
     11195     11194     11197     11199     11195     11194     11197     11200
     11196     11194     11197     11198     11196     11194     11197     11199
     11196     11194     11197     11200     11198     11197     11200     11201
     11198     11197     11200     11202     11198     11197     11200     11203
     11199     11197     11200     11201     11199     11197     11200     11202
     11199     11197     11200     11203     11204     11207     11210     11211
     11204     11207     11210     11212     11204     11207     11210     11213
     11205     11204     11207     11208     11205     11204     11207     11209
     11205     11204     11207     11210     11206     11204     11207     11208
     11206     11204     11207     11209     11206     11204     11207     11210
     11207     11210     11213     11214     11207     11210     11213     11215
     11207     11210     11213     11216     11208     11207     11210     11211
     11208     11207     11210     11212     11208     11207     11210     11213
     11209     11207     11210     11211     11209     11207     11210     11212
     11209     11207     11210     11213     11210     11213     11216     11217
     11210     11213     11216     11218     11210     11213     11216     11219
     11211     11210     11213     11214     11211     11210     11213     11215
     11211     11210     11213     11216     11212     11210     11213     11214
     11212     11210     11213     11215     11212     11210     11213     11216
     11213     11216     11219     11220     11213     11216     11219     11221
     11213     11216     11219     11222     11214     11213     11216     11217
     11214     11213     11216     11218     11214     11213     11216     11219
     11215     11213     11216     11217     11215     11213     11216     11218
     11215     11213     11216     11219     11216     11219     11222     11223
     11216     11219     11222     11224     11216     11219     11222     11225
     11217     11216     11219     11220     11217     11216     11219     11221
     11217     11216     11219     11222     11218     11216     11219     11220
     11218     11216     11219     11221     11218     11216     11219     11222
     11219     11222     11225     11226     11219     11222     11225     11227
     11219     11222     11225     11228     11220     11219     11222     11223
     11220     11219     11222     11224     11220     11219     11222     11225
     11221     11219     11222     11223     11221     11219     11222     11224
     11221     11219     11222     11225     11222     11225     11228     11229
     11222     11225     11228     11230     11222     11225     11228     11231
     11223     11222     11225     11226     11223     11222     11225     11227
     11223     11222     11225     11228     11224     11222     11225     11226
     11224     11222     11225     11227     11224     11222     11225     11228
     11225     11228     11231     11232     11225     11228     11231     11233
     11225     11228     11231     11234     11226     11225     11228     11229
     11226     11225     11228     11230     11226     11225     11228     11231
     11227     11225     11228     11229     11227     11225     11228     11230
     11227     11225     11228     11231     11228     11231     11234     11235
     11228     11231     11234     11236     11228     11231     11234     11237
     11229     11228     11231     11232     11229     11228     11231     11233
     11229     11228     11231     11234     11230     11228     11231     11232
     11230     11228     11231     11233     11230     11228     11231     11234
     11231     11234     11237     11238     11231     11234     11237     11239
     11231     11234     11237     11240     11232     11231     11234     11235
     11232     11231     11234     11236     11232     11231     11234     11237
     11233     11231     11234     11235     11233     11231     11234     11236
     11233     11231     11234     11237     11234     11237     11240     11241
     11234     11237     11240     11242     11234     11237     11240     11243
     11235     11234     11237     11238     11235     11234     11237     11239
     11235     11234     11237     11240     11236     11234     11237     11238
     11236     11234     11237     11239     11236     11234     11237     11240
     11237     11240     11243     11244     11237     11240     11243     11245
     11237     11240     11243     11246     11238     11237     11240     11241
     11238     11237     11240     11242     11238     11237     11240     11243
     11239     11237     11240     11241     11239     11237     11240     11242
     11239     11237     11240     11243     11241     11240     11243     11244
     11241     11240     11243     11245     11241     11240     11243     11246
     11242     11240     11243     11244     11242     11240     11243     11245
     11242     11240     11243     11246     11247     11251     11254     11255
     11247     11251     11254     11256     11247     11251     11254     11261
     11248     11247     11251     11252     11248     11247     11251     11253
     11248     11247     11251     11254     11249     11247     11251     11252
     11249     11247     11251     11253     11249     11247     11251     11254
     11250     11247     11251     11252     11250     11247     11251     11253
     11250     11247     11251     11254     11251     11254     11261     11257
     11252     11251     11254     11255     11252     11251     11254     11256
     11252     11251     11254     11261     11253     11251     11254     11255
     11253     11251     11254     11256     11253     11251     11254     11261
     11254     11261     11257     11258     11254     11261     11257     11259
     11254     11261     11257     11260     11255     11254     11261     11257
     11256     11254     11261     11257     11257     11260     11262     11263
     11257     11260     11262     11264     11257     11260     11262     11265
     11258     11257     11260     11262     11259     11257     11260     11262
     11260     11262     11265     11266     11260     11262     11265     11267
     11260     11262     11265     11273     11261     11257     11260     11262
     11262     11265     11267     11268     11262     11265     11273     11274
     11262     11265     11273     11275     11262     11265     11273     11276
     11263     11262     11265     11266     11263     11262     11265     11267
     11263     11262     11265     11273     11264     11262     11265     11266
     11264     11262     11265     11267     11264     11262     11265     11273
     11265     11267     11268     11269     11265     11267     11268     11270
     11265     11273     11276     11277     11266     11265     11267     11268
     11266     11265     11273     11274     11266     11265     11273     11275
     11266     11265     11273     11276     11267     11265     11273     11274
     11267     11265     11273     11275     11267     11265     11273     11276
     11267     11268     11270     11271     11267     11268     11270     11272
     11267     11268     11270     11282     11268     11267     11265     11273
     11268     11270     11282     11283     11268     11270     11282     11284
     11268     11270     11282     11285     11269     11268     11270     11271
     11269     11268     11270     11272     11269     11268     11270     11282
     11270     11282     11285     11286     11270     11282     11285     11287
     11270     11282     11285     11288     11271     11270     11282     11283
     11271     11270     11282     11284     11271     11270     11282     11285
     11272     11270     11282     11283     11272     11270     11282     11284
     11272     11270     11282     11285     11273     11276     11277     11278
     11273     11276     11277     11279     11274     11273     11276     11277
     11275     11273     11276     11277     11276     11277     11279     11280
     11276     11277     11279     11281     11276     11277     11279     11323
     11277     11279     11323     11324     11277     11279     11323     11325
     11277     11279     11323     11326     11278     11277     11279     11280
     11278     11277     11279     11281     11278     11277     11279     11323
     11279     11323     11326     11327     11279     11323     11326     11328
     11279     11323     11326     11329     11280     11279     11323     11324
     11280     11279     11323     11325     11280     11279     11323     11326
     11281     11279     11323     11324     11281     11279     11323     11325
     11281     11279     11323     11326     11282     11285     11288     11289
     11282     11285     11288     11290     11282     11285     11288     11291
     11283     11282     11285     11286     11283     11282     11285     11287
     11283     11282     11285     11288     11284     11282     11285     11286
     11284     11282     11285     11287     11284     11282     11285     11288
     11285     11288     11291     11292     11285     11288     11291     11293
     11285     11288     11291     11294     11286     11285     11288     11289
     11286     11285     11288     11290     11286     11285     11288     11291
     11287     11285     11288     11289     11287     11285     11288     11290
     11287     11285     11288     11291     11288     11291     11294     11295
     11288     11291     11294     11296     11288     11291     11294     11297
     11289     11288     11291     11292     11289     11288     11291     11293
     11289     11288     11291     11294     11290     11288     11291     11292
     11290     11288     11291     11293     11290     11288     11291     11294
     11291     11294     11297     11298     11291     11294     11297     11299
     11291     11294     11297     11300     11292     11291     11294     11295
     11292     11291     11294     11296     11292     11291     11294     11297
     11293     11291     11294     11295     11293     11291     11294     11296
     11293     11291     11294     11297     11294     11297     11300     11301
     11294     11297     11300     11302     11295     11294     11297     11298
     11295     11294     11297     11299     11295     11294     11297     11300
     11296     11294     11297     11298     11296     11294     11297     11299
     11296     11294     11297     11300     11297     11300     11302     11303
     11297     11300     11302     11304     11298     11297     11300     11301
     11298     11297     11300     11302     11299     11297     11300     11301
     11299     11297     11300     11302     11300     11302     11304     11305
     11300     11302     11304     11306     11300     11302     11304     11307
     11301     11300     11302     11303     11301     11300     11302     11304
     11302     11304     11307     11308     11302     11304     11307     11309
     11302     11304     11307     11310     11303     11302     11304     11305
     11303     11302     11304     11306     11303     11302     11304     11307
     11304     11307     11310     11311     11304     11307     11310     11312
     11304     11307     11310     11313     11305     11304     11307     11308
     11305     11304     11307     11309     11305     11304     11307     11310
     11306     11304     11307     11308     11306     11304     11307     11309
     11306     11304     11307     11310     11307     11310     11313     11314
     11307     11310     11313     11315     11307     11310     11313     11316
     11308     11307     11310     11311     11308     11307     11310     11312
     11308     11307     11310     11313     11309     11307     11310     11311
     11309     11307     11310     11312     11309     11307     11310     11313
     11310     11313     11316     11317     11310     11313     11316     11318
     11310     11313     11316     11319     11311     11310     11313     11314
     11311     11310     11313     11315     11311     11310     11313     11316
     11312     11310     11313     11314     11312     11310     11313     11315
     11312     11310     11313     11316     11313     11316     11319     11320
     11313     11316     11319     11321     11313     11316     11319     11322
     11314     11313     11316     11317     11314     11313     11316     11318
     11314     11313     11316     11319     11315     11313     11316     11317
     11315     11313     11316     11318     11315     11313     11316     11319
     11317     11316     11319     11320     11317     11316     11319     11321
     11317     11316     11319     11322     11318     11316     11319     11320
     11318     11316     11319     11321     11318     11316     11319     11322
     11323     11326     11329     11330     11323     11326     11329     11331
     11323     11326     11329     11332     11324     11323     11326     11327
     11324     11323     11326     11328     11324     11323     11326     11329
     11325     11323     11326     11327     11325     11323     11326     11328
     11325     11323     11326     11329     11326     11329     11332     11333
     11326     11329     11332     11334     11326     11329     11332     11335
     11327     11326     11329     11330     11327     11326     11329     11331
     11327     11326     11329     11332     11328     11326     11329     11330
     11328     11326     11329     11331     11328     11326     11329     11332
     11329     11332     11335     11336     11329     11332     11335     11337
     11329     11332     11335     11338     11330     11329     11332     11333
     11330     11329     11332     11334     11330     11329     11332     11335
     11331     11329     11332     11333     11331     11329     11332     11334
     11331     11329     11332     11335     11332     11335     11338     11339
     11332     11335     11338     11340     11332     11335     11338     11341
     11333     11332     11335     11336     11333     11332     11335     11337
     11333     11332     11335     11338     11334     11332     11335     11336
     11334     11332     11335     11337     11334     11332     11335     11338
     11335     11338     11341     11342     11335     11338     11341     11343
     11336     11335     11338     11339     11336     11335     11338     11340
     11336     11335     11338     11341     11337     11335     11338     11339
     11337     11335     11338     11340     11337     11335     11338     11341
     11338     11341     11343     11344     11338     11341     11343     11345
     11339     11338     11341     11342     11339     11338     11341     11343
     11340     11338     11341     11342     11340     11338     11341     11343
     11341     11343     11345     11346     11341     11343     11345     11347
     11341     11343     11345     11348     11342     11341     11343     11344
     11342     11341     11343     11345     11343     11345     11348     11349
     11343     11345     11348     11350     11343     11345     11348     11351
     11344     11343     11345     11346     11344     11343     11345     11347
     11344     11343     11345     11348     11345     11348     11351     11352
     11345     11348     11351     11353     11345     11348     11351     11354
     11346     11345     11348     11349     11346     11345     11348     11350
     11346     11345     11348     11351     11347     11345     11348     11349
     11347     11345     11348     11350     11347     11345     11348     11351
     11348     11351     11354     11355     11348     11351     11354     11356
     11348     11351     11354     11357     11349     11348     11351     11352
     11349     11348     11351     11353     11349     11348     11351     11354
     11350     11348     11351     11352     11350     11348     11351     11353
     11350     11348     11351     11354     11351     11354     11357     11358
     11351     11354     11357     11359     11351     11354     11357     11360
     11352     11351     11354     11355     11352     11351     11354     11356
     11352     11351     11354     11357     11353     11351     11354     11355
     11353     11351     11354     11356     11353     11351     11354     11357
     11354     11357     11360     11361     11354     11357     11360     11362
     11354     11357     11360     11363     11355     11354     11357     11358
     11355     11354     11357     11359     11355     11354     11357     11360
     11356     11354     11357     11358     11356     11354     11357     11359
     11356     11354     11357     11360     11357     11360     11363     11364
     11357     11360     11363     11365     11357     11360     11363     11366
     11358     11357     11360     11361     11358     11357     11360     11362
     11358     11357     11360     11363     11359     11357     11360     11361
     11359     11357     11360     11362     11359     11357     11360     11363
     11360     11363     11366     11367     11360     11363     11366     11368
     11360     11363     11366     11369     11361     11360     11363     11364
     11361     11360     11363     11365     11361     11360     11363     11366
     11362     11360     11363     11364     11362     11360     11363     11365
     11362     11360     11363     11366     11364     11363     11366     11367
     11364     11363     11366     11368     11364     11363     11366     11369
     11365     11363     11366     11367     11365     11363     11366     11368
     11365     11363     11366     11369     11370     11375     11377     11378
     11370     11375     11379     11380     11370     11375     11379     11381
     11370     11375     11379     11386     11371     11370     11373     11374
     11371     11370     11375     11376     11371     11370     11375     11377
     11371     11370     11375     11379     11372     11370     11373     11374
     11372     11370     11375     11376     11372     11370     11375     11377
     11372     11370     11375     11379     11373     11370     11375     11376
     11373     11370     11375     11377     11373     11370     11375     11379
     11374     11373     11370     11375     11375     11379     11386     11382
     11376     11375     11377     11378     11376     11375     11379     11380
     11376     11375     11379     11381     11376     11375     11379     11386
     11377     11375     11379     11380     11377     11375     11379     11381
     11377     11375     11379     11386     11378     11377     11375     11379
     11379     11386     11382     11383     11379     11386     11382     11384
     11379     11386     11382     11385     11380     11379     11386     11382
     11381     11379     11386     11382     11382     11385     11387     11388
     11382     11385     11387     11389     11382     11385     11387     11390
     11383     11382     11385     11387     11384     11382     11385     11387
     11385     11387     11390     11391     11385     11387     11390     11392
     11385     11387     11390     11398     11386     11382     11385     11387
     11387     11390     11392     11393     11387     11390     11398     11399
     11387     11390     11398     11400     11387     11390     11398     11401
     11388     11387     11390     11391     11388     11387     11390     11392
     11388     11387     11390     11398     11389     11387     11390     11391
     11389     11387     11390     11392     11389     11387     11390     11398
     11390     11392     11393     11394     11390     11392     11393     11395
     11390     11398     11401     11402     11391     11390     11392     11393
     11391     11390     11398     11399     11391     11390     11398     11400
     11391     11390     11398     11401     11392     11390     11398     11399
     11392     11390     11398     11400     11392     11390     11398     11401
     11392     11393     11395     11396     11392     11393     11395     11397
     11392     11393     11395     11407     11393     11392     11390     11398
     11393     11395     11407     11408     11393     11395     11407     11409
     11393     11395     11407     11410     11394     11393     11395     11396
     11394     11393     11395     11397     11394     11393     11395     11407
     11395     11407     11410     11411     11395     11407     11410     11412
     11395     11407     11410     11413     11396     11395     11407     11408
     11396     11395     11407     11409     11396     11395     11407     11410
     11397     11395     11407     11408     11397     11395     11407     11409
     11397     11395     11407     11410     11398     11401     11402     11403
     11398     11401     11402     11404     11399     11398     11401     11402
     11400     11398     11401     11402     11401     11402     11404     11405
     11401     11402     11404     11406     11401     11402     11404     11448
     11402     11404     11448     11449     11402     11404     11448     11450
     11402     11404     11448     11451     11403     11402     11404     11405
     11403     11402     11404     11406     11403     11402     11404     11448
     11404     11448     11451     11452     11404     11448     11451     11453
     11404     11448     11451     11454     11405     11404     11448     11449
     11405     11404     11448     11450     11405     11404     11448     11451
     11406     11404     11448     11449     11406     11404     11448     11450
     11406     11404     11448     11451     11407     11410     11413     11414
     11407     11410     11413     11415     11407     11410     11413     11416
     11408     11407     11410     11411     11408     11407     11410     11412
     11408     11407     11410     11413     11409     11407     11410     11411
     11409     11407     11410     11412     11409     11407     11410     11413
     11410     11413     11416     11417     11410     11413     11416     11418
     11410     11413     11416     11419     11411     11410     11413     11414
     11411     11410     11413     11415     11411     11410     11413     11416
     11412     11410     11413     11414     11412     11410     11413     11415
     11412     11410     11413     11416     11413     11416     11419     11420
     11413     11416     11419     11421     11413     11416     11419     11422
     11414     11413     11416     11417     11414     11413     11416     11418
     11414     11413     11416     11419     11415     11413     11416     11417
     11415     11413     11416     11418     11415     11413     11416     11419
     11416     11419     11422     11423     11416     11419     11422     11424
     11416     11419     11422     11425     11417     11416     11419     11420
     11417     11416     11419     11421     11417     11416     11419     11422
     11418     11416     11419     11420     11418     11416     11419     11421
     11418     11416     11419     11422     11419     11422     11425     11426
     11419     11422     11425     11427     11420     11419     11422     11423
     11420     11419     11422     11424     11420     11419     11422     11425
     11421     11419     11422     11423     11421     11419     11422     11424
     11421     11419     11422     11425     11422     11425     11427     11428
     11422     11425     11427     11429     11423     11422     11425     11426
     11423     11422     11425     11427     11424     11422     11425     11426
     11424     11422     11425     11427     11425     11427     11429     11430
     11425     11427     11429     11431     11425     11427     11429     11432
     11426     11425     11427     11428     11426     11425     11427     11429
     11427     11429     11432     11433     11427     11429     11432     11434
     11427     11429     11432     11435     11428     11427     11429     11430
     11428     11427     11429     11431     11428     11427     11429     11432
     11429     11432     11435     11436     11429     11432     11435     11437
     11429     11432     11435     11438     11430     11429     11432     11433
     11430     11429     11432     11434     11430     11429     11432     11435
     11431     11429     11432     11433     11431     11429     11432     11434
     11431     11429     11432     11435     11432     11435     11438     11439
     11432     11435     11438     11440     11432     11435     11438     11441
     11433     11432     11435     11436     11433     11432     11435     11437
     11433     11432     11435     11438     11434     11432     11435     11436
     11434     11432     11435     11437     11434     11432     11435     11438
     11435     11438     11441     11442     11435     11438     11441     11443
     11435     11438     11441     11444     11436     11435     11438     11439
     11436     11435     11438     11440     11436     11435     11438     11441
     11437     11435     11438     11439     11437     11435     11438     11440
     11437     11435     11438     11441     11438     11441     11444     11445
     11438     11441     11444     11446     11438     11441     11444     11447
     11439     11438     11441     11442     11439     11438     11441     11443
     11439     11438     11441     11444     11440     11438     11441     11442
     11440     11438     11441     11443     11440     11438     11441     11444
     11442     11441     11444     11445     11442     11441     11444     11446
     11442     11441     11444     11447     11443     11441     11444     11445
     11443     11441     11444     11446     11443     11441     11444     11447
     11448     11451     11454     11455     11448     11451     11454     11456
     11448     11451     11454     11457     11449     11448     11451     11452
     11449     11448     11451     11453     11449     11448     11451     11454
     11450     11448     11451     11452     11450     11448     11451     11453
     11450     11448     11451     11454     11451     11454     11457     11458
     11451     11454     11457     11459     11451     11454     11457     11460
     11452     11451     11454     11455     11452     11451     11454     11456
     11452     11451     11454     11457     11453     11451     11454     11455
     11453     11451     11454     11456     11453     11451     11454     11457
     11454     11457     11460     11461     11454     11457     11460     11462
     11454     11457     11460     11463     11455     11454     11457     11458
     11455     11454     11457     11459     11455     11454     11457     11460
     11456     11454     11457     11458     11456     11454     11457     11459
     11456     11454     11457     11460     11457     11460     11463     11464
     11457     11460     11463     11465     11457     11460     11463     11466
     11458     11457     11460     11461     11458     11457     11460     11462
     11458     11457     11460     11463     11459     11457     11460     11461
     11459     11457     11460     11462     11459     11457     11460     11463
     11460     11463     11466     11467     11460     11463     11466     11468
     11460     11463     11466     11469     11461     11460     11463     11464
     11461     11460     11463     11465     11461     11460     11463     11466
     11462     11460     11463     11464     11462     11460     11463     11465
     11462     11460     11463     11466     11463     11466     11469     11470
     11463     11466     11469     11471     11463     11466     11469     11472
     11464     11463     11466     11467     11464     11463     11466     11468
     11464     11463     11466     11469     11465     11463     11466     11467
     11465     11463     11466     11468     11465     11463     11466     11469
     11466     11469     11472     11473     11466     11469     11472     11474
     11466     11469     11472     11475     11467     11466     11469     11470
     11467     11466     11469     11471     11467     11466     11469     11472
     11468     11466     11469     11470     11468     11466     11469     11471
     11468     11466     11469     11472     11469     11472     11475     11476
     11469     11472     11475     11477     11469     11472     11475     11478
     11470     11469     11472     11473     11470     11469     11472     11474
     11470     11469     11472     11475     11471     11469     11472     11473
     11471     11469     11472     11474     11471     11469     11472     11475
     11472     11475     11478     11479     11472     11475     11478     11480
     11472     11475     11478     11481     11473     11472     11475     11476
     11473     11472     11475     11477     11473     11472     11475     11478
     11474     11472     11475     11476     11474     11472     11475     11477
     11474     11472     11475     11478     11475     11478     11481     11482
     11475     11478     11481     11483     11475     11478     11481     11484
     11476     11475     11478     11479     11476     11475     11478     11480
     11476     11475     11478     11481     11477     11475     11478     11479
     11477     11475     11478     11480     11477     11475     11478     11481
     11478     11481     11484     11485     11478     11481     11484     11486
     11478     11481     11484     11487     11479     11478     11481     11482
     11479     11478     11481     11483     11479     11478     11481     11484
     11480     11478     11481     11482     11480     11478     11481     11483
     11480     11478     11481     11484     11481     11484     11487     11488
     11481     11484     11487     11489     11481     11484     11487     11490
     11482     11481     11484     11485     11482     11481     11484     11486
     11482     11481     11484     11487     11483     11481     11484     11485
     11483     11481     11484     11486     11483     11481     11484     11487
     11485     11484     11487     11488     11485     11484     11487     11489
     11485     11484     11487     11490     11486     11484     11487     11488
     11486     11484     11487     11489     11486     11484     11487     11490
     11491     11495     11498     11499     11491     11495     11498     11500
     11491     11495     11498     11505     11492     11491     11495     11496
     11492     11491     11495     11497     11492     11491     11495     11498
     11493     11491     11495     11496     11493     11491     11495     11497
     11493     11491     11495     11498     11494     11491     11495     11496
     11494     11491     11495     11497     11494     11491     11495     11498
     11495     11498     11505     11501     11496     11495     11498     11499
     11496     11495     11498     11500     11496     11495     11498     11505
     11497     11495     11498     11499     11497     11495     11498     11500
     11497     11495     11498     11505     11498     11505     11501     11502
     11498     11505     11501     11503     11498     11505     11501     11504
     11499     11498     11505     11501     11500     11498     11505     11501
     11501     11504     11506     11507     11501     11504     11506     11508
     11501     11504     11506     11509     11502     11501     11504     11506
     11503     11501     11504     11506     11504     11506     11509     11510
     11504     11506     11509     11511     11504     11506     11509     11517
     11505     11501     11504     11506     11506     11509     11511     11512
     11506     11509     11517     11518     11506     11509     11517     11519
     11506     11509     11517     11520     11507     11506     11509     11510
     11507     11506     11509     11511     11507     11506     11509     11517
     11508     11506     11509     11510     11508     11506     11509     11511
     11508     11506     11509     11517     11509     11511     11512     11513
     11509     11511     11512     11514     11509     11517     11520     11521
     11510     11509     11511     11512     11510     11509     11517     11518
     11510     11509     11517     11519     11510     11509     11517     11520
     11511     11509     11517     11518     11511     11509     11517     11519
     11511     11509     11517     11520     11511     11512     11514     11515
     11511     11512     11514     11516     11511     11512     11514     11526
     11512     11511     11509     11517     11512     11514     11526     11527
     11512     11514     11526     11528     11512     11514     11526     11529
     11513     11512     11514     11515     11513     11512     11514     11516
     11513     11512     11514     11526     11514     11526     11529     11530
     11514     11526     11529     11531     11514     11526     11529     11532
     11515     11514     11526     11527     11515     11514     11526     11528
     11515     11514     11526     11529     11516     11514     11526     11527
     11516     11514     11526     11528     11516     11514     11526     11529
     11517     11520     11521     11522     11517     11520     11521     11523
     11518     11517     11520     11521     11519     11517     11520     11521
     11520     11521     11523     11524     11520     11521     11523     11525
     11520     11521     11523     11570     11521     11523     11570     11571
     11521     11523     11570     11572     11521     11523     11570     11573
     11522     11521     11523     11524     11522     11521     11523     11525
     11522     11521     11523     11570     11523     11570     11573     11574
     11523     11570     11573     11575     11523     11570     11573     11576
     11524     11523     11570     11571     11524     11523     11570     11572
     11524     11523     11570     11573     11525     11523     11570     11571
     11525     11523     11570     11572     11525     11523     11570     11573
     11526     11529     11532     11533     11526     11529     11532     11534
     11526     11529     11532     11535     11527     11526     11529     11530
     11527     11526     11529     11531     11527     11526     11529     11532
     11528     11526     11529     11530     11528     11526     11529     11531
     11528     11526     11529     11532     11529     11532     11535     11536
     11529     11532     11535     11537     11529     11532     11535     11538
     11530     11529     11532     11533     11530     11529     11532     11534
     11530     11529     11532     11535     11531     11529     11532     11533
     11531     11529     11532     11534     11531     11529     11532     11535
     11532     11535     11538     11539     11532     11535     11538     11540
     11532     11535     11538     11541     11533     11532     11535     11536
     11533     11532     11535     11537     11533     11532     11535     11538
     11534     11532     11535     11536     11534     11532     11535     11537
     11534     11532     11535     11538     11535     11538     11541     11542
     11535     11538     11541     11543     11535     11538     11541     11544
     11536     11535     11538     11539     11536     11535     11538     11540
     11536     11535     11538     11541     11537     11535     11538     11539
     11537     11535     11538     11540     11537     11535     11538     11541
     11538     11541     11544     11545     11538     11541     11544     11546
     11538     11541     11544     11549     11539     11538     11541     11542
     11539     11538     11541     11543     11539     11538     11541     11544
     11540     11538     11541     11542     11540     11538     11541     11543
     11540     11538     11541     11544     11541     11544     11546     11547
     11541     11544     11546     11548     11541     11544     11546     11549
     11541     11544     11549     11546     11541     11544     11549     11550
     11541     11544     11549     11551     11542     11541     11544     11545
     11542     11541     11544     11546     11542     11541     11544     11549
     11543     11541     11544     11545     11543     11541     11544     11546
     11543     11541     11544     11549     11544     11546     11549     11550
     11544     11546     11549     11551     11544     11549     11546     11547
     11544     11549     11546     11548     11544     11549     11551     11552
     11544     11549     11551     11553     11544     11549     11551     11554
     11545     11544     11546     11547     11545     11544     11546     11548
     11545     11544     11546     11549     11545     11544     11549     11546
     11545     11544     11549     11550     11545     11544     11549     11551
     11546     11544     11549     11550     11546     11544     11549     11551
     11546     11549     11551     11552     11546     11549     11551     11553
     11546     11549     11551     11554     11547     11546     11544     11549
     11547     11546     11549     11550     11547     11546     11549     11551
     11548     11546     11544     11549     11548     11546     11549     11550
     11548     11546     11549     11551     11549     11551     11554     11555
     11549     11551     11554     11556     11549     11551     11554     11557
     11550     11549     11551     11552     11550     11549     11551     11553
     11550     11549     11551     11554     11551     11554     11557     11558
     11551     11554     11557     11559     11551     11554     11557     11560
     11552     11551     11554     11555     11552     11551     11554     11556
     11552     11551     11554     11557     11553     11551     11554     11555
     11553     11551     11554     11556     11553     11551     11554     11557
     11554     11557     11560     11561     11554     11557     11560     11562
     11554     11557     11560     11563     11555     11554     11557     11558
     11555     11554     11557     11559     11555     11554     11557     11560
     11556     11554     11557     11558     11556     11554     11557     11559
     11556     11554     11557     11560     11557     11560     11563     11564
     11557     11560     11563     11565     11557     11560     11563     11566
     11558     11557     11560     11561     11558     11557     11560     11562
     11558     11557     11560     11563     11559     11557     11560     11561
     11559     11557     11560     11562     11559     11557     11560     11563
     11560     11563     11566     11567     11560     11563     11566     11568
     11560     11563     11566     11569     11561     11560     11563     11564
     11561     11560     11563     11565     11561     11560     11563     11566
     11562     11560     11563     11564     11562     11560     11563     11565
     11562     11560     11563     11566     11564     11563     11566     11567
     11564     11563     11566     11568     11564     11563     11566     11569
     11565     11563     11566     11567     11565     11563     11566     11568
     11565     11563     11566     11569     11570     11573     11576     11577
     11570     11573     11576     11578     11570     11573     11576     11579
     11571     11570     11573     11574     11571     11570     11573     11575
     11571     11570     11573     11576     11572     11570     11573     11574
     11572     11570     11573     11575     11572     11570     11573     11576
     11573     11576     11579     11580     11573     11576     11579     11581
     11573     11576     11579     11582     11574     11573     11576     11577
     11574     11573     11576     11578     11574     11573     11576     11579
     11575     11573     11576     11577     11575     11573     11576     11578
     11575     11573     11576     11579     11576     11579     11582     11583
     11576     11579     11582     11584     11576     11579     11582     11585
     11577     11576     11579     11580     11577     11576     11579     11581
     11577     11576     11579     11582     11578     11576     11579     11580
     11578     11576     11579     11581     11578     11576     11579     11582
     11579     11582     11585     11586     11579     11582     11585     11587
     11579     11582     11585     11588     11580     11579     11582     11583
     11580     11579     11582     11584     11580     11579     11582     11585
     11581     11579     11582     11583     11581     11579     11582     11584
     11581     11579     11582     11585     11582     11585     11588     11589
     11582     11585     11588     11590     11582     11585     11588     11591
     11583     11582     11585     11586     11583     11582     11585     11587
     11583     11582     11585     11588     11584     11582     11585     11586
     11584     11582     11585     11587     11584     11582     11585     11588
     11585     11588     11591     11592     11585     11588     11591     11593
     11585     11588     11591     11594     11586     11585     11588     11589
     11586     11585     11588     11590     11586     11585     11588     11591
     11587     11585     11588     11589     11587     11585     11588     11590
     11587     11585     11588     11591     11588     11591     11594     11595
     11588     11591     11594     11596     11588     11591     11594     11597
     11589     11588     11591     11592     11589     11588     11591     11593
     11589     11588     11591     11594     11590     11588     11591     11592
     11590     11588     11591     11593     11590     11588     11591     11594
     11591     11594     11597     11598     11591     11594     11597     11599
     11591     11594     11597     11600     11592     11591     11594     11595
     11592     11591     11594     11596     11592     11591     11594     11597
     11593     11591     11594     11595     11593     11591     11594     11596
     11593     11591     11594     11597     11594     11597     11600     11601
     11594     11597     11600     11602     11594     11597     11600     11603
     11595     11594     11597     11598     11595     11594     11597     11599
     11595     11594     11597     11600     11596     11594     11597     11598
     11596     11594     11597     11599     11596     11594     11597     11600
     11597     11600     11603     11604     11597     11600     11603     11605
     11597     11600     11603     11606     11598     11597     11600     11601
     11598     11597     11600     11602     11598     11597     11600     11603
     11599     11597     11600     11601     11599     11597     11600     11602
     11599     11597     11600     11603     11600     11603     11606     11607
     11600     11603     11606     11608     11600     11603     11606     11609
     11601     11600     11603     11604     11601     11600     11603     11605
     11601     11600     11603     11606     11602     11600     11603     11604
     11602     11600     11603     11605     11602     11600     11603     11606
     11603     11606     11609     11610     11603     11606     11609     11611
     11603     11606     11609     11612     11604     11603     11606     11607
     11604     11603     11606     11608     11604     11603     11606     11609
     11605     11603     11606     11607     11605     11603     11606     11608
     11605     11603     11606     11609     11607     11606     11609     11610
     11607     11606     11609     11611     11607     11606     11609     11612
     11608     11606     11609     11610     11608     11606     11609     11611
     11608     11606     11609     11612     11613     11617     11620     11621
     11613     11617     11620     11622     11613     11617     11620     11627
     11614     11613     11617     11618     11614     11613     11617     11619
     11614     11613     11617     11620     11615     11613     11617     11618
     11615     11613     11617     11619     11615     11613     11617     11620
     11616     11613     11617     11618     11616     11613     11617     11619
     11616     11613     11617     11620     11617     11620     11627     11623
     11618     11617     11620     11621     11618     11617     11620     11622
     11618     11617     11620     11627     11619     11617     11620     11621
     11619     11617     11620     11622     11619     11617     11620     11627
     11620     11627     11623     11624     11620     11627     11623     11625
     11620     11627     11623     11626     11621     11620     11627     11623
     11622     11620     11627     11623     11623     11626     11628     11629
     11623     11626     11628     11630     11623     11626     11628     11631
     11624     11623     11626     11628     11625     11623     11626     11628
     11626     11628     11631     11632     11626     11628     11631     11633
     11626     11628     11631     11639     11627     11623     11626     11628
     11628     11631     11633     11634     11628     11631     11639     11640
     11628     11631     11639     11641     11628     11631     11639     11642
     11629     11628     11631     11632     11629     11628     11631     11633
     11629     11628     11631     11639     11630     11628     11631     11632
     11630     11628     11631     11633     11630     11628     11631     11639
     11631     11633     11634     11635     11631     11633     11634     11636
     11631     11639     11642     11643     11632     11631     11633     11634
     11632     11631     11639     11640     11632     11631     11639     11641
     11632     11631     11639     11642     11633     11631     11639     11640
     11633     11631     11639     11641     11633     11631     11639     11642
     11633     11634     11636     11637     11633     11634     11636     11638
     11633     11634     11636     11648     11634     11633     11631     11639
     11634     11636     11648     11649     11634     11636     11648     11650
     11634     11636     11648     11651     11635     11634     11636     11637
     11635     11634     11636     11638     11635     11634     11636     11648
     11636     11648     11651     11652     11636     11648     11651     11653
     11636     11648     11651     11654     11637     11636     11648     11649
     11637     11636     11648     11650     11637     11636     11648     11651
     11638     11636     11648     11649     11638     11636     11648     11650
     11638     11636     11648     11651     11639     11642     11643     11644
     11639     11642     11643     11645     11640     11639     11642     11643
     11641     11639     11642     11643     11642     11643     11645     11646
     11642     11643     11645     11647     11642     11643     11645     11692
     11643     11645     11692     11693     11643     11645     11692     11694
     11643     11645     11692     11695     11644     11643     11645     11646
     11644     11643     11645     11647     11644     11643     11645     11692
     11645     11692     11695     11696     11645     11692     11695     11697
     11645     11692     11695     11698     11646     11645     11692     11693
     11646     11645     11692     11694     11646     11645     11692     11695
     11647     11645     11692     11693     11647     11645     11692     11694
     11647     11645     11692     11695     11648     11651     11654     11655
     11648     11651     11654     11656     11648     11651     11654     11657
     11649     11648     11651     11652     11649     11648     11651     11653
     11649     11648     11651     11654     11650     11648     11651     11652
     11650     11648     11651     11653     11650     11648     11651     11654
     11651     11654     11657     11658     11651     11654     11657     11659
     11651     11654     11657     11660     11652     11651     11654     11655
     11652     11651     11654     11656     11652     11651     11654     11657
     11653     11651     11654     11655     11653     11651     11654     11656
     11653     11651     11654     11657     11654     11657     11660     11661
     11654     11657     11660     11662     11654     11657     11660     11663
     11655     11654     11657     11658     11655     11654     11657     11659
     11655     11654     11657     11660     11656     11654     11657     11658
     11656     11654     11657     11659     11656     11654     11657     11660
     11657     11660     11663     11664     11657     11660     11663     11665
     11657     11660     11663     11666     11658     11657     11660     11661
     11658     11657     11660     11662     11658     11657     11660     11663
     11659     11657     11660     11661     11659     11657     11660     11662
     11659     11657     11660     11663     11660     11663     11666     11667
     11660     11663     11666     11668     11660     11663     11666     11671
     11661     11660     11663     11664     11661     11660     11663     11665
     11661     11660     11663     11666     11662     11660     11663     11664
     11662     11660     11663     11665     11662     11660     11663     11666
     11663     11666     11668     11669     11663     11666     11668     11670
     11663     11666     11668     11671     11663     11666     11671     11668
     11663     11666     11671     11672     11663     11666     11671     11673
     11664     11663     11666     11667     11664     11663     11666     11668
     11664     11663     11666     11671     11665     11663     11666     11667
     11665     11663     11666     11668     11665     11663     11666     11671
     11666     11668     11671     11672     11666     11668     11671     11673
     11666     11671     11668     11669     11666     11671     11668     11670
     11666     11671     11673     11674     11666     11671     11673     11675
     11666     11671     11673     11676     11667     11666     11668     11669
     11667     11666     11668     11670     11667     11666     11668     11671
     11667     11666     11671     11668     11667     11666     11671     11672
     11667     11666     11671     11673     11668     11666     11671     11672
     11668     11666     11671     11673     11668     11671     11673     11674
     11668     11671     11673     11675     11668     11671     11673     11676
     11669     11668     11666     11671     11669     11668     11671     11672
     11669     11668     11671     11673     11670     11668     11666     11671
     11670     11668     11671     11672     11670     11668     11671     11673
     11671     11673     11676     11677     11671     11673     11676     11678
     11671     11673     11676     11679     11672     11671     11673     11674
     11672     11671     11673     11675     11672     11671     11673     11676
     11673     11676     11679     11680     11673     11676     11679     11681
     11673     11676     11679     11682     11674     11673     11676     11677
     11674     11673     11676     11678     11674     11673     11676     11679
     11675     11673     11676     11677     11675     11673     11676     11678
     11675     11673     11676     11679     11676     11679     11682     11683
     11676     11679     11682     11684     11676     11679     11682     11685
     11677     11676     11679     11680     11677     11676     11679     11681
     11677     11676     11679     11682     11678     11676     11679     11680
     11678     11676     11679     11681     11678     11676     11679     11682
     11679     11682     11685     11686     11679     11682     11685     11687
     11679     11682     11685     11688     11680     11679     11682     11683
     11680     11679     11682     11684     11680     11679     11682     11685
     11681     11679     11682     11683     11681     11679     11682     11684
     11681     11679     11682     11685     11682     11685     11688     11689
     11682     11685     11688     11690     11682     11685     11688     11691
     11683     11682     11685     11686     11683     11682     11685     11687
     11683     11682     11685     11688     11684     11682     11685     11686
     11684     11682     11685     11687     11684     11682     11685     11688
     11686     11685     11688     11689     11686     11685     11688     11690
     11686     11685     11688     11691     11687     11685     11688     11689
     11687     11685     11688     11690     11687     11685     11688     11691
     11692     11695     11698     11699     11692     11695     11698     11700
     11692     11695     11698     11701     11693     11692     11695     11696
     11693     11692     11695     11697     11693     11692     11695     11698
     11694     11692     11695     11696     11694     11692     11695     11697
     11694     11692     11695     11698     11695     11698     11701     11702
     11695     11698     11701     11703     11695     11698     11701     11704
     11696     11695     11698     11699     11696     11695     11698     11700
     11696     11695     11698     11701     11697     11695     11698     11699
     11697     11695     11698     11700     11697     11695     11698     11701
     11698     11701     11704     11705     11698     11701     11704     11706
     11698     11701     11704     11707     11699     11698     11701     11702
     11699     11698     11701     11703     11699     11698     11701     11704
     11700     11698     11701     11702     11700     11698     11701     11703
     11700     11698     11701     11704     11701     11704     11707     11708
     11701     11704     11707     11709     11701     11704     11707     11710
     11702     11701     11704     11705     11702     11701     11704     11706
     11702     11701     11704     11707     11703     11701     11704     11705
     11703     11701     11704     11706     11703     11701     11704     11707
     11704     11707     11710     11711     11704     11707     11710     11712
     11704     11707     11710     11713     11705     11704     11707     11708
     11705     11704     11707     11709     11705     11704     11707     11710
     11706     11704     11707     11708     11706     11704     11707     11709
     11706     11704     11707     11710     11707     11710     11713     11714
     11707     11710     11713     11715     11707     11710     11713     11716
     11708     11707     11710     11711     11708     11707     11710     11712
     11708     11707     11710     11713     11709     11707     11710     11711
     11709     11707     11710     11712     11709     11707     11710     11713
     11710     11713     11716     11717     11710     11713     11716     11718
     11710     11713     11716     11719     11711     11710     11713     11714
     11711     11710     11713     11715     11711     11710     11713     11716
     11712     11710     11713     11714     11712     11710     11713     11715
     11712     11710     11713     11716     11713     11716     11719     11720
     11713     11716     11719     11721     11713     11716     11719     11722
     11714     11713     11716     11717     11714     11713     11716     11718
     11714     11713     11716     11719     11715     11713     11716     11717
     11715     11713     11716     11718     11715     11713     11716     11719
     11716     11719     11722     11723     11716     11719     11722     11724
     11716     11719     11722     11725     11717     11716     11719     11720
     11717     11716     11719     11721     11717     11716     11719     11722
     11718     11716     11719     11720     11718     11716     11719     11721
     11718     11716     11719     11722     11719     11722     11725     11726
     11719     11722     11725     11727     11719     11722     11725     11728
     11720     11719     11722     11723     11720     11719     11722     11724
     11720     11719     11722     11725     11721     11719     11722     11723
     11721     11719     11722     11724     11721     11719     11722     11725
     11722     11725     11728     11729     11722     11725     11728     11730
     11722     11725     11728     11731     11723     11722     11725     11726
     11723     11722     11725     11727     11723     11722     11725     11728
     11724     11722     11725     11726     11724     11722     11725     11727
     11724     11722     11725     11728     11725     11728     11731     11732
     11725     11728     11731     11733     11725     11728     11731     11734
     11726     11725     11728     11729     11726     11725     11728     11730
     11726     11725     11728     11731     11727     11725     11728     11729
     11727     11725     11728     11730     11727     11725     11728     11731
     11729     11728     11731     11732     11729     11728     11731     11733
     11729     11728     11731     11734     11730     11728     11731     11732
     11730     11728     11731     11733     11730     11728     11731     11734
     11735     11739     11742     11743     11735     11739     11742     11744
     11735     11739     11742     11749     11736     11735     11739     11740
     11736     11735     11739     11741     11736     11735     11739     11742
     11737     11735     11739     11740     11737     11735     11739     11741
     11737     11735     11739     11742     11738     11735     11739     11740
     11738     11735     11739     11741     11738     11735     11739     11742
     11739     11742     11749     11745     11740     11739     11742     11743
     11740     11739     11742     11744     11740     11739     11742     11749
     11741     11739     11742     11743     11741     11739     11742     11744
     11741     11739     11742     11749     11742     11749     11745     11746
     11742     11749     11745     11747     11742     11749     11745     11748
     11743     11742     11749     11745     11744     11742     11749     11745
     11745     11748     11750     11751     11745     11748     11750     11752
     11745     11748     11750     11753     11746     11745     11748     11750
     11747     11745     11748     11750     11748     11750     11753     11754
     11748     11750     11753     11755     11748     11750     11753     11761
     11749     11745     11748     11750     11750     11753     11755     11756
     11750     11753     11761     11762     11750     11753     11761     11763
     11750     11753     11761     11764     11751     11750     11753     11754
     11751     11750     11753     11755     11751     11750     11753     11761
     11752     11750     11753     11754     11752     11750     11753     11755
     11752     11750     11753     11761     11753     11755     11756     11757
     11753     11755     11756     11758     11753     11761     11764     11765
     11754     11753     11755     11756     11754     11753     11761     11762
     11754     11753     11761     11763     11754     11753     11761     11764
     11755     11753     11761     11762     11755     11753     11761     11763
     11755     11753     11761     11764     11755     11756     11758     11759
     11755     11756     11758     11760     11755     11756     11758     11770
     11756     11755     11753     11761     11756     11758     11770     11771
     11756     11758     11770     11772     11756     11758     11770     11773
     11757     11756     11758     11759     11757     11756     11758     11760
     11757     11756     11758     11770     11758     11770     11773     11774
     11758     11770     11773     11775     11758     11770     11773     11776
     11759     11758     11770     11771     11759     11758     11770     11772
     11759     11758     11770     11773     11760     11758     11770     11771
     11760     11758     11770     11772     11760     11758     11770     11773
     11761     11764     11765     11766     11761     11764     11765     11767
     11762     11761     11764     11765     11763     11761     11764     11765
     11764     11765     11767     11768     11764     11765     11767     11769
     11764     11765     11767     11814     11765     11767     11814     11815
     11765     11767     11814     11816     11765     11767     11814     11817
     11766     11765     11767     11768     11766     11765     11767     11769
     11766     11765     11767     11814     11767     11814     11817     11818
     11767     11814     11817     11819     11767     11814     11817     11820
     11768     11767     11814     11815     11768     11767     11814     11816
     11768     11767     11814     11817     11769     11767     11814     11815
     11769     11767     11814     11816     11769     11767     11814     11817
     11770     11773     11776     11777     11770     11773     11776     11778
     11770     11773     11776     11779     11771     11770     11773     11774
     11771     11770     11773     11775     11771     11770     11773     11776
     11772     11770     11773     11774     11772     11770     11773     11775
     11772     11770     11773     11776     11773     11776     11779     11780
     11773     11776     11779     11781     11773     11776     11779     11782
     11774     11773     11776     11777     11774     11773     11776     11778
     11774     11773     11776     11779     11775     11773     11776     11777
     11775     11773     11776     11778     11775     11773     11776     11779
     11776     11779     11782     11783     11776     11779     11782     11784
     11776     11779     11782     11785     11777     11776     11779     11780
     11777     11776     11779     11781     11777     11776     11779     11782
     11778     11776     11779     11780     11778     11776     11779     11781
     11778     11776     11779     11782     11779     11782     11785     11786
     11779     11782     11785     11787     11779     11782     11785     11788
     11780     11779     11782     11783     11780     11779     11782     11784
     11780     11779     11782     11785     11781     11779     11782     11783
     11781     11779     11782     11784     11781     11779     11782     11785
     11782     11785     11788     11789     11782     11785     11788     11790
     11782     11785     11788     11793     11783     11782     11785     11786
     11783     11782     11785     11787     11783     11782     11785     11788
     11784     11782     11785     11786     11784     11782     11785     11787
     11784     11782     11785     11788     11785     11788     11790     11791
     11785     11788     11790     11792     11785     11788     11790     11793
     11785     11788     11793     11790     11785     11788     11793     11794
     11785     11788     11793     11795     11786     11785     11788     11789
     11786     11785     11788     11790     11786     11785     11788     11793
     11787     11785     11788     11789     11787     11785     11788     11790
     11787     11785     11788     11793     11788     11790     11793     11794
     11788     11790     11793     11795     11788     11793     11790     11791
     11788     11793     11790     11792     11788     11793     11795     11796
     11788     11793     11795     11797     11788     11793     11795     11798
     11789     11788     11790     11791     11789     11788     11790     11792
     11789     11788     11790     11793     11789     11788     11793     11790
     11789     11788     11793     11794     11789     11788     11793     11795
     11790     11788     11793     11794     11790     11788     11793     11795
     11790     11793     11795     11796     11790     11793     11795     11797
     11790     11793     11795     11798     11791     11790     11788     11793
     11791     11790     11793     11794     11791     11790     11793     11795
     11792     11790     11788     11793     11792     11790     11793     11794
     11792     11790     11793     11795     11793     11795     11798     11799
     11793     11795     11798     11800     11793     11795     11798     11801
     11794     11793     11795     11796     11794     11793     11795     11797
     11794     11793     11795     11798     11795     11798     11801     11802
     11795     11798     11801     11803     11795     11798     11801     11804
     11796     11795     11798     11799     11796     11795     11798     11800
     11796     11795     11798     11801     11797     11795     11798     11799
     11797     11795     11798     11800     11797     11795     11798     11801
     11798     11801     11804     11805     11798     11801     11804     11806
     11798     11801     11804     11807     11799     11798     11801     11802
     11799     11798     11801     11803     11799     11798     11801     11804
     11800     11798     11801     11802     11800     11798     11801     11803
     11800     11798     11801     11804     11801     11804     11807     11808
     11801     11804     11807     11809     11801     11804     11807     11810
     11802     11801     11804     11805     11802     11801     11804     11806
     11802     11801     11804     11807     11803     11801     11804     11805
     11803     11801     11804     11806     11803     11801     11804     11807
     11804     11807     11810     11811     11804     11807     11810     11812
     11804     11807     11810     11813     11805     11804     11807     11808
     11805     11804     11807     11809     11805     11804     11807     11810
     11806     11804     11807     11808     11806     11804     11807     11809
     11806     11804     11807     11810     11808     11807     11810     11811
     11808     11807     11810     11812     11808     11807     11810     11813
     11809     11807     11810     11811     11809     11807     11810     11812
     11809     11807     11810     11813     11814     11817     11820     11821
     11814     11817     11820     11822     11814     11817     11820     11823
     11815     11814     11817     11818     11815     11814     11817     11819
     11815     11814     11817     11820     11816     11814     11817     11818
     11816     11814     11817     11819     11816     11814     11817     11820
     11817     11820     11823     11824     11817     11820     11823     11825
     11817     11820     11823     11826     11818     11817     11820     11821
     11818     11817     11820     11822     11818     11817     11820     11823
     11819     11817     11820     11821     11819     11817     11820     11822
     11819     11817     11820     11823     11820     11823     11826     11827
     11820     11823     11826     11828     11820     11823     11826     11829
     11821     11820     11823     11824     11821     11820     11823     11825
     11821     11820     11823     11826     11822     11820     11823     11824
     11822     11820     11823     11825     11822     11820     11823     11826
     11823     11826     11829     11830     11823     11826     11829     11831
     11823     11826     11829     11832     11824     11823     11826     11827
     11824     11823     11826     11828     11824     11823     11826     11829
     11825     11823     11826     11827     11825     11823     11826     11828
     11825     11823     11826     11829     11826     11829     11832     11833
     11826     11829     11832     11834     11826     11829     11832     11835
     11827     11826     11829     11830     11827     11826     11829     11831
     11827     11826     11829     11832     11828     11826     11829     11830
     11828     11826     11829     11831     11828     11826     11829     11832
     11829     11832     11835     11836     11829     11832     11835     11837
     11829     11832     11835     11838     11830     11829     11832     11833
     11830     11829     11832     11834     11830     11829     11832     11835
     11831     11829     11832     11833     11831     11829     11832     11834
     11831     11829     11832     11835     11832     11835     11838     11839
     11832     11835     11838     11840     11832     11835     11838     11841
     11833     11832     11835     11836     11833     11832     11835     11837
     11833     11832     11835     11838     11834     11832     11835     11836
     11834     11832     11835     11837     11834     11832     11835     11838
     11835     11838     11841     11842     11835     11838     11841     11843
     11835     11838     11841     11844     11836     11835     11838     11839
     11836     11835     11838     11840     11836     11835     11838     11841
     11837     11835     11838     11839     11837     11835     11838     11840
     11837     11835     11838     11841     11838     11841     11844     11845
     11838     11841     11844     11846     11838     11841     11844     11847
     11839     11838     11841     11842     11839     11838     11841     11843
     11839     11838     11841     11844     11840     11838     11841     11842
     11840     11838     11841     11843     11840     11838     11841     11844
     11841     11844     11847     11848     11841     11844     11847     11849
     11841     11844     11847     11850     11842     11841     11844     11845
     11842     11841     11844     11846     11842     11841     11844     11847
     11843     11841     11844     11845     11843     11841     11844     11846
     11843     11841     11844     11847     11844     11847     11850     11851
     11844     11847     11850     11852     11844     11847     11850     11853
     11845     11844     11847     11848     11845     11844     11847     11849
     11845     11844     11847     11850     11846     11844     11847     11848
     11846     11844     11847     11849     11846     11844     11847     11850
     11847     11850     11853     11854     11847     11850     11853     11855
     11847     11850     11853     11856     11848     11847     11850     11851
     11848     11847     11850     11852     11848     11847     11850     11853
     11849     11847     11850     11851     11849     11847     11850     11852
     11849     11847     11850     11853     11851     11850     11853     11854
     11851     11850     11853     11855     11851     11850     11853     11856
     11852     11850     11853     11854     11852     11850     11853     11855
     11852     11850     11853     11856     11857     11861     11864     11865
     11857     11861     11864     11866     11857     11861     11864     11871
     11858     11857     11861     11862     11858     11857     11861     11863
     11858     11857     11861     11864     11859     11857     11861     11862
     11859     11857     11861     11863     11859     11857     11861     11864
     11860     11857     11861     11862     11860     11857     11861     11863
     11860     11857     11861     11864     11861     11864     11871     11867
     11862     11861     11864     11865     11862     11861     11864     11866
     11862     11861     11864     11871     11863     11861     11864     11865
     11863     11861     11864     11866     11863     11861     11864     11871
     11864     11871     11867     11868     11864     11871     11867     11869
     11864     11871     11867     11870     11865     11864     11871     11867
     11866     11864     11871     11867     11867     11870     11872     11873
     11867     11870     11872     11874     11867     11870     11872     11875
     11868     11867     11870     11872     11869     11867     11870     11872
     11870     11872     11875     11876     11870     11872     11875     11877
     11870     11872     11875     11883     11871     11867     11870     11872
     11872     11875     11877     11878     11872     11875     11883     11884
     11872     11875     11883     11885     11872     11875     11883     11886
     11873     11872     11875     11876     11873     11872     11875     11877
     11873     11872     11875     11883     11874     11872     11875     11876
     11874     11872     11875     11877     11874     11872     11875     11883
     11875     11877     11878     11879     11875     11877     11878     11880
     11875     11883     11886     11887     11876     11875     11877     11878
     11876     11875     11883     11884     11876     11875     11883     11885
     11876     11875     11883     11886     11877     11875     11883     11884
     11877     11875     11883     11885     11877     11875     11883     11886
     11877     11878     11880     11881     11877     11878     11880     11882
     11877     11878     11880     11892     11878     11877     11875     11883
     11878     11880     11892     11893     11878     11880     11892     11894
     11878     11880     11892     11895     11879     11878     11880     11881
     11879     11878     11880     11882     11879     11878     11880     11892
     11880     11892     11895     11896     11880     11892     11895     11897
     11880     11892     11895     11898     11881     11880     11892     11893
     11881     11880     11892     11894     11881     11880     11892     11895
     11882     11880     11892     11893     11882     11880     11892     11894
     11882     11880     11892     11895     11883     11886     11887     11888
     11883     11886     11887     11889     11884     11883     11886     11887
     11885     11883     11886     11887     11886     11887     11889     11890
     11886     11887     11889     11891     11886     11887     11889     11936
     11887     11889     11936     11937     11887     11889     11936     11938
     11887     11889     11936     11939     11888     11887     11889     11890
     11888     11887     11889     11891     11888     11887     11889     11936
     11889     11936     11939     11940     11889     11936     11939     11941
     11889     11936     11939     11942     11890     11889     11936     11937
     11890     11889     11936     11938     11890     11889     11936     11939
     11891     11889     11936     11937     11891     11889     11936     11938
     11891     11889     11936     11939     11892     11895     11898     11899
     11892     11895     11898     11900     11892     11895     11898     11901
     11893     11892     11895     11896     11893     11892     11895     11897
     11893     11892     11895     11898     11894     11892     11895     11896
     11894     11892     11895     11897     11894     11892     11895     11898
     11895     11898     11901     11902     11895     11898     11901     11903
     11895     11898     11901     11904     11896     11895     11898     11899
     11896     11895     11898     11900     11896     11895     11898     11901
     11897     11895     11898     11899     11897     11895     11898     11900
     11897     11895     11898     11901     11898     11901     11904     11905
     11898     11901     11904     11906     11898     11901     11904     11907
     11899     11898     11901     11902     11899     11898     11901     11903
     11899     11898     11901     11904     11900     11898     11901     11902
     11900     11898     11901     11903     11900     11898     11901     11904
     11901     11904     11907     11908     11901     11904     11907     11909
     11901     11904     11907     11910     11902     11901     11904     11905
     11902     11901     11904     11906     11902     11901     11904     11907
     11903     11901     11904     11905     11903     11901     11904     11906
     11903     11901     11904     11907     11904     11907     11910     11911
     11904     11907     11910     11912     11904     11907     11910     11915
     11905     11904     11907     11908     11905     11904     11907     11909
     11905     11904     11907     11910     11906     11904     11907     11908
     11906     11904     11907     11909     11906     11904     11907     11910
     11907     11910     11912     11913     11907     11910     11912     11914
     11907     11910     11912     11915     11907     11910     11915     11912
     11907     11910     11915     11916     11907     11910     11915     11917
     11908     11907     11910     11911     11908     11907     11910     11912
     11908     11907     11910     11915     11909     11907     11910     11911
     11909     11907     11910     11912     11909     11907     11910     11915
     11910     11912     11915     11916     11910     11912     11915     11917
     11910     11915     11912     11913     11910     11915     11912     11914
     11910     11915     11917     11918     11910     11915     11917     11919
     11910     11915     11917     11920     11911     11910     11912     11913
     11911     11910     11912     11914     11911     11910     11912     11915
     11911     11910     11915     11912     11911     11910     11915     11916
     11911     11910     11915     11917     11912     11910     11915     11916
     11912     11910     11915     11917     11912     11915     11917     11918
     11912     11915     11917     11919     11912     11915     11917     11920
     11913     11912     11910     11915     11913     11912     11915     11916
     11913     11912     11915     11917     11914     11912     11910     11915
     11914     11912     11915     11916     11914     11912     11915     11917
     11915     11917     11920     11921     11915     11917     11920     11922
     11915     11917     11920     11923     11916     11915     11917     11918
     11916     11915     11917     11919     11916     11915     11917     11920
     11917     11920     11923     11924     11917     11920     11923     11925
     11917     11920     11923     11926     11918     11917     11920     11921
     11918     11917     11920     11922     11918     11917     11920     11923
     11919     11917     11920     11921     11919     11917     11920     11922
     11919     11917     11920     11923     11920     11923     11926     11927
     11920     11923     11926     11928     11920     11923     11926     11929
     11921     11920     11923     11924     11921     11920     11923     11925
     11921     11920     11923     11926     11922     11920     11923     11924
     11922     11920     11923     11925     11922     11920     11923     11926
     11923     11926     11929     11930     11923     11926     11929     11931
     11923     11926     11929     11932     11924     11923     11926     11927
     11924     11923     11926     11928     11924     11923     11926     11929
     11925     11923     11926     11927     11925     11923     11926     11928
     11925     11923     11926     11929     11926     11929     11932     11933
     11926     11929     11932     11934     11926     11929     11932     11935
     11927     11926     11929     11930     11927     11926     11929     11931
     11927     11926     11929     11932     11928     11926     11929     11930
     11928     11926     11929     11931     11928     11926     11929     11932
     11930     11929     11932     11933     11930     11929     11932     11934
     11930     11929     11932     11935     11931     11929     11932     11933
     11931     11929     11932     11934     11931     11929     11932     11935
     11936     11939     11942     11943     11936     11939     11942     11944
     11936     11939     11942     11945     11937     11936     11939     11940
     11937     11936     11939     11941     11937     11936     11939     11942
     11938     11936     11939     11940     11938     11936     11939     11941
     11938     11936     11939     11942     11939     11942     11945     11946
     11939     11942     11945     11947     11939     11942     11945     11948
     11940     11939     11942     11943     11940     11939     11942     11944
     11940     11939     11942     11945     11941     11939     11942     11943
     11941     11939     11942     11944     11941     11939     11942     11945
     11942     11945     11948     11949     11942     11945     11948     11950
     11942     11945     11948     11951     11943     11942     11945     11946
     11943     11942     11945     11947     11943     11942     11945     11948
     11944     11942     11945     11946     11944     11942     11945     11947
     11944     11942     11945     11948     11945     11948     11951     11952
     11945     11948     11951     11953     11945     11948     11951     11954
     11946     11945     11948     11949     11946     11945     11948     11950
     11946     11945     11948     11951     11947     11945     11948     11949
     11947     11945     11948     11950     11947     11945     11948     11951
     11948     11951     11954     11955     11948     11951     11954     11956
     11948     11951     11954     11957     11949     11948     11951     11952
     11949     11948     11951     11953     11949     11948     11951     11954
     11950     11948     11951     11952     11950     11948     11951     11953
     11950     11948     11951     11954     11951     11954     11957     11958
     11951     11954     11957     11959     11951     11954     11957     11960
     11952     11951     11954     11955     11952     11951     11954     11956
     11952     11951     11954     11957     11953     11951     11954     11955
     11953     11951     11954     11956     11953     11951     11954     11957
     11954     11957     11960     11961     11954     11957     11960     11962
     11954     11957     11960     11963     11955     11954     11957     11958
     11955     11954     11957     11959     11955     11954     11957     11960
     11956     11954     11957     11958     11956     11954     11957     11959
     11956     11954     11957     11960     11957     11960     11963     11964
     11957     11960     11963     11965     11957     11960     11963     11966
     11958     11957     11960     11961     11958     11957     11960     11962
     11958     11957     11960     11963     11959     11957     11960     11961
     11959     11957     11960     11962     11959     11957     11960     11963
     11960     11963     11966     11967     11960     11963     11966     11968
     11960     11963     11966     11969     11961     11960     11963     11964
     11961     11960     11963     11965     11961     11960     11963     11966
     11962     11960     11963     11964     11962     11960     11963     11965
     11962     11960     11963     11966     11963     11966     11969     11970
     11963     11966     11969     11971     11963     11966     11969     11972
     11964     11963     11966     11967     11964     11963     11966     11968
     11964     11963     11966     11969     11965     11963     11966     11967
     11965     11963     11966     11968     11965     11963     11966     11969
     11966     11969     11972     11973     11966     11969     11972     11974
     11966     11969     11972     11975     11967     11966     11969     11970
     11967     11966     11969     11971     11967     11966     11969     11972
     11968     11966     11969     11970     11968     11966     11969     11971
     11968     11966     11969     11972     11969     11972     11975     11976
     11969     11972     11975     11977     11969     11972     11975     11978
     11970     11969     11972     11973     11970     11969     11972     11974
     11970     11969     11972     11975     11971     11969     11972     11973
     11971     11969     11972     11974     11971     11969     11972     11975
     11973     11972     11975     11976     11973     11972     11975     11977
     11973     11972     11975     11978     11974     11972     11975     11976
     11974     11972     11975     11977     11974     11972     11975     11978
     11979     11983     11986     11987     11979     11983     11986     11988
     11979     11983     11986     11993     11980     11979     11983     11984
     11980     11979     11983     11985     11980     11979     11983     11986
     11981     11979     11983     11984     11981     11979     11983     11985
     11981     11979     11983     11986     11982     11979     11983     11984
     11982     11979     11983     11985     11982     11979     11983     11986
     11983     11986     11993     11989     11984     11983     11986     11987
     11984     11983     11986     11988     11984     11983     11986     11993
     11985     11983     11986     11987     11985     11983     11986     11988
     11985     11983     11986     11993     11986     11993     11989     11990
     11986     11993     11989     11991     11986     11993     11989     11992
     11987     11986     11993     11989     11988     11986     11993     11989
     11989     11992     11994     11995     11989     11992     11994     11996
     11989     11992     11994     11997     11990     11989     11992     11994
     11991     11989     11992     11994     11992     11994     11997     11998
     11992     11994     11997     11999     11992     11994     11997     12005
     11993     11989     11992     11994     11994     11997     11999     12000
     11994     11997     12005     12006     11994     11997     12005     12007
     11994     11997     12005     12008     11995     11994     11997     11998
     11995     11994     11997     11999     11995     11994     11997     12005
     11996     11994     11997     11998     11996     11994     11997     11999
     11996     11994     11997     12005     11997     11999     12000     12001
     11997     11999     12000     12002     11997     12005     12008     12009
     11998     11997     11999     12000     11998     11997     12005     12006
     11998     11997     12005     12007     11998     11997     12005     12008
     11999     11997     12005     12006     11999     11997     12005     12007
     11999     11997     12005     12008     11999     12000     12002     12003
     11999     12000     12002     12004     11999     12000     12002     12014
     12000     11999     11997     12005     12000     12002     12014     12015
     12000     12002     12014     12016     12000     12002     12014     12017
     12001     12000     12002     12003     12001     12000     12002     12004
     12001     12000     12002     12014     12002     12014     12017     12018
     12002     12014     12017     12019     12002     12014     12017     12020
     12003     12002     12014     12015     12003     12002     12014     12016
     12003     12002     12014     12017     12004     12002     12014     12015
     12004     12002     12014     12016     12004     12002     12014     12017
     12005     12008     12009     12010     12005     12008     12009     12011
     12006     12005     12008     12009     12007     12005     12008     12009
     12008     12009     12011     12012     12008     12009     12011     12013
     12008     12009     12011     12058     12009     12011     12058     12059
     12009     12011     12058     12060     12009     12011     12058     12061
     12010     12009     12011     12012     12010     12009     12011     12013
     12010     12009     12011     12058     12011     12058     12061     12062
     12011     12058     12061     12063     12011     12058     12061     12064
     12012     12011     12058     12059     12012     12011     12058     12060
     12012     12011     12058     12061     12013     12011     12058     12059
     12013     12011     12058     12060     12013     12011     12058     12061
     12014     12017     12020     12021     12014     12017     12020     12022
     12014     12017     12020     12023     12015     12014     12017     12018
     12015     12014     12017     12019     12015     12014     12017     12020
     12016     12014     12017     12018     12016     12014     12017     12019
     12016     12014     12017     12020     12017     12020     12023     12024
     12017     12020     12023     12025     12017     12020     12023     12026
     12018     12017     12020     12021     12018     12017     12020     12022
     12018     12017     12020     12023     12019     12017     12020     12021
     12019     12017     12020     12022     12019     12017     12020     12023
     12020     12023     12026     12027     12020     12023     12026     12028
     12020     12023     12026     12029     12021     12020     12023     12024
     12021     12020     12023     12025     12021     12020     12023     12026
     12022     12020     12023     12024     12022     12020     12023     12025
     12022     12020     12023     12026     12023     12026     12029     12030
     12023     12026     12029     12031     12023     12026     12029     12032
     12024     12023     12026     12027     12024     12023     12026     12028
     12024     12023     12026     12029     12025     12023     12026     12027
     12025     12023     12026     12028     12025     12023     12026     12029
     12026     12029     12032     12033     12026     12029     12032     12034
     12026     12029     12032     12037     12027     12026     12029     12030
     12027     12026     12029     12031     12027     12026     12029     12032
     12028     12026     12029     12030     12028     12026     12029     12031
     12028     12026     12029     12032     12029     12032     12034     12035
     12029     12032     12034     12036     12029     12032     12034     12037
     12029     12032     12037     12034     12029     12032     12037     12038
     12029     12032     12037     12039     12030     12029     12032     12033
     12030     12029     12032     12034     12030     12029     12032     12037
     12031     12029     12032     12033     12031     12029     12032     12034
     12031     12029     12032     12037     12032     12034     12037     12038
     12032     12034     12037     12039     12032     12037     12034     12035
     12032     12037     12034     12036     12032     12037     12039     12040
     12032     12037     12039     12041     12032     12037     12039     12042
     12033     12032     12034     12035     12033     12032     12034     12036
     12033     12032     12034     12037     12033     12032     12037     12034
     12033     12032     12037     12038     12033     12032     12037     12039
     12034     12032     12037     12038     12034     12032     12037     12039
     12034     12037     12039     12040     12034     12037     12039     12041
     12034     12037     12039     12042     12035     12034     12032     12037
     12035     12034     12037     12038     12035     12034     12037     12039
     12036     12034     12032     12037     12036     12034     12037     12038
     12036     12034     12037     12039     12037     12039     12042     12043
     12037     12039     12042     12044     12037     12039     12042     12045
     12038     12037     12039     12040     12038     12037     12039     12041
     12038     12037     12039     12042     12039     12042     12045     12046
     12039     12042     12045     12047     12039     12042     12045     12048
     12040     12039     12042     12043     12040     12039     12042     12044
     12040     12039     12042     12045     12041     12039     12042     12043
     12041     12039     12042     12044     12041     12039     12042     12045
     12042     12045     12048     12049     12042     12045     12048     12050
     12042     12045     12048     12051     12043     12042     12045     12046
     12043     12042     12045     12047     12043     12042     12045     12048
     12044     12042     12045     12046     12044     12042     12045     12047
     12044     12042     12045     12048     12045     12048     12051     12052
     12045     12048     12051     12053     12045     12048     12051     12054
     12046     12045     12048     12049     12046     12045     12048     12050
     12046     12045     12048     12051     12047     12045     12048     12049
     12047     12045     12048     12050     12047     12045     12048     12051
     12048     12051     12054     12055     12048     12051     12054     12056
     12048     12051     12054     12057     12049     12048     12051     12052
     12049     12048     12051     12053     12049     12048     12051     12054
     12050     12048     12051     12052     12050     12048     12051     12053
     12050     12048     12051     12054     12052     12051     12054     12055
     12052     12051     12054     12056     12052     12051     12054     12057
     12053     12051     12054     12055     12053     12051     12054     12056
     12053     12051     12054     12057     12058     12061     12064     12065
     12058     12061     12064     12066     12058     12061     12064     12067
     12059     12058     12061     12062     12059     12058     12061     12063
     12059     12058     12061     12064     12060     12058     12061     12062
     12060     12058     12061     12063     12060     12058     12061     12064
     12061     12064     12067     12068     12061     12064     12067     12069
     12061     12064     12067     12070     12062     12061     12064     12065
     12062     12061     12064     12066     12062     12061     12064     12067
     12063     12061     12064     12065     12063     12061     12064     12066
     12063     12061     12064     12067     12064     12067     12070     12071
     12064     12067     12070     12072     12064     12067     12070     12073
     12065     12064     12067     12068     12065     12064     12067     12069
     12065     12064     12067     12070     12066     12064     12067     12068
     12066     12064     12067     12069     12066     12064     12067     12070
     12067     12070     12073     12074     12067     12070     12073     12075
     12067     12070     12073     12076     12068     12067     12070     12071
     12068     12067     12070     12072     12068     12067     12070     12073
     12069     12067     12070     12071     12069     12067     12070     12072
     12069     12067     12070     12073     12070     12073     12076     12077
     12070     12073     12076     12078     12070     12073     12076     12079
     12071     12070     12073     12074     12071     12070     12073     12075
     12071     12070     12073     12076     12072     12070     12073     12074
     12072     12070     12073     12075     12072     12070     12073     12076
     12073     12076     12079     12080     12073     12076     12079     12081
     12073     12076     12079     12082     12074     12073     12076     12077
     12074     12073     12076     12078     12074     12073     12076     12079
     12075     12073     12076     12077     12075     12073     12076     12078
     12075     12073     12076     12079     12076     12079     12082     12083
     12076     12079     12082     12084     12076     12079     12082     12085
     12077     12076     12079     12080     12077     12076     12079     12081
     12077     12076     12079     12082     12078     12076     12079     12080
     12078     12076     12079     12081     12078     12076     12079     12082
     12079     12082     12085     12086     12079     12082     12085     12087
     12079     12082     12085     12088     12080     12079     12082     12083
     12080     12079     12082     12084     12080     12079     12082     12085
     12081     12079     12082     12083     12081     12079     12082     12084
     12081     12079     12082     12085     12082     12085     12088     12089
     12082     12085     12088     12090     12082     12085     12088     12091
     12083     12082     12085     12086     12083     12082     12085     12087
     12083     12082     12085     12088     12084     12082     12085     12086
     12084     12082     12085     12087     12084     12082     12085     12088
     12085     12088     12091     12092     12085     12088     12091     12093
     12085     12088     12091     12094     12086     12085     12088     12089
     12086     12085     12088     12090     12086     12085     12088     12091
     12087     12085     12088     12089     12087     12085     12088     12090
     12087     12085     12088     12091     12088     12091     12094     12095
     12088     12091     12094     12096     12088     12091     12094     12097
     12089     12088     12091     12092     12089     12088     12091     12093
     12089     12088     12091     12094     12090     12088     12091     12092
     12090     12088     12091     12093     12090     12088     12091     12094
     12092     12091     12094     12095     12092     12091     12094     12096
     12092     12091     12094     12097     12093     12091     12094     12095
     12093     12091     12094     12096     12093     12091     12094     12097
     12098     12103     12105     12106     12098     12103     12107     12108
     12098     12103     12107     12109     12098     12103     12107     12114
     12099     12098     12101     12102     12099     12098     12103     12104
     12099     12098     12103     12105     12099     12098     12103     12107
     12100     12098     12101     12102     12100     12098     12103     12104
     12100     12098     12103     12105     12100     12098     12103     12107
     12101     12098     12103     12104     12101     12098     12103     12105
     12101     12098     12103     12107     12102     12101     12098     12103
     12103     12107     12114     12110     12104     12103     12105     12106
     12104     12103     12107     12108     12104     12103     12107     12109
     12104     12103     12107     12114     12105     12103     12107     12108
     12105     12103     12107     12109     12105     12103     12107     12114
     12106     12105     12103     12107     12107     12114     12110     12111
     12107     12114     12110     12112     12107     12114     12110     12113
     12108     12107     12114     12110     12109     12107     12114     12110
     12110     12113     12115     12116     12110     12113     12115     12117
     12110     12113     12115     12118     12111     12110     12113     12115
     12112     12110     12113     12115     12113     12115     12118     12119
     12113     12115     12118     12120     12113     12115     12118     12126
     12114     12110     12113     12115     12115     12118     12120     12121
     12115     12118     12126     12127     12115     12118     12126     12128
     12115     12118     12126     12129     12116     12115     12118     12119
     12116     12115     12118     12120     12116     12115     12118     12126
     12117     12115     12118     12119     12117     12115     12118     12120
     12117     12115     12118     12126     12118     12120     12121     12122
     12118     12120     12121     12123     12118     12126     12129     12130
     12119     12118     12120     12121     12119     12118     12126     12127
     12119     12118     12126     12128     12119     12118     12126     12129
     12120     12118     12126     12127     12120     12118     12126     12128
     12120     12118     12126     12129     12120     12121     12123     12124
     12120     12121     12123     12125     12120     12121     12123     12135
     12121     12120     12118     12126     12121     12123     12135     12136
     12121     12123     12135     12137     12121     12123     12135     12138
     12122     12121     12123     12124     12122     12121     12123     12125
     12122     12121     12123     12135     12123     12135     12138     12139
     12123     12135     12138     12140     12123     12135     12138     12141
     12124     12123     12135     12136     12124     12123     12135     12137
     12124     12123     12135     12138     12125     12123     12135     12136
     12125     12123     12135     12137     12125     12123     12135     12138
     12126     12129     12130     12131     12126     12129     12130     12132
     12127     12126     12129     12130     12128     12126     12129     12130
     12129     12130     12132     12133     12129     12130     12132     12134
     12129     12130     12132     12179     12130     12132     12179     12180
     12130     12132     12179     12181     12130     12132     12179     12182
     12131     12130     12132     12133     12131     12130     12132     12134
     12131     12130     12132     12179     12132     12179     12182     12183
     12132     12179     12182     12184     12132     12179     12182     12185
     12133     12132     12179     12180     12133     12132     12179     12181
     12133     12132     12179     12182     12134     12132     12179     12180
     12134     12132     12179     12181     12134     12132     12179     12182
     12135     12138     12141     12142     12135     12138     12141     12143
     12135     12138     12141     12144     12136     12135     12138     12139
     12136     12135     12138     12140     12136     12135     12138     12141
     12137     12135     12138     12139     12137     12135     12138     12140
     12137     12135     12138     12141     12138     12141     12144     12145
     12138     12141     12144     12146     12138     12141     12144     12147
     12139     12138     12141     12142     12139     12138     12141     12143
     12139     12138     12141     12144     12140     12138     12141     12142
     12140     12138     12141     12143     12140     12138     12141     12144
     12141     12144     12147     12148     12141     12144     12147     12149
     12141     12144     12147     12150     12142     12141     12144     12145
     12142     12141     12144     12146     12142     12141     12144     12147
     12143     12141     12144     12145     12143     12141     12144     12146
     12143     12141     12144     12147     12144     12147     12150     12151
     12144     12147     12150     12152     12144     12147     12150     12153
     12145     12144     12147     12148     12145     12144     12147     12149
     12145     12144     12147     12150     12146     12144     12147     12148
     12146     12144     12147     12149     12146     12144     12147     12150
     12147     12150     12153     12154     12147     12150     12153     12155
     12147     12150     12153     12158     12148     12147     12150     12151
     12148     12147     12150     12152     12148     12147     12150     12153
     12149     12147     12150     12151     12149     12147     12150     12152
     12149     12147     12150     12153     12150     12153     12155     12156
     12150     12153     12155     12157     12150     12153     12155     12158
     12150     12153     12158     12155     12150     12153     12158     12159
     12150     12153     12158     12160     12151     12150     12153     12154
     12151     12150     12153     12155     12151     12150     12153     12158
     12152     12150     12153     12154     12152     12150     12153     12155
     12152     12150     12153     12158     12153     12155     12158     12159
     12153     12155     12158     12160     12153     12158     12155     12156
     12153     12158     12155     12157     12153     12158     12160     12161
     12153     12158     12160     12162     12153     12158     12160     12163
     12154     12153     12155     12156     12154     12153     12155     12157
     12154     12153     12155     12158     12154     12153     12158     12155
     12154     12153     12158     12159     12154     12153     12158     12160
     12155     12153     12158     12159     12155     12153     12158     12160
     12155     12158     12160     12161     12155     12158     12160     12162
     12155     12158     12160     12163     12156     12155     12153     12158
     12156     12155     12158     12159     12156     12155     12158     12160
     12157     12155     12153     12158     12157     12155     12158     12159
     12157     12155     12158     12160     12158     12160     12163     12164
     12158     12160     12163     12165     12158     12160     12163     12166
     12159     12158     12160     12161     12159     12158     12160     12162
     12159     12158     12160     12163     12160     12163     12166     12167
     12160     12163     12166     12168     12160     12163     12166     12169
     12161     12160     12163     12164     12161     12160     12163     12165
     12161     12160     12163     12166     12162     12160     12163     12164
     12162     12160     12163     12165     12162     12160     12163     12166
     12163     12166     12169     12170     12163     12166     12169     12171
     12163     12166     12169     12172     12164     12163     12166     12167
     12164     12163     12166     12168     12164     12163     12166     12169
     12165     12163     12166     12167     12165     12163     12166     12168
     12165     12163     12166     12169     12166     12169     12172     12173
     12166     12169     12172     12174     12166     12169     12172     12175
     12167     12166     12169     12170     12167     12166     12169     12171
     12167     12166     12169     12172     12168     12166     12169     12170
     12168     12166     12169     12171     12168     12166     12169     12172
     12169     12172     12175     12176     12169     12172     12175     12177
     12169     12172     12175     12178     12170     12169     12172     12173
     12170     12169     12172     12174     12170     12169     12172     12175
     12171     12169     12172     12173     12171     12169     12172     12174
     12171     12169     12172     12175     12173     12172     12175     12176
     12173     12172     12175     12177     12173     12172     12175     12178
     12174     12172     12175     12176     12174     12172     12175     12177
     12174     12172     12175     12178     12179     12182     12185     12186
     12179     12182     12185     12187     12179     12182     12185     12188
     12180     12179     12182     12183     12180     12179     12182     12184
     12180     12179     12182     12185     12181     12179     12182     12183
     12181     12179     12182     12184     12181     12179     12182     12185
     12182     12185     12188     12189     12182     12185     12188     12190
     12182     12185     12188     12191     12183     12182     12185     12186
     12183     12182     12185     12187     12183     12182     12185     12188
     12184     12182     12185     12186     12184     12182     12185     12187
     12184     12182     12185     12188     12185     12188     12191     12192
     12185     12188     12191     12193     12185     12188     12191     12194
     12186     12185     12188     12189     12186     12185     12188     12190
     12186     12185     12188     12191     12187     12185     12188     12189
     12187     12185     12188     12190     12187     12185     12188     12191
     12188     12191     12194     12195     12188     12191     12194     12196
     12188     12191     12194     12197     12189     12188     12191     12192
     12189     12188     12191     12193     12189     12188     12191     12194
     12190     12188     12191     12192     12190     12188     12191     12193
     12190     12188     12191     12194     12191     12194     12197     12198
     12191     12194     12197     12199     12191     12194     12197     12200
     12192     12191     12194     12195     12192     12191     12194     12196
     12192     12191     12194     12197     12193     12191     12194     12195
     12193     12191     12194     12196     12193     12191     12194     12197
     12194     12197     12200     12201     12194     12197     12200     12202
     12194     12197     12200     12203     12195     12194     12197     12198
     12195     12194     12197     12199     12195     12194     12197     12200
     12196     12194     12197     12198     12196     12194     12197     12199
     12196     12194     12197     12200     12197     12200     12203     12204
     12197     12200     12203     12205     12197     12200     12203     12206
     12198     12197     12200     12201     12198     12197     12200     12202
     12198     12197     12200     12203     12199     12197     12200     12201
     12199     12197     12200     12202     12199     12197     12200     12203
     12200     12203     12206     12207     12200     12203     12206     12208
     12200     12203     12206     12209     12201     12200     12203     12204
     12201     12200     12203     12205     12201     12200     12203     12206
     12202     12200     12203     12204     12202     12200     12203     12205
     12202     12200     12203     12206     12203     12206     12209     12210
     12203     12206     12209     12211     12203     12206     12209     12212
     12204     12203     12206     12207     12204     12203     12206     12208
     12204     12203     12206     12209     12205     12203     12206     12207
     12205     12203     12206     12208     12205     12203     12206     12209
     12206     12209     12212     12213     12206     12209     12212     12214
     12206     12209     12212     12215     12207     12206     12209     12210
     12207     12206     12209     12211     12207     12206     12209     12212
     12208     12206     12209     12210     12208     12206     12209     12211
     12208     12206     12209     12212     12209     12212     12215     12216
     12209     12212     12215     12217     12209     12212     12215     12218
     12210     12209     12212     12213     12210     12209     12212     12214
     12210     12209     12212     12215     12211     12209     12212     12213
     12211     12209     12212     12214     12211     12209     12212     12215
     12212     12215     12218     12219     12212     12215     12218     12220
     12212     12215     12218     12221     12213     12212     12215     12216
     12213     12212     12215     12217     12213     12212     12215     12218
     12214     12212     12215     12216     12214     12212     12215     12217
     12214     12212     12215     12218     12216     12215     12218     12219
     12216     12215     12218     12220     12216     12215     12218     12221
     12217     12215     12218     12219     12217     12215     12218     12220
     12217     12215     12218     12221     12222     12226     12229     12230
     12222     12226     12229     12231     12222     12226     12229     12236
     12223     12222     12226     12227     12223     12222     12226     12228
     12223     12222     12226     12229     12224     12222     12226     12227
     12224     12222     12226     12228     12224     12222     12226     12229
     12225     12222     12226     12227     12225     12222     12226     12228
     12225     12222     12226     12229     12226     12229     12236     12232
     12227     12226     12229     12230     12227     12226     12229     12231
     12227     12226     12229     12236     12228     12226     12229     12230
     12228     12226     12229     12231     12228     12226     12229     12236
     12229     12236     12232     12233     12229     12236     12232     12234
     12229     12236     12232     12235     12230     12229     12236     12232
     12231     12229     12236     12232     12232     12235     12237     12238
     12232     12235     12237     12239     12232     12235     12237     12240
     12233     12232     12235     12237     12234     12232     12235     12237
     12235     12237     12240     12241     12235     12237     12240     12242
     12235     12237     12240     12248     12236     12232     12235     12237
     12237     12240     12242     12243     12237     12240     12248     12249
     12237     12240     12248     12250     12237     12240     12248     12251
     12238     12237     12240     12241     12238     12237     12240     12242
     12238     12237     12240     12248     12239     12237     12240     12241
     12239     12237     12240     12242     12239     12237     12240     12248
     12240     12242     12243     12244     12240     12242     12243     12245
     12240     12248     12251     12252     12241     12240     12242     12243
     12241     12240     12248     12249     12241     12240     12248     12250
     12241     12240     12248     12251     12242     12240     12248     12249
     12242     12240     12248     12250     12242     12240     12248     12251
     12242     12243     12245     12246     12242     12243     12245     12247
     12242     12243     12245     12257     12243     12242     12240     12248
     12243     12245     12257     12258     12243     12245     12257     12259
     12243     12245     12257     12260     12244     12243     12245     12246
     12244     12243     12245     12247     12244     12243     12245     12257
     12245     12257     12260     12261     12245     12257     12260     12262
     12245     12257     12260     12263     12246     12245     12257     12258
     12246     12245     12257     12259     12246     12245     12257     12260
     12247     12245     12257     12258     12247     12245     12257     12259
     12247     12245     12257     12260     12248     12251     12252     12253
     12248     12251     12252     12254     12249     12248     12251     12252
     12250     12248     12251     12252     12251     12252     12254     12255
     12251     12252     12254     12256     12251     12252     12254     12301
     12252     12254     12301     12302     12252     12254     12301     12303
     12252     12254     12301     12304     12253     12252     12254     12255
     12253     12252     12254     12256     12253     12252     12254     12301
     12254     12301     12304     12305     12254     12301     12304     12306
     12254     12301     12304     12307     12255     12254     12301     12302
     12255     12254     12301     12303     12255     12254     12301     12304
     12256     12254     12301     12302     12256     12254     12301     12303
     12256     12254     12301     12304     12257     12260     12263     12264
     12257     12260     12263     12265     12257     12260     12263     12266
     12258     12257     12260     12261     12258     12257     12260     12262
     12258     12257     12260     12263     12259     12257     12260     12261
     12259     12257     12260     12262     12259     12257     12260     12263
     12260     12263     12266     12267     12260     12263     12266     12268
     12260     12263     12266     12269     12261     12260     12263     12264
     12261     12260     12263     12265     12261     12260     12263     12266
     12262     12260     12263     12264     12262     12260     12263     12265
     12262     12260     12263     12266     12263     12266     12269     12270
     12263     12266     12269     12271     12263     12266     12269     12272
     12264     12263     12266     12267     12264     12263     12266     12268
     12264     12263     12266     12269     12265     12263     12266     12267
     12265     12263     12266     12268     12265     12263     12266     12269
     12266     12269     12272     12273     12266     12269     12272     12274
     12266     12269     12272     12275     12267     12266     12269     12270
     12267     12266     12269     12271     12267     12266     12269     12272
     12268     12266     12269     12270     12268     12266     12269     12271
     12268     12266     12269     12272     12269     12272     12275     12276
     12269     12272     12275     12277     12269     12272     12275     12280
     12270     12269     12272     12273     12270     12269     12272     12274
     12270     12269     12272     12275     12271     12269     12272     12273
     12271     12269     12272     12274     12271     12269     12272     12275
     12272     12275     12277     12278     12272     12275     12277     12279
     12272     12275     12277     12280     12272     12275     12280     12277
     12272     12275     12280     12281     12272     12275     12280     12282
     12273     12272     12275     12276     12273     12272     12275     12277
     12273     12272     12275     12280     12274     12272     12275     12276
     12274     12272     12275     12277     12274     12272     12275     12280
     12275     12277     12280     12281     12275     12277     12280     12282
     12275     12280     12277     12278     12275     12280     12277     12279
     12275     12280     12282     12283     12275     12280     12282     12284
     12275     12280     12282     12285     12276     12275     12277     12278
     12276     12275     12277     12279     12276     12275     12277     12280
     12276     12275     12280     12277     12276     12275     12280     12281
     12276     12275     12280     12282     12277     12275     12280     12281
     12277     12275     12280     12282     12277     12280     12282     12283
     12277     12280     12282     12284     12277     12280     12282     12285
     12278     12277     12275     12280     12278     12277     12280     12281
     12278     12277     12280     12282     12279     12277     12275     12280
     12279     12277     12280     12281     12279     12277     12280     12282
     12280     12282     12285     12286     12280     12282     12285     12287
     12280     12282     12285     12288     12281     12280     12282     12283
     12281     12280     12282     12284     12281     12280     12282     12285
     12282     12285     12288     12289     12282     12285     12288     12290
     12282     12285     12288     12291     12283     12282     12285     12286
     12283     12282     12285     12287     12283     12282     12285     12288
     12284     12282     12285     12286     12284     12282     12285     12287
     12284     12282     12285     12288     12285     12288     12291     12292
     12285     12288     12291     12293     12285     12288     12291     12294
     12286     12285     12288     12289     12286     12285     12288     12290
     12286     12285     12288     12291     12287     12285     12288     12289
     12287     12285     12288     12290     12287     12285     12288     12291
     12288     12291     12294     12295     12288     12291     12294     12296
     12288     12291     12294     12297     12289     12288     12291     12292
     12289     12288     12291     12293     12289     12288     12291     12294
     12290     12288     12291     12292     12290     12288     12291     12293
     12290     12288     12291     12294     12291     12294     12297     12298
     12291     12294     12297     12299     12291     12294     12297     12300
     12292     12291     12294     12295     12292     12291     12294     12296
     12292     12291     12294     12297     12293     12291     12294     12295
     12293     12291     12294     12296     12293     12291     12294     12297
     12295     12294     12297     12298     12295     12294     12297     12299
     12295     12294     12297     12300     12296     12294     12297     12298
     12296     12294     12297     12299     12296     12294     12297     12300
     12301     12304     12307     12308     12301     12304     12307     12309
     12301     12304     12307     12310     12302     12301     12304     12305
     12302     12301     12304     12306     12302     12301     12304     12307
     12303     12301     12304     12305     12303     12301     12304     12306
     12303     12301     12304     12307     12304     12307     12310     12311
     12304     12307     12310     12312     12304     12307     12310     12313
     12305     12304     12307     12308     12305     12304     12307     12309
     12305     12304     12307     12310     12306     12304     12307     12308
     12306     12304     12307     12309     12306     12304     12307     12310
     12307     12310     12313     12314     12307     12310     12313     12315
     12307     12310     12313     12316     12308     12307     12310     12311
     12308     12307     12310     12312     12308     12307     12310     12313
     12309     12307     12310     12311     12309     12307     12310     12312
     12309     12307     12310     12313     12310     12313     12316     12317
     12310     12313     12316     12318     12310     12313     12316     12319
     12311     12310     12313     12314     12311     12310     12313     12315
     12311     12310     12313     12316     12312     12310     12313     12314
     12312     12310     12313     12315     12312     12310     12313     12316
     12313     12316     12319     12320     12313     12316     12319     12321
     12313     12316     12319     12322     12314     12313     12316     12317
     12314     12313     12316     12318     12314     12313     12316     12319
     12315     12313     12316     12317     12315     12313     12316     12318
     12315     12313     12316     12319     12316     12319     12322     12323
     12316     12319     12322     12324     12316     12319     12322     12325
     12317     12316     12319     12320     12317     12316     12319     12321
     12317     12316     12319     12322     12318     12316     12319     12320
     12318     12316     12319     12321     12318     12316     12319     12322
     12319     12322     12325     12326     12319     12322     12325     12327
     12319     12322     12325     12328     12320     12319     12322     12323
     12320     12319     12322     12324     12320     12319     12322     12325
     12321     12319     12322     12323     12321     12319     12322     12324
     12321     12319     12322     12325     12322     12325     12328     12329
     12322     12325     12328     12330     12322     12325     12328     12331
     12323     12322     12325     12326     12323     12322     12325     12327
     12323     12322     12325     12328     12324     12322     12325     12326
     12324     12322     12325     12327     12324     12322     12325     12328
     12325     12328     12331     12332     12325     12328     12331     12333
     12325     12328     12331     12334     12326     12325     12328     12329
     12326     12325     12328     12330     12326     12325     12328     12331
     12327     12325     12328     12329     12327     12325     12328     12330
     12327     12325     12328     12331     12328     12331     12334     12335
     12328     12331     12334     12336     12328     12331     12334     12337
     12329     12328     12331     12332     12329     12328     12331     12333
     12329     12328     12331     12334     12330     12328     12331     12332
     12330     12328     12331     12333     12330     12328     12331     12334
     12331     12334     12337     12338     12331     12334     12337     12339
     12331     12334     12337     12340     12332     12331     12334     12335
     12332     12331     12334     12336     12332     12331     12334     12337
     12333     12331     12334     12335     12333     12331     12334     12336
     12333     12331     12334     12337     12334     12337     12340     12341
     12334     12337     12340     12342     12334     12337     12340     12343
     12335     12334     12337     12338     12335     12334     12337     12339
     12335     12334     12337     12340     12336     12334     12337     12338
     12336     12334     12337     12339     12336     12334     12337     12340
     12338     12337     12340     12341     12338     12337     12340     12342
     12338     12337     12340     12343     12339     12337     12340     12341
     12339     12337     12340     12342     12339     12337     12340     12343
     12344     12348     12351     12352     12344     12348     12351     12353
     12344     12348     12351     12358     12345     12344     12348     12349
     12345     12344     12348     12350     12345     12344     12348     12351
     12346     12344     12348     12349     12346     12344     12348     12350
     12346     12344     12348     12351     12347     12344     12348     12349
     12347     12344     12348     12350     12347     12344     12348     12351
     12348     12351     12358     12354     12349     12348     12351     12352
     12349     12348     12351     12353     12349     12348     12351     12358
     12350     12348     12351     12352     12350     12348     12351     12353
     12350     12348     12351     12358     12351     12358     12354     12355
     12351     12358     12354     12356     12351     12358     12354     12357
     12352     12351     12358     12354     12353     12351     12358     12354
     12354     12357     12359     12360     12354     12357     12359     12361
     12354     12357     12359     12362     12355     12354     12357     12359
     12356     12354     12357     12359     12357     12359     12362     12363
     12357     12359     12362     12364     12357     12359     12362     12370
     12358     12354     12357     12359     12359     12362     12364     12365
     12359     12362     12370     12371     12359     12362     12370     12372
     12359     12362     12370     12373     12360     12359     12362     12363
     12360     12359     12362     12364     12360     12359     12362     12370
     12361     12359     12362     12363     12361     12359     12362     12364
     12361     12359     12362     12370     12362     12364     12365     12366
     12362     12364     12365     12367     12362     12370     12373     12374
     12363     12362     12364     12365     12363     12362     12370     12371
     12363     12362     12370     12372     12363     12362     12370     12373
     12364     12362     12370     12371     12364     12362     12370     12372
     12364     12362     12370     12373     12364     12365     12367     12368
     12364     12365     12367     12369     12364     12365     12367     12379
     12365     12364     12362     12370     12365     12367     12379     12380
     12365     12367     12379     12381     12365     12367     12379     12382
     12366     12365     12367     12368     12366     12365     12367     12369
     12366     12365     12367     12379     12367     12379     12382     12383
     12367     12379     12382     12384     12367     12379     12382     12385
     12368     12367     12379     12380     12368     12367     12379     12381
     12368     12367     12379     12382     12369     12367     12379     12380
     12369     12367     12379     12381     12369     12367     12379     12382
     12370     12373     12374     12375     12370     12373     12374     12376
     12371     12370     12373     12374     12372     12370     12373     12374
     12373     12374     12376     12377     12373     12374     12376     12378
     12373     12374     12376     12420     12374     12376     12420     12421
     12374     12376     12420     12422     12374     12376     12420     12423
     12375     12374     12376     12377     12375     12374     12376     12378
     12375     12374     12376     12420     12376     12420     12423     12424
     12376     12420     12423     12425     12376     12420     12423     12426
     12377     12376     12420     12421     12377     12376     12420     12422
     12377     12376     12420     12423     12378     12376     12420     12421
     12378     12376     12420     12422     12378     12376     12420     12423
     12379     12382     12385     12386     12379     12382     12385     12387
     12379     12382     12385     12388     12380     12379     12382     12383
     12380     12379     12382     12384     12380     12379     12382     12385
     12381     12379     12382     12383     12381     12379     12382     12384
     12381     12379     12382     12385     12382     12385     12388     12389
     12382     12385     12388     12390     12382     12385     12388     12391
     12383     12382     12385     12386     12383     12382     12385     12387
     12383     12382     12385     12388     12384     12382     12385     12386
     12384     12382     12385     12387     12384     12382     12385     12388
     12385     12388     12391     12392     12385     12388     12391     12393
     12385     12388     12391     12394     12386     12385     12388     12389
     12386     12385     12388     12390     12386     12385     12388     12391
     12387     12385     12388     12389     12387     12385     12388     12390
     12387     12385     12388     12391     12388     12391     12394     12395
     12388     12391     12394     12396     12388     12391     12394     12397
     12389     12388     12391     12392     12389     12388     12391     12393
     12389     12388     12391     12394     12390     12388     12391     12392
     12390     12388     12391     12393     12390     12388     12391     12394
     12391     12394     12397     12398     12391     12394     12397     12399
     12392     12391     12394     12395     12392     12391     12394     12396
     12392     12391     12394     12397     12393     12391     12394     12395
     12393     12391     12394     12396     12393     12391     12394     12397
     12394     12397     12399     12400     12394     12397     12399     12401
     12395     12394     12397     12398     12395     12394     12397     12399
     12396     12394     12397     12398     12396     12394     12397     12399
     12397     12399     12401     12402     12397     12399     12401     12403
     12397     12399     12401     12404     12398     12397     12399     12400
     12398     12397     12399     12401     12399     12401     12404     12405
     12399     12401     12404     12406     12399     12401     12404     12407
     12400     12399     12401     12402     12400     12399     12401     12403
     12400     12399     12401     12404     12401     12404     12407     12408
     12401     12404     12407     12409     12401     12404     12407     12410
     12402     12401     12404     12405     12402     12401     12404     12406
     12402     12401     12404     12407     12403     12401     12404     12405
     12403     12401     12404     12406     12403     12401     12404     12407
     12404     12407     12410     12411     12404     12407     12410     12412
     12404     12407     12410     12413     12405     12404     12407     12408
     12405     12404     12407     12409     12405     12404     12407     12410
     12406     12404     12407     12408     12406     12404     12407     12409
     12406     12404     12407     12410     12407     12410     12413     12414
     12407     12410     12413     12415     12407     12410     12413     12416
     12408     12407     12410     12411     12408     12407     12410     12412
     12408     12407     12410     12413     12409     12407     12410     12411
     12409     12407     12410     12412     12409     12407     12410     12413
     12410     12413     12416     12417     12410     12413     12416     12418
     12410     12413     12416     12419     12411     12410     12413     12414
     12411     12410     12413     12415     12411     12410     12413     12416
     12412     12410     12413     12414     12412     12410     12413     12415
     12412     12410     12413     12416     12414     12413     12416     12417
     12414     12413     12416     12418     12414     12413     12416     12419
     12415     12413     12416     12417     12415     12413     12416     12418
     12415     12413     12416     12419     12420     12423     12426     12427
     12420     12423     12426     12428     12420     12423     12426     12429
     12421     12420     12423     12424     12421     12420     12423     12425
     12421     12420     12423     12426     12422     12420     12423     12424
     12422     12420     12423     12425     12422     12420     12423     12426
     12423     12426     12429     12430     12423     12426     12429     12431
     12423     12426     12429     12432     12424     12423     12426     12427
     12424     12423     12426     12428     12424     12423     12426     12429
     12425     12423     12426     12427     12425     12423     12426     12428
     12425     12423     12426     12429     12426     12429     12432     12433
     12426     12429     12432     12434     12426     12429     12432     12435
     12427     12426     12429     12430     12427     12426     12429     12431
     12427     12426     12429     12432     12428     12426     12429     12430
     12428     12426     12429     12431     12428     12426     12429     12432
     12429     12432     12435     12436     12429     12432     12435     12437
     12429     12432     12435     12438     12430     12429     12432     12433
     12430     12429     12432     12434     12430     12429     12432     12435
     12431     12429     12432     12433     12431     12429     12432     12434
     12431     12429     12432     12435     12432     12435     12438     12439
     12432     12435     12438     12440     12433     12432     12435     12436
     12433     12432     12435     12437     12433     12432     12435     12438
     12434     12432     12435     12436     12434     12432     12435     12437
     12434     12432     12435     12438     12435     12438     12440     12441
     12435     12438     12440     12442     12436     12435     12438     12439
     12436     12435     12438     12440     12437     12435     12438     12439
     12437     12435     12438     12440     12438     12440     12442     12443
     12438     12440     12442     12444     12438     12440     12442     12445
     12439     12438     12440     12441     12439     12438     12440     12442
     12440     12442     12445     12446     12440     12442     12445     12447
     12440     12442     12445     12448     12441     12440     12442     12443
     12441     12440     12442     12444     12441     12440     12442     12445
     12442     12445     12448     12449     12442     12445     12448     12450
     12442     12445     12448     12451     12443     12442     12445     12446
     12443     12442     12445     12447     12443     12442     12445     12448
     12444     12442     12445     12446     12444     12442     12445     12447
     12444     12442     12445     12448     12445     12448     12451     12452
     12445     12448     12451     12453     12445     12448     12451     12454
     12446     12445     12448     12449     12446     12445     12448     12450
     12446     12445     12448     12451     12447     12445     12448     12449
     12447     12445     12448     12450     12447     12445     12448     12451
     12448     12451     12454     12455     12448     12451     12454     12456
     12448     12451     12454     12457     12449     12448     12451     12452
     12449     12448     12451     12453     12449     12448     12451     12454
     12450     12448     12451     12452     12450     12448     12451     12453
     12450     12448     12451     12454     12451     12454     12457     12458
     12451     12454     12457     12459     12451     12454     12457     12460
     12452     12451     12454     12455     12452     12451     12454     12456
     12452     12451     12454     12457     12453     12451     12454     12455
     12453     12451     12454     12456     12453     12451     12454     12457
     12454     12457     12460     12461     12454     12457     12460     12462
     12454     12457     12460     12463     12455     12454     12457     12458
     12455     12454     12457     12459     12455     12454     12457     12460
     12456     12454     12457     12458     12456     12454     12457     12459
     12456     12454     12457     12460     12457     12460     12463     12464
     12457     12460     12463     12465     12457     12460     12463     12466
     12458     12457     12460     12461     12458     12457     12460     12462
     12458     12457     12460     12463     12459     12457     12460     12461
     12459     12457     12460     12462     12459     12457     12460     12463
     12461     12460     12463     12464     12461     12460     12463     12465
     12461     12460     12463     12466     12462     12460     12463     12464
     12462     12460     12463     12465     12462     12460     12463     12466
     12467     12471     12474     12475     12467     12471     12474     12476
     12467     12471     12474     12481     12468     12467     12471     12472
     12468     12467     12471     12473     12468     12467     12471     12474
     12469     12467     12471     12472     12469     12467     12471     12473
     12469     12467     12471     12474     12470     12467     12471     12472
     12470     12467     12471     12473     12470     12467     12471     12474
     12471     12474     12481     12477     12472     12471     12474     12475
     12472     12471     12474     12476     12472     12471     12474     12481
     12473     12471     12474     12475     12473     12471     12474     12476
     12473     12471     12474     12481     12474     12481     12477     12478
     12474     12481     12477     12479     12474     12481     12477     12480
     12475     12474     12481     12477     12476     12474     12481     12477
     12477     12480     12482     12483     12477     12480     12482     12484
     12477     12480     12482     12485     12478     12477     12480     12482
     12479     12477     12480     12482     12480     12482     12485     12486
     12480     12482     12485     12487     12480     12482     12485     12493
     12481     12477     12480     12482     12482     12485     12487     12488
     12482     12485     12493     12494     12482     12485     12493     12495
     12482     12485     12493     12496     12483     12482     12485     12486
     12483     12482     12485     12487     12483     12482     12485     12493
     12484     12482     12485     12486     12484     12482     12485     12487
     12484     12482     12485     12493     12485     12487     12488     12489
     12485     12487     12488     12490     12485     12493     12496     12497
     12486     12485     12487     12488     12486     12485     12493     12494
     12486     12485     12493     12495     12486     12485     12493     12496
     12487     12485     12493     12494     12487     12485     12493     12495
     12487     12485     12493     12496     12487     12488     12490     12491
     12487     12488     12490     12492     12487     12488     12490     12502
     12488     12487     12485     12493     12488     12490     12502     12503
     12488     12490     12502     12504     12488     12490     12502     12505
     12489     12488     12490     12491     12489     12488     12490     12492
     12489     12488     12490     12502     12490     12502     12505     12506
     12490     12502     12505     12507     12490     12502     12505     12508
     12491     12490     12502     12503     12491     12490     12502     12504
     12491     12490     12502     12505     12492     12490     12502     12503
     12492     12490     12502     12504     12492     12490     12502     12505
     12493     12496     12497     12498     12493     12496     12497     12499
     12494     12493     12496     12497     12495     12493     12496     12497
     12496     12497     12499     12500     12496     12497     12499     12501
     12496     12497     12499     12546     12497     12499     12546     12547
     12497     12499     12546     12548     12497     12499     12546     12549
     12498     12497     12499     12500     12498     12497     12499     12501
     12498     12497     12499     12546     12499     12546     12549     12550
     12499     12546     12549     12551     12499     12546     12549     12552
     12500     12499     12546     12547     12500     12499     12546     12548
     12500     12499     12546     12549     12501     12499     12546     12547
     12501     12499     12546     12548     12501     12499     12546     12549
     12502     12505     12508     12509     12502     12505     12508     12510
     12502     12505     12508     12511     12503     12502     12505     12506
     12503     12502     12505     12507     12503     12502     12505     12508
     12504     12502     12505     12506     12504     12502     12505     12507
     12504     12502     12505     12508     12505     12508     12511     12512
     12505     12508     12511     12513     12505     12508     12511     12514
     12506     12505     12508     12509     12506     12505     12508     12510
     12506     12505     12508     12511     12507     12505     12508     12509
     12507     12505     12508     12510     12507     12505     12508     12511
     12508     12511     12514     12515     12508     12511     12514     12516
     12508     12511     12514     12517     12509     12508     12511     12512
     12509     12508     12511     12513     12509     12508     12511     12514
     12510     12508     12511     12512     12510     12508     12511     12513
     12510     12508     12511     12514     12511     12514     12517     12518
     12511     12514     12517     12519     12511     12514     12517     12520
     12512     12511     12514     12515     12512     12511     12514     12516
     12512     12511     12514     12517     12513     12511     12514     12515
     12513     12511     12514     12516     12513     12511     12514     12517
     12514     12517     12520     12521     12514     12517     12520     12522
     12514     12517     12520     12525     12515     12514     12517     12518
     12515     12514     12517     12519     12515     12514     12517     12520
     12516     12514     12517     12518     12516     12514     12517     12519
     12516     12514     12517     12520     12517     12520     12522     12523
     12517     12520     12522     12524     12517     12520     12522     12525
     12517     12520     12525     12522     12517     12520     12525     12526
     12517     12520     12525     12527     12518     12517     12520     12521
     12518     12517     12520     12522     12518     12517     12520     12525
     12519     12517     12520     12521     12519     12517     12520     12522
     12519     12517     12520     12525     12520     12522     12525     12526
     12520     12522     12525     12527     12520     12525     12522     12523
     12520     12525     12522     12524     12520     12525     12527     12528
     12520     12525     12527     12529     12520     12525     12527     12530
     12521     12520     12522     12523     12521     12520     12522     12524
     12521     12520     12522     12525     12521     12520     12525     12522
     12521     12520     12525     12526     12521     12520     12525     12527
     12522     12520     12525     12526     12522     12520     12525     12527
     12522     12525     12527     12528     12522     12525     12527     12529
     12522     12525     12527     12530     12523     12522     12520     12525
     12523     12522     12525     12526     12523     12522     12525     12527
     12524     12522     12520     12525     12524     12522     12525     12526
     12524     12522     12525     12527     12525     12527     12530     12531
     12525     12527     12530     12532     12525     12527     12530     12533
     12526     12525     12527     12528     12526     12525     12527     12529
     12526     12525     12527     12530     12527     12530     12533     12534
     12527     12530     12533     12535     12527     12530     12533     12536
     12528     12527     12530     12531     12528     12527     12530     12532
     12528     12527     12530     12533     12529     12527     12530     12531
     12529     12527     12530     12532     12529     12527     12530     12533
     12530     12533     12536     12537     12530     12533     12536     12538
     12530     12533     12536     12539     12531     12530     12533     12534
     12531     12530     12533     12535     12531     12530     12533     12536
     12532     12530     12533     12534     12532     12530     12533     12535
     12532     12530     12533     12536     12533     12536     12539     12540
     12533     12536     12539     12541     12533     12536     12539     12542
     12534     12533     12536     12537     12534     12533     12536     12538
     12534     12533     12536     12539     12535     12533     12536     12537
     12535     12533     12536     12538     12535     12533     12536     12539
     12536     12539     12542     12543     12536     12539     12542     12544
     12536     12539     12542     12545     12537     12536     12539     12540
     12537     12536     12539     12541     12537     12536     12539     12542
     12538     12536     12539     12540     12538     12536     12539     12541
     12538     12536     12539     12542     12540     12539     12542     12543
     12540     12539     12542     12544     12540     12539     12542     12545
     12541     12539     12542     12543     12541     12539     12542     12544
     12541     12539     12542     12545     12546     12549     12552     12553
     12546     12549     12552     12554     12546     12549     12552     12555
     12547     12546     12549     12550     12547     12546     12549     12551
     12547     12546     12549     12552     12548     12546     12549     12550
     12548     12546     12549     12551     12548     12546     12549     12552
     12549     12552     12555     12556     12549     12552     12555     12557
     12549     12552     12555     12558     12550     12549     12552     12553
     12550     12549     12552     12554     12550     12549     12552     12555
     12551     12549     12552     12553     12551     12549     12552     12554
     12551     12549     12552     12555     12552     12555     12558     12559
     12552     12555     12558     12560     12552     12555     12558     12561
     12553     12552     12555     12556     12553     12552     12555     12557
     12553     12552     12555     12558     12554     12552     12555     12556
     12554     12552     12555     12557     12554     12552     12555     12558
     12555     12558     12561     12562     12555     12558     12561     12563
     12555     12558     12561     12564     12556     12555     12558     12559
     12556     12555     12558     12560     12556     12555     12558     12561
     12557     12555     12558     12559     12557     12555     12558     12560
     12557     12555     12558     12561     12558     12561     12564     12565
     12558     12561     12564     12566     12558     12561     12564     12567
     12559     12558     12561     12562     12559     12558     12561     12563
     12559     12558     12561     12564     12560     12558     12561     12562
     12560     12558     12561     12563     12560     12558     12561     12564
     12561     12564     12567     12568     12561     12564     12567     12569
     12561     12564     12567     12570     12562     12561     12564     12565
     12562     12561     12564     12566     12562     12561     12564     12567
     12563     12561     12564     12565     12563     12561     12564     12566
     12563     12561     12564     12567     12564     12567     12570     12571
     12564     12567     12570     12572     12564     12567     12570     12573
     12565     12564     12567     12568     12565     12564     12567     12569
     12565     12564     12567     12570     12566     12564     12567     12568
     12566     12564     12567     12569     12566     12564     12567     12570
     12567     12570     12573     12574     12567     12570     12573     12575
     12567     12570     12573     12576     12568     12567     12570     12571
     12568     12567     12570     12572     12568     12567     12570     12573
     12569     12567     12570     12571     12569     12567     12570     12572
     12569     12567     12570     12573     12570     12573     12576     12577
     12570     12573     12576     12578     12570     12573     12576     12579
     12571     12570     12573     12574     12571     12570     12573     12575
     12571     12570     12573     12576     12572     12570     12573     12574
     12572     12570     12573     12575     12572     12570     12573     12576
     12573     12576     12579     12580     12573     12576     12579     12581
     12573     12576     12579     12582     12574     12573     12576     12577
     12574     12573     12576     12578     12574     12573     12576     12579
     12575     12573     12576     12577     12575     12573     12576     12578
     12575     12573     12576     12579     12576     12579     12582     12583
     12576     12579     12582     12584     12576     12579     12582     12585
     12577     12576     12579     12580     12577     12576     12579     12581
     12577     12576     12579     12582     12578     12576     12579     12580
     12578     12576     12579     12581     12578     12576     12579     12582
     12579     12582     12585     12586     12579     12582     12585     12587
     12579     12582     12585     12588     12580     12579     12582     12583
     12580     12579     12582     12584     12580     12579     12582     12585
     12581     12579     12582     12583     12581     12579     12582     12584
     12581     12579     12582     12585     12583     12582     12585     12586
     12583     12582     12585     12587     12583     12582     12585     12588
     12584     12582     12585     12586     12584     12582     12585     12587
     12584     12582     12585     12588     12589     12593     12596     12597
     12589     12593     12596     12598     12589     12593     12596     12603
     12590     12589     12593     12594     12590     12589     12593     12595
     12590     12589     12593     12596     12591     12589     12593     12594
     12591     12589     12593     12595     12591     12589     12593     12596
     12592     12589     12593     12594     12592     12589     12593     12595
     12592     12589     12593     12596     12593     12596     12603     12599
     12594     12593     12596     12597     12594     12593     12596     12598
     12594     12593     12596     12603     12595     12593     12596     12597
     12595     12593     12596     12598     12595     12593     12596     12603
     12596     12603     12599     12600     12596     12603     12599     12601
     12596     12603     12599     12602     12597     12596     12603     12599
     12598     12596     12603     12599     12599     12602     12604     12605
     12599     12602     12604     12606     12599     12602     12604     12607
     12600     12599     12602     12604     12601     12599     12602     12604
     12602     12604     12607     12608     12602     12604     12607     12609
     12602     12604     12607     12615     12603     12599     12602     12604
     12604     12607     12609     12610     12604     12607     12615     12616
     12604     12607     12615     12617     12604     12607     12615     12618
     12605     12604     12607     12608     12605     12604     12607     12609
     12605     12604     12607     12615     12606     12604     12607     12608
     12606     12604     12607     12609     12606     12604     12607     12615
     12607     12609     12610     12611     12607     12609     12610     12612
     12607     12615     12618     12619     12608     12607     12609     12610
     12608     12607     12615     12616     12608     12607     12615     12617
     12608     12607     12615     12618     12609     12607     12615     12616
     12609     12607     12615     12617     12609     12607     12615     12618
     12609     12610     12612     12613     12609     12610     12612     12614
     12609     12610     12612     12624     12610     12609     12607     12615
     12610     12612     12624     12625     12610     12612     12624     12626
     12610     12612     12624     12627     12611     12610     12612     12613
     12611     12610     12612     12614     12611     12610     12612     12624
     12612     12624     12627     12628     12612     12624     12627     12629
     12612     12624     12627     12630     12613     12612     12624     12625
     12613     12612     12624     12626     12613     12612     12624     12627
     12614     12612     12624     12625     12614     12612     12624     12626
     12614     12612     12624     12627     12615     12618     12619     12620
     12615     12618     12619     12621     12616     12615     12618     12619
     12617     12615     12618     12619     12618     12619     12621     12622
     12618     12619     12621     12623     12618     12619     12621     12668
     12619     12621     12668     12669     12619     12621     12668     12670
     12619     12621     12668     12671     12620     12619     12621     12622
     12620     12619     12621     12623     12620     12619     12621     12668
     12621     12668     12671     12672     12621     12668     12671     12673
     12621     12668     12671     12674     12622     12621     12668     12669
     12622     12621     12668     12670     12622     12621     12668     12671
     12623     12621     12668     12669     12623     12621     12668     12670
     12623     12621     12668     12671     12624     12627     12630     12631
     12624     12627     12630     12632     12624     12627     12630     12633
     12625     12624     12627     12628     12625     12624     12627     12629
     12625     12624     12627     12630     12626     12624     12627     12628
     12626     12624     12627     12629     12626     12624     12627     12630
     12627     12630     12633     12634     12627     12630     12633     12635
     12627     12630     12633     12636     12628     12627     12630     12631
     12628     12627     12630     12632     12628     12627     12630     12633
     12629     12627     12630     12631     12629     12627     12630     12632
     12629     12627     12630     12633     12630     12633     12636     12637
     12630     12633     12636     12638     12630     12633     12636     12639
     12631     12630     12633     12634     12631     12630     12633     12635
     12631     12630     12633     12636     12632     12630     12633     12634
     12632     12630     12633     12635     12632     12630     12633     12636
     12633     12636     12639     12640     12633     12636     12639     12641
     12633     12636     12639     12642     12634     12633     12636     12637
     12634     12633     12636     12638     12634     12633     12636     12639
     12635     12633     12636     12637     12635     12633     12636     12638
     12635     12633     12636     12639     12636     12639     12642     12643
     12636     12639     12642     12644     12636     12639     12642     12647
     12637     12636     12639     12640     12637     12636     12639     12641
     12637     12636     12639     12642     12638     12636     12639     12640
     12638     12636     12639     12641     12638     12636     12639     12642
     12639     12642     12644     12645     12639     12642     12644     12646
     12639     12642     12644     12647     12639     12642     12647     12644
     12639     12642     12647     12648     12639     12642     12647     12649
     12640     12639     12642     12643     12640     12639     12642     12644
     12640     12639     12642     12647     12641     12639     12642     12643
     12641     12639     12642     12644     12641     12639     12642     12647
     12642     12644     12647     12648     12642     12644     12647     12649
     12642     12647     12644     12645     12642     12647     12644     12646
     12642     12647     12649     12650     12642     12647     12649     12651
     12642     12647     12649     12652     12643     12642     12644     12645
     12643     12642     12644     12646     12643     12642     12644     12647
     12643     12642     12647     12644     12643     12642     12647     12648
     12643     12642     12647     12649     12644     12642     12647     12648
     12644     12642     12647     12649     12644     12647     12649     12650
     12644     12647     12649     12651     12644     12647     12649     12652
     12645     12644     12642     12647     12645     12644     12647     12648
     12645     12644     12647     12649     12646     12644     12642     12647
     12646     12644     12647     12648     12646     12644     12647     12649
     12647     12649     12652     12653     12647     12649     12652     12654
     12647     12649     12652     12655     12648     12647     12649     12650
     12648     12647     12649     12651     12648     12647     12649     12652
     12649     12652     12655     12656     12649     12652     12655     12657
     12649     12652     12655     12658     12650     12649     12652     12653
     12650     12649     12652     12654     12650     12649     12652     12655
     12651     12649     12652     12653     12651     12649     12652     12654
     12651     12649     12652     12655     12652     12655     12658     12659
     12652     12655     12658     12660     12652     12655     12658     12661
     12653     12652     12655     12656     12653     12652     12655     12657
     12653     12652     12655     12658     12654     12652     12655     12656
     12654     12652     12655     12657     12654     12652     12655     12658
     12655     12658     12661     12662     12655     12658     12661     12663
     12655     12658     12661     12664     12656     12655     12658     12659
     12656     12655     12658     12660     12656     12655     12658     12661
     12657     12655     12658     12659     12657     12655     12658     12660
     12657     12655     12658     12661     12658     12661     12664     12665
     12658     12661     12664     12666     12658     12661     12664     12667
     12659     12658     12661     12662     12659     12658     12661     12663
     12659     12658     12661     12664     12660     12658     12661     12662
     12660     12658     12661     12663     12660     12658     12661     12664
     12662     12661     12664     12665     12662     12661     12664     12666
     12662     12661     12664     12667     12663     12661     12664     12665
     12663     12661     12664     12666     12663     12661     12664     12667
     12668     12671     12674     12675     12668     12671     12674     12676
     12668     12671     12674     12677     12669     12668     12671     12672
     12669     12668     12671     12673     12669     12668     12671     12674
     12670     12668     12671     12672     12670     12668     12671     12673
     12670     12668     12671     12674     12671     12674     12677     12678
     12671     12674     12677     12679     12671     12674     12677     12680
     12672     12671     12674     12675     12672     12671     12674     12676
     12672     12671     12674     12677     12673     12671     12674     12675
     12673     12671     12674     12676     12673     12671     12674     12677
     12674     12677     12680     12681     12674     12677     12680     12682
     12674     12677     12680     12683     12675     12674     12677     12678
     12675     12674     12677     12679     12675     12674     12677     12680
     12676     12674     12677     12678     12676     12674     12677     12679
     12676     12674     12677     12680     12677     12680     12683     12684
     12677     12680     12683     12685     12677     12680     12683     12686
     12678     12677     12680     12681     12678     12677     12680     12682
     12678     12677     12680     12683     12679     12677     12680     12681
     12679     12677     12680     12682     12679     12677     12680     12683
     12680     12683     12686     12687     12680     12683     12686     12688
     12680     12683     12686     12689     12681     12680     12683     12684
     12681     12680     12683     12685     12681     12680     12683     12686
     12682     12680     12683     12684     12682     12680     12683     12685
     12682     12680     12683     12686     12683     12686     12689     12690
     12683     12686     12689     12691     12683     12686     12689     12692
     12684     12683     12686     12687     12684     12683     12686     12688
     12684     12683     12686     12689     12685     12683     12686     12687
     12685     12683     12686     12688     12685     12683     12686     12689
     12686     12689     12692     12693     12686     12689     12692     12694
     12686     12689     12692     12695     12687     12686     12689     12690
     12687     12686     12689     12691     12687     12686     12689     12692
     12688     12686     12689     12690     12688     12686     12689     12691
     12688     12686     12689     12692     12689     12692     12695     12696
     12689     12692     12695     12697     12689     12692     12695     12698
     12690     12689     12692     12693     12690     12689     12692     12694
     12690     12689     12692     12695     12691     12689     12692     12693
     12691     12689     12692     12694     12691     12689     12692     12695
     12692     12695     12698     12699     12692     12695     12698     12700
     12692     12695     12698     12701     12693     12692     12695     12696
     12693     12692     12695     12697     12693     12692     12695     12698
     12694     12692     12695     12696     12694     12692     12695     12697
     12694     12692     12695     12698     12695     12698     12701     12702
     12695     12698     12701     12703     12695     12698     12701     12704
     12696     12695     12698     12699     12696     12695     12698     12700
     12696     12695     12698     12701     12697     12695     12698     12699
     12697     12695     12698     12700     12697     12695     12698     12701
     12698     12701     12704     12705     12698     12701     12704     12706
     12698     12701     12704     12707     12699     12698     12701     12702
     12699     12698     12701     12703     12699     12698     12701     12704
     12700     12698     12701     12702     12700     12698     12701     12703
     12700     12698     12701     12704     12701     12704     12707     12708
     12701     12704     12707     12709     12701     12704     12707     12710
     12702     12701     12704     12705     12702     12701     12704     12706
     12702     12701     12704     12707     12703     12701     12704     12705
     12703     12701     12704     12706     12703     12701     12704     12707
     12705     12704     12707     12708     12705     12704     12707     12709
     12705     12704     12707     12710     12706     12704     12707     12708
     12706     12704     12707     12709     12706     12704     12707     12710
     12711     12716     12718     12719     12711     12716     12720     12721
     12711     12716     12720     12722     12711     12716     12720     12727
     12712     12711     12714     12715     12712     12711     12716     12717
     12712     12711     12716     12718     12712     12711     12716     12720
     12713     12711     12714     12715     12713     12711     12716     12717
     12713     12711     12716     12718     12713     12711     12716     12720
     12714     12711     12716     12717     12714     12711     12716     12718
     12714     12711     12716     12720     12715     12714     12711     12716
     12716     12720     12727     12723     12717     12716     12718     12719
     12717     12716     12720     12721     12717     12716     12720     12722
     12717     12716     12720     12727     12718     12716     12720     12721
     12718     12716     12720     12722     12718     12716     12720     12727
     12719     12718     12716     12720     12720     12727     12723     12724
     12720     12727     12723     12725     12720     12727     12723     12726
     12721     12720     12727     12723     12722     12720     12727     12723
     12723     12726     12728     12729     12723     12726     12728     12730
     12723     12726     12728     12731     12724     12723     12726     12728
     12725     12723     12726     12728     12726     12728     12731     12732
     12726     12728     12731     12733     12726     12728     12731     12739
     12727     12723     12726     12728     12728     12731     12733     12734
     12728     12731     12739     12740     12728     12731     12739     12741
     12728     12731     12739     12742     12729     12728     12731     12732
     12729     12728     12731     12733     12729     12728     12731     12739
     12730     12728     12731     12732     12730     12728     12731     12733
     12730     12728     12731     12739     12731     12733     12734     12735
     12731     12733     12734     12736     12731     12739     12742     12743
     12732     12731     12733     12734     12732     12731     12739     12740
     12732     12731     12739     12741     12732     12731     12739     12742
     12733     12731     12739     12740     12733     12731     12739     12741
     12733     12731     12739     12742     12733     12734     12736     12737
     12733     12734     12736     12738     12733     12734     12736     12748
     12734     12733     12731     12739     12734     12736     12748     12749
     12734     12736     12748     12750     12734     12736     12748     12751
     12735     12734     12736     12737     12735     12734     12736     12738
     12735     12734     12736     12748     12736     12748     12751     12752
     12736     12748     12751     12753     12736     12748     12751     12754
     12737     12736     12748     12749     12737     12736     12748     12750
     12737     12736     12748     12751     12738     12736     12748     12749
     12738     12736     12748     12750     12738     12736     12748     12751
     12739     12742     12743     12744     12739     12742     12743     12745
     12740     12739     12742     12743     12741     12739     12742     12743
     12742     12743     12745     12746     12742     12743     12745     12747
     12742     12743     12745     12792     12743     12745     12792     12793
     12743     12745     12792     12794     12743     12745     12792     12795
     12744     12743     12745     12746     12744     12743     12745     12747
     12744     12743     12745     12792     12745     12792     12795     12796
     12745     12792     12795     12797     12745     12792     12795     12798
     12746     12745     12792     12793     12746     12745     12792     12794
     12746     12745     12792     12795     12747     12745     12792     12793
     12747     12745     12792     12794     12747     12745     12792     12795
     12748     12751     12754     12755     12748     12751     12754     12756
     12748     12751     12754     12757     12749     12748     12751     12752
     12749     12748     12751     12753     12749     12748     12751     12754
     12750     12748     12751     12752     12750     12748     12751     12753
     12750     12748     12751     12754     12751     12754     12757     12758
     12751     12754     12757     12759     12751     12754     12757     12760
     12752     12751     12754     12755     12752     12751     12754     12756
     12752     12751     12754     12757     12753     12751     12754     12755
     12753     12751     12754     12756     12753     12751     12754     12757
     12754     12757     12760     12761     12754     12757     12760     12762
     12754     12757     12760     12763     12755     12754     12757     12758
     12755     12754     12757     12759     12755     12754     12757     12760
     12756     12754     12757     12758     12756     12754     12757     12759
     12756     12754     12757     12760     12757     12760     12763     12764
     12757     12760     12763     12765     12757     12760     12763     12766
     12758     12757     12760     12761     12758     12757     12760     12762
     12758     12757     12760     12763     12759     12757     12760     12761
     12759     12757     12760     12762     12759     12757     12760     12763
     12760     12763     12766     12767     12760     12763     12766     12768
     12760     12763     12766     12771     12761     12760     12763     12764
     12761     12760     12763     12765     12761     12760     12763     12766
     12762     12760     12763     12764     12762     12760     12763     12765
     12762     12760     12763     12766     12763     12766     12768     12769
     12763     12766     12768     12770     12763     12766     12768     12771
     12763     12766     12771     12768     12763     12766     12771     12772
     12763     12766     12771     12773     12764     12763     12766     12767
     12764     12763     12766     12768     12764     12763     12766     12771
     12765     12763     12766     12767     12765     12763     12766     12768
     12765     12763     12766     12771     12766     12768     12771     12772
     12766     12768     12771     12773     12766     12771     12768     12769
     12766     12771     12768     12770     12766     12771     12773     12774
     12766     12771     12773     12775     12766     12771     12773     12776
     12767     12766     12768     12769     12767     12766     12768     12770
     12767     12766     12768     12771     12767     12766     12771     12768
     12767     12766     12771     12772     12767     12766     12771     12773
     12768     12766     12771     12772     12768     12766     12771     12773
     12768     12771     12773     12774     12768     12771     12773     12775
     12768     12771     12773     12776     12769     12768     12766     12771
     12769     12768     12771     12772     12769     12768     12771     12773
     12770     12768     12766     12771     12770     12768     12771     12772
     12770     12768     12771     12773     12771     12773     12776     12777
     12771     12773     12776     12778     12771     12773     12776     12779
     12772     12771     12773     12774     12772     12771     12773     12775
     12772     12771     12773     12776     12773     12776     12779     12780
     12773     12776     12779     12781     12773     12776     12779     12782
     12774     12773     12776     12777     12774     12773     12776     12778
     12774     12773     12776     12779     12775     12773     12776     12777
     12775     12773     12776     12778     12775     12773     12776     12779
     12776     12779     12782     12783     12776     12779     12782     12784
     12776     12779     12782     12785     12777     12776     12779     12780
     12777     12776     12779     12781     12777     12776     12779     12782
     12778     12776     12779     12780     12778     12776     12779     12781
     12778     12776     12779     12782     12779     12782     12785     12786
     12779     12782     12785     12787     12779     12782     12785     12788
     12780     12779     12782     12783     12780     12779     12782     12784
     12780     12779     12782     12785     12781     12779     12782     12783
     12781     12779     12782     12784     12781     12779     12782     12785
     12782     12785     12788     12789     12782     12785     12788     12790
     12782     12785     12788     12791     12783     12782     12785     12786
     12783     12782     12785     12787     12783     12782     12785     12788
     12784     12782     12785     12786     12784     12782     12785     12787
     12784     12782     12785     12788     12786     12785     12788     12789
     12786     12785     12788     12790     12786     12785     12788     12791
     12787     12785     12788     12789     12787     12785     12788     12790
     12787     12785     12788     12791     12792     12795     12798     12799
     12792     12795     12798     12800     12792     12795     12798     12801
     12793     12792     12795     12796     12793     12792     12795     12797
     12793     12792     12795     12798     12794     12792     12795     12796
     12794     12792     12795     12797     12794     12792     12795     12798
     12795     12798     12801     12802     12795     12798     12801     12803
     12795     12798     12801     12804     12796     12795     12798     12799
     12796     12795     12798     12800     12796     12795     12798     12801
     12797     12795     12798     12799     12797     12795     12798     12800
     12797     12795     12798     12801     12798     12801     12804     12805
     12798     12801     12804     12806     12798     12801     12804     12807
     12799     12798     12801     12802     12799     12798     12801     12803
     12799     12798     12801     12804     12800     12798     12801     12802
     12800     12798     12801     12803     12800     12798     12801     12804
     12801     12804     12807     12808     12801     12804     12807     12809
     12801     12804     12807     12810     12802     12801     12804     12805
     12802     12801     12804     12806     12802     12801     12804     12807
     12803     12801     12804     12805     12803     12801     12804     12806
     12803     12801     12804     12807     12804     12807     12810     12811
     12804     12807     12810     12812     12804     12807     12810     12813
     12805     12804     12807     12808     12805     12804     12807     12809
     12805     12804     12807     12810     12806     12804     12807     12808
     12806     12804     12807     12809     12806     12804     12807     12810
     12807     12810     12813     12814     12807     12810     12813     12815
     12807     12810     12813     12816     12808     12807     12810     12811
     12808     12807     12810     12812     12808     12807     12810     12813
     12809     12807     12810     12811     12809     12807     12810     12812
     12809     12807     12810     12813     12810     12813     12816     12817
     12810     12813     12816     12818     12810     12813     12816     12819
     12811     12810     12813     12814     12811     12810     12813     12815
     12811     12810     12813     12816     12812     12810     12813     12814
     12812     12810     12813     12815     12812     12810     12813     12816
     12813     12816     12819     12820     12813     12816     12819     12821
     12813     12816     12819     12822     12814     12813     12816     12817
     12814     12813     12816     12818     12814     12813     12816     12819
     12815     12813     12816     12817     12815     12813     12816     12818
     12815     12813     12816     12819     12816     12819     12822     12823
     12816     12819     12822     12824     12816     12819     12822     12825
     12817     12816     12819     12820     12817     12816     12819     12821
     12817     12816     12819     12822     12818     12816     12819     12820
     12818     12816     12819     12821     12818     12816     12819     12822
     12819     12822     12825     12826     12819     12822     12825     12827
     12819     12822     12825     12828     12820     12819     12822     12823
     12820     12819     12822     12824     12820     12819     12822     12825
     12821     12819     12822     12823     12821     12819     12822     12824
     12821     12819     12822     12825     12822     12825     12828     12829
     12822     12825     12828     12830     12822     12825     12828     12831
     12823     12822     12825     12826     12823     12822     12825     12827
     12823     12822     12825     12828     12824     12822     12825     12826
     12824     12822     12825     12827     12824     12822     12825     12828
     12825     12828     12831     12832     12825     12828     12831     12833
     12825     12828     12831     12834     12826     12825     12828     12829
     12826     12825     12828     12830     12826     12825     12828     12831
     12827     12825     12828     12829     12827     12825     12828     12830
     12827     12825     12828     12831     12829     12828     12831     12832
     12829     12828     12831     12833     12829     12828     12831     12834
     12830     12828     12831     12832     12830     12828     12831     12833
     12830     12828     12831     12834     12835     12839     12842     12843
     12835     12839     12842     12844     12835     12839     12842     12849
     12836     12835     12839     12840     12836     12835     12839     12841
     12836     12835     12839     12842     12837     12835     12839     12840
     12837     12835     12839     12841     12837     12835     12839     12842
     12838     12835     12839     12840     12838     12835     12839     12841
     12838     12835     12839     12842     12839     12842     12849     12845
     12840     12839     12842     12843     12840     12839     12842     12844
     12840     12839     12842     12849     12841     12839     12842     12843
     12841     12839     12842     12844     12841     12839     12842     12849
     12842     12849     12845     12846     12842     12849     12845     12847
     12842     12849     12845     12848     12843     12842     12849     12845
     12844     12842     12849     12845     12845     12848     12850     12851
     12845     12848     12850     12852     12845     12848     12850     12853
     12846     12845     12848     12850     12847     12845     12848     12850
     12848     12850     12853     12854     12848     12850     12853     12855
     12848     12850     12853     12861     12849     12845     12848     12850
     12850     12853     12855     12856     12850     12853     12861     12862
     12850     12853     12861     12863     12850     12853     12861     12864
     12851     12850     12853     12854     12851     12850     12853     12855
     12851     12850     12853     12861     12852     12850     12853     12854
     12852     12850     12853     12855     12852     12850     12853     12861
     12853     12855     12856     12857     12853     12855     12856     12858
     12853     12861     12864     12865     12854     12853     12855     12856
     12854     12853     12861     12862     12854     12853     12861     12863
     12854     12853     12861     12864     12855     12853     12861     12862
     12855     12853     12861     12863     12855     12853     12861     12864
     12855     12856     12858     12859     12855     12856     12858     12860
     12855     12856     12858     12870     12856     12855     12853     12861
     12856     12858     12870     12871     12856     12858     12870     12872
     12856     12858     12870     12873     12857     12856     12858     12859
     12857     12856     12858     12860     12857     12856     12858     12870
     12858     12870     12873     12874     12858     12870     12873     12875
     12858     12870     12873     12876     12859     12858     12870     12871
     12859     12858     12870     12872     12859     12858     12870     12873
     12860     12858     12870     12871     12860     12858     12870     12872
     12860     12858     12870     12873     12861     12864     12865     12866
     12861     12864     12865     12867     12862     12861     12864     12865
     12863     12861     12864     12865     12864     12865     12867     12868
     12864     12865     12867     12869     12864     12865     12867     12914
     12865     12867     12914     12915     12865     12867     12914     12916
     12865     12867     12914     12917     12866     12865     12867     12868
     12866     12865     12867     12869     12866     12865     12867     12914
     12867     12914     12917     12918     12867     12914     12917     12919
     12867     12914     12917     12920     12868     12867     12914     12915
     12868     12867     12914     12916     12868     12867     12914     12917
     12869     12867     12914     12915     12869     12867     12914     12916
     12869     12867     12914     12917     12870     12873     12876     12877
     12870     12873     12876     12878     12870     12873     12876     12879
     12871     12870     12873     12874     12871     12870     12873     12875
     12871     12870     12873     12876     12872     12870     12873     12874
     12872     12870     12873     12875     12872     12870     12873     12876
     12873     12876     12879     12880     12873     12876     12879     12881
     12873     12876     12879     12882     12874     12873     12876     12877
     12874     12873     12876     12878     12874     12873     12876     12879
     12875     12873     12876     12877     12875     12873     12876     12878
     12875     12873     12876     12879     12876     12879     12882     12883
     12876     12879     12882     12884     12876     12879     12882     12885
     12877     12876     12879     12880     12877     12876     12879     12881
     12877     12876     12879     12882     12878     12876     12879     12880
     12878     12876     12879     12881     12878     12876     12879     12882
     12879     12882     12885     12886     12879     12882     12885     12887
     12879     12882     12885     12888     12880     12879     12882     12883
     12880     12879     12882     12884     12880     12879     12882     12885
     12881     12879     12882     12883     12881     12879     12882     12884
     12881     12879     12882     12885     12882     12885     12888     12889
     12882     12885     12888     12890     12882     12885     12888     12893
     12883     12882     12885     12886     12883     12882     12885     12887
     12883     12882     12885     12888     12884     12882     12885     12886
     12884     12882     12885     12887     12884     12882     12885     12888
     12885     12888     12890     12891     12885     12888     12890     12892
     12885     12888     12890     12893     12885     12888     12893     12890
     12885     12888     12893     12894     12885     12888     12893     12895
     12886     12885     12888     12889     12886     12885     12888     12890
     12886     12885     12888     12893     12887     12885     12888     12889
     12887     12885     12888     12890     12887     12885     12888     12893
     12888     12890     12893     12894     12888     12890     12893     12895
     12888     12893     12890     12891     12888     12893     12890     12892
     12888     12893     12895     12896     12888     12893     12895     12897
     12888     12893     12895     12898     12889     12888     12890     12891
     12889     12888     12890     12892     12889     12888     12890     12893
     12889     12888     12893     12890     12889     12888     12893     12894
     12889     12888     12893     12895     12890     12888     12893     12894
     12890     12888     12893     12895     12890     12893     12895     12896
     12890     12893     12895     12897     12890     12893     12895     12898
     12891     12890     12888     12893     12891     12890     12893     12894
     12891     12890     12893     12895     12892     12890     12888     12893
     12892     12890     12893     12894     12892     12890     12893     12895
     12893     12895     12898     12899     12893     12895     12898     12900
     12893     12895     12898     12901     12894     12893     12895     12896
     12894     12893     12895     12897     12894     12893     12895     12898
     12895     12898     12901     12902     12895     12898     12901     12903
     12895     12898     12901     12904     12896     12895     12898     12899
     12896     12895     12898     12900     12896     12895     12898     12901
     12897     12895     12898     12899     12897     12895     12898     12900
     12897     12895     12898     12901     12898     12901     12904     12905
     12898     12901     12904     12906     12898     12901     12904     12907
     12899     12898     12901     12902     12899     12898     12901     12903
     12899     12898     12901     12904     12900     12898     12901     12902
     12900     12898     12901     12903     12900     12898     12901     12904
     12901     12904     12907     12908     12901     12904     12907     12909
     12901     12904     12907     12910     12902     12901     12904     12905
     12902     12901     12904     12906     12902     12901     12904     12907
     12903     12901     12904     12905     12903     12901     12904     12906
     12903     12901     12904     12907     12904     12907     12910     12911
     12904     12907     12910     12912     12904     12907     12910     12913
     12905     12904     12907     12908     12905     12904     12907     12909
     12905     12904     12907     12910     12906     12904     12907     12908
     12906     12904     12907     12909     12906     12904     12907     12910
     12908     12907     12910     12911     12908     12907     12910     12912
     12908     12907     12910     12913     12909     12907     12910     12911
     12909     12907     12910     12912     12909     12907     12910     12913
     12914     12917     12920     12921     12914     12917     12920     12922
     12914     12917     12920     12923     12915     12914     12917     12918
     12915     12914     12917     12919     12915     12914     12917     12920
     12916     12914     12917     12918     12916     12914     12917     12919
     12916     12914     12917     12920     12917     12920     12923     12924
     12917     12920     12923     12925     12917     12920     12923     12926
     12918     12917     12920     12921     12918     12917     12920     12922
     12918     12917     12920     12923     12919     12917     12920     12921
     12919     12917     12920     12922     12919     12917     12920     12923
     12920     12923     12926     12927     12920     12923     12926     12928
     12920     12923     12926     12929     12921     12920     12923     12924
     12921     12920     12923     12925     12921     12920     12923     12926
     12922     12920     12923     12924     12922     12920     12923     12925
     12922     12920     12923     12926     12923     12926     12929     12930
     12923     12926     12929     12931     12923     12926     12929     12932
     12924     12923     12926     12927     12924     12923     12926     12928
     12924     12923     12926     12929     12925     12923     12926     12927
     12925     12923     12926     12928     12925     12923     12926     12929
     12926     12929     12932     12933     12926     12929     12932     12934
     12926     12929     12932     12935     12927     12926     12929     12930
     12927     12926     12929     12931     12927     12926     12929     12932
     12928     12926     12929     12930     12928     12926     12929     12931
     12928     12926     12929     12932     12929     12932     12935     12936
     12929     12932     12935     12937     12929     12932     12935     12938
     12930     12929     12932     12933     12930     12929     12932     12934
     12930     12929     12932     12935     12931     12929     12932     12933
     12931     12929     12932     12934     12931     12929     12932     12935
     12932     12935     12938     12939     12932     12935     12938     12940
     12932     12935     12938     12941     12933     12932     12935     12936
     12933     12932     12935     12937     12933     12932     12935     12938
     12934     12932     12935     12936     12934     12932     12935     12937
     12934     12932     12935     12938     12935     12938     12941     12942
     12935     12938     12941     12943     12935     12938     12941     12944
     12936     12935     12938     12939     12936     12935     12938     12940
     12936     12935     12938     12941     12937     12935     12938     12939
     12937     12935     12938     12940     12937     12935     12938     12941
     12938     12941     12944     12945     12938     12941     12944     12946
     12938     12941     12944     12947     12939     12938     12941     12942
     12939     12938     12941     12943     12939     12938     12941     12944
     12940     12938     12941     12942     12940     12938     12941     12943
     12940     12938     12941     12944     12941     12944     12947     12948
     12941     12944     12947     12949     12941     12944     12947     12950
     12942     12941     12944     12945     12942     12941     12944     12946
     12942     12941     12944     12947     12943     12941     12944     12945
     12943     12941     12944     12946     12943     12941     12944     12947
     12944     12947     12950     12951     12944     12947     12950     12952
     12944     12947     12950     12953     12945     12944     12947     12948
     12945     12944     12947     12949     12945     12944     12947     12950
     12946     12944     12947     12948     12946     12944     12947     12949
     12946     12944     12947     12950     12947     12950     12953     12954
     12947     12950     12953     12955     12947     12950     12953     12956
     12948     12947     12950     12951     12948     12947     12950     12952
     12948     12947     12950     12953     12949     12947     12950     12951
     12949     12947     12950     12952     12949     12947     12950     12953
     12951     12950     12953     12954     12951     12950     12953     12955
     12951     12950     12953     12956     12952     12950     12953     12954
     12952     12950     12953     12955     12952     12950     12953     12956
     12957     12961     12964     12965     12957     12961     12964     12966
     12957     12961     12964     12971     12958     12957     12961     12962
     12958     12957     12961     12963     12958     12957     12961     12964
     12959     12957     12961     12962     12959     12957     12961     12963
     12959     12957     12961     12964     12960     12957     12961     12962
     12960     12957     12961     12963     12960     12957     12961     12964
     12961     12964     12971     12967     12962     12961     12964     12965
     12962     12961     12964     12966     12962     12961     12964     12971
     12963     12961     12964     12965     12963     12961     12964     12966
     12963     12961     12964     12971     12964     12971     12967     12968
     12964     12971     12967     12969     12964     12971     12967     12970
     12965     12964     12971     12967     12966     12964     12971     12967
     12967     12970     12972     12973     12967     12970     12972     12974
     12967     12970     12972     12975     12968     12967     12970     12972
     12969     12967     12970     12972     12970     12972     12975     12976
     12970     12972     12975     12977     12970     12972     12975     12983
     12971     12967     12970     12972     12972     12975     12977     12978
     12972     12975     12983     12984     12972     12975     12983     12985
     12972     12975     12983     12986     12973     12972     12975     12976
     12973     12972     12975     12977     12973     12972     12975     12983
     12974     12972     12975     12976     12974     12972     12975     12977
     12974     12972     12975     12983     12975     12977     12978     12979
     12975     12977     12978     12980     12975     12983     12986     12987
     12976     12975     12977     12978     12976     12975     12983     12984
     12976     12975     12983     12985     12976     12975     12983     12986
     12977     12975     12983     12984     12977     12975     12983     12985
     12977     12975     12983     12986     12977     12978     12980     12981
     12977     12978     12980     12982     12977     12978     12980     12992
     12978     12977     12975     12983     12978     12980     12992     12993
     12978     12980     12992     12994     12978     12980     12992     12995
     12979     12978     12980     12981     12979     12978     12980     12982
     12979     12978     12980     12992     12980     12992     12995     12996
     12980     12992     12995     12997     12980     12992     12995     12998
     12981     12980     12992     12993     12981     12980     12992     12994
     12981     12980     12992     12995     12982     12980     12992     12993
     12982     12980     12992     12994     12982     12980     12992     12995
     12983     12986     12987     12988     12983     12986     12987     12989
     12984     12983     12986     12987     12985     12983     12986     12987
     12986     12987     12989     12990     12986     12987     12989     12991
     12986     12987     12989     13036     12987     12989     13036     13037
     12987     12989     13036     13038     12987     12989     13036     13039
     12988     12987     12989     12990     12988     12987     12989     12991
     12988     12987     12989     13036     12989     13036     13039     13040
     12989     13036     13039     13041     12989     13036     13039     13042
     12990     12989     13036     13037     12990     12989     13036     13038
     12990     12989     13036     13039     12991     12989     13036     13037
     12991     12989     13036     13038     12991     12989     13036     13039
     12992     12995     12998     12999     12992     12995     12998     13000
     12992     12995     12998     13001     12993     12992     12995     12996
     12993     12992     12995     12997     12993     12992     12995     12998
     12994     12992     12995     12996     12994     12992     12995     12997
     12994     12992     12995     12998     12995     12998     13001     13002
     12995     12998     13001     13003     12995     12998     13001     13004
     12996     12995     12998     12999     12996     12995     12998     13000
     12996     12995     12998     13001     12997     12995     12998     12999
     12997     12995     12998     13000     12997     12995     12998     13001
     12998     13001     13004     13005     12998     13001     13004     13006
     12998     13001     13004     13007     12999     12998     13001     13002
     12999     12998     13001     13003     12999     12998     13001     13004
     13000     12998     13001     13002     13000     12998     13001     13003
     13000     12998     13001     13004     13001     13004     13007     13008
     13001     13004     13007     13009     13001     13004     13007     13010
     13002     13001     13004     13005     13002     13001     13004     13006
     13002     13001     13004     13007     13003     13001     13004     13005
     13003     13001     13004     13006     13003     13001     13004     13007
     13004     13007     13010     13011     13004     13007     13010     13012
     13004     13007     13010     13015     13005     13004     13007     13008
     13005     13004     13007     13009     13005     13004     13007     13010
     13006     13004     13007     13008     13006     13004     13007     13009
     13006     13004     13007     13010     13007     13010     13012     13013
     13007     13010     13012     13014     13007     13010     13012     13015
     13007     13010     13015     13012     13007     13010     13015     13016
     13007     13010     13015     13017     13008     13007     13010     13011
     13008     13007     13010     13012     13008     13007     13010     13015
     13009     13007     13010     13011     13009     13007     13010     13012
     13009     13007     13010     13015     13010     13012     13015     13016
     13010     13012     13015     13017     13010     13015     13012     13013
     13010     13015     13012     13014     13010     13015     13017     13018
     13010     13015     13017     13019     13010     13015     13017     13020
     13011     13010     13012     13013     13011     13010     13012     13014
     13011     13010     13012     13015     13011     13010     13015     13012
     13011     13010     13015     13016     13011     13010     13015     13017
     13012     13010     13015     13016     13012     13010     13015     13017
     13012     13015     13017     13018     13012     13015     13017     13019
     13012     13015     13017     13020     13013     13012     13010     13015
     13013     13012     13015     13016     13013     13012     13015     13017
     13014     13012     13010     13015     13014     13012     13015     13016
     13014     13012     13015     13017     13015     13017     13020     13021
     13015     13017     13020     13022     13015     13017     13020     13023
     13016     13015     13017     13018     13016     13015     13017     13019
     13016     13015     13017     13020     13017     13020     13023     13024
     13017     13020     13023     13025     13017     13020     13023     13026
     13018     13017     13020     13021     13018     13017     13020     13022
     13018     13017     13020     13023     13019     13017     13020     13021
     13019     13017     13020     13022     13019     13017     13020     13023
     13020     13023     13026     13027     13020     13023     13026     13028
     13020     13023     13026     13029     13021     13020     13023     13024
     13021     13020     13023     13025     13021     13020     13023     13026
     13022     13020     13023     13024     13022     13020     13023     13025
     13022     13020     13023     13026     13023     13026     13029     13030
     13023     13026     13029     13031     13023     13026     13029     13032
     13024     13023     13026     13027     13024     13023     13026     13028
     13024     13023     13026     13029     13025     13023     13026     13027
     13025     13023     13026     13028     13025     13023     13026     13029
     13026     13029     13032     13033     13026     13029     13032     13034
     13026     13029     13032     13035     13027     13026     13029     13030
     13027     13026     13029     13031     13027     13026     13029     13032
     13028     13026     13029     13030     13028     13026     13029     13031
     13028     13026     13029     13032     13030     13029     13032     13033
     13030     13029     13032     13034     13030     13029     13032     13035
     13031     13029     13032     13033     13031     13029     13032     13034
     13031     13029     13032     13035     13036     13039     13042     13043
     13036     13039     13042     13044     13036     13039     13042     13045
     13037     13036     13039     13040     13037     13036     13039     13041
     13037     13036     13039     13042     13038     13036     13039     13040
     13038     13036     13039     13041     13038     13036     13039     13042
     13039     13042     13045     13046     13039     13042     13045     13047
     13039     13042     13045     13048     13040     13039     13042     13043
     13040     13039     13042     13044     13040     13039     13042     13045
     13041     13039     13042     13043     13041     13039     13042     13044
     13041     13039     13042     13045     13042     13045     13048     13049
     13042     13045     13048     13050     13042     13045     13048     13051
     13043     13042     13045     13046     13043     13042     13045     13047
     13043     13042     13045     13048     13044     13042     13045     13046
     13044     13042     13045     13047     13044     13042     13045     13048
     13045     13048     13051     13052     13045     13048     13051     13053
     13045     13048     13051     13054     13046     13045     13048     13049
     13046     13045     13048     13050     13046     13045     13048     13051
     13047     13045     13048     13049     13047     13045     13048     13050
     13047     13045     13048     13051     13048     13051     13054     13055
     13048     13051     13054     13056     13048     13051     13054     13057
     13049     13048     13051     13052     13049     13048     13051     13053
     13049     13048     13051     13054     13050     13048     13051     13052
     13050     13048     13051     13053     13050     13048     13051     13054
     13051     13054     13057     13058     13051     13054     13057     13059
     13051     13054     13057     13060     13052     13051     13054     13055
     13052     13051     13054     13056     13052     13051     13054     13057
     13053     13051     13054     13055     13053     13051     13054     13056
     13053     13051     13054     13057     13054     13057     13060     13061
     13054     13057     13060     13062     13054     13057     13060     13063
     13055     13054     13057     13058     13055     13054     13057     13059
     13055     13054     13057     13060     13056     13054     13057     13058
     13056     13054     13057     13059     13056     13054     13057     13060
     13057     13060     13063     13064     13057     13060     13063     13065
     13057     13060     13063     13066     13058     13057     13060     13061
     13058     13057     13060     13062     13058     13057     13060     13063
     13059     13057     13060     13061     13059     13057     13060     13062
     13059     13057     13060     13063     13060     13063     13066     13067
     13060     13063     13066     13068     13060     13063     13066     13069
     13061     13060     13063     13064     13061     13060     13063     13065
     13061     13060     13063     13066     13062     13060     13063     13064
     13062     13060     13063     13065     13062     13060     13063     13066
     13063     13066     13069     13070     13063     13066     13069     13071
     13063     13066     13069     13072     13064     13063     13066     13067
     13064     13063     13066     13068     13064     13063     13066     13069
     13065     13063     13066     13067     13065     13063     13066     13068
     13065     13063     13066     13069     13066     13069     13072     13073
     13066     13069     13072     13074     13066     13069     13072     13075
     13067     13066     13069     13070     13067     13066     13069     13071
     13067     13066     13069     13072     13068     13066     13069     13070
     13068     13066     13069     13071     13068     13066     13069     13072
     13069     13072     13075     13076     13069     13072     13075     13077
     13069     13072     13075     13078     13070     13069     13072     13073
     13070     13069     13072     13074     13070     13069     13072     13075
     13071     13069     13072     13073     13071     13069     13072     13074
     13071     13069     13072     13075     13073     13072     13075     13076
     13073     13072     13075     13077     13073     13072     13075     13078
     13074     13072     13075     13076     13074     13072     13075     13077
     13074     13072     13075     13078     13079     13084     13086     13087
     13079     13084     13088     13089     13079     13084     13088     13090
     13079     13084     13088     13095     13080     13079     13082     13083
     13080     13079     13084     13085     13080     13079     13084     13086
     13080     13079     13084     13088     13081     13079     13082     13083
     13081     13079     13084     13085     13081     13079     13084     13086
     13081     13079     13084     13088     13082     13079     13084     13085
     13082     13079     13084     13086     13082     13079     13084     13088
     13083     13082     13079     13084     13084     13088     13095     13091
     13085     13084     13086     13087     13085     13084     13088     13089
     13085     13084     13088     13090     13085     13084     13088     13095
     13086     13084     13088     13089     13086     13084     13088     13090
     13086     13084     13088     13095     13087     13086     13084     13088
     13088     13095     13091     13092     13088     13095     13091     13093
     13088     13095     13091     13094     13089     13088     13095     13091
     13090     13088     13095     13091     13091     13094     13096     13097
     13091     13094     13096     13098     13091     13094     13096     13099
     13092     13091     13094     13096     13093     13091     13094     13096
     13094     13096     13099     13100     13094     13096     13099     13101
     13094     13096     13099     13107     13095     13091     13094     13096
     13096     13099     13101     13102     13096     13099     13107     13108
     13096     13099     13107     13109     13096     13099     13107     13110
     13097     13096     13099     13100     13097     13096     13099     13101
     13097     13096     13099     13107     13098     13096     13099     13100
     13098     13096     13099     13101     13098     13096     13099     13107
     13099     13101     13102     13103     13099     13101     13102     13104
     13099     13107     13110     13111     13100     13099     13101     13102
     13100     13099     13107     13108     13100     13099     13107     13109
     13100     13099     13107     13110     13101     13099     13107     13108
     13101     13099     13107     13109     13101     13099     13107     13110
     13101     13102     13104     13105     13101     13102     13104     13106
     13101     13102     13104     13116     13102     13101     13099     13107
     13102     13104     13116     13117     13102     13104     13116     13118
     13102     13104     13116     13119     13103     13102     13104     13105
     13103     13102     13104     13106     13103     13102     13104     13116
     13104     13116     13119     13120     13104     13116     13119     13121
     13104     13116     13119     13122     13105     13104     13116     13117
     13105     13104     13116     13118     13105     13104     13116     13119
     13106     13104     13116     13117     13106     13104     13116     13118
     13106     13104     13116     13119     13107     13110     13111     13112
     13107     13110     13111     13113     13108     13107     13110     13111
     13109     13107     13110     13111     13110     13111     13113     13114
     13110     13111     13113     13115     13110     13111     13113     13160
     13111     13113     13160     13161     13111     13113     13160     13162
     13111     13113     13160     13163     13112     13111     13113     13114
     13112     13111     13113     13115     13112     13111     13113     13160
     13113     13160     13163     13164     13113     13160     13163     13165
     13113     13160     13163     13166     13114     13113     13160     13161
     13114     13113     13160     13162     13114     13113     13160     13163
     13115     13113     13160     13161     13115     13113     13160     13162
     13115     13113     13160     13163     13116     13119     13122     13123
     13116     13119     13122     13124     13116     13119     13122     13125
     13117     13116     13119     13120     13117     13116     13119     13121
     13117     13116     13119     13122     13118     13116     13119     13120
     13118     13116     13119     13121     13118     13116     13119     13122
     13119     13122     13125     13126     13119     13122     13125     13127
     13119     13122     13125     13128     13120     13119     13122     13123
     13120     13119     13122     13124     13120     13119     13122     13125
     13121     13119     13122     13123     13121     13119     13122     13124
     13121     13119     13122     13125     13122     13125     13128     13129
     13122     13125     13128     13130     13122     13125     13128     13131
     13123     13122     13125     13126     13123     13122     13125     13127
     13123     13122     13125     13128     13124     13122     13125     13126
     13124     13122     13125     13127     13124     13122     13125     13128
     13125     13128     13131     13132     13125     13128     13131     13133
     13125     13128     13131     13134     13126     13125     13128     13129
     13126     13125     13128     13130     13126     13125     13128     13131
     13127     13125     13128     13129     13127     13125     13128     13130
     13127     13125     13128     13131     13128     13131     13134     13135
     13128     13131     13134     13136     13128     13131     13134     13139
     13129     13128     13131     13132     13129     13128     13131     13133
     13129     13128     13131     13134     13130     13128     13131     13132
     13130     13128     13131     13133     13130     13128     13131     13134
     13131     13134     13136     13137     13131     13134     13136     13138
     13131     13134     13136     13139     13131     13134     13139     13136
     13131     13134     13139     13140     13131     13134     13139     13141
     13132     13131     13134     13135     13132     13131     13134     13136
     13132     13131     13134     13139     13133     13131     13134     13135
     13133     13131     13134     13136     13133     13131     13134     13139
     13134     13136     13139     13140     13134     13136     13139     13141
     13134     13139     13136     13137     13134     13139     13136     13138
     13134     13139     13141     13142     13134     13139     13141     13143
     13134     13139     13141     13144     13135     13134     13136     13137
     13135     13134     13136     13138     13135     13134     13136     13139
     13135     13134     13139     13136     13135     13134     13139     13140
     13135     13134     13139     13141     13136     13134     13139     13140
     13136     13134     13139     13141     13136     13139     13141     13142
     13136     13139     13141     13143     13136     13139     13141     13144
     13137     13136     13134     13139     13137     13136     13139     13140
     13137     13136     13139     13141     13138     13136     13134     13139
     13138     13136     13139     13140     13138     13136     13139     13141
     13139     13141     13144     13145     13139     13141     13144     13146
     13139     13141     13144     13147     13140     13139     13141     13142
     13140     13139     13141     13143     13140     13139     13141     13144
     13141     13144     13147     13148     13141     13144     13147     13149
     13141     13144     13147     13150     13142     13141     13144     13145
     13142     13141     13144     13146     13142     13141     13144     13147
     13143     13141     13144     13145     13143     13141     13144     13146
     13143     13141     13144     13147     13144     13147     13150     13151
     13144     13147     13150     13152     13144     13147     13150     13153
     13145     13144     13147     13148     13145     13144     13147     13149
     13145     13144     13147     13150     13146     13144     13147     13148
     13146     13144     13147     13149     13146     13144     13147     13150
     13147     13150     13153     13154     13147     13150     13153     13155
     13147     13150     13153     13156     13148     13147     13150     13151
     13148     13147     13150     13152     13148     13147     13150     13153
     13149     13147     13150     13151     13149     13147     13150     13152
     13149     13147     13150     13153     13150     13153     13156     13157
     13150     13153     13156     13158     13150     13153     13156     13159
     13151     13150     13153     13154     13151     13150     13153     13155
     13151     13150     13153     13156     13152     13150     13153     13154
     13152     13150     13153     13155     13152     13150     13153     13156
     13154     13153     13156     13157     13154     13153     13156     13158
     13154     13153     13156     13159     13155     13153     13156     13157
     13155     13153     13156     13158     13155     13153     13156     13159
     13160     13163     13166     13167     13160     13163     13166     13168
     13160     13163     13166     13169     13161     13160     13163     13164
     13161     13160     13163     13165     13161     13160     13163     13166
     13162     13160     13163     13164     13162     13160     13163     13165
     13162     13160     13163     13166     13163     13166     13169     13170
     13163     13166     13169     13171     13163     13166     13169     13172
     13164     13163     13166     13167     13164     13163     13166     13168
     13164     13163     13166     13169     13165     13163     13166     13167
     13165     13163     13166     13168     13165     13163     13166     13169
     13166     13169     13172     13173     13166     13169     13172     13174
     13166     13169     13172     13175     13167     13166     13169     13170
     13167     13166     13169     13171     13167     13166     13169     13172
     13168     13166     13169     13170     13168     13166     13169     13171
     13168     13166     13169     13172     13169     13172     13175     13176
     13169     13172     13175     13177     13169     13172     13175     13178
     13170     13169     13172     13173     13170     13169     13172     13174
     13170     13169     13172     13175     13171     13169     13172     13173
     13171     13169     13172     13174     13171     13169     13172     13175
     13172     13175     13178     13179     13172     13175     13178     13180
     13172     13175     13178     13181     13173     13172     13175     13176
     13173     13172     13175     13177     13173     13172     13175     13178
     13174     13172     13175     13176     13174     13172     13175     13177
     13174     13172     13175     13178     13175     13178     13181     13182
     13175     13178     13181     13183     13175     13178     13181     13184
     13176     13175     13178     13179     13176     13175     13178     13180
     13176     13175     13178     13181     13177     13175     13178     13179
     13177     13175     13178     13180     13177     13175     13178     13181
     13178     13181     13184     13185     13178     13181     13184     13186
     13178     13181     13184     13187     13179     13178     13181     13182
     13179     13178     13181     13183     13179     13178     13181     13184
     13180     13178     13181     13182     13180     13178     13181     13183
     13180     13178     13181     13184     13181     13184     13187     13188
     13181     13184     13187     13189     13181     13184     13187     13190
     13182     13181     13184     13185     13182     13181     13184     13186
     13182     13181     13184     13187     13183     13181     13184     13185
     13183     13181     13184     13186     13183     13181     13184     13187
     13184     13187     13190     13191     13184     13187     13190     13192
     13184     13187     13190     13193     13185     13184     13187     13188
     13185     13184     13187     13189     13185     13184     13187     13190
     13186     13184     13187     13188     13186     13184     13187     13189
     13186     13184     13187     13190     13187     13190     13193     13194
     13187     13190     13193     13195     13187     13190     13193     13196
     13188     13187     13190     13191     13188     13187     13190     13192
     13188     13187     13190     13193     13189     13187     13190     13191
     13189     13187     13190     13192     13189     13187     13190     13193
     13190     13193     13196     13197     13190     13193     13196     13198
     13190     13193     13196     13199     13191     13190     13193     13194
     13191     13190     13193     13195     13191     13190     13193     13196
     13192     13190     13193     13194     13192     13190     13193     13195
     13192     13190     13193     13196     13193     13196     13199     13200
     13193     13196     13199     13201     13193     13196     13199     13202
     13194     13193     13196     13197     13194     13193     13196     13198
     13194     13193     13196     13199     13195     13193     13196     13197
     13195     13193     13196     13198     13195     13193     13196     13199
     13197     13196     13199     13200     13197     13196     13199     13201
     13197     13196     13199     13202     13198     13196     13199     13200
     13198     13196     13199     13201     13198     13196     13199     13202
     13203     13207     13210     13211     13203     13207     13210     13212
     13203     13207     13210     13217     13204     13203     13207     13208
     13204     13203     13207     13209     13204     13203     13207     13210
     13205     13203     13207     13208     13205     13203     13207     13209
     13205     13203     13207     13210     13206     13203     13207     13208
     13206     13203     13207     13209     13206     13203     13207     13210
     13207     13210     13217     13213     13208     13207     13210     13211
     13208     13207     13210     13212     13208     13207     13210     13217
     13209     13207     13210     13211     13209     13207     13210     13212
     13209     13207     13210     13217     13210     13217     13213     13214
     13210     13217     13213     13215     13210     13217     13213     13216
     13211     13210     13217     13213     13212     13210     13217     13213
     13213     13216     13218     13219     13213     13216     13218     13220
     13213     13216     13218     13221     13214     13213     13216     13218
     13215     13213     13216     13218     13216     13218     13221     13222
     13216     13218     13221     13223     13216     13218     13221     13229
     13217     13213     13216     13218     13218     13221     13223     13224
     13218     13221     13229     13230     13218     13221     13229     13231
     13218     13221     13229     13232     13219     13218     13221     13222
     13219     13218     13221     13223     13219     13218     13221     13229
     13220     13218     13221     13222     13220     13218     13221     13223
     13220     13218     13221     13229     13221     13223     13224     13225
     13221     13223     13224     13226     13221     13229     13232     13233
     13222     13221     13223     13224     13222     13221     13229     13230
     13222     13221     13229     13231     13222     13221     13229     13232
     13223     13221     13229     13230     13223     13221     13229     13231
     13223     13221     13229     13232     13223     13224     13226     13227
     13223     13224     13226     13228     13223     13224     13226     13238
     13224     13223     13221     13229     13224     13226     13238     13239
     13224     13226     13238     13240     13224     13226     13238     13241
     13225     13224     13226     13227     13225     13224     13226     13228
     13225     13224     13226     13238     13226     13238     13241     13242
     13226     13238     13241     13243     13226     13238     13241     13244
     13227     13226     13238     13239     13227     13226     13238     13240
     13227     13226     13238     13241     13228     13226     13238     13239
     13228     13226     13238     13240     13228     13226     13238     13241
     13229     13232     13233     13234     13229     13232     13233     13235
     13230     13229     13232     13233     13231     13229     13232     13233
     13232     13233     13235     13236     13232     13233     13235     13237
     13232     13233     13235     13282     13233     13235     13282     13283
     13233     13235     13282     13284     13233     13235     13282     13285
     13234     13233     13235     13236     13234     13233     13235     13237
     13234     13233     13235     13282     13235     13282     13285     13286
     13235     13282     13285     13287     13235     13282     13285     13288
     13236     13235     13282     13283     13236     13235     13282     13284
     13236     13235     13282     13285     13237     13235     13282     13283
     13237     13235     13282     13284     13237     13235     13282     13285
     13238     13241     13244     13245     13238     13241     13244     13246
     13238     13241     13244     13247     13239     13238     13241     13242
     13239     13238     13241     13243     13239     13238     13241     13244
     13240     13238     13241     13242     13240     13238     13241     13243
     13240     13238     13241     13244     13241     13244     13247     13248
     13241     13244     13247     13249     13241     13244     13247     13250
     13242     13241     13244     13245     13242     13241     13244     13246
     13242     13241     13244     13247     13243     13241     13244     13245
     13243     13241     13244     13246     13243     13241     13244     13247
     13244     13247     13250     13251     13244     13247     13250     13252
     13244     13247     13250     13253     13245     13244     13247     13248
     13245     13244     13247     13249     13245     13244     13247     13250
     13246     13244     13247     13248     13246     13244     13247     13249
     13246     13244     13247     13250     13247     13250     13253     13254
     13247     13250     13253     13255     13247     13250     13253     13256
     13248     13247     13250     13251     13248     13247     13250     13252
     13248     13247     13250     13253     13249     13247     13250     13251
     13249     13247     13250     13252     13249     13247     13250     13253
     13250     13253     13256     13257     13250     13253     13256     13258
     13250     13253     13256     13261     13251     13250     13253     13254
     13251     13250     13253     13255     13251     13250     13253     13256
     13252     13250     13253     13254     13252     13250     13253     13255
     13252     13250     13253     13256     13253     13256     13258     13259
     13253     13256     13258     13260     13253     13256     13258     13261
     13253     13256     13261     13258     13253     13256     13261     13262
     13253     13256     13261     13263     13254     13253     13256     13257
     13254     13253     13256     13258     13254     13253     13256     13261
     13255     13253     13256     13257     13255     13253     13256     13258
     13255     13253     13256     13261     13256     13258     13261     13262
     13256     13258     13261     13263     13256     13261     13258     13259
     13256     13261     13258     13260     13256     13261     13263     13264
     13256     13261     13263     13265     13256     13261     13263     13266
     13257     13256     13258     13259     13257     13256     13258     13260
     13257     13256     13258     13261     13257     13256     13261     13258
     13257     13256     13261     13262     13257     13256     13261     13263
     13258     13256     13261     13262     13258     13256     13261     13263
     13258     13261     13263     13264     13258     13261     13263     13265
     13258     13261     13263     13266     13259     13258     13256     13261
     13259     13258     13261     13262     13259     13258     13261     13263
     13260     13258     13256     13261     13260     13258     13261     13262
     13260     13258     13261     13263     13261     13263     13266     13267
     13261     13263     13266     13268     13261     13263     13266     13269
     13262     13261     13263     13264     13262     13261     13263     13265
     13262     13261     13263     13266     13263     13266     13269     13270
     13263     13266     13269     13271     13263     13266     13269     13272
     13264     13263     13266     13267     13264     13263     13266     13268
     13264     13263     13266     13269     13265     13263     13266     13267
     13265     13263     13266     13268     13265     13263     13266     13269
     13266     13269     13272     13273     13266     13269     13272     13274
     13266     13269     13272     13275     13267     13266     13269     13270
     13267     13266     13269     13271     13267     13266     13269     13272
     13268     13266     13269     13270     13268     13266     13269     13271
     13268     13266     13269     13272     13269     13272     13275     13276
     13269     13272     13275     13277     13269     13272     13275     13278
     13270     13269     13272     13273     13270     13269     13272     13274
     13270     13269     13272     13275     13271     13269     13272     13273
     13271     13269     13272     13274     13271     13269     13272     13275
     13272     13275     13278     13279     13272     13275     13278     13280
     13272     13275     13278     13281     13273     13272     13275     13276
     13273     13272     13275     13277     13273     13272     13275     13278
     13274     13272     13275     13276     13274     13272     13275     13277
     13274     13272     13275     13278     13276     13275     13278     13279
     13276     13275     13278     13280     13276     13275     13278     13281
     13277     13275     13278     13279     13277     13275     13278     13280
     13277     13275     13278     13281     13282     13285     13288     13289
     13282     13285     13288     13290     13282     13285     13288     13291
     13283     13282     13285     13286     13283     13282     13285     13287
     13283     13282     13285     13288     13284     13282     13285     13286
     13284     13282     13285     13287     13284     13282     13285     13288
     13285     13288     13291     13292     13285     13288     13291     13293
     13285     13288     13291     13294     13286     13285     13288     13289
     13286     13285     13288     13290     13286     13285     13288     13291
     13287     13285     13288     13289     13287     13285     13288     13290
     13287     13285     13288     13291     13288     13291     13294     13295
     13288     13291     13294     13296     13288     13291     13294     13297
     13289     13288     13291     13292     13289     13288     13291     13293
     13289     13288     13291     13294     13290     13288     13291     13292
     13290     13288     13291     13293     13290     13288     13291     13294
     13291     13294     13297     13298     13291     13294     13297     13299
     13291     13294     13297     13300     13292     13291     13294     13295
     13292     13291     13294     13296     13292     13291     13294     13297
     13293     13291     13294     13295     13293     13291     13294     13296
     13293     13291     13294     13297     13294     13297     13300     13301
     13294     13297     13300     13302     13294     13297     13300     13303
     13295     13294     13297     13298     13295     13294     13297     13299
     13295     13294     13297     13300     13296     13294     13297     13298
     13296     13294     13297     13299     13296     13294     13297     13300
     13297     13300     13303     13304     13297     13300     13303     13305
     13297     13300     13303     13306     13298     13297     13300     13301
     13298     13297     13300     13302     13298     13297     13300     13303
     13299     13297     13300     13301     13299     13297     13300     13302
     13299     13297     13300     13303     13300     13303     13306     13307
     13300     13303     13306     13308     13300     13303     13306     13309
     13301     13300     13303     13304     13301     13300     13303     13305
     13301     13300     13303     13306     13302     13300     13303     13304
     13302     13300     13303     13305     13302     13300     13303     13306
     13303     13306     13309     13310     13303     13306     13309     13311
     13303     13306     13309     13312     13304     13303     13306     13307
     13304     13303     13306     13308     13304     13303     13306     13309
     13305     13303     13306     13307     13305     13303     13306     13308
     13305     13303     13306     13309     13306     13309     13312     13313
     13306     13309     13312     13314     13306     13309     13312     13315
     13307     13306     13309     13310     13307     13306     13309     13311
     13307     13306     13309     13312     13308     13306     13309     13310
     13308     13306     13309     13311     13308     13306     13309     13312
     13309     13312     13315     13316     13309     13312     13315     13317
     13309     13312     13315     13318     13310     13309     13312     13313
     13310     13309     13312     13314     13310     13309     13312     13315
     13311     13309     13312     13313     13311     13309     13312     13314
     13311     13309     13312     13315     13312     13315     13318     13319
     13312     13315     13318     13320     13312     13315     13318     13321
     13313     13312     13315     13316     13313     13312     13315     13317
     13313     13312     13315     13318     13314     13312     13315     13316
     13314     13312     13315     13317     13314     13312     13315     13318
     13316     13315     13318     13319     13316     13315     13318     13320
     13316     13315     13318     13321     13317     13315     13318     13319
     13317     13315     13318     13320     13317     13315     13318     13321
     13322     13326     13329     13330     13322     13326     13329     13331
     13322     13326     13329     13336     13323     13322     13326     13327
     13323     13322     13326     13328     13323     13322     13326     13329
     13324     13322     13326     13327     13324     13322     13326     13328
     13324     13322     13326     13329     13325     13322     13326     13327
     13325     13322     13326     13328     13325     13322     13326     13329
     13326     13329     13336     13332     13327     13326     13329     13330
     13327     13326     13329     13331     13327     13326     13329     13336
     13328     13326     13329     13330     13328     13326     13329     13331
     13328     13326     13329     13336     13329     13336     13332     13333
     13329     13336     13332     13334     13329     13336     13332     13335
     13330     13329     13336     13332     13331     13329     13336     13332
     13332     13335     13337     13338     13332     13335     13337     13339
     13332     13335     13337     13340     13333     13332     13335     13337
     13334     13332     13335     13337     13335     13337     13340     13341
     13335     13337     13340     13342     13335     13337     13340     13348
     13336     13332     13335     13337     13337     13340     13342     13343
     13337     13340     13348     13349     13337     13340     13348     13350
     13337     13340     13348     13351     13338     13337     13340     13341
     13338     13337     13340     13342     13338     13337     13340     13348
     13339     13337     13340     13341     13339     13337     13340     13342
     13339     13337     13340     13348     13340     13342     13343     13344
     13340     13342     13343     13345     13340     13348     13351     13352
     13341     13340     13342     13343     13341     13340     13348     13349
     13341     13340     13348     13350     13341     13340     13348     13351
     13342     13340     13348     13349     13342     13340     13348     13350
     13342     13340     13348     13351     13342     13343     13345     13346
     13342     13343     13345     13347     13342     13343     13345     13357
     13343     13342     13340     13348     13343     13345     13357     13358
     13343     13345     13357     13359     13343     13345     13357     13360
     13344     13343     13345     13346     13344     13343     13345     13347
     13344     13343     13345     13357     13345     13357     13360     13361
     13345     13357     13360     13362     13345     13357     13360     13363
     13346     13345     13357     13358     13346     13345     13357     13359
     13346     13345     13357     13360     13347     13345     13357     13358
     13347     13345     13357     13359     13347     13345     13357     13360
     13348     13351     13352     13353     13348     13351     13352     13354
     13349     13348     13351     13352     13350     13348     13351     13352
     13351     13352     13354     13355     13351     13352     13354     13356
     13351     13352     13354     13401     13352     13354     13401     13402
     13352     13354     13401     13403     13352     13354     13401     13404
     13353     13352     13354     13355     13353     13352     13354     13356
     13353     13352     13354     13401     13354     13401     13404     13405
     13354     13401     13404     13406     13354     13401     13404     13407
     13355     13354     13401     13402     13355     13354     13401     13403
     13355     13354     13401     13404     13356     13354     13401     13402
     13356     13354     13401     13403     13356     13354     13401     13404
     13357     13360     13363     13364     13357     13360     13363     13365
     13357     13360     13363     13366     13358     13357     13360     13361
     13358     13357     13360     13362     13358     13357     13360     13363
     13359     13357     13360     13361     13359     13357     13360     13362
     13359     13357     13360     13363     13360     13363     13366     13367
     13360     13363     13366     13368     13360     13363     13366     13369
     13361     13360     13363     13364     13361     13360     13363     13365
     13361     13360     13363     13366     13362     13360     13363     13364
     13362     13360     13363     13365     13362     13360     13363     13366
     13363     13366     13369     13370     13363     13366     13369     13371
     13363     13366     13369     13372     13364     13363     13366     13367
     13364     13363     13366     13368     13364     13363     13366     13369
     13365     13363     13366     13367     13365     13363     13366     13368
     13365     13363     13366     13369     13366     13369     13372     13373
     13366     13369     13372     13374     13366     13369     13372     13375
     13367     13366     13369     13370     13367     13366     13369     13371
     13367     13366     13369     13372     13368     13366     13369     13370
     13368     13366     13369     13371     13368     13366     13369     13372
     13369     13372     13375     13376     13369     13372     13375     13377
     13369     13372     13375     13380     13370     13369     13372     13373
     13370     13369     13372     13374     13370     13369     13372     13375
     13371     13369     13372     13373     13371     13369     13372     13374
     13371     13369     13372     13375     13372     13375     13377     13378
     13372     13375     13377     13379     13372     13375     13377     13380
     13372     13375     13380     13377     13372     13375     13380     13381
     13372     13375     13380     13382     13373     13372     13375     13376
     13373     13372     13375     13377     13373     13372     13375     13380
     13374     13372     13375     13376     13374     13372     13375     13377
     13374     13372     13375     13380     13375     13377     13380     13381
     13375     13377     13380     13382     13375     13380     13377     13378
     13375     13380     13377     13379     13375     13380     13382     13383
     13375     13380     13382     13384     13375     13380     13382     13385
     13376     13375     13377     13378     13376     13375     13377     13379
     13376     13375     13377     13380     13376     13375     13380     13377
     13376     13375     13380     13381     13376     13375     13380     13382
     13377     13375     13380     13381     13377     13375     13380     13382
     13377     13380     13382     13383     13377     13380     13382     13384
     13377     13380     13382     13385     13378     13377     13375     13380
     13378     13377     13380     13381     13378     13377     13380     13382
     13379     13377     13375     13380     13379     13377     13380     13381
     13379     13377     13380     13382     13380     13382     13385     13386
     13380     13382     13385     13387     13380     13382     13385     13388
     13381     13380     13382     13383     13381     13380     13382     13384
     13381     13380     13382     13385     13382     13385     13388     13389
     13382     13385     13388     13390     13382     13385     13388     13391
     13383     13382     13385     13386     13383     13382     13385     13387
     13383     13382     13385     13388     13384     13382     13385     13386
     13384     13382     13385     13387     13384     13382     13385     13388
     13385     13388     13391     13392     13385     13388     13391     13393
     13385     13388     13391     13394     13386     13385     13388     13389
     13386     13385     13388     13390     13386     13385     13388     13391
     13387     13385     13388     13389     13387     13385     13388     13390
     13387     13385     13388     13391     13388     13391     13394     13395
     13388     13391     13394     13396     13388     13391     13394     13397
     13389     13388     13391     13392     13389     13388     13391     13393
     13389     13388     13391     13394     13390     13388     13391     13392
     13390     13388     13391     13393     13390     13388     13391     13394
     13391     13394     13397     13398     13391     13394     13397     13399
     13391     13394     13397     13400     13392     13391     13394     13395
     13392     13391     13394     13396     13392     13391     13394     13397
     13393     13391     13394     13395     13393     13391     13394     13396
     13393     13391     13394     13397     13395     13394     13397     13398
     13395     13394     13397     13399     13395     13394     13397     13400
     13396     13394     13397     13398     13396     13394     13397     13399
     13396     13394     13397     13400     13401     13404     13407     13408
     13401     13404     13407     13409     13401     13404     13407     13410
     13402     13401     13404     13405     13402     13401     13404     13406
     13402     13401     13404     13407     13403     13401     13404     13405
     13403     13401     13404     13406     13403     13401     13404     13407
     13404     13407     13410     13411     13404     13407     13410     13412
     13404     13407     13410     13413     13405     13404     13407     13408
     13405     13404     13407     13409     13405     13404     13407     13410
     13406     13404     13407     13408     13406     13404     13407     13409
     13406     13404     13407     13410     13407     13410     13413     13414
     13407     13410     13413     13415     13407     13410     13413     13416
     13408     13407     13410     13411     13408     13407     13410     13412
     13408     13407     13410     13413     13409     13407     13410     13411
     13409     13407     13410     13412     13409     13407     13410     13413
     13410     13413     13416     13417     13410     13413     13416     13418
     13410     13413     13416     13419     13411     13410     13413     13414
     13411     13410     13413     13415     13411     13410     13413     13416
     13412     13410     13413     13414     13412     13410     13413     13415
     13412     13410     13413     13416     13413     13416     13419     13420
     13413     13416     13419     13421     13413     13416     13419     13422
     13414     13413     13416     13417     13414     13413     13416     13418
     13414     13413     13416     13419     13415     13413     13416     13417
     13415     13413     13416     13418     13415     13413     13416     13419
     13416     13419     13422     13423     13416     13419     13422     13424
     13416     13419     13422     13425     13417     13416     13419     13420
     13417     13416     13419     13421     13417     13416     13419     13422
     13418     13416     13419     13420     13418     13416     13419     13421
     13418     13416     13419     13422     13419     13422     13425     13426
     13419     13422     13425     13427     13419     13422     13425     13428
     13420     13419     13422     13423     13420     13419     13422     13424
     13420     13419     13422     13425     13421     13419     13422     13423
     13421     13419     13422     13424     13421     13419     13422     13425
     13422     13425     13428     13429     13422     13425     13428     13430
     13422     13425     13428     13431     13423     13422     13425     13426
     13423     13422     13425     13427     13423     13422     13425     13428
     13424     13422     13425     13426     13424     13422     13425     13427
     13424     13422     13425     13428     13425     13428     13431     13432
     13425     13428     13431     13433     13425     13428     13431     13434
     13426     13425     13428     13429     13426     13425     13428     13430
     13426     13425     13428     13431     13427     13425     13428     13429
     13427     13425     13428     13430     13427     13425     13428     13431
     13428     13431     13434     13435     13428     13431     13434     13436
     13428     13431     13434     13437     13429     13428     13431     13432
     13429     13428     13431     13433     13429     13428     13431     13434
     13430     13428     13431     13432     13430     13428     13431     13433
     13430     13428     13431     13434     13431     13434     13437     13438
     13431     13434     13437     13439     13431     13434     13437     13440
     13432     13431     13434     13435     13432     13431     13434     13436
     13432     13431     13434     13437     13433     13431     13434     13435
     13433     13431     13434     13436     13433     13431     13434     13437
     13434     13437     13440     13441     13434     13437     13440     13442
     13434     13437     13440     13443     13435     13434     13437     13438
     13435     13434     13437     13439     13435     13434     13437     13440
     13436     13434     13437     13438     13436     13434     13437     13439
     13436     13434     13437     13440     13438     13437     13440     13441
     13438     13437     13440     13442     13438     13437     13440     13443
     13439     13437     13440     13441     13439     13437     13440     13442
     13439     13437     13440     13443     13444     13448     13451     13452
     13444     13448     13451     13453     13444     13448     13451     13458
     13445     13444     13448     13449     13445     13444     13448     13450
     13445     13444     13448     13451     13446     13444     13448     13449
     13446     13444     13448     13450     13446     13444     13448     13451
     13447     13444     13448     13449     13447     13444     13448     13450
     13447     13444     13448     13451     13448     13451     13458     13454
     13449     13448     13451     13452     13449     13448     13451     13453
     13449     13448     13451     13458     13450     13448     13451     13452
     13450     13448     13451     13453     13450     13448     13451     13458
     13451     13458     13454     13455     13451     13458     13454     13456
     13451     13458     13454     13457     13452     13451     13458     13454
     13453     13451     13458     13454     13454     13457     13459     13460
     13454     13457     13459     13461     13454     13457     13459     13462
     13455     13454     13457     13459     13456     13454     13457     13459
     13457     13459     13462     13463     13457     13459     13462     13464
     13457     13459     13462     13470     13458     13454     13457     13459
     13459     13462     13464     13465     13459     13462     13470     13471
     13459     13462     13470     13472     13459     13462     13470     13473
     13460     13459     13462     13463     13460     13459     13462     13464
     13460     13459     13462     13470     13461     13459     13462     13463
     13461     13459     13462     13464     13461     13459     13462     13470
     13462     13464     13465     13466     13462     13464     13465     13467
     13462     13470     13473     13474     13463     13462     13464     13465
     13463     13462     13470     13471     13463     13462     13470     13472
     13463     13462     13470     13473     13464     13462     13470     13471
     13464     13462     13470     13472     13464     13462     13470     13473
     13464     13465     13467     13468     13464     13465     13467     13469
     13464     13465     13467     13479     13465     13464     13462     13470
     13465     13467     13479     13480     13465     13467     13479     13481
     13465     13467     13479     13482     13466     13465     13467     13468
     13466     13465     13467     13469     13466     13465     13467     13479
     13467     13479     13482     13483     13467     13479     13482     13484
     13467     13479     13482     13485     13468     13467     13479     13480
     13468     13467     13479     13481     13468     13467     13479     13482
     13469     13467     13479     13480     13469     13467     13479     13481
     13469     13467     13479     13482     13470     13473     13474     13475
     13470     13473     13474     13476     13471     13470     13473     13474
     13472     13470     13473     13474     13473     13474     13476     13477
     13473     13474     13476     13478     13473     13474     13476     13523
     13474     13476     13523     13524     13474     13476     13523     13525
     13474     13476     13523     13526     13475     13474     13476     13477
     13475     13474     13476     13478     13475     13474     13476     13523
     13476     13523     13526     13527     13476     13523     13526     13528
     13476     13523     13526     13529     13477     13476     13523     13524
     13477     13476     13523     13525     13477     13476     13523     13526
     13478     13476     13523     13524     13478     13476     13523     13525
     13478     13476     13523     13526     13479     13482     13485     13486
     13479     13482     13485     13487     13479     13482     13485     13488
     13480     13479     13482     13483     13480     13479     13482     13484
     13480     13479     13482     13485     13481     13479     13482     13483
     13481     13479     13482     13484     13481     13479     13482     13485
     13482     13485     13488     13489     13482     13485     13488     13490
     13482     13485     13488     13491     13483     13482     13485     13486
     13483     13482     13485     13487     13483     13482     13485     13488
     13484     13482     13485     13486     13484     13482     13485     13487
     13484     13482     13485     13488     13485     13488     13491     13492
     13485     13488     13491     13493     13485     13488     13491     13494
     13486     13485     13488     13489     13486     13485     13488     13490
     13486     13485     13488     13491     13487     13485     13488     13489
     13487     13485     13488     13490     13487     13485     13488     13491
     13488     13491     13494     13495     13488     13491     13494     13496
     13488     13491     13494     13497     13489     13488     13491     13492
     13489     13488     13491     13493     13489     13488     13491     13494
     13490     13488     13491     13492     13490     13488     13491     13493
     13490     13488     13491     13494     13491     13494     13497     13498
     13491     13494     13497     13499     13491     13494     13497     13502
     13492     13491     13494     13495     13492     13491     13494     13496
     13492     13491     13494     13497     13493     13491     13494     13495
     13493     13491     13494     13496     13493     13491     13494     13497
     13494     13497     13499     13500     13494     13497     13499     13501
     13494     13497     13499     13502     13494     13497     13502     13499
     13494     13497     13502     13503     13494     13497     13502     13504
     13495     13494     13497     13498     13495     13494     13497     13499
     13495     13494     13497     13502     13496     13494     13497     13498
     13496     13494     13497     13499     13496     13494     13497     13502
     13497     13499     13502     13503     13497     13499     13502     13504
     13497     13502     13499     13500     13497     13502     13499     13501
     13497     13502     13504     13505     13497     13502     13504     13506
     13497     13502     13504     13507     13498     13497     13499     13500
     13498     13497     13499     13501     13498     13497     13499     13502
     13498     13497     13502     13499     13498     13497     13502     13503
     13498     13497     13502     13504     13499     13497     13502     13503
     13499     13497     13502     13504     13499     13502     13504     13505
     13499     13502     13504     13506     13499     13502     13504     13507
     13500     13499     13497     13502     13500     13499     13502     13503
     13500     13499     13502     13504     13501     13499     13497     13502
     13501     13499     13502     13503     13501     13499     13502     13504
     13502     13504     13507     13508     13502     13504     13507     13509
     13502     13504     13507     13510     13503     13502     13504     13505
     13503     13502     13504     13506     13503     13502     13504     13507
     13504     13507     13510     13511     13504     13507     13510     13512
     13504     13507     13510     13513     13505     13504     13507     13508
     13505     13504     13507     13509     13505     13504     13507     13510
     13506     13504     13507     13508     13506     13504     13507     13509
     13506     13504     13507     13510     13507     13510     13513     13514
     13507     13510     13513     13515     13507     13510     13513     13516
     13508     13507     13510     13511     13508     13507     13510     13512
     13508     13507     13510     13513     13509     13507     13510     13511
     13509     13507     13510     13512     13509     13507     13510     13513
     13510     13513     13516     13517     13510     13513     13516     13518
     13510     13513     13516     13519     13511     13510     13513     13514
     13511     13510     13513     13515     13511     13510     13513     13516
     13512     13510     13513     13514     13512     13510     13513     13515
     13512     13510     13513     13516     13513     13516     13519     13520
     13513     13516     13519     13521     13513     13516     13519     13522
     13514     13513     13516     13517     13514     13513     13516     13518
     13514     13513     13516     13519     13515     13513     13516     13517
     13515     13513     13516     13518     13515     13513     13516     13519
     13517     13516     13519     13520     13517     13516     13519     13521
     13517     13516     13519     13522     13518     13516     13519     13520
     13518     13516     13519     13521     13518     13516     13519     13522
     13523     13526     13529     13530     13523     13526     13529     13531
     13523     13526     13529     13532     13524     13523     13526     13527
     13524     13523     13526     13528     13524     13523     13526     13529
     13525     13523     13526     13527     13525     13523     13526     13528
     13525     13523     13526     13529     13526     13529     13532     13533
     13526     13529     13532     13534     13526     13529     13532     13535
     13527     13526     13529     13530     13527     13526     13529     13531
     13527     13526     13529     13532     13528     13526     13529     13530
     13528     13526     13529     13531     13528     13526     13529     13532
     13529     13532     13535     13536     13529     13532     13535     13537
     13529     13532     13535     13538     13530     13529     13532     13533
     13530     13529     13532     13534     13530     13529     13532     13535
     13531     13529     13532     13533     13531     13529     13532     13534
     13531     13529     13532     13535     13532     13535     13538     13539
     13532     13535     13538     13540     13532     13535     13538     13541
     13533     13532     13535     13536     13533     13532     13535     13537
     13533     13532     13535     13538     13534     13532     13535     13536
     13534     13532     13535     13537     13534     13532     13535     13538
     13535     13538     13541     13542     13535     13538     13541     13543
     13535     13538     13541     13544     13536     13535     13538     13539
     13536     13535     13538     13540     13536     13535     13538     13541
     13537     13535     13538     13539     13537     13535     13538     13540
     13537     13535     13538     13541     13538     13541     13544     13545
     13538     13541     13544     13546     13538     13541     13544     13547
     13539     13538     13541     13542     13539     13538     13541     13543
     13539     13538     13541     13544     13540     13538     13541     13542
     13540     13538     13541     13543     13540     13538     13541     13544
     13541     13544     13547     13548     13541     13544     13547     13549
     13541     13544     13547     13550     13542     13541     13544     13545
     13542     13541     13544     13546     13542     13541     13544     13547
     13543     13541     13544     13545     13543     13541     13544     13546
     13543     13541     13544     13547     13544     13547     13550     13551
     13544     13547     13550     13552     13544     13547     13550     13553
     13545     13544     13547     13548     13545     13544     13547     13549
     13545     13544     13547     13550     13546     13544     13547     13548
     13546     13544     13547     13549     13546     13544     13547     13550
     13547     13550     13553     13554     13547     13550     13553     13555
     13547     13550     13553     13556     13548     13547     13550     13551
     13548     13547     13550     13552     13548     13547     13550     13553
     13549     13547     13550     13551     13549     13547     13550     13552
     13549     13547     13550     13553     13550     13553     13556     13557
     13550     13553     13556     13558     13550     13553     13556     13559
     13551     13550     13553     13554     13551     13550     13553     13555
     13551     13550     13553     13556     13552     13550     13553     13554
     13552     13550     13553     13555     13552     13550     13553     13556
     13553     13556     13559     13560     13553     13556     13559     13561
     13553     13556     13559     13562     13554     13553     13556     13557
     13554     13553     13556     13558     13554     13553     13556     13559
     13555     13553     13556     13557     13555     13553     13556     13558
     13555     13553     13556     13559     13556     13559     13562     13563
     13556     13559     13562     13564     13556     13559     13562     13565
     13557     13556     13559     13560     13557     13556     13559     13561
     13557     13556     13559     13562     13558     13556     13559     13560
     13558     13556     13559     13561     13558     13556     13559     13562
     13560     13559     13562     13563     13560     13559     13562     13564
     13560     13559     13562     13565     13561     13559     13562     13563
     13561     13559     13562     13564     13561     13559     13562     13565
     13566     13570     13573     13574     13566     13570     13573     13575
     13566     13570     13573     13580     13567     13566     13570     13571
     13567     13566     13570     13572     13567     13566     13570     13573
     13568     13566     13570     13571     13568     13566     13570     13572
     13568     13566     13570     13573     13569     13566     13570     13571
     13569     13566     13570     13572     13569     13566     13570     13573
     13570     13573     13580     13576     13571     13570     13573     13574
     13571     13570     13573     13575     13571     13570     13573     13580
     13572     13570     13573     13574     13572     13570     13573     13575
     13572     13570     13573     13580     13573     13580     13576     13577
     13573     13580     13576     13578     13573     13580     13576     13579
     13574     13573     13580     13576     13575     13573     13580     13576
     13576     13579     13581     13582     13576     13579     13581     13583
     13576     13579     13581     13584     13577     13576     13579     13581
     13578     13576     13579     13581     13579     13581     13584     13585
     13579     13581     13584     13586     13579     13581     13584     13592
     13580     13576     13579     13581     13581     13584     13586     13587
     13581     13584     13592     13593     13581     13584     13592     13594
     13581     13584     13592     13595     13582     13581     13584     13585
     13582     13581     13584     13586     13582     13581     13584     13592
     13583     13581     13584     13585     13583     13581     13584     13586
     13583     13581     13584     13592     13584     13586     13587     13588
     13584     13586     13587     13589     13584     13592     13595     13596
     13585     13584     13586     13587     13585     13584     13592     13593
     13585     13584     13592     13594     13585     13584     13592     13595
     13586     13584     13592     13593     13586     13584     13592     13594
     13586     13584     13592     13595     13586     13587     13589     13590
     13586     13587     13589     13591     13586     13587     13589     13601
     13587     13586     13584     13592     13587     13589     13601     13602
     13587     13589     13601     13603     13587     13589     13601     13604
     13588     13587     13589     13590     13588     13587     13589     13591
     13588     13587     13589     13601     13589     13601     13604     13605
     13589     13601     13604     13606     13589     13601     13604     13607
     13590     13589     13601     13602     13590     13589     13601     13603
     13590     13589     13601     13604     13591     13589     13601     13602
     13591     13589     13601     13603     13591     13589     13601     13604
     13592     13595     13596     13597     13592     13595     13596     13598
     13593     13592     13595     13596     13594     13592     13595     13596
     13595     13596     13598     13599     13595     13596     13598     13600
     13595     13596     13598     13645     13596     13598     13645     13646
     13596     13598     13645     13647     13596     13598     13645     13648
     13597     13596     13598     13599     13597     13596     13598     13600
     13597     13596     13598     13645     13598     13645     13648     13649
     13598     13645     13648     13650     13598     13645     13648     13651
     13599     13598     13645     13646     13599     13598     13645     13647
     13599     13598     13645     13648     13600     13598     13645     13646
     13600     13598     13645     13647     13600     13598     13645     13648
     13601     13604     13607     13608     13601     13604     13607     13609
     13601     13604     13607     13610     13602     13601     13604     13605
     13602     13601     13604     13606     13602     13601     13604     13607
     13603     13601     13604     13605     13603     13601     13604     13606
     13603     13601     13604     13607     13604     13607     13610     13611
     13604     13607     13610     13612     13604     13607     13610     13613
     13605     13604     13607     13608     13605     13604     13607     13609
     13605     13604     13607     13610     13606     13604     13607     13608
     13606     13604     13607     13609     13606     13604     13607     13610
     13607     13610     13613     13614     13607     13610     13613     13615
     13607     13610     13613     13616     13608     13607     13610     13611
     13608     13607     13610     13612     13608     13607     13610     13613
     13609     13607     13610     13611     13609     13607     13610     13612
     13609     13607     13610     13613     13610     13613     13616     13617
     13610     13613     13616     13618     13610     13613     13616     13619
     13611     13610     13613     13614     13611     13610     13613     13615
     13611     13610     13613     13616     13612     13610     13613     13614
     13612     13610     13613     13615     13612     13610     13613     13616
     13613     13616     13619     13620     13613     13616     13619     13621
     13613     13616     13619     13624     13614     13613     13616     13617
     13614     13613     13616     13618     13614     13613     13616     13619
     13615     13613     13616     13617     13615     13613     13616     13618
     13615     13613     13616     13619     13616     13619     13621     13622
     13616     13619     13621     13623     13616     13619     13621     13624
     13616     13619     13624     13621     13616     13619     13624     13625
     13616     13619     13624     13626     13617     13616     13619     13620
     13617     13616     13619     13621     13617     13616     13619     13624
     13618     13616     13619     13620     13618     13616     13619     13621
     13618     13616     13619     13624     13619     13621     13624     13625
     13619     13621     13624     13626     13619     13624     13621     13622
     13619     13624     13621     13623     13619     13624     13626     13627
     13619     13624     13626     13628     13619     13624     13626     13629
     13620     13619     13621     13622     13620     13619     13621     13623
     13620     13619     13621     13624     13620     13619     13624     13621
     13620     13619     13624     13625     13620     13619     13624     13626
     13621     13619     13624     13625     13621     13619     13624     13626
     13621     13624     13626     13627     13621     13624     13626     13628
     13621     13624     13626     13629     13622     13621     13619     13624
     13622     13621     13624     13625     13622     13621     13624     13626
     13623     13621     13619     13624     13623     13621     13624     13625
     13623     13621     13624     13626     13624     13626     13629     13630
     13624     13626     13629     13631     13624     13626     13629     13632
     13625     13624     13626     13627     13625     13624     13626     13628
     13625     13624     13626     13629     13626     13629     13632     13633
     13626     13629     13632     13634     13626     13629     13632     13635
     13627     13626     13629     13630     13627     13626     13629     13631
     13627     13626     13629     13632     13628     13626     13629     13630
     13628     13626     13629     13631     13628     13626     13629     13632
     13629     13632     13635     13636     13629     13632     13635     13637
     13629     13632     13635     13638     13630     13629     13632     13633
     13630     13629     13632     13634     13630     13629     13632     13635
     13631     13629     13632     13633     13631     13629     13632     13634
     13631     13629     13632     13635     13632     13635     13638     13639
     13632     13635     13638     13640     13632     13635     13638     13641
     13633     13632     13635     13636     13633     13632     13635     13637
     13633     13632     13635     13638     13634     13632     13635     13636
     13634     13632     13635     13637     13634     13632     13635     13638
     13635     13638     13641     13642     13635     13638     13641     13643
     13635     13638     13641     13644     13636     13635     13638     13639
     13636     13635     13638     13640     13636     13635     13638     13641
     13637     13635     13638     13639     13637     13635     13638     13640
     13637     13635     13638     13641     13639     13638     13641     13642
     13639     13638     13641     13643     13639     13638     13641     13644
     13640     13638     13641     13642     13640     13638     13641     13643
     13640     13638     13641     13644     13645     13648     13651     13652
     13645     13648     13651     13653     13645     13648     13651     13654
     13646     13645     13648     13649     13646     13645     13648     13650
     13646     13645     13648     13651     13647     13645     13648     13649
     13647     13645     13648     13650     13647     13645     13648     13651
     13648     13651     13654     13655     13648     13651     13654     13656
     13648     13651     13654     13657     13649     13648     13651     13652
     13649     13648     13651     13653     13649     13648     13651     13654
     13650     13648     13651     13652     13650     13648     13651     13653
     13650     13648     13651     13654     13651     13654     13657     13658
     13651     13654     13657     13659     13651     13654     13657     13660
     13652     13651     13654     13655     13652     13651     13654     13656
     13652     13651     13654     13657     13653     13651     13654     13655
     13653     13651     13654     13656     13653     13651     13654     13657
     13654     13657     13660     13661     13654     13657     13660     13662
     13654     13657     13660     13663     13655     13654     13657     13658
     13655     13654     13657     13659     13655     13654     13657     13660
     13656     13654     13657     13658     13656     13654     13657     13659
     13656     13654     13657     13660     13657     13660     13663     13664
     13657     13660     13663     13665     13657     13660     13663     13666
     13658     13657     13660     13661     13658     13657     13660     13662
     13658     13657     13660     13663     13659     13657     13660     13661
     13659     13657     13660     13662     13659     13657     13660     13663
     13660     13663     13666     13667     13660     13663     13666     13668
     13660     13663     13666     13669     13661     13660     13663     13664
     13661     13660     13663     13665     13661     13660     13663     13666
     13662     13660     13663     13664     13662     13660     13663     13665
     13662     13660     13663     13666     13663     13666     13669     13670
     13663     13666     13669     13671     13663     13666     13669     13672
     13664     13663     13666     13667     13664     13663     13666     13668
     13664     13663     13666     13669     13665     13663     13666     13667
     13665     13663     13666     13668     13665     13663     13666     13669
     13666     13669     13672     13673     13666     13669     13672     13674
     13666     13669     13672     13675     13667     13666     13669     13670
     13667     13666     13669     13671     13667     13666     13669     13672
     13668     13666     13669     13670     13668     13666     13669     13671
     13668     13666     13669     13672     13669     13672     13675     13676
     13669     13672     13675     13677     13669     13672     13675     13678
     13670     13669     13672     13673     13670     13669     13672     13674
     13670     13669     13672     13675     13671     13669     13672     13673
     13671     13669     13672     13674     13671     13669     13672     13675
     13672     13675     13678     13679     13672     13675     13678     13680
     13672     13675     13678     13681     13673     13672     13675     13676
     13673     13672     13675     13677     13673     13672     13675     13678
     13674     13672     13675     13676     13674     13672     13675     13677
     13674     13672     13675     13678     13675     13678     13681     13682
     13675     13678     13681     13683     13675     13678     13681     13684
     13676     13675     13678     13679     13676     13675     13678     13680
     13676     13675     13678     13681     13677     13675     13678     13679
     13677     13675     13678     13680     13677     13675     13678     13681
     13678     13681     13684     13685     13678     13681     13684     13686
     13678     13681     13684     13687     13679     13678     13681     13682
     13679     13678     13681     13683     13679     13678     13681     13684
     13680     13678     13681     13682     13680     13678     13681     13683
     13680     13678     13681     13684     13682     13681     13684     13685
     13682     13681     13684     13686     13682     13681     13684     13687
     13683     13681     13684     13685     13683     13681     13684     13686
     13683     13681     13684     13687     13688     13692     13695     13696
     13688     13692     13695     13697     13688     13692     13695     13702
     13689     13688     13692     13693     13689     13688     13692     13694
     13689     13688     13692     13695     13690     13688     13692     13693
     13690     13688     13692     13694     13690     13688     13692     13695
     13691     13688     13692     13693     13691     13688     13692     13694
     13691     13688     13692     13695     13692     13695     13702     13698
     13693     13692     13695     13696     13693     13692     13695     13697
     13693     13692     13695     13702     13694     13692     13695     13696
     13694     13692     13695     13697     13694     13692     13695     13702
     13695     13702     13698     13699     13695     13702     13698     13700
     13695     13702     13698     13701     13696     13695     13702     13698
     13697     13695     13702     13698     13698     13701     13703     13704
     13698     13701     13703     13705     13698     13701     13703     13706
     13699     13698     13701     13703     13700     13698     13701     13703
     13701     13703     13706     13707     13701     13703     13706     13708
     13701     13703     13706     13714     13702     13698     13701     13703
     13703     13706     13708     13709     13703     13706     13714     13715
     13703     13706     13714     13716     13703     13706     13714     13717
     13704     13703     13706     13707     13704     13703     13706     13708
     13704     13703     13706     13714     13705     13703     13706     13707
     13705     13703     13706     13708     13705     13703     13706     13714
     13706     13708     13709     13710     13706     13708     13709     13711
     13706     13714     13717     13718     13707     13706     13708     13709
     13707     13706     13714     13715     13707     13706     13714     13716
     13707     13706     13714     13717     13708     13706     13714     13715
     13708     13706     13714     13716     13708     13706     13714     13717
     13708     13709     13711     13712     13708     13709     13711     13713
     13708     13709     13711     13723     13709     13708     13706     13714
     13709     13711     13723     13724     13709     13711     13723     13725
     13709     13711     13723     13726     13710     13709     13711     13712
     13710     13709     13711     13713     13710     13709     13711     13723
     13711     13723     13726     13727     13711     13723     13726     13728
     13711     13723     13726     13729     13712     13711     13723     13724
     13712     13711     13723     13725     13712     13711     13723     13726
     13713     13711     13723     13724     13713     13711     13723     13725
     13713     13711     13723     13726     13714     13717     13718     13719
     13714     13717     13718     13720     13715     13714     13717     13718
     13716     13714     13717     13718     13717     13718     13720     13721
     13717     13718     13720     13722     13717     13718     13720     13767
     13718     13720     13767     13768     13718     13720     13767     13769
     13718     13720     13767     13770     13719     13718     13720     13721
     13719     13718     13720     13722     13719     13718     13720     13767
     13720     13767     13770     13771     13720     13767     13770     13772
     13720     13767     13770     13773     13721     13720     13767     13768
     13721     13720     13767     13769     13721     13720     13767     13770
     13722     13720     13767     13768     13722     13720     13767     13769
     13722     13720     13767     13770     13723     13726     13729     13730
     13723     13726     13729     13731     13723     13726     13729     13732
     13724     13723     13726     13727     13724     13723     13726     13728
     13724     13723     13726     13729     13725     13723     13726     13727
     13725     13723     13726     13728     13725     13723     13726     13729
     13726     13729     13732     13733     13726     13729     13732     13734
     13726     13729     13732     13735     13727     13726     13729     13730
     13727     13726     13729     13731     13727     13726     13729     13732
     13728     13726     13729     13730     13728     13726     13729     13731
     13728     13726     13729     13732     13729     13732     13735     13736
     13729     13732     13735     13737     13729     13732     13735     13738
     13730     13729     13732     13733     13730     13729     13732     13734
     13730     13729     13732     13735     13731     13729     13732     13733
     13731     13729     13732     13734     13731     13729     13732     13735
     13732     13735     13738     13739     13732     13735     13738     13740
     13732     13735     13738     13741     13733     13732     13735     13736
     13733     13732     13735     13737     13733     13732     13735     13738
     13734     13732     13735     13736     13734     13732     13735     13737
     13734     13732     13735     13738     13735     13738     13741     13742
     13735     13738     13741     13743     13735     13738     13741     13746
     13736     13735     13738     13739     13736     13735     13738     13740
     13736     13735     13738     13741     13737     13735     13738     13739
     13737     13735     13738     13740     13737     13735     13738     13741
     13738     13741     13743     13744     13738     13741     13743     13745
     13738     13741     13743     13746     13738     13741     13746     13743
     13738     13741     13746     13747     13738     13741     13746     13748
     13739     13738     13741     13742     13739     13738     13741     13743
     13739     13738     13741     13746     13740     13738     13741     13742
     13740     13738     13741     13743     13740     13738     13741     13746
     13741     13743     13746     13747     13741     13743     13746     13748
     13741     13746     13743     13744     13741     13746     13743     13745
     13741     13746     13748     13749     13741     13746     13748     13750
     13741     13746     13748     13751     13742     13741     13743     13744
     13742     13741     13743     13745     13742     13741     13743     13746
     13742     13741     13746     13743     13742     13741     13746     13747
     13742     13741     13746     13748     13743     13741     13746     13747
     13743     13741     13746     13748     13743     13746     13748     13749
     13743     13746     13748     13750     13743     13746     13748     13751
     13744     13743     13741     13746     13744     13743     13746     13747
     13744     13743     13746     13748     13745     13743     13741     13746
     13745     13743     13746     13747     13745     13743     13746     13748
     13746     13748     13751     13752     13746     13748     13751     13753
     13746     13748     13751     13754     13747     13746     13748     13749
     13747     13746     13748     13750     13747     13746     13748     13751
     13748     13751     13754     13755     13748     13751     13754     13756
     13748     13751     13754     13757     13749     13748     13751     13752
     13749     13748     13751     13753     13749     13748     13751     13754
     13750     13748     13751     13752     13750     13748     13751     13753
     13750     13748     13751     13754     13751     13754     13757     13758
     13751     13754     13757     13759     13751     13754     13757     13760
     13752     13751     13754     13755     13752     13751     13754     13756
     13752     13751     13754     13757     13753     13751     13754     13755
     13753     13751     13754     13756     13753     13751     13754     13757
     13754     13757     13760     13761     13754     13757     13760     13762
     13754     13757     13760     13763     13755     13754     13757     13758
     13755     13754     13757     13759     13755     13754     13757     13760
     13756     13754     13757     13758     13756     13754     13757     13759
     13756     13754     13757     13760     13757     13760     13763     13764
     13757     13760     13763     13765     13757     13760     13763     13766
     13758     13757     13760     13761     13758     13757     13760     13762
     13758     13757     13760     13763     13759     13757     13760     13761
     13759     13757     13760     13762     13759     13757     13760     13763
     13761     13760     13763     13764     13761     13760     13763     13765
     13761     13760     13763     13766     13762     13760     13763     13764
     13762     13760     13763     13765     13762     13760     13763     13766
     13767     13770     13773     13774     13767     13770     13773     13775
     13767     13770     13773     13776     13768     13767     13770     13771
     13768     13767     13770     13772     13768     13767     13770     13773
     13769     13767     13770     13771     13769     13767     13770     13772
     13769     13767     13770     13773     13770     13773     13776     13777
     13770     13773     13776     13778     13770     13773     13776     13779
     13771     13770     13773     13774     13771     13770     13773     13775
     13771     13770     13773     13776     13772     13770     13773     13774
     13772     13770     13773     13775     13772     13770     13773     13776
     13773     13776     13779     13780     13773     13776     13779     13781
     13773     13776     13779     13782     13774     13773     13776     13777
     13774     13773     13776     13778     13774     13773     13776     13779
     13775     13773     13776     13777     13775     13773     13776     13778
     13775     13773     13776     13779     13776     13779     13782     13783
     13776     13779     13782     13784     13776     13779     13782     13785
     13777     13776     13779     13780     13777     13776     13779     13781
     13777     13776     13779     13782     13778     13776     13779     13780
     13778     13776     13779     13781     13778     13776     13779     13782
     13779     13782     13785     13786     13779     13782     13785     13787
     13779     13782     13785     13788     13780     13779     13782     13783
     13780     13779     13782     13784     13780     13779     13782     13785
     13781     13779     13782     13783     13781     13779     13782     13784
     13781     13779     13782     13785     13782     13785     13788     13789
     13782     13785     13788     13790     13782     13785     13788     13791
     13783     13782     13785     13786     13783     13782     13785     13787
     13783     13782     13785     13788     13784     13782     13785     13786
     13784     13782     13785     13787     13784     13782     13785     13788
     13785     13788     13791     13792     13785     13788     13791     13793
     13785     13788     13791     13794     13786     13785     13788     13789
     13786     13785     13788     13790     13786     13785     13788     13791
     13787     13785     13788     13789     13787     13785     13788     13790
     13787     13785     13788     13791     13788     13791     13794     13795
     13788     13791     13794     13796     13788     13791     13794     13797
     13789     13788     13791     13792     13789     13788     13791     13793
     13789     13788     13791     13794     13790     13788     13791     13792
     13790     13788     13791     13793     13790     13788     13791     13794
     13791     13794     13797     13798     13791     13794     13797     13799
     13791     13794     13797     13800     13792     13791     13794     13795
     13792     13791     13794     13796     13792     13791     13794     13797
     13793     13791     13794     13795     13793     13791     13794     13796
     13793     13791     13794     13797     13794     13797     13800     13801
     13794     13797     13800     13802     13794     13797     13800     13803
     13795     13794     13797     13798     13795     13794     13797     13799
     13795     13794     13797     13800     13796     13794     13797     13798
     13796     13794     13797     13799     13796     13794     13797     13800
     13797     13800     13803     13804     13797     13800     13803     13805
     13797     13800     13803     13806     13798     13797     13800     13801
     13798     13797     13800     13802     13798     13797     13800     13803
     13799     13797     13800     13801     13799     13797     13800     13802
     13799     13797     13800     13803     13801     13800     13803     13804
     13801     13800     13803     13805     13801     13800     13803     13806
     13802     13800     13803     13804     13802     13800     13803     13805
     13802     13800     13803     13806     13807     13811     13814     13815
     13807     13811     13814     13816     13807     13811     13814     13821
     13808     13807     13811     13812     13808     13807     13811     13813
     13808     13807     13811     13814     13809     13807     13811     13812
     13809     13807     13811     13813     13809     13807     13811     13814
     13810     13807     13811     13812     13810     13807     13811     13813
     13810     13807     13811     13814     13811     13814     13821     13817
     13812     13811     13814     13815     13812     13811     13814     13816
     13812     13811     13814     13821     13813     13811     13814     13815
     13813     13811     13814     13816     13813     13811     13814     13821
     13814     13821     13817     13818     13814     13821     13817     13819
     13814     13821     13817     13820     13815     13814     13821     13817
     13816     13814     13821     13817     13817     13820     13822     13823
     13817     13820     13822     13824     13817     13820     13822     13825
     13818     13817     13820     13822     13819     13817     13820     13822
     13820     13822     13825     13826     13820     13822     13825     13827
     13820     13822     13825     13833     13821     13817     13820     13822
     13822     13825     13827     13828     13822     13825     13833     13834
     13822     13825     13833     13835     13822     13825     13833     13836
     13823     13822     13825     13826     13823     13822     13825     13827
     13823     13822     13825     13833     13824     13822     13825     13826
     13824     13822     13825     13827     13824     13822     13825     13833
     13825     13827     13828     13829     13825     13827     13828     13830
     13825     13833     13836     13837     13826     13825     13827     13828
     13826     13825     13833     13834     13826     13825     13833     13835
     13826     13825     13833     13836     13827     13825     13833     13834
     13827     13825     13833     13835     13827     13825     13833     13836
     13827     13828     13830     13831     13827     13828     13830     13832
     13827     13828     13830     13842     13828     13827     13825     13833
     13828     13830     13842     13843     13828     13830     13842     13844
     13828     13830     13842     13845     13829     13828     13830     13831
     13829     13828     13830     13832     13829     13828     13830     13842
     13830     13842     13845     13846     13830     13842     13845     13847
     13830     13842     13845     13848     13831     13830     13842     13843
     13831     13830     13842     13844     13831     13830     13842     13845
     13832     13830     13842     13843     13832     13830     13842     13844
     13832     13830     13842     13845     13833     13836     13837     13838
     13833     13836     13837     13839     13834     13833     13836     13837
     13835     13833     13836     13837     13836     13837     13839     13840
     13836     13837     13839     13841     13836     13837     13839     13886
     13837     13839     13886     13887     13837     13839     13886     13888
     13837     13839     13886     13889     13838     13837     13839     13840
     13838     13837     13839     13841     13838     13837     13839     13886
     13839     13886     13889     13890     13839     13886     13889     13891
     13839     13886     13889     13892     13840     13839     13886     13887
     13840     13839     13886     13888     13840     13839     13886     13889
     13841     13839     13886     13887     13841     13839     13886     13888
     13841     13839     13886     13889     13842     13845     13848     13849
     13842     13845     13848     13850     13842     13845     13848     13851
     13843     13842     13845     13846     13843     13842     13845     13847
     13843     13842     13845     13848     13844     13842     13845     13846
     13844     13842     13845     13847     13844     13842     13845     13848
     13845     13848     13851     13852     13845     13848     13851     13853
     13845     13848     13851     13854     13846     13845     13848     13849
     13846     13845     13848     13850     13846     13845     13848     13851
     13847     13845     13848     13849     13847     13845     13848     13850
     13847     13845     13848     13851     13848     13851     13854     13855
     13848     13851     13854     13856     13848     13851     13854     13857
     13849     13848     13851     13852     13849     13848     13851     13853
     13849     13848     13851     13854     13850     13848     13851     13852
     13850     13848     13851     13853     13850     13848     13851     13854
     13851     13854     13857     13858     13851     13854     13857     13859
     13851     13854     13857     13860     13852     13851     13854     13855
     13852     13851     13854     13856     13852     13851     13854     13857
     13853     13851     13854     13855     13853     13851     13854     13856
     13853     13851     13854     13857     13854     13857     13860     13861
     13854     13857     13860     13862     13854     13857     13860     13865
     13855     13854     13857     13858     13855     13854     13857     13859
     13855     13854     13857     13860     13856     13854     13857     13858
     13856     13854     13857     13859     13856     13854     13857     13860
     13857     13860     13862     13863     13857     13860     13862     13864
     13857     13860     13862     13865     13857     13860     13865     13862
     13857     13860     13865     13866     13857     13860     13865     13867
     13858     13857     13860     13861     13858     13857     13860     13862
     13858     13857     13860     13865     13859     13857     13860     13861
     13859     13857     13860     13862     13859     13857     13860     13865
     13860     13862     13865     13866     13860     13862     13865     13867
     13860     13865     13862     13863     13860     13865     13862     13864
     13860     13865     13867     13868     13860     13865     13867     13869
     13860     13865     13867     13870     13861     13860     13862     13863
     13861     13860     13862     13864     13861     13860     13862     13865
     13861     13860     13865     13862     13861     13860     13865     13866
     13861     13860     13865     13867     13862     13860     13865     13866
     13862     13860     13865     13867     13862     13865     13867     13868
     13862     13865     13867     13869     13862     13865     13867     13870
     13863     13862     13860     13865     13863     13862     13865     13866
     13863     13862     13865     13867     13864     13862     13860     13865
     13864     13862     13865     13866     13864     13862     13865     13867
     13865     13867     13870     13871     13865     13867     13870     13872
     13865     13867     13870     13873     13866     13865     13867     13868
     13866     13865     13867     13869     13866     13865     13867     13870
     13867     13870     13873     13874     13867     13870     13873     13875
     13867     13870     13873     13876     13868     13867     13870     13871
     13868     13867     13870     13872     13868     13867     13870     13873
     13869     13867     13870     13871     13869     13867     13870     13872
     13869     13867     13870     13873     13870     13873     13876     13877
     13870     13873     13876     13878     13870     13873     13876     13879
     13871     13870     13873     13874     13871     13870     13873     13875
     13871     13870     13873     13876     13872     13870     13873     13874
     13872     13870     13873     13875     13872     13870     13873     13876
     13873     13876     13879     13880     13873     13876     13879     13881
     13873     13876     13879     13882     13874     13873     13876     13877
     13874     13873     13876     13878     13874     13873     13876     13879
     13875     13873     13876     13877     13875     13873     13876     13878
     13875     13873     13876     13879     13876     13879     13882     13883
     13876     13879     13882     13884     13876     13879     13882     13885
     13877     13876     13879     13880     13877     13876     13879     13881
     13877     13876     13879     13882     13878     13876     13879     13880
     13878     13876     13879     13881     13878     13876     13879     13882
     13880     13879     13882     13883     13880     13879     13882     13884
     13880     13879     13882     13885     13881     13879     13882     13883
     13881     13879     13882     13884     13881     13879     13882     13885
     13886     13889     13892     13893     13886     13889     13892     13894
     13886     13889     13892     13895     13887     13886     13889     13890
     13887     13886     13889     13891     13887     13886     13889     13892
     13888     13886     13889     13890     13888     13886     13889     13891
     13888     13886     13889     13892     13889     13892     13895     13896
     13889     13892     13895     13897     13889     13892     13895     13898
     13890     13889     13892     13893     13890     13889     13892     13894
     13890     13889     13892     13895     13891     13889     13892     13893
     13891     13889     13892     13894     13891     13889     13892     13895
     13892     13895     13898     13899     13892     13895     13898     13900
     13892     13895     13898     13901     13893     13892     13895     13896
     13893     13892     13895     13897     13893     13892     13895     13898
     13894     13892     13895     13896     13894     13892     13895     13897
     13894     13892     13895     13898     13895     13898     13901     13902
     13895     13898     13901     13903     13895     13898     13901     13904
     13896     13895     13898     13899     13896     13895     13898     13900
     13896     13895     13898     13901     13897     13895     13898     13899
     13897     13895     13898     13900     13897     13895     13898     13901
     13898     13901     13904     13905     13898     13901     13904     13906
     13898     13901     13904     13907     13899     13898     13901     13902
     13899     13898     13901     13903     13899     13898     13901     13904
     13900     13898     13901     13902     13900     13898     13901     13903
     13900     13898     13901     13904     13901     13904     13907     13908
     13901     13904     13907     13909     13901     13904     13907     13910
     13902     13901     13904     13905     13902     13901     13904     13906
     13902     13901     13904     13907     13903     13901     13904     13905
     13903     13901     13904     13906     13903     13901     13904     13907
     13904     13907     13910     13911     13904     13907     13910     13912
     13904     13907     13910     13913     13905     13904     13907     13908
     13905     13904     13907     13909     13905     13904     13907     13910
     13906     13904     13907     13908     13906     13904     13907     13909
     13906     13904     13907     13910     13907     13910     13913     13914
     13907     13910     13913     13915     13907     13910     13913     13916
     13908     13907     13910     13911     13908     13907     13910     13912
     13908     13907     13910     13913     13909     13907     13910     13911
     13909     13907     13910     13912     13909     13907     13910     13913
     13910     13913     13916     13917     13910     13913     13916     13918
     13910     13913     13916     13919     13911     13910     13913     13914
     13911     13910     13913     13915     13911     13910     13913     13916
     13912     13910     13913     13914     13912     13910     13913     13915
     13912     13910     13913     13916     13913     13916     13919     13920
     13913     13916     13919     13921     13913     13916     13919     13922
     13914     13913     13916     13917     13914     13913     13916     13918
     13914     13913     13916     13919     13915     13913     13916     13917
     13915     13913     13916     13918     13915     13913     13916     13919
     13916     13919     13922     13923     13916     13919     13922     13924
     13916     13919     13922     13925     13917     13916     13919     13920
     13917     13916     13919     13921     13917     13916     13919     13922
     13918     13916     13919     13920     13918     13916     13919     13921
     13918     13916     13919     13922     13919     13922     13925     13926
     13919     13922     13925     13927     13919     13922     13925     13928
     13920     13919     13922     13923     13920     13919     13922     13924
     13920     13919     13922     13925     13921     13919     13922     13923
     13921     13919     13922     13924     13921     13919     13922     13925
     13923     13922     13925     13926     13923     13922     13925     13927
     13923     13922     13925     13928     13924     13922     13925     13926
     13924     13922     13925     13927     13924     13922     13925     13928
     13929     13933     13936     13937     13929     13933     13936     13938
     13929     13933     13936     13943     13930     13929     13933     13934
     13930     13929     13933     13935     13930     13929     13933     13936
     13931     13929     13933     13934     13931     13929     13933     13935
     13931     13929     13933     13936     13932     13929     13933     13934
     13932     13929     13933     13935     13932     13929     13933     13936
     13933     13936     13943     13939     13934     13933     13936     13937
     13934     13933     13936     13938     13934     13933     13936     13943
     13935     13933     13936     13937     13935     13933     13936     13938
     13935     13933     13936     13943     13936     13943     13939     13940
     13936     13943     13939     13941     13936     13943     13939     13942
     13937     13936     13943     13939     13938     13936     13943     13939
     13939     13942     13944     13945     13939     13942     13944     13946
     13939     13942     13944     13947     13940     13939     13942     13944
     13941     13939     13942     13944     13942     13944     13947     13948
     13942     13944     13947     13949     13942     13944     13947     13955
     13943     13939     13942     13944     13944     13947     13949     13950
     13944     13947     13955     13956     13944     13947     13955     13957
     13944     13947     13955     13958     13945     13944     13947     13948
     13945     13944     13947     13949     13945     13944     13947     13955
     13946     13944     13947     13948     13946     13944     13947     13949
     13946     13944     13947     13955     13947     13949     13950     13951
     13947     13949     13950     13952     13947     13955     13958     13959
     13948     13947     13949     13950     13948     13947     13955     13956
     13948     13947     13955     13957     13948     13947     13955     13958
     13949     13947     13955     13956     13949     13947     13955     13957
     13949     13947     13955     13958     13949     13950     13952     13953
     13949     13950     13952     13954     13949     13950     13952     13964
     13950     13949     13947     13955     13950     13952     13964     13965
     13950     13952     13964     13966     13950     13952     13964     13967
     13951     13950     13952     13953     13951     13950     13952     13954
     13951     13950     13952     13964     13952     13964     13967     13968
     13952     13964     13967     13969     13952     13964     13967     13970
     13953     13952     13964     13965     13953     13952     13964     13966
     13953     13952     13964     13967     13954     13952     13964     13965
     13954     13952     13964     13966     13954     13952     13964     13967
     13955     13958     13959     13960     13955     13958     13959     13961
     13956     13955     13958     13959     13957     13955     13958     13959
     13958     13959     13961     13962     13958     13959     13961     13963
     13958     13959     13961     14008     13959     13961     14008     14009
     13959     13961     14008     14010     13959     13961     14008     14011
     13960     13959     13961     13962     13960     13959     13961     13963
     13960     13959     13961     14008     13961     14008     14011     14012
     13961     14008     14011     14013     13961     14008     14011     14014
     13962     13961     14008     14009     13962     13961     14008     14010
     13962     13961     14008     14011     13963     13961     14008     14009
     13963     13961     14008     14010     13963     13961     14008     14011
     13964     13967     13970     13971     13964     13967     13970     13972
     13964     13967     13970     13973     13965     13964     13967     13968
     13965     13964     13967     13969     13965     13964     13967     13970
     13966     13964     13967     13968     13966     13964     13967     13969
     13966     13964     13967     13970     13967     13970     13973     13974
     13967     13970     13973     13975     13967     13970     13973     13976
     13968     13967     13970     13971     13968     13967     13970     13972
     13968     13967     13970     13973     13969     13967     13970     13971
     13969     13967     13970     13972     13969     13967     13970     13973
     13970     13973     13976     13977     13970     13973     13976     13978
     13970     13973     13976     13979     13971     13970     13973     13974
     13971     13970     13973     13975     13971     13970     13973     13976
     13972     13970     13973     13974     13972     13970     13973     13975
     13972     13970     13973     13976     13973     13976     13979     13980
     13973     13976     13979     13981     13973     13976     13979     13982
     13974     13973     13976     13977     13974     13973     13976     13978
     13974     13973     13976     13979     13975     13973     13976     13977
     13975     13973     13976     13978     13975     13973     13976     13979
     13976     13979     13982     13983     13976     13979     13982     13984
     13976     13979     13982     13987     13977     13976     13979     13980
     13977     13976     13979     13981     13977     13976     13979     13982
     13978     13976     13979     13980     13978     13976     13979     13981
     13978     13976     13979     13982     13979     13982     13984     13985
     13979     13982     13984     13986     13979     13982     13984     13987
     13979     13982     13987     13984     13979     13982     13987     13988
     13979     13982     13987     13989     13980     13979     13982     13983
     13980     13979     13982     13984     13980     13979     13982     13987
     13981     13979     13982     13983     13981     13979     13982     13984
     13981     13979     13982     13987     13982     13984     13987     13988
     13982     13984     13987     13989     13982     13987     13984     13985
     13982     13987     13984     13986     13982     13987     13989     13990
     13982     13987     13989     13991     13982     13987     13989     13992
     13983     13982     13984     13985     13983     13982     13984     13986
     13983     13982     13984     13987     13983     13982     13987     13984
     13983     13982     13987     13988     13983     13982     13987     13989
     13984     13982     13987     13988     13984     13982     13987     13989
     13984     13987     13989     13990     13984     13987     13989     13991
     13984     13987     13989     13992     13985     13984     13982     13987
     13985     13984     13987     13988     13985     13984     13987     13989
     13986     13984     13982     13987     13986     13984     13987     13988
     13986     13984     13987     13989     13987     13989     13992     13993
     13987     13989     13992     13994     13987     13989     13992     13995
     13988     13987     13989     13990     13988     13987     13989     13991
     13988     13987     13989     13992     13989     13992     13995     13996
     13989     13992     13995     13997     13989     13992     13995     13998
     13990     13989     13992     13993     13990     13989     13992     13994
     13990     13989     13992     13995     13991     13989     13992     13993
     13991     13989     13992     13994     13991     13989     13992     13995
     13992     13995     13998     13999     13992     13995     13998     14000
     13992     13995     13998     14001     13993     13992     13995     13996
     13993     13992     13995     13997     13993     13992     13995     13998
     13994     13992     13995     13996     13994     13992     13995     13997
     13994     13992     13995     13998     13995     13998     14001     14002
     13995     13998     14001     14003     13995     13998     14001     14004
     13996     13995     13998     13999     13996     13995     13998     14000
     13996     13995     13998     14001     13997     13995     13998     13999
     13997     13995     13998     14000     13997     13995     13998     14001
     13998     14001     14004     14005     13998     14001     14004     14006
     13998     14001     14004     14007     13999     13998     14001     14002
     13999     13998     14001     14003     13999     13998     14001     14004
     14000     13998     14001     14002     14000     13998     14001     14003
     14000     13998     14001     14004     14002     14001     14004     14005
     14002     14001     14004     14006     14002     14001     14004     14007
     14003     14001     14004     14005     14003     14001     14004     14006
     14003     14001     14004     14007     14008     14011     14014     14015
     14008     14011     14014     14016     14008     14011     14014     14017
     14009     14008     14011     14012     14009     14008     14011     14013
     14009     14008     14011     14014     14010     14008     14011     14012
     14010     14008     14011     14013     14010     14008     14011     14014
     14011     14014     14017     14018     14011     14014     14017     14019
     14011     14014     14017     14020     14012     14011     14014     14015
     14012     14011     14014     14016     14012     14011     14014     14017
     14013     14011     14014     14015     14013     14011     14014     14016
     14013     14011     14014     14017     14014     14017     14020     14021
     14014     14017     14020     14022     14014     14017     14020     14023
     14015     14014     14017     14018     14015     14014     14017     14019
     14015     14014     14017     14020     14016     14014     14017     14018
     14016     14014     14017     14019     14016     14014     14017     14020
     14017     14020     14023     14024     14017     14020     14023     14025
     14017     14020     14023     14026     14018     14017     14020     14021
     14018     14017     14020     14022     14018     14017     14020     14023
     14019     14017     14020     14021     14019     14017     14020     14022
     14019     14017     14020     14023     14020     14023     14026     14027
     14020     14023     14026     14028     14020     14023     14026     14029
     14021     14020     14023     14024     14021     14020     14023     14025
     14021     14020     14023     14026     14022     14020     14023     14024
     14022     14020     14023     14025     14022     14020     14023     14026
     14023     14026     14029     14030     14023     14026     14029     14031
     14023     14026     14029     14032     14024     14023     14026     14027
     14024     14023     14026     14028     14024     14023     14026     14029
     14025     14023     14026     14027     14025     14023     14026     14028
     14025     14023     14026     14029     14026     14029     14032     14033
     14026     14029     14032     14034     14026     14029     14032     14035
     14027     14026     14029     14030     14027     14026     14029     14031
     14027     14026     14029     14032     14028     14026     14029     14030
     14028     14026     14029     14031     14028     14026     14029     14032
     14029     14032     14035     14036     14029     14032     14035     14037
     14029     14032     14035     14038     14030     14029     14032     14033
     14030     14029     14032     14034     14030     14029     14032     14035
     14031     14029     14032     14033     14031     14029     14032     14034
     14031     14029     14032     14035     14032     14035     14038     14039
     14032     14035     14038     14040     14032     14035     14038     14041
     14033     14032     14035     14036     14033     14032     14035     14037
     14033     14032     14035     14038     14034     14032     14035     14036
     14034     14032     14035     14037     14034     14032     14035     14038
     14035     14038     14041     14042     14035     14038     14041     14043
     14035     14038     14041     14044     14036     14035     14038     14039
     14036     14035     14038     14040     14036     14035     14038     14041
     14037     14035     14038     14039     14037     14035     14038     14040
     14037     14035     14038     14041     14038     14041     14044     14045
     14038     14041     14044     14046     14038     14041     14044     14047
     14039     14038     14041     14042     14039     14038     14041     14043
     14039     14038     14041     14044     14040     14038     14041     14042
     14040     14038     14041     14043     14040     14038     14041     14044
     14041     14044     14047     14048     14041     14044     14047     14049
     14041     14044     14047     14050     14042     14041     14044     14045
     14042     14041     14044     14046     14042     14041     14044     14047
     14043     14041     14044     14045     14043     14041     14044     14046
     14043     14041     14044     14047     14045     14044     14047     14048
     14045     14044     14047     14049     14045     14044     14047     14050
     14046     14044     14047     14048     14046     14044     14047     14049
     14046     14044     14047     14050     14051     14057     14054     14055
     14051     14057     14054     14056     14051     14057     14054     14058
     14051     14062     14064     14065     14051     14062     14066     14067
     14051     14062     14066     14068     14051     14062     14066     14072
     14052     14051     14057     14054     14052     14051     14062     14063
     14052     14051     14062     14064     14052     14051     14062     14066
     14053     14051     14057     14054     14053     14051     14062     14063
     14053     14051     14062     14064     14053     14051     14062     14066
     14054     14057     14051     14062     14054     14058     14059     14060
     14054     14058     14059     14061     14054     14058     14059     14094
     14055     14054     14058     14059     14056     14054     14058     14059
     14057     14051     14062     14063     14057     14051     14062     14064
     14057     14051     14062     14066     14057     14054     14058     14059
     14058     14059     14094     14095     14058     14059     14094     14096
     14058     14059     14094     14102     14059     14094     14096     14097
     14059     14094     14102     14103     14059     14094     14102     14104
     14059     14094     14102     14105     14060     14059     14094     14095
     14060     14059     14094     14096     14060     14059     14094     14102
     14061     14059     14094     14095     14061     14059     14094     14096
     14061     14059     14094     14102     14062     14066     14072     14069
     14063     14062     14064     14065     14063     14062     14066     14067
     14063     14062     14066     14068     14063     14062     14066     14072
     14064     14062     14066     14067     14064     14062     14066     14068
     14064     14062     14066     14072     14065     14064     14062     14066
     14066     14072     14069     14070     14066     14072     14069     14071
     14066     14072     14069     14073     14067     14066     14072     14069
     14068     14066     14072     14069     14069     14073     14074     14075
     14069     14073     14074     14076     14069     14073     14074     14077
     14070     14069     14073     14074     14071     14069     14073     14074
     14072     14069     14073     14074     14073     14074     14077     14078
     14073     14074     14077     14079     14073     14074     14077     14085
     14074     14077     14079     14080     14074     14077     14085     14086
     14074     14077     14085     14087     14074     14077     14085     14088
     14075     14074     14077     14078     14075     14074     14077     14079
     14075     14074     14077     14085     14076     14074     14077     14078
     14076     14074     14077     14079     14076     14074     14077     14085
     14077     14079     14080     14081     14077     14079     14080     14082
     14077     14085     14088     14089     14078     14077     14079     14080
     14078     14077     14085     14086     14078     14077     14085     14087
     14078     14077     14085     14088     14079     14077     14085     14086
     14079     14077     14085     14087     14079     14077     14085     14088
     14079     14080     14082     14083     14079     14080     14082     14084
     14079     14080     14082     14111     14080     14079     14077     14085
     14080     14082     14111     14112     14080     14082     14111     14113
     14080     14082     14111     14114     14081     14080     14082     14083
     14081     14080     14082     14084     14081     14080     14082     14111
     14082     14111     14114     14115     14082     14111     14114     14116
     14082     14111     14114     14117     14083     14082     14111     14112
     14083     14082     14111     14113     14083     14082     14111     14114
     14084     14082     14111     14112     14084     14082     14111     14113
     14084     14082     14111     14114     14085     14088     14089     14090
     14085     14088     14089     14091     14086     14085     14088     14089
     14087     14085     14088     14089     14088     14089     14091     14092
     14088     14089     14091     14093     14088     14089     14091     14158
     14089     14091     14158     14159     14089     14091     14158     14160
     14089     14091     14158     14161     14090     14089     14091     14092
     14090     14089     14091     14093     14090     14089     14091     14158
     14091     14158     14161     14162     14091     14158     14161     14163
     14091     14158     14161     14164     14092     14091     14158     14159
     14092     14091     14158     14160     14092     14091     14158     14161
     14093     14091     14158     14159     14093     14091     14158     14160
     14093     14091     14158     14161     14094     14096     14097     14098
     14094     14096     14097     14099     14094     14102     14105     14106
     14095     14094     14096     14097     14095     14094     14102     14103
     14095     14094     14102     14104     14095     14094     14102     14105
     14096     14094     14102     14103     14096     14094     14102     14104
     14096     14094     14102     14105     14096     14097     14099     14100
     14096     14097     14099     14101     14096     14097     14099     14201
     14097     14096     14094     14102     14097     14099     14201     14202
     14097     14099     14201     14203     14097     14099     14201     14204
     14098     14097     14099     14100     14098     14097     14099     14101
     14098     14097     14099     14201     14099     14201     14204     14205
     14099     14201     14204     14206     14099     14201     14204     14207
     14100     14099     14201     14202     14100     14099     14201     14203
     14100     14099     14201     14204     14101     14099     14201     14202
     14101     14099     14201     14203     14101     14099     14201     14204
     14102     14105     14106     14107     14102     14105     14106     14108
     14103     14102     14105     14106     14104     14102     14105     14106
     14105     14106     14108     14109     14105     14106     14108     14110
     14105     14106     14108     14248     14106     14108     14248     14249
     14106     14108     14248     14250     14106     14108     14248     14251
     14107     14106     14108     14109     14107     14106     14108     14110
     14107     14106     14108     14248     14108     14248     14251     14252
     14108     14248     14251     14253     14108     14248     14251     14254
     14109     14108     14248     14249     14109     14108     14248     14250
     14109     14108     14248     14251     14110     14108     14248     14249
     14110     14108     14248     14250     14110     14108     14248     14251
     14111     14114     14117     14118     14111     14114     14117     14119
     14111     14114     14117     14120     14112     14111     14114     14115
     14112     14111     14114     14116     14112     14111     14114     14117
     14113     14111     14114     14115     14113     14111     14114     14116
     14113     14111     14114     14117     14114     14117     14120     14121
     14114     14117     14120     14122     14114     14117     14120     14123
     14115     14114     14117     14118     14115     14114     14117     14119
     14115     14114     14117     14120     14116     14114     14117     14118
     14116     14114     14117     14119     14116     14114     14117     14120
     14117     14120     14123     14124     14117     14120     14123     14125
     14117     14120     14123     14126     14118     14117     14120     14121
     14118     14117     14120     14122     14118     14117     14120     14123
     14119     14117     14120     14121     14119     14117     14120     14122
     14119     14117     14120     14123     14120     14123     14126     14127
     14120     14123     14126     14128     14120     14123     14126     14129
     14121     14120     14123     14124     14121     14120     14123     14125
     14121     14120     14123     14126     14122     14120     14123     14124
     14122     14120     14123     14125     14122     14120     14123     14126
     14123     14126     14129     14130     14123     14126     14129     14131
     14123     14126     14129     14132     14124     14123     14126     14127
     14124     14123     14126     14128     14124     14123     14126     14129
     14125     14123     14126     14127     14125     14123     14126     14128
     14125     14123     14126     14129     14126     14129     14132     14133
     14126     14129     14132     14134     14126     14129     14132     14135
     14127     14126     14129     14130     14127     14126     14129     14131
     14127     14126     14129     14132     14128     14126     14129     14130
     14128     14126     14129     14131     14128     14126     14129     14132
     14129     14132     14135     14136     14129     14132     14135     14137
     14130     14129     14132     14133     14130     14129     14132     14134
     14130     14129     14132     14135     14131     14129     14132     14133
     14131     14129     14132     14134     14131     14129     14132     14135
     14132     14135     14137     14138     14132     14135     14137     14139
     14133     14132     14135     14136     14133     14132     14135     14137
     14134     14132     14135     14136     14134     14132     14135     14137
     14135     14137     14139     14140     14135     14137     14139     14141
     14135     14137     14139     14142     14136     14135     14137     14138
     14136     14135     14137     14139     14137     14139     14142     14143
     14137     14139     14142     14144     14137     14139     14142     14145
     14138     14137     14139     14140     14138     14137     14139     14141
     14138     14137     14139     14142     14139     14142     14145     14146
     14139     14142     14145     14147     14139     14142     14145     14148
     14140     14139     14142     14143     14140     14139     14142     14144
     14140     14139     14142     14145     14141     14139     14142     14143
     14141     14139     14142     14144     14141     14139     14142     14145
     14142     14145     14148     14149     14142     14145     14148     14150
     14142     14145     14148     14151     14143     14142     14145     14146
     14143     14142     14145     14147     14143     14142     14145     14148
     14144     14142     14145     14146     14144     14142     14145     14147
     14144     14142     14145     14148     14145     14148     14151     14152
     14145     14148     14151     14153     14145     14148     14151     14154
     14146     14145     14148     14149     14146     14145     14148     14150
     14146     14145     14148     14151     14147     14145     14148     14149
     14147     14145     14148     14150     14147     14145     14148     14151
     14148     14151     14154     14155     14148     14151     14154     14156
     14148     14151     14154     14157     14149     14148     14151     14152
     14149     14148     14151     14153     14149     14148     14151     14154
     14150     14148     14151     14152     14150     14148     14151     14153
     14150     14148     14151     14154     14152     14151     14154     14155
     14152     14151     14154     14156     14152     14151     14154     14157
     14153     14151     14154     14155     14153     14151     14154     14156
     14153     14151     14154     14157     14158     14161     14164     14165
     14158     14161     14164     14166     14158     14161     14164     14167
     14159     14158     14161     14162     14159     14158     14161     14163
     14159     14158     14161     14164     14160     14158     14161     14162
     14160     14158     14161     14163     14160     14158     14161     14164
     14161     14164     14167     14168     14161     14164     14167     14169
     14161     14164     14167     14170     14162     14161     14164     14165
     14162     14161     14164     14166     14162     14161     14164     14167
     14163     14161     14164     14165     14163     14161     14164     14166
     14163     14161     14164     14167     14164     14167     14170     14171
     14164     14167     14170     14172     14164     14167     14170     14173
     14165     14164     14167     14168     14165     14164     14167     14169
     14165     14164     14167     14170     14166     14164     14167     14168
     14166     14164     14167     14169     14166     14164     14167     14170
     14167     14170     14173     14174     14167     14170     14173     14175
     14167     14170     14173     14176     14168     14167     14170     14171
     14168     14167     14170     14172     14168     14167     14170     14173
     14169     14167     14170     14171     14169     14167     14170     14172
     14169     14167     14170     14173     14170     14173     14176     14177
     14170     14173     14176     14178     14170     14173     14176     14179
     14171     14170     14173     14174     14171     14170     14173     14175
     14171     14170     14173     14176     14172     14170     14173     14174
     14172     14170     14173     14175     14172     14170     14173     14176
     14173     14176     14179     14180     14173     14176     14179     14181
     14173     14176     14179     14182     14174     14173     14176     14177
     14174     14173     14176     14178     14174     14173     14176     14179
     14175     14173     14176     14177     14175     14173     14176     14178
     14175     14173     14176     14179     14176     14179     14182     14183
     14176     14179     14182     14184     14176     14179     14182     14185
     14177     14176     14179     14180     14177     14176     14179     14181
     14177     14176     14179     14182     14178     14176     14179     14180
     14178     14176     14179     14181     14178     14176     14179     14182
     14179     14182     14185     14186     14179     14182     14185     14187
     14179     14182     14185     14188     14180     14179     14182     14183
     14180     14179     14182     14184     14180     14179     14182     14185
     14181     14179     14182     14183     14181     14179     14182     14184
     14181     14179     14182     14185     14182     14185     14188     14189
     14182     14185     14188     14190     14182     14185     14188     14191
     14183     14182     14185     14186     14183     14182     14185     14187
     14183     14182     14185     14188     14184     14182     14185     14186
     14184     14182     14185     14187     14184     14182     14185     14188
     14185     14188     14191     14192     14185     14188     14191     14193
     14185     14188     14191     14194     14186     14185     14188     14189
     14186     14185     14188     14190     14186     14185     14188     14191
     14187     14185     14188     14189     14187     14185     14188     14190
     14187     14185     14188     14191     14188     14191     14194     14195
     14188     14191     14194     14196     14188     14191     14194     14197
     14189     14188     14191     14192     14189     14188     14191     14193
     14189     14188     14191     14194     14190     14188     14191     14192
     14190     14188     14191     14193     14190     14188     14191     14194
     14191     14194     14197     14198     14191     14194     14197     14199
     14191     14194     14197     14200     14192     14191     14194     14195
     14192     14191     14194     14196     14192     14191     14194     14197
     14193     14191     14194     14195     14193     14191     14194     14196
     14193     14191     14194     14197     14195     14194     14197     14198
     14195     14194     14197     14199     14195     14194     14197     14200
     14196     14194     14197     14198     14196     14194     14197     14199
     14196     14194     14197     14200     14201     14204     14207     14208
     14201     14204     14207     14209     14201     14204     14207     14210
     14202     14201     14204     14205     14202     14201     14204     14206
     14202     14201     14204     14207     14203     14201     14204     14205
     14203     14201     14204     14206     14203     14201     14204     14207
     14204     14207     14210     14211     14204     14207     14210     14212
     14204     14207     14210     14213     14205     14204     14207     14208
     14205     14204     14207     14209     14205     14204     14207     14210
     14206     14204     14207     14208     14206     14204     14207     14209
     14206     14204     14207     14210     14207     14210     14213     14214
     14207     14210     14213     14215     14207     14210     14213     14216
     14208     14207     14210     14211     14208     14207     14210     14212
     14208     14207     14210     14213     14209     14207     14210     14211
     14209     14207     14210     14212     14209     14207     14210     14213
     14210     14213     14216     14217     14210     14213     14216     14218
     14210     14213     14216     14219     14211     14210     14213     14214
     14211     14210     14213     14215     14211     14210     14213     14216
     14212     14210     14213     14214     14212     14210     14213     14215
     14212     14210     14213     14216     14213     14216     14219     14220
     14213     14216     14219     14221     14213     14216     14219     14222
     14214     14213     14216     14217     14214     14213     14216     14218
     14214     14213     14216     14219     14215     14213     14216     14217
     14215     14213     14216     14218     14215     14213     14216     14219
     14216     14219     14222     14223     14216     14219     14222     14224
     14216     14219     14222     14225     14217     14216     14219     14220
     14217     14216     14219     14221     14217     14216     14219     14222
     14218     14216     14219     14220     14218     14216     14219     14221
     14218     14216     14219     14222     14219     14222     14225     14226
     14219     14222     14225     14227     14220     14219     14222     14223
     14220     14219     14222     14224     14220     14219     14222     14225
     14221     14219     14222     14223     14221     14219     14222     14224
     14221     14219     14222     14225     14222     14225     14227     14228
     14222     14225     14227     14229     14223     14222     14225     14226
     14223     14222     14225     14227     14224     14222     14225     14226
     14224     14222     14225     14227     14225     14227     14229     14230
     14225     14227     14229     14231     14225     14227     14229     14232
     14226     14225     14227     14228     14226     14225     14227     14229
     14227     14229     14232     14233     14227     14229     14232     14234
     14227     14229     14232     14235     14228     14227     14229     14230
     14228     14227     14229     14231     14228     14227     14229     14232
     14229     14232     14235     14236     14229     14232     14235     14237
     14229     14232     14235     14238     14230     14229     14232     14233
     14230     14229     14232     14234     14230     14229     14232     14235
     14231     14229     14232     14233     14231     14229     14232     14234
     14231     14229     14232     14235     14232     14235     14238     14239
     14232     14235     14238     14240     14232     14235     14238     14241
     14233     14232     14235     14236     14233     14232     14235     14237
     14233     14232     14235     14238     14234     14232     14235     14236
     14234     14232     14235     14237     14234     14232     14235     14238
     14235     14238     14241     14242     14235     14238     14241     14243
     14235     14238     14241     14244     14236     14235     14238     14239
     14236     14235     14238     14240     14236     14235     14238     14241
     14237     14235     14238     14239     14237     14235     14238     14240
     14237     14235     14238     14241     14238     14241     14244     14245
     14238     14241     14244     14246     14238     14241     14244     14247
     14239     14238     14241     14242     14239     14238     14241     14243
     14239     14238     14241     14244     14240     14238     14241     14242
     14240     14238     14241     14243     14240     14238     14241     14244
     14242     14241     14244     14245     14242     14241     14244     14246
     14242     14241     14244     14247     14243     14241     14244     14245
     14243     14241     14244     14246     14243     14241     14244     14247
     14248     14251     14254     14255     14248     14251     14254     14256
     14248     14251     14254     14257     14249     14248     14251     14252
     14249     14248     14251     14253     14249     14248     14251     14254
     14250     14248     14251     14252     14250     14248     14251     14253
     14250     14248     14251     14254     14251     14254     14257     14258
     14251     14254     14257     14259     14251     14254     14257     14260
     14252     14251     14254     14255     14252     14251     14254     14256
     14252     14251     14254     14257     14253     14251     14254     14255
     14253     14251     14254     14256     14253     14251     14254     14257
     14254     14257     14260     14261     14254     14257     14260     14262
     14254     14257     14260     14263     14255     14254     14257     14258
     14255     14254     14257     14259     14255     14254     14257     14260
     14256     14254     14257     14258     14256     14254     14257     14259
     14256     14254     14257     14260     14257     14260     14263     14264
     14257     14260     14263     14265     14257     14260     14263     14266
     14258     14257     14260     14261     14258     14257     14260     14262
     14258     14257     14260     14263     14259     14257     14260     14261
     14259     14257     14260     14262     14259     14257     14260     14263
     14260     14263     14266     14267     14260     14263     14266     14268
     14260     14263     14266     14269     14261     14260     14263     14264
     14261     14260     14263     14265     14261     14260     14263     14266
     14262     14260     14263     14264     14262     14260     14263     14265
     14262     14260     14263     14266     14263     14266     14269     14270
     14263     14266     14269     14271     14263     14266     14269     14272
     14264     14263     14266     14267     14264     14263     14266     14268
     14264     14263     14266     14269     14265     14263     14266     14267
     14265     14263     14266     14268     14265     14263     14266     14269
     14266     14269     14272     14273     14266     14269     14272     14274
     14266     14269     14272     14275     14267     14266     14269     14270
     14267     14266     14269     14271     14267     14266     14269     14272
     14268     14266     14269     14270     14268     14266     14269     14271
     14268     14266     14269     14272     14269     14272     14275     14276
     14269     14272     14275     14277     14269     14272     14275     14278
     14270     14269     14272     14273     14270     14269     14272     14274
     14270     14269     14272     14275     14271     14269     14272     14273
     14271     14269     14272     14274     14271     14269     14272     14275
     14272     14275     14278     14279     14272     14275     14278     14280
     14272     14275     14278     14281     14273     14272     14275     14276
     14273     14272     14275     14277     14273     14272     14275     14278
     14274     14272     14275     14276     14274     14272     14275     14277
     14274     14272     14275     14278     14275     14278     14281     14282
     14275     14278     14281     14283     14275     14278     14281     14284
     14276     14275     14278     14279     14276     14275     14278     14280
     14276     14275     14278     14281     14277     14275     14278     14279
     14277     14275     14278     14280     14277     14275     14278     14281
     14278     14281     14284     14285     14278     14281     14284     14286
     14278     14281     14284     14287     14279     14278     14281     14282
     14279     14278     14281     14283     14279     14278     14281     14284
     14280     14278     14281     14282     14280     14278     14281     14283
     14280     14278     14281     14284     14281     14284     14287     14288
     14281     14284     14287     14289     14281     14284     14287     14290
     14282     14281     14284     14285     14282     14281     14284     14286
     14282     14281     14284     14287     14283     14281     14284     14285
     14283     14281     14284     14286     14283     14281     14284     14287
     14285     14284     14287     14288     14285     14284     14287     14289
     14285     14284     14287     14290     14286     14284     14287     14288
     14286     14284     14287     14289     14286     14284     14287     14290
     14291     14296     14298     14299     14291     14296     14300     14301
     14291     14296     14300     14302     14291     14296     14300     14307
     14292     14291     14294     14295     14292     14291     14296     14297
     14292     14291     14296     14298     14292     14291     14296     14300
     14293     14291     14294     14295     14293     14291     14296     14297
     14293     14291     14296     14298     14293     14291     14296     14300
     14294     14291     14296     14297     14294     14291     14296     14298
     14294     14291     14296     14300     14295     14294     14291     14296
     14296     14300     14307     14303     14297     14296     14298     14299
     14297     14296     14300     14301     14297     14296     14300     14302
     14297     14296     14300     14307     14298     14296     14300     14301
     14298     14296     14300     14302     14298     14296     14300     14307
     14299     14298     14296     14300     14300     14307     14303     14304
     14300     14307     14303     14305     14300     14307     14303     14306
     14301     14300     14307     14303     14302     14300     14307     14303
     14303     14306     14308     14309     14303     14306     14308     14310
     14303     14306     14308     14311     14304     14303     14306     14308
     14305     14303     14306     14308     14306     14308     14311     14312
     14306     14308     14311     14313     14306     14308     14311     14319
     14307     14303     14306     14308     14308     14311     14313     14314
     14308     14311     14319     14320     14308     14311     14319     14321
     14308     14311     14319     14322     14309     14308     14311     14312
     14309     14308     14311     14313     14309     14308     14311     14319
     14310     14308     14311     14312     14310     14308     14311     14313
     14310     14308     14311     14319     14311     14313     14314     14315
     14311     14313     14314     14316     14311     14319     14322     14323
     14312     14311     14313     14314     14312     14311     14319     14320
     14312     14311     14319     14321     14312     14311     14319     14322
     14313     14311     14319     14320     14313     14311     14319     14321
     14313     14311     14319     14322     14313     14314     14316     14317
     14313     14314     14316     14318     14313     14314     14316     14328
     14314     14313     14311     14319     14314     14316     14328     14329
     14314     14316     14328     14330     14314     14316     14328     14331
     14315     14314     14316     14317     14315     14314     14316     14318
     14315     14314     14316     14328     14316     14328     14331     14332
     14316     14328     14331     14333     14316     14328     14331     14334
     14317     14316     14328     14329     14317     14316     14328     14330
     14317     14316     14328     14331     14318     14316     14328     14329
     14318     14316     14328     14330     14318     14316     14328     14331
     14319     14322     14323     14324     14319     14322     14323     14325
     14320     14319     14322     14323     14321     14319     14322     14323
     14322     14323     14325     14326     14322     14323     14325     14327
     14322     14323     14325     14372     14323     14325     14372     14373
     14323     14325     14372     14374     14323     14325     14372     14375
     14324     14323     14325     14326     14324     14323     14325     14327
     14324     14323     14325     14372     14325     14372     14375     14376
     14325     14372     14375     14377     14325     14372     14375     14378
     14326     14325     14372     14373     14326     14325     14372     14374
     14326     14325     14372     14375     14327     14325     14372     14373
     14327     14325     14372     14374     14327     14325     14372     14375
     14328     14331     14334     14335     14328     14331     14334     14336
     14328     14331     14334     14337     14329     14328     14331     14332
     14329     14328     14331     14333     14329     14328     14331     14334
     14330     14328     14331     14332     14330     14328     14331     14333
     14330     14328     14331     14334     14331     14334     14337     14338
     14331     14334     14337     14339     14331     14334     14337     14340
     14332     14331     14334     14335     14332     14331     14334     14336
     14332     14331     14334     14337     14333     14331     14334     14335
     14333     14331     14334     14336     14333     14331     14334     14337
     14334     14337     14340     14341     14334     14337     14340     14342
     14334     14337     14340     14343     14335     14334     14337     14338
     14335     14334     14337     14339     14335     14334     14337     14340
     14336     14334     14337     14338     14336     14334     14337     14339
     14336     14334     14337     14340     14337     14340     14343     14344
     14337     14340     14343     14345     14337     14340     14343     14346
     14338     14337     14340     14341     14338     14337     14340     14342
     14338     14337     14340     14343     14339     14337     14340     14341
     14339     14337     14340     14342     14339     14337     14340     14343
     14340     14343     14346     14347     14340     14343     14346     14348
     14340     14343     14346     14351     14341     14340     14343     14344
     14341     14340     14343     14345     14341     14340     14343     14346
     14342     14340     14343     14344     14342     14340     14343     14345
     14342     14340     14343     14346     14343     14346     14348     14349
     14343     14346     14348     14350     14343     14346     14348     14351
     14343     14346     14351     14348     14343     14346     14351     14352
     14343     14346     14351     14353     14344     14343     14346     14347
     14344     14343     14346     14348     14344     14343     14346     14351
     14345     14343     14346     14347     14345     14343     14346     14348
     14345     14343     14346     14351     14346     14348     14351     14352
     14346     14348     14351     14353     14346     14351     14348     14349
     14346     14351     14348     14350     14346     14351     14353     14354
     14346     14351     14353     14355     14346     14351     14353     14356
     14347     14346     14348     14349     14347     14346     14348     14350
     14347     14346     14348     14351     14347     14346     14351     14348
     14347     14346     14351     14352     14347     14346     14351     14353
     14348     14346     14351     14352     14348     14346     14351     14353
     14348     14351     14353     14354     14348     14351     14353     14355
     14348     14351     14353     14356     14349     14348     14346     14351
     14349     14348     14351     14352     14349     14348     14351     14353
     14350     14348     14346     14351     14350     14348     14351     14352
     14350     14348     14351     14353     14351     14353     14356     14357
     14351     14353     14356     14358     14351     14353     14356     14359
     14352     14351     14353     14354     14352     14351     14353     14355
     14352     14351     14353     14356     14353     14356     14359     14360
     14353     14356     14359     14361     14353     14356     14359     14362
     14354     14353     14356     14357     14354     14353     14356     14358
     14354     14353     14356     14359     14355     14353     14356     14357
     14355     14353     14356     14358     14355     14353     14356     14359
     14356     14359     14362     14363     14356     14359     14362     14364
     14356     14359     14362     14365     14357     14356     14359     14360
     14357     14356     14359     14361     14357     14356     14359     14362
     14358     14356     14359     14360     14358     14356     14359     14361
     14358     14356     14359     14362     14359     14362     14365     14366
     14359     14362     14365     14367     14359     14362     14365     14368
     14360     14359     14362     14363     14360     14359     14362     14364
     14360     14359     14362     14365     14361     14359     14362     14363
     14361     14359     14362     14364     14361     14359     14362     14365
     14362     14365     14368     14369     14362     14365     14368     14370
     14362     14365     14368     14371     14363     14362     14365     14366
     14363     14362     14365     14367     14363     14362     14365     14368
     14364     14362     14365     14366     14364     14362     14365     14367
     14364     14362     14365     14368     14366     14365     14368     14369
     14366     14365     14368     14370     14366     14365     14368     14371
     14367     14365     14368     14369     14367     14365     14368     14370
     14367     14365     14368     14371     14372     14375     14378     14379
     14372     14375     14378     14380     14372     14375     14378     14381
     14373     14372     14375     14376     14373     14372     14375     14377
     14373     14372     14375     14378     14374     14372     14375     14376
     14374     14372     14375     14377     14374     14372     14375     14378
     14375     14378     14381     14382     14375     14378     14381     14383
     14375     14378     14381     14384     14376     14375     14378     14379
     14376     14375     14378     14380     14376     14375     14378     14381
     14377     14375     14378     14379     14377     14375     14378     14380
     14377     14375     14378     14381     14378     14381     14384     14385
     14378     14381     14384     14386     14378     14381     14384     14387
     14379     14378     14381     14382     14379     14378     14381     14383
     14379     14378     14381     14384     14380     14378     14381     14382
     14380     14378     14381     14383     14380     14378     14381     14384
     14381     14384     14387     14388     14381     14384     14387     14389
     14381     14384     14387     14390     14382     14381     14384     14385
     14382     14381     14384     14386     14382     14381     14384     14387
     14383     14381     14384     14385     14383     14381     14384     14386
     14383     14381     14384     14387     14384     14387     14390     14391
     14384     14387     14390     14392     14384     14387     14390     14393
     14385     14384     14387     14388     14385     14384     14387     14389
     14385     14384     14387     14390     14386     14384     14387     14388
     14386     14384     14387     14389     14386     14384     14387     14390
     14387     14390     14393     14394     14387     14390     14393     14395
     14387     14390     14393     14396     14388     14387     14390     14391
     14388     14387     14390     14392     14388     14387     14390     14393
     14389     14387     14390     14391     14389     14387     14390     14392
     14389     14387     14390     14393     14390     14393     14396     14397
     14390     14393     14396     14398     14390     14393     14396     14399
     14391     14390     14393     14394     14391     14390     14393     14395
     14391     14390     14393     14396     14392     14390     14393     14394
     14392     14390     14393     14395     14392     14390     14393     14396
     14393     14396     14399     14400     14393     14396     14399     14401
     14393     14396     14399     14402     14394     14393     14396     14397
     14394     14393     14396     14398     14394     14393     14396     14399
     14395     14393     14396     14397     14395     14393     14396     14398
     14395     14393     14396     14399     14396     14399     14402     14403
     14396     14399     14402     14404     14396     14399     14402     14405
     14397     14396     14399     14400     14397     14396     14399     14401
     14397     14396     14399     14402     14398     14396     14399     14400
     14398     14396     14399     14401     14398     14396     14399     14402
     14399     14402     14405     14406     14399     14402     14405     14407
     14399     14402     14405     14408     14400     14399     14402     14403
     14400     14399     14402     14404     14400     14399     14402     14405
     14401     14399     14402     14403     14401     14399     14402     14404
     14401     14399     14402     14405     14402     14405     14408     14409
     14402     14405     14408     14410     14402     14405     14408     14411
     14403     14402     14405     14406     14403     14402     14405     14407
     14403     14402     14405     14408     14404     14402     14405     14406
     14404     14402     14405     14407     14404     14402     14405     14408
     14405     14408     14411     14412     14405     14408     14411     14413
     14405     14408     14411     14414     14406     14405     14408     14409
     14406     14405     14408     14410     14406     14405     14408     14411
     14407     14405     14408     14409     14407     14405     14408     14410
     14407     14405     14408     14411     14409     14408     14411     14412
     14409     14408     14411     14413     14409     14408     14411     14414
     14410     14408     14411     14412     14410     14408     14411     14413
     14410     14408     14411     14414     14415     14421     14418     14419
     14415     14421     14418     14420     14415     14421     14418     14422
     14415     14426     14428     14429     14415     14426     14430     14431
     14415     14426     14430     14432     14415     14426     14430     14436
     14416     14415     14421     14418     14416     14415     14426     14427
     14416     14415     14426     14428     14416     14415     14426     14430
     14417     14415     14421     14418     14417     14415     14426     14427
     14417     14415     14426     14428     14417     14415     14426     14430
     14418     14421     14415     14426     14418     14422     14423     14424
     14418     14422     14423     14425     14418     14422     14423     14458
     14419     14418     14422     14423     14420     14418     14422     14423
     14421     14415     14426     14427     14421     14415     14426     14428
     14421     14415     14426     14430     14421     14418     14422     14423
     14422     14423     14458     14459     14422     14423     14458     14460
     14422     14423     14458     14466     14423     14458     14460     14461
     14423     14458     14466     14467     14423     14458     14466     14468
     14423     14458     14466     14469     14424     14423     14458     14459
     14424     14423     14458     14460     14424     14423     14458     14466
     14425     14423     14458     14459     14425     14423     14458     14460
     14425     14423     14458     14466     14426     14430     14436     14433
     14427     14426     14428     14429     14427     14426     14430     14431
     14427     14426     14430     14432     14427     14426     14430     14436
     14428     14426     14430     14431     14428     14426     14430     14432
     14428     14426     14430     14436     14429     14428     14426     14430
     14430     14436     14433     14434     14430     14436     14433     14435
     14430     14436     14433     14437     14431     14430     14436     14433
     14432     14430     14436     14433     14433     14437     14438     14439
     14433     14437     14438     14440     14433     14437     14438     14441
     14434     14433     14437     14438     14435     14433     14437     14438
     14436     14433     14437     14438     14437     14438     14441     14442
     14437     14438     14441     14443     14437     14438     14441     14449
     14438     14441     14443     14444     14438     14441     14449     14450
     14438     14441     14449     14451     14438     14441     14449     14452
     14439     14438     14441     14442     14439     14438     14441     14443
     14439     14438     14441     14449     14440     14438     14441     14442
     14440     14438     14441     14443     14440     14438     14441     14449
     14441     14443     14444     14445     14441     14443     14444     14446
     14441     14449     14452     14453     14442     14441     14443     14444
     14442     14441     14449     14450     14442     14441     14449     14451
     14442     14441     14449     14452     14443     14441     14449     14450
     14443     14441     14449     14451     14443     14441     14449     14452
     14443     14444     14446     14447     14443     14444     14446     14448
     14443     14444     14446     14475     14444     14443     14441     14449
     14444     14446     14475     14476     14444     14446     14475     14477
     14444     14446     14475     14478     14445     14444     14446     14447
     14445     14444     14446     14448     14445     14444     14446     14475
     14446     14475     14478     14479     14446     14475     14478     14480
     14446     14475     14478     14481     14447     14446     14475     14476
     14447     14446     14475     14477     14447     14446     14475     14478
     14448     14446     14475     14476     14448     14446     14475     14477
     14448     14446     14475     14478     14449     14452     14453     14454
     14449     14452     14453     14455     14450     14449     14452     14453
     14451     14449     14452     14453     14452     14453     14455     14456
     14452     14453     14455     14457     14452     14453     14455     14522
     14453     14455     14522     14523     14453     14455     14522     14524
     14453     14455     14522     14525     14454     14453     14455     14456
     14454     14453     14455     14457     14454     14453     14455     14522
     14455     14522     14525     14526     14455     14522     14525     14527
     14455     14522     14525     14528     14456     14455     14522     14523
     14456     14455     14522     14524     14456     14455     14522     14525
     14457     14455     14522     14523     14457     14455     14522     14524
     14457     14455     14522     14525     14458     14460     14461     14462
     14458     14460     14461     14463     14458     14466     14469     14470
     14459     14458     14460     14461     14459     14458     14466     14467
     14459     14458     14466     14468     14459     14458     14466     14469
     14460     14458     14466     14467     14460     14458     14466     14468
     14460     14458     14466     14469     14460     14461     14463     14464
     14460     14461     14463     14465     14460     14461     14463     14565
     14461     14460     14458     14466     14461     14463     14565     14566
     14461     14463     14565     14567     14461     14463     14565     14568
     14462     14461     14463     14464     14462     14461     14463     14465
     14462     14461     14463     14565     14463     14565     14568     14569
     14463     14565     14568     14570     14463     14565     14568     14571
     14464     14463     14565     14566     14464     14463     14565     14567
     14464     14463     14565     14568     14465     14463     14565     14566
     14465     14463     14565     14567     14465     14463     14565     14568
     14466     14469     14470     14471     14466     14469     14470     14472
     14467     14466     14469     14470     14468     14466     14469     14470
     14469     14470     14472     14473     14469     14470     14472     14474
     14469     14470     14472     14612     14470     14472     14612     14613
     14470     14472     14612     14614     14470     14472     14612     14615
     14471     14470     14472     14473     14471     14470     14472     14474
     14471     14470     14472     14612     14472     14612     14615     14616
     14472     14612     14615     14617     14472     14612     14615     14618
     14473     14472     14612     14613     14473     14472     14612     14614
     14473     14472     14612     14615     14474     14472     14612     14613
     14474     14472     14612     14614     14474     14472     14612     14615
     14475     14478     14481     14482     14475     14478     14481     14483
     14475     14478     14481     14484     14476     14475     14478     14479
     14476     14475     14478     14480     14476     14475     14478     14481
     14477     14475     14478     14479     14477     14475     14478     14480
     14477     14475     14478     14481     14478     14481     14484     14485
     14478     14481     14484     14486     14478     14481     14484     14487
     14479     14478     14481     14482     14479     14478     14481     14483
     14479     14478     14481     14484     14480     14478     14481     14482
     14480     14478     14481     14483     14480     14478     14481     14484
     14481     14484     14487     14488     14481     14484     14487     14489
     14481     14484     14487     14490     14482     14481     14484     14485
     14482     14481     14484     14486     14482     14481     14484     14487
     14483     14481     14484     14485     14483     14481     14484     14486
     14483     14481     14484     14487     14484     14487     14490     14491
     14484     14487     14490     14492     14484     14487     14490     14493
     14485     14484     14487     14488     14485     14484     14487     14489
     14485     14484     14487     14490     14486     14484     14487     14488
     14486     14484     14487     14489     14486     14484     14487     14490
     14487     14490     14493     14494     14487     14490     14493     14495
     14487     14490     14493     14496     14488     14487     14490     14491
     14488     14487     14490     14492     14488     14487     14490     14493
     14489     14487     14490     14491     14489     14487     14490     14492
     14489     14487     14490     14493     14490     14493     14496     14497
     14490     14493     14496     14498     14490     14493     14496     14499
     14491     14490     14493     14494     14491     14490     14493     14495
     14491     14490     14493     14496     14492     14490     14493     14494
     14492     14490     14493     14495     14492     14490     14493     14496
     14493     14496     14499     14500     14493     14496     14499     14501
     14494     14493     14496     14497     14494     14493     14496     14498
     14494     14493     14496     14499     14495     14493     14496     14497
     14495     14493     14496     14498     14495     14493     14496     14499
     14496     14499     14501     14502     14496     14499     14501     14503
     14497     14496     14499     14500     14497     14496     14499     14501
     14498     14496     14499     14500     14498     14496     14499     14501
     14499     14501     14503     14504     14499     14501     14503     14505
     14499     14501     14503     14506     14500     14499     14501     14502
     14500     14499     14501     14503     14501     14503     14506     14507
     14501     14503     14506     14508     14501     14503     14506     14509
     14502     14501     14503     14504     14502     14501     14503     14505
     14502     14501     14503     14506     14503     14506     14509     14510
     14503     14506     14509     14511     14503     14506     14509     14512
     14504     14503     14506     14507     14504     14503     14506     14508
     14504     14503     14506     14509     14505     14503     14506     14507
     14505     14503     14506     14508     14505     14503     14506     14509
     14506     14509     14512     14513     14506     14509     14512     14514
     14506     14509     14512     14515     14507     14506     14509     14510
     14507     14506     14509     14511     14507     14506     14509     14512
     14508     14506     14509     14510     14508     14506     14509     14511
     14508     14506     14509     14512     14509     14512     14515     14516
     14509     14512     14515     14517     14509     14512     14515     14518
     14510     14509     14512     14513     14510     14509     14512     14514
     14510     14509     14512     14515     14511     14509     14512     14513
     14511     14509     14512     14514     14511     14509     14512     14515
     14512     14515     14518     14519     14512     14515     14518     14520
     14512     14515     14518     14521     14513     14512     14515     14516
     14513     14512     14515     14517     14513     14512     14515     14518
     14514     14512     14515     14516     14514     14512     14515     14517
     14514     14512     14515     14518     14516     14515     14518     14519
     14516     14515     14518     14520     14516     14515     14518     14521
     14517     14515     14518     14519     14517     14515     14518     14520
     14517     14515     14518     14521     14522     14525     14528     14529
     14522     14525     14528     14530     14522     14525     14528     14531
     14523     14522     14525     14526     14523     14522     14525     14527
     14523     14522     14525     14528     14524     14522     14525     14526
     14524     14522     14525     14527     14524     14522     14525     14528
     14525     14528     14531     14532     14525     14528     14531     14533
     14525     14528     14531     14534     14526     14525     14528     14529
     14526     14525     14528     14530     14526     14525     14528     14531
     14527     14525     14528     14529     14527     14525     14528     14530
     14527     14525     14528     14531     14528     14531     14534     14535
     14528     14531     14534     14536     14528     14531     14534     14537
     14529     14528     14531     14532     14529     14528     14531     14533
     14529     14528     14531     14534     14530     14528     14531     14532
     14530     14528     14531     14533     14530     14528     14531     14534
     14531     14534     14537     14538     14531     14534     14537     14539
     14531     14534     14537     14540     14532     14531     14534     14535
     14532     14531     14534     14536     14532     14531     14534     14537
     14533     14531     14534     14535     14533     14531     14534     14536
     14533     14531     14534     14537     14534     14537     14540     14541
     14534     14537     14540     14542     14534     14537     14540     14543
     14535     14534     14537     14538     14535     14534     14537     14539
     14535     14534     14537     14540     14536     14534     14537     14538
     14536     14534     14537     14539     14536     14534     14537     14540
     14537     14540     14543     14544     14537     14540     14543     14545
     14537     14540     14543     14546     14538     14537     14540     14541
     14538     14537     14540     14542     14538     14537     14540     14543
     14539     14537     14540     14541     14539     14537     14540     14542
     14539     14537     14540     14543     14540     14543     14546     14547
     14540     14543     14546     14548     14540     14543     14546     14549
     14541     14540     14543     14544     14541     14540     14543     14545
     14541     14540     14543     14546     14542     14540     14543     14544
     14542     14540     14543     14545     14542     14540     14543     14546
     14543     14546     14549     14550     14543     14546     14549     14551
     14543     14546     14549     14552     14544     14543     14546     14547
     14544     14543     14546     14548     14544     14543     14546     14549
     14545     14543     14546     14547     14545     14543     14546     14548
     14545     14543     14546     14549     14546     14549     14552     14553
     14546     14549     14552     14554     14546     14549     14552     14555
     14547     14546     14549     14550     14547     14546     14549     14551
     14547     14546     14549     14552     14548     14546     14549     14550
     14548     14546     14549     14551     14548     14546     14549     14552
     14549     14552     14555     14556     14549     14552     14555     14557
     14549     14552     14555     14558     14550     14549     14552     14553
     14550     14549     14552     14554     14550     14549     14552     14555
     14551     14549     14552     14553     14551     14549     14552     14554
     14551     14549     14552     14555     14552     14555     14558     14559
     14552     14555     14558     14560     14552     14555     14558     14561
     14553     14552     14555     14556     14553     14552     14555     14557
     14553     14552     14555     14558     14554     14552     14555     14556
     14554     14552     14555     14557     14554     14552     14555     14558
     14555     14558     14561     14562     14555     14558     14561     14563
     14555     14558     14561     14564     14556     14555     14558     14559
     14556     14555     14558     14560     14556     14555     14558     14561
     14557     14555     14558     14559     14557     14555     14558     14560
     14557     14555     14558     14561     14559     14558     14561     14562
     14559     14558     14561     14563     14559     14558     14561     14564
     14560     14558     14561     14562     14560     14558     14561     14563
     14560     14558     14561     14564     14565     14568     14571     14572
     14565     14568     14571     14573     14565     14568     14571     14574
     14566     14565     14568     14569     14566     14565     14568     14570
     14566     14565     14568     14571     14567     14565     14568     14569
     14567     14565     14568     14570     14567     14565     14568     14571
     14568     14571     14574     14575     14568     14571     14574     14576
     14568     14571     14574     14577     14569     14568     14571     14572
     14569     14568     14571     14573     14569     14568     14571     14574
     14570     14568     14571     14572     14570     14568     14571     14573
     14570     14568     14571     14574     14571     14574     14577     14578
     14571     14574     14577     14579     14571     14574     14577     14580
     14572     14571     14574     14575     14572     14571     14574     14576
     14572     14571     14574     14577     14573     14571     14574     14575
     14573     14571     14574     14576     14573     14571     14574     14577
     14574     14577     14580     14581     14574     14577     14580     14582
     14574     14577     14580     14583     14575     14574     14577     14578
     14575     14574     14577     14579     14575     14574     14577     14580
     14576     14574     14577     14578     14576     14574     14577     14579
     14576     14574     14577     14580     14577     14580     14583     14584
     14577     14580     14583     14585     14577     14580     14583     14586
     14578     14577     14580     14581     14578     14577     14580     14582
     14578     14577     14580     14583     14579     14577     14580     14581
     14579     14577     14580     14582     14579     14577     14580     14583
     14580     14583     14586     14587     14580     14583     14586     14588
     14580     14583     14586     14589     14581     14580     14583     14584
     14581     14580     14583     14585     14581     14580     14583     14586
     14582     14580     14583     14584     14582     14580     14583     14585
     14582     14580     14583     14586     14583     14586     14589     14590
     14583     14586     14589     14591     14584     14583     14586     14587
     14584     14583     14586     14588     14584     14583     14586     14589
     14585     14583     14586     14587     14585     14583     14586     14588
     14585     14583     14586     14589     14586     14589     14591     14592
     14586     14589     14591     14593     14587     14586     14589     14590
     14587     14586     14589     14591     14588     14586     14589     14590
     14588     14586     14589     14591     14589     14591     14593     14594
     14589     14591     14593     14595     14589     14591     14593     14596
     14590     14589     14591     14592     14590     14589     14591     14593
     14591     14593     14596     14597     14591     14593     14596     14598
     14591     14593     14596     14599     14592     14591     14593     14594
     14592     14591     14593     14595     14592     14591     14593     14596
     14593     14596     14599     14600     14593     14596     14599     14601
     14593     14596     14599     14602     14594     14593     14596     14597
     14594     14593     14596     14598     14594     14593     14596     14599
     14595     14593     14596     14597     14595     14593     14596     14598
     14595     14593     14596     14599     14596     14599     14602     14603
     14596     14599     14602     14604     14596     14599     14602     14605
     14597     14596     14599     14600     14597     14596     14599     14601
     14597     14596     14599     14602     14598     14596     14599     14600
     14598     14596     14599     14601     14598     14596     14599     14602
     14599     14602     14605     14606     14599     14602     14605     14607
     14599     14602     14605     14608     14600     14599     14602     14603
     14600     14599     14602     14604     14600     14599     14602     14605
     14601     14599     14602     14603     14601     14599     14602     14604
     14601     14599     14602     14605     14602     14605     14608     14609
     14602     14605     14608     14610     14602     14605     14608     14611
     14603     14602     14605     14606     14603     14602     14605     14607
     14603     14602     14605     14608     14604     14602     14605     14606
     14604     14602     14605     14607     14604     14602     14605     14608
     14606     14605     14608     14609     14606     14605     14608     14610
     14606     14605     14608     14611     14607     14605     14608     14609
     14607     14605     14608     14610     14607     14605     14608     14611
     14612     14615     14618     14619     14612     14615     14618     14620
     14612     14615     14618     14621     14613     14612     14615     14616
     14613     14612     14615     14617     14613     14612     14615     14618
     14614     14612     14615     14616     14614     14612     14615     14617
     14614     14612     14615     14618     14615     14618     14621     14622
     14615     14618     14621     14623     14615     14618     14621     14624
     14616     14615     14618     14619     14616     14615     14618     14620
     14616     14615     14618     14621     14617     14615     14618     14619
     14617     14615     14618     14620     14617     14615     14618     14621
     14618     14621     14624     14625     14618     14621     14624     14626
     14618     14621     14624     14627     14619     14618     14621     14622
     14619     14618     14621     14623     14619     14618     14621     14624
     14620     14618     14621     14622     14620     14618     14621     14623
     14620     14618     14621     14624     14621     14624     14627     14628
     14621     14624     14627     14629     14621     14624     14627     14630
     14622     14621     14624     14625     14622     14621     14624     14626
     14622     14621     14624     14627     14623     14621     14624     14625
     14623     14621     14624     14626     14623     14621     14624     14627
     14624     14627     14630     14631     14624     14627     14630     14632
     14624     14627     14630     14633     14625     14624     14627     14628
     14625     14624     14627     14629     14625     14624     14627     14630
     14626     14624     14627     14628     14626     14624     14627     14629
     14626     14624     14627     14630     14627     14630     14633     14634
     14627     14630     14633     14635     14627     14630     14633     14636
     14628     14627     14630     14631     14628     14627     14630     14632
     14628     14627     14630     14633     14629     14627     14630     14631
     14629     14627     14630     14632     14629     14627     14630     14633
     14630     14633     14636     14637     14630     14633     14636     14638
     14630     14633     14636     14639     14631     14630     14633     14634
     14631     14630     14633     14635     14631     14630     14633     14636
     14632     14630     14633     14634     14632     14630     14633     14635
     14632     14630     14633     14636     14633     14636     14639     14640
     14633     14636     14639     14641     14633     14636     14639     14642
     14634     14633     14636     14637     14634     14633     14636     14638
     14634     14633     14636     14639     14635     14633     14636     14637
     14635     14633     14636     14638     14635     14633     14636     14639
     14636     14639     14642     14643     14636     14639     14642     14644
     14636     14639     14642     14645     14637     14636     14639     14640
     14637     14636     14639     14641     14637     14636     14639     14642
     14638     14636     14639     14640     14638     14636     14639     14641
     14638     14636     14639     14642     14639     14642     14645     14646
     14639     14642     14645     14647     14639     14642     14645     14648
     14640     14639     14642     14643     14640     14639     14642     14644
     14640     14639     14642     14645     14641     14639     14642     14643
     14641     14639     14642     14644     14641     14639     14642     14645
     14642     14645     14648     14649     14642     14645     14648     14650
     14642     14645     14648     14651     14643     14642     14645     14646
     14643     14642     14645     14647     14643     14642     14645     14648
     14644     14642     14645     14646     14644     14642     14645     14647
     14644     14642     14645     14648     14645     14648     14651     14652
     14645     14648     14651     14653     14645     14648     14651     14654
     14646     14645     14648     14649     14646     14645     14648     14650
     14646     14645     14648     14651     14647     14645     14648     14649
     14647     14645     14648     14650     14647     14645     14648     14651
     14649     14648     14651     14652     14649     14648     14651     14653
     14649     14648     14651     14654     14650     14648     14651     14652
     14650     14648     14651     14653     14650     14648     14651     14654
     14655     14659     14662     14663     14655     14659     14662     14664
     14655     14659     14662     14669     14656     14655     14659     14660
     14656     14655     14659     14661     14656     14655     14659     14662
     14657     14655     14659     14660     14657     14655     14659     14661
     14657     14655     14659     14662     14658     14655     14659     14660
     14658     14655     14659     14661     14658     14655     14659     14662
     14659     14662     14669     14665     14660     14659     14662     14663
     14660     14659     14662     14664     14660     14659     14662     14669
     14661     14659     14662     14663     14661     14659     14662     14664
     14661     14659     14662     14669     14662     14669     14665     14666
     14662     14669     14665     14667     14662     14669     14665     14668
     14663     14662     14669     14665     14664     14662     14669     14665
     14665     14668     14670     14671     14665     14668     14670     14672
     14665     14668     14670     14673     14666     14665     14668     14670
     14667     14665     14668     14670     14668     14670     14673     14674
     14668     14670     14673     14675     14668     14670     14673     14681
     14669     14665     14668     14670     14670     14673     14675     14676
     14670     14673     14681     14682     14670     14673     14681     14683
     14670     14673     14681     14684     14671     14670     14673     14674
     14671     14670     14673     14675     14671     14670     14673     14681
     14672     14670     14673     14674     14672     14670     14673     14675
     14672     14670     14673     14681     14673     14675     14676     14677
     14673     14675     14676     14678     14673     14681     14684     14685
     14674     14673     14675     14676     14674     14673     14681     14682
     14674     14673     14681     14683     14674     14673     14681     14684
     14675     14673     14681     14682     14675     14673     14681     14683
     14675     14673     14681     14684     14675     14676     14678     14679
     14675     14676     14678     14680     14675     14676     14678     14690
     14676     14675     14673     14681     14676     14678     14690     14691
     14676     14678     14690     14692     14676     14678     14690     14693
     14677     14676     14678     14679     14677     14676     14678     14680
     14677     14676     14678     14690     14678     14690     14693     14694
     14678     14690     14693     14695     14678     14690     14693     14696
     14679     14678     14690     14691     14679     14678     14690     14692
     14679     14678     14690     14693     14680     14678     14690     14691
     14680     14678     14690     14692     14680     14678     14690     14693
     14681     14684     14685     14686     14681     14684     14685     14687
     14682     14681     14684     14685     14683     14681     14684     14685
     14684     14685     14687     14688     14684     14685     14687     14689
     14684     14685     14687     14734     14685     14687     14734     14735
     14685     14687     14734     14736     14685     14687     14734     14737
     14686     14685     14687     14688     14686     14685     14687     14689
     14686     14685     14687     14734     14687     14734     14737     14738
     14687     14734     14737     14739     14687     14734     14737     14740
     14688     14687     14734     14735     14688     14687     14734     14736
     14688     14687     14734     14737     14689     14687     14734     14735
     14689     14687     14734     14736     14689     14687     14734     14737
     14690     14693     14696     14697     14690     14693     14696     14698
     14690     14693     14696     14699     14691     14690     14693     14694
     14691     14690     14693     14695     14691     14690     14693     14696
     14692     14690     14693     14694     14692     14690     14693     14695
     14692     14690     14693     14696     14693     14696     14699     14700
     14693     14696     14699     14701     14693     14696     14699     14702
     14694     14693     14696     14697     14694     14693     14696     14698
     14694     14693     14696     14699     14695     14693     14696     14697
     14695     14693     14696     14698     14695     14693     14696     14699
     14696     14699     14702     14703     14696     14699     14702     14704
     14696     14699     14702     14705     14697     14696     14699     14700
     14697     14696     14699     14701     14697     14696     14699     14702
     14698     14696     14699     14700     14698     14696     14699     14701
     14698     14696     14699     14702     14699     14702     14705     14706
     14699     14702     14705     14707     14699     14702     14705     14708
     14700     14699     14702     14703     14700     14699     14702     14704
     14700     14699     14702     14705     14701     14699     14702     14703
     14701     14699     14702     14704     14701     14699     14702     14705
     14702     14705     14708     14709     14702     14705     14708     14710
     14702     14705     14708     14713     14703     14702     14705     14706
     14703     14702     14705     14707     14703     14702     14705     14708
     14704     14702     14705     14706     14704     14702     14705     14707
     14704     14702     14705     14708     14705     14708     14710     14711
     14705     14708     14710     14712     14705     14708     14710     14713
     14705     14708     14713     14710     14705     14708     14713     14714
     14705     14708     14713     14715     14706     14705     14708     14709
     14706     14705     14708     14710     14706     14705     14708     14713
     14707     14705     14708     14709     14707     14705     14708     14710
     14707     14705     14708     14713     14708     14710     14713     14714
     14708     14710     14713     14715     14708     14713     14710     14711
     14708     14713     14710     14712     14708     14713     14715     14716
     14708     14713     14715     14717     14708     14713     14715     14718
     14709     14708     14710     14711     14709     14708     14710     14712
     14709     14708     14710     14713     14709     14708     14713     14710
     14709     14708     14713     14714     14709     14708     14713     14715
     14710     14708     14713     14714     14710     14708     14713     14715
     14710     14713     14715     14716     14710     14713     14715     14717
     14710     14713     14715     14718     14711     14710     14708     14713
     14711     14710     14713     14714     14711     14710     14713     14715
     14712     14710     14708     14713     14712     14710     14713     14714
     14712     14710     14713     14715     14713     14715     14718     14719
     14713     14715     14718     14720     14713     14715     14718     14721
     14714     14713     14715     14716     14714     14713     14715     14717
     14714     14713     14715     14718     14715     14718     14721     14722
     14715     14718     14721     14723     14715     14718     14721     14724
     14716     14715     14718     14719     14716     14715     14718     14720
     14716     14715     14718     14721     14717     14715     14718     14719
     14717     14715     14718     14720     14717     14715     14718     14721
     14718     14721     14724     14725     14718     14721     14724     14726
     14718     14721     14724     14727     14719     14718     14721     14722
     14719     14718     14721     14723     14719     14718     14721     14724
     14720     14718     14721     14722     14720     14718     14721     14723
     14720     14718     14721     14724     14721     14724     14727     14728
     14721     14724     14727     14729     14721     14724     14727     14730
     14722     14721     14724     14725     14722     14721     14724     14726
     14722     14721     14724     14727     14723     14721     14724     14725
     14723     14721     14724     14726     14723     14721     14724     14727
     14724     14727     14730     14731     14724     14727     14730     14732
     14724     14727     14730     14733     14725     14724     14727     14728
     14725     14724     14727     14729     14725     14724     14727     14730
     14726     14724     14727     14728     14726     14724     14727     14729
     14726     14724     14727     14730     14728     14727     14730     14731
     14728     14727     14730     14732     14728     14727     14730     14733
     14729     14727     14730     14731     14729     14727     14730     14732
     14729     14727     14730     14733     14734     14737     14740     14741
     14734     14737     14740     14742     14734     14737     14740     14743
     14735     14734     14737     14738     14735     14734     14737     14739
     14735     14734     14737     14740     14736     14734     14737     14738
     14736     14734     14737     14739     14736     14734     14737     14740
     14737     14740     14743     14744     14737     14740     14743     14745
     14737     14740     14743     14746     14738     14737     14740     14741
     14738     14737     14740     14742     14738     14737     14740     14743
     14739     14737     14740     14741     14739     14737     14740     14742
     14739     14737     14740     14743     14740     14743     14746     14747
     14740     14743     14746     14748     14740     14743     14746     14749
     14741     14740     14743     14744     14741     14740     14743     14745
     14741     14740     14743     14746     14742     14740     14743     14744
     14742     14740     14743     14745     14742     14740     14743     14746
     14743     14746     14749     14750     14743     14746     14749     14751
     14743     14746     14749     14752     14744     14743     14746     14747
     14744     14743     14746     14748     14744     14743     14746     14749
     14745     14743     14746     14747     14745     14743     14746     14748
     14745     14743     14746     14749     14746     14749     14752     14753
     14746     14749     14752     14754     14746     14749     14752     14755
     14747     14746     14749     14750     14747     14746     14749     14751
     14747     14746     14749     14752     14748     14746     14749     14750
     14748     14746     14749     14751     14748     14746     14749     14752
     14749     14752     14755     14756     14749     14752     14755     14757
     14749     14752     14755     14758     14750     14749     14752     14753
     14750     14749     14752     14754     14750     14749     14752     14755
     14751     14749     14752     14753     14751     14749     14752     14754
     14751     14749     14752     14755     14752     14755     14758     14759
     14752     14755     14758     14760     14752     14755     14758     14761
     14753     14752     14755     14756     14753     14752     14755     14757
     14753     14752     14755     14758     14754     14752     14755     14756
     14754     14752     14755     14757     14754     14752     14755     14758
     14755     14758     14761     14762     14755     14758     14761     14763
     14755     14758     14761     14764     14756     14755     14758     14759
     14756     14755     14758     14760     14756     14755     14758     14761
     14757     14755     14758     14759     14757     14755     14758     14760
     14757     14755     14758     14761     14758     14761     14764     14765
     14758     14761     14764     14766     14758     14761     14764     14767
     14759     14758     14761     14762     14759     14758     14761     14763
     14759     14758     14761     14764     14760     14758     14761     14762
     14760     14758     14761     14763     14760     14758     14761     14764
     14761     14764     14767     14768     14761     14764     14767     14769
     14761     14764     14767     14770     14762     14761     14764     14765
     14762     14761     14764     14766     14762     14761     14764     14767
     14763     14761     14764     14765     14763     14761     14764     14766
     14763     14761     14764     14767     14764     14767     14770     14771
     14764     14767     14770     14772     14764     14767     14770     14773
     14765     14764     14767     14768     14765     14764     14767     14769
     14765     14764     14767     14770     14766     14764     14767     14768
     14766     14764     14767     14769     14766     14764     14767     14770
     14767     14770     14773     14774     14767     14770     14773     14775
     14767     14770     14773     14776     14768     14767     14770     14771
     14768     14767     14770     14772     14768     14767     14770     14773
     14769     14767     14770     14771     14769     14767     14770     14772
     14769     14767     14770     14773     14771     14770     14773     14774
     14771     14770     14773     14775     14771     14770     14773     14776
     14772     14770     14773     14774     14772     14770     14773     14775
     14772     14770     14773     14776     14777     14781     14784     14785
     14777     14781     14784     14786     14777     14781     14784     14791
     14778     14777     14781     14782     14778     14777     14781     14783
     14778     14777     14781     14784     14779     14777     14781     14782
     14779     14777     14781     14783     14779     14777     14781     14784
     14780     14777     14781     14782     14780     14777     14781     14783
     14780     14777     14781     14784     14781     14784     14791     14787
     14782     14781     14784     14785     14782     14781     14784     14786
     14782     14781     14784     14791     14783     14781     14784     14785
     14783     14781     14784     14786     14783     14781     14784     14791
     14784     14791     14787     14788     14784     14791     14787     14789
     14784     14791     14787     14790     14785     14784     14791     14787
     14786     14784     14791     14787     14787     14790     14792     14793
     14787     14790     14792     14794     14787     14790     14792     14795
     14788     14787     14790     14792     14789     14787     14790     14792
     14790     14792     14795     14796     14790     14792     14795     14797
     14790     14792     14795     14803     14791     14787     14790     14792
     14792     14795     14797     14798     14792     14795     14803     14804
     14792     14795     14803     14805     14792     14795     14803     14806
     14793     14792     14795     14796     14793     14792     14795     14797
     14793     14792     14795     14803     14794     14792     14795     14796
     14794     14792     14795     14797     14794     14792     14795     14803
     14795     14797     14798     14799     14795     14797     14798     14800
     14795     14803     14806     14807     14796     14795     14797     14798
     14796     14795     14803     14804     14796     14795     14803     14805
     14796     14795     14803     14806     14797     14795     14803     14804
     14797     14795     14803     14805     14797     14795     14803     14806
     14797     14798     14800     14801     14797     14798     14800     14802
     14797     14798     14800     14812     14798     14797     14795     14803
     14798     14800     14812     14813     14798     14800     14812     14814
     14798     14800     14812     14815     14799     14798     14800     14801
     14799     14798     14800     14802     14799     14798     14800     14812
     14800     14812     14815     14816     14800     14812     14815     14817
     14800     14812     14815     14818     14801     14800     14812     14813
     14801     14800     14812     14814     14801     14800     14812     14815
     14802     14800     14812     14813     14802     14800     14812     14814
     14802     14800     14812     14815     14803     14806     14807     14808
     14803     14806     14807     14809     14804     14803     14806     14807
     14805     14803     14806     14807     14806     14807     14809     14810
     14806     14807     14809     14811     14806     14807     14809     14856
     14807     14809     14856     14857     14807     14809     14856     14858
     14807     14809     14856     14859     14808     14807     14809     14810
     14808     14807     14809     14811     14808     14807     14809     14856
     14809     14856     14859     14860     14809     14856     14859     14861
     14809     14856     14859     14862     14810     14809     14856     14857
     14810     14809     14856     14858     14810     14809     14856     14859
     14811     14809     14856     14857     14811     14809     14856     14858
     14811     14809     14856     14859     14812     14815     14818     14819
     14812     14815     14818     14820     14812     14815     14818     14821
     14813     14812     14815     14816     14813     14812     14815     14817
     14813     14812     14815     14818     14814     14812     14815     14816
     14814     14812     14815     14817     14814     14812     14815     14818
     14815     14818     14821     14822     14815     14818     14821     14823
     14815     14818     14821     14824     14816     14815     14818     14819
     14816     14815     14818     14820     14816     14815     14818     14821
     14817     14815     14818     14819     14817     14815     14818     14820
     14817     14815     14818     14821     14818     14821     14824     14825
     14818     14821     14824     14826     14818     14821     14824     14827
     14819     14818     14821     14822     14819     14818     14821     14823
     14819     14818     14821     14824     14820     14818     14821     14822
     14820     14818     14821     14823     14820     14818     14821     14824
     14821     14824     14827     14828     14821     14824     14827     14829
     14821     14824     14827     14830     14822     14821     14824     14825
     14822     14821     14824     14826     14822     14821     14824     14827
     14823     14821     14824     14825     14823     14821     14824     14826
     14823     14821     14824     14827     14824     14827     14830     14831
     14824     14827     14830     14832     14824     14827     14830     14835
     14825     14824     14827     14828     14825     14824     14827     14829
     14825     14824     14827     14830     14826     14824     14827     14828
     14826     14824     14827     14829     14826     14824     14827     14830
     14827     14830     14832     14833     14827     14830     14832     14834
     14827     14830     14832     14835     14827     14830     14835     14832
     14827     14830     14835     14836     14827     14830     14835     14837
     14828     14827     14830     14831     14828     14827     14830     14832
     14828     14827     14830     14835     14829     14827     14830     14831
     14829     14827     14830     14832     14829     14827     14830     14835
     14830     14832     14835     14836     14830     14832     14835     14837
     14830     14835     14832     14833     14830     14835     14832     14834
     14830     14835     14837     14838     14830     14835     14837     14839
     14830     14835     14837     14840     14831     14830     14832     14833
     14831     14830     14832     14834     14831     14830     14832     14835
     14831     14830     14835     14832     14831     14830     14835     14836
     14831     14830     14835     14837     14832     14830     14835     14836
     14832     14830     14835     14837     14832     14835     14837     14838
     14832     14835     14837     14839     14832     14835     14837     14840
     14833     14832     14830     14835     14833     14832     14835     14836
     14833     14832     14835     14837     14834     14832     14830     14835
     14834     14832     14835     14836     14834     14832     14835     14837
     14835     14837     14840     14841     14835     14837     14840     14842
     14835     14837     14840     14843     14836     14835     14837     14838
     14836     14835     14837     14839     14836     14835     14837     14840
     14837     14840     14843     14844     14837     14840     14843     14845
     14837     14840     14843     14846     14838     14837     14840     14841
     14838     14837     14840     14842     14838     14837     14840     14843
     14839     14837     14840     14841     14839     14837     14840     14842
     14839     14837     14840     14843     14840     14843     14846     14847
     14840     14843     14846     14848     14840     14843     14846     14849
     14841     14840     14843     14844     14841     14840     14843     14845
     14841     14840     14843     14846     14842     14840     14843     14844
     14842     14840     14843     14845     14842     14840     14843     14846
     14843     14846     14849     14850     14843     14846     14849     14851
     14843     14846     14849     14852     14844     14843     14846     14847
     14844     14843     14846     14848     14844     14843     14846     14849
     14845     14843     14846     14847     14845     14843     14846     14848
     14845     14843     14846     14849     14846     14849     14852     14853
     14846     14849     14852     14854     14846     14849     14852     14855
     14847     14846     14849     14850     14847     14846     14849     14851
     14847     14846     14849     14852     14848     14846     14849     14850
     14848     14846     14849     14851     14848     14846     14849     14852
     14850     14849     14852     14853     14850     14849     14852     14854
     14850     14849     14852     14855     14851     14849     14852     14853
     14851     14849     14852     14854     14851     14849     14852     14855
     14856     14859     14862     14863     14856     14859     14862     14864
     14856     14859     14862     14865     14857     14856     14859     14860
     14857     14856     14859     14861     14857     14856     14859     14862
     14858     14856     14859     14860     14858     14856     14859     14861
     14858     14856     14859     14862     14859     14862     14865     14866
     14859     14862     14865     14867     14859     14862     14865     14868
     14860     14859     14862     14863     14860     14859     14862     14864
     14860     14859     14862     14865     14861     14859     14862     14863
     14861     14859     14862     14864     14861     14859     14862     14865
     14862     14865     14868     14869     14862     14865     14868     14870
     14862     14865     14868     14871     14863     14862     14865     14866
     14863     14862     14865     14867     14863     14862     14865     14868
     14864     14862     14865     14866     14864     14862     14865     14867
     14864     14862     14865     14868     14865     14868     14871     14872
     14865     14868     14871     14873     14865     14868     14871     14874
     14866     14865     14868     14869     14866     14865     14868     14870
     14866     14865     14868     14871     14867     14865     14868     14869
     14867     14865     14868     14870     14867     14865     14868     14871
     14868     14871     14874     14875     14868     14871     14874     14876
     14868     14871     14874     14877     14869     14868     14871     14872
     14869     14868     14871     14873     14869     14868     14871     14874
     14870     14868     14871     14872     14870     14868     14871     14873
     14870     14868     14871     14874     14871     14874     14877     14878
     14871     14874     14877     14879     14871     14874     14877     14880
     14872     14871     14874     14875     14872     14871     14874     14876
     14872     14871     14874     14877     14873     14871     14874     14875
     14873     14871     14874     14876     14873     14871     14874     14877
     14874     14877     14880     14881     14874     14877     14880     14882
     14874     14877     14880     14883     14875     14874     14877     14878
     14875     14874     14877     14879     14875     14874     14877     14880
     14876     14874     14877     14878     14876     14874     14877     14879
     14876     14874     14877     14880     14877     14880     14883     14884
     14877     14880     14883     14885     14877     14880     14883     14886
     14878     14877     14880     14881     14878     14877     14880     14882
     14878     14877     14880     14883     14879     14877     14880     14881
     14879     14877     14880     14882     14879     14877     14880     14883
     14880     14883     14886     14887     14880     14883     14886     14888
     14880     14883     14886     14889     14881     14880     14883     14884
     14881     14880     14883     14885     14881     14880     14883     14886
     14882     14880     14883     14884     14882     14880     14883     14885
     14882     14880     14883     14886     14883     14886     14889     14890
     14883     14886     14889     14891     14883     14886     14889     14892
     14884     14883     14886     14887     14884     14883     14886     14888
     14884     14883     14886     14889     14885     14883     14886     14887
     14885     14883     14886     14888     14885     14883     14886     14889
     14886     14889     14892     14893     14886     14889     14892     14894
     14886     14889     14892     14895     14887     14886     14889     14890
     14887     14886     14889     14891     14887     14886     14889     14892
     14888     14886     14889     14890     14888     14886     14889     14891
     14888     14886     14889     14892     14889     14892     14895     14896
     14889     14892     14895     14897     14889     14892     14895     14898
     14890     14889     14892     14893     14890     14889     14892     14894
     14890     14889     14892     14895     14891     14889     14892     14893
     14891     14889     14892     14894     14891     14889     14892     14895
     14893     14892     14895     14896     14893     14892     14895     14897
     14893     14892     14895     14898     14894     14892     14895     14896
     14894     14892     14895     14897     14894     14892     14895     14898
     14899     14903     14906     14907     14899     14903     14906     14908
     14899     14903     14906     14913     14900     14899     14903     14904
     14900     14899     14903     14905     14900     14899     14903     14906
     14901     14899     14903     14904     14901     14899     14903     14905
     14901     14899     14903     14906     14902     14899     14903     14904
     14902     14899     14903     14905     14902     14899     14903     14906
     14903     14906     14913     14909     14904     14903     14906     14907
     14904     14903     14906     14908     14904     14903     14906     14913
     14905     14903     14906     14907     14905     14903     14906     14908
     14905     14903     14906     14913     14906     14913     14909     14910
     14906     14913     14909     14911     14906     14913     14909     14912
     14907     14906     14913     14909     14908     14906     14913     14909
     14909     14912     14914     14915     14909     14912     14914     14916
     14909     14912     14914     14917     14910     14909     14912     14914
     14911     14909     14912     14914     14912     14914     14917     14918
     14912     14914     14917     14919     14912     14914     14917     14925
     14913     14909     14912     14914     14914     14917     14919     14920
     14914     14917     14925     14926     14914     14917     14925     14927
     14914     14917     14925     14928     14915     14914     14917     14918
     14915     14914     14917     14919     14915     14914     14917     14925
     14916     14914     14917     14918     14916     14914     14917     14919
     14916     14914     14917     14925     14917     14919     14920     14921
     14917     14919     14920     14922     14917     14925     14928     14929
     14918     14917     14919     14920     14918     14917     14925     14926
     14918     14917     14925     14927     14918     14917     14925     14928
     14919     14917     14925     14926     14919     14917     14925     14927
     14919     14917     14925     14928     14919     14920     14922     14923
     14919     14920     14922     14924     14919     14920     14922     14934
     14920     14919     14917     14925     14920     14922     14934     14935
     14920     14922     14934     14936     14920     14922     14934     14937
     14921     14920     14922     14923     14921     14920     14922     14924
     14921     14920     14922     14934     14922     14934     14937     14938
     14922     14934     14937     14939     14922     14934     14937     14940
     14923     14922     14934     14935     14923     14922     14934     14936
     14923     14922     14934     14937     14924     14922     14934     14935
     14924     14922     14934     14936     14924     14922     14934     14937
     14925     14928     14929     14930     14925     14928     14929     14931
     14926     14925     14928     14929     14927     14925     14928     14929
     14928     14929     14931     14932     14928     14929     14931     14933
     14928     14929     14931     14978     14929     14931     14978     14979
     14929     14931     14978     14980     14929     14931     14978     14981
     14930     14929     14931     14932     14930     14929     14931     14933
     14930     14929     14931     14978     14931     14978     14981     14982
     14931     14978     14981     14983     14931     14978     14981     14984
     14932     14931     14978     14979     14932     14931     14978     14980
     14932     14931     14978     14981     14933     14931     14978     14979
     14933     14931     14978     14980     14933     14931     14978     14981
     14934     14937     14940     14941     14934     14937     14940     14942
     14934     14937     14940     14943     14935     14934     14937     14938
     14935     14934     14937     14939     14935     14934     14937     14940
     14936     14934     14937     14938     14936     14934     14937     14939
     14936     14934     14937     14940     14937     14940     14943     14944
     14937     14940     14943     14945     14937     14940     14943     14946
     14938     14937     14940     14941     14938     14937     14940     14942
     14938     14937     14940     14943     14939     14937     14940     14941
     14939     14937     14940     14942     14939     14937     14940     14943
     14940     14943     14946     14947     14940     14943     14946     14948
     14940     14943     14946     14949     14941     14940     14943     14944
     14941     14940     14943     14945     14941     14940     14943     14946
     14942     14940     14943     14944     14942     14940     14943     14945
     14942     14940     14943     14946     14943     14946     14949     14950
     14943     14946     14949     14951     14943     14946     14949     14952
     14944     14943     14946     14947     14944     14943     14946     14948
     14944     14943     14946     14949     14945     14943     14946     14947
     14945     14943     14946     14948     14945     14943     14946     14949
     14946     14949     14952     14953     14946     14949     14952     14954
     14946     14949     14952     14957     14947     14946     14949     14950
     14947     14946     14949     14951     14947     14946     14949     14952
     14948     14946     14949     14950     14948     14946     14949     14951
     14948     14946     14949     14952     14949     14952     14954     14955
     14949     14952     14954     14956     14949     14952     14954     14957
     14949     14952     14957     14954     14949     14952     14957     14958
     14949     14952     14957     14959     14950     14949     14952     14953
     14950     14949     14952     14954     14950     14949     14952     14957
     14951     14949     14952     14953     14951     14949     14952     14954
     14951     14949     14952     14957     14952     14954     14957     14958
     14952     14954     14957     14959     14952     14957     14954     14955
     14952     14957     14954     14956     14952     14957     14959     14960
     14952     14957     14959     14961     14952     14957     14959     14962
     14953     14952     14954     14955     14953     14952     14954     14956
     14953     14952     14954     14957     14953     14952     14957     14954
     14953     14952     14957     14958     14953     14952     14957     14959
     14954     14952     14957     14958     14954     14952     14957     14959
     14954     14957     14959     14960     14954     14957     14959     14961
     14954     14957     14959     14962     14955     14954     14952     14957
     14955     14954     14957     14958     14955     14954     14957     14959
     14956     14954     14952     14957     14956     14954     14957     14958
     14956     14954     14957     14959     14957     14959     14962     14963
     14957     14959     14962     14964     14957     14959     14962     14965
     14958     14957     14959     14960     14958     14957     14959     14961
     14958     14957     14959     14962     14959     14962     14965     14966
     14959     14962     14965     14967     14959     14962     14965     14968
     14960     14959     14962     14963     14960     14959     14962     14964
     14960     14959     14962     14965     14961     14959     14962     14963
     14961     14959     14962     14964     14961     14959     14962     14965
     14962     14965     14968     14969     14962     14965     14968     14970
     14962     14965     14968     14971     14963     14962     14965     14966
     14963     14962     14965     14967     14963     14962     14965     14968
     14964     14962     14965     14966     14964     14962     14965     14967
     14964     14962     14965     14968     14965     14968     14971     14972
     14965     14968     14971     14973     14965     14968     14971     14974
     14966     14965     14968     14969     14966     14965     14968     14970
     14966     14965     14968     14971     14967     14965     14968     14969
     14967     14965     14968     14970     14967     14965     14968     14971
     14968     14971     14974     14975     14968     14971     14974     14976
     14968     14971     14974     14977     14969     14968     14971     14972
     14969     14968     14971     14973     14969     14968     14971     14974
     14970     14968     14971     14972     14970     14968     14971     14973
     14970     14968     14971     14974     14972     14971     14974     14975
     14972     14971     14974     14976     14972     14971     14974     14977
     14973     14971     14974     14975     14973     14971     14974     14976
     14973     14971     14974     14977     14978     14981     14984     14985
     14978     14981     14984     14986     14978     14981     14984     14987
     14979     14978     14981     14982     14979     14978     14981     14983
     14979     14978     14981     14984     14980     14978     14981     14982
     14980     14978     14981     14983     14980     14978     14981     14984
     14981     14984     14987     14988     14981     14984     14987     14989
     14981     14984     14987     14990     14982     14981     14984     14985
     14982     14981     14984     14986     14982     14981     14984     14987
     14983     14981     14984     14985     14983     14981     14984     14986
     14983     14981     14984     14987     14984     14987     14990     14991
     14984     14987     14990     14992     14984     14987     14990     14993
     14985     14984     14987     14988     14985     14984     14987     14989
     14985     14984     14987     14990     14986     14984     14987     14988
     14986     14984     14987     14989     14986     14984     14987     14990
     14987     14990     14993     14994     14987     14990     14993     14995
     14987     14990     14993     14996     14988     14987     14990     14991
     14988     14987     14990     14992     14988     14987     14990     14993
     14989     14987     14990     14991     14989     14987     14990     14992
     14989     14987     14990     14993     14990     14993     14996     14997
     14990     14993     14996     14998     14990     14993     14996     14999
     14991     14990     14993     14994     14991     14990     14993     14995
     14991     14990     14993     14996     14992     14990     14993     14994
     14992     14990     14993     14995     14992     14990     14993     14996
     14993     14996     14999     15000     14993     14996     14999     15001
     14993     14996     14999     15002     14994     14993     14996     14997
     14994     14993     14996     14998     14994     14993     14996     14999
     14995     14993     14996     14997     14995     14993     14996     14998
     14995     14993     14996     14999     14996     14999     15002     15003
     14996     14999     15002     15004     14996     14999     15002     15005
     14997     14996     14999     15000     14997     14996     14999     15001
     14997     14996     14999     15002     14998     14996     14999     15000
     14998     14996     14999     15001     14998     14996     14999     15002
     14999     15002     15005     15006     14999     15002     15005     15007
     14999     15002     15005     15008     15000     14999     15002     15003
     15000     14999     15002     15004     15000     14999     15002     15005
     15001     14999     15002     15003     15001     14999     15002     15004
     15001     14999     15002     15005     15002     15005     15008     15009
     15002     15005     15008     15010     15002     15005     15008     15011
     15003     15002     15005     15006     15003     15002     15005     15007
     15003     15002     15005     15008     15004     15002     15005     15006
     15004     15002     15005     15007     15004     15002     15005     15008
     15005     15008     15011     15012     15005     15008     15011     15013
     15005     15008     15011     15014     15006     15005     15008     15009
     15006     15005     15008     15010     15006     15005     15008     15011
     15007     15005     15008     15009     15007     15005     15008     15010
     15007     15005     15008     15011     15008     15011     15014     15015
     15008     15011     15014     15016     15008     15011     15014     15017
     15009     15008     15011     15012     15009     15008     15011     15013
     15009     15008     15011     15014     15010     15008     15011     15012
     15010     15008     15011     15013     15010     15008     15011     15014
     15011     15014     15017     15018     15011     15014     15017     15019
     15011     15014     15017     15020     15012     15011     15014     15015
     15012     15011     15014     15016     15012     15011     15014     15017
     15013     15011     15014     15015     15013     15011     15014     15016
     15013     15011     15014     15017     15015     15014     15017     15018
     15015     15014     15017     15019     15015     15014     15017     15020
     15016     15014     15017     15018     15016     15014     15017     15019
     15016     15014     15017     15020     15021     15025     15028     15029
     15021     15025     15028     15030     15021     15025     15028     15035
     15022     15021     15025     15026     15022     15021     15025     15027
     15022     15021     15025     15028     15023     15021     15025     15026
     15023     15021     15025     15027     15023     15021     15025     15028
     15024     15021     15025     15026     15024     15021     15025     15027
     15024     15021     15025     15028     15025     15028     15035     15031
     15026     15025     15028     15029     15026     15025     15028     15030
     15026     15025     15028     15035     15027     15025     15028     15029
     15027     15025     15028     15030     15027     15025     15028     15035
     15028     15035     15031     15032     15028     15035     15031     15033
     15028     15035     15031     15034     15029     15028     15035     15031
     15030     15028     15035     15031     15031     15034     15036     15037
     15031     15034     15036     15038     15031     15034     15036     15039
     15032     15031     15034     15036     15033     15031     15034     15036
     15034     15036     15039     15040     15034     15036     15039     15041
     15034     15036     15039     15047     15035     15031     15034     15036
     15036     15039     15041     15042     15036     15039     15047     15048
     15036     15039     15047     15049     15036     15039     15047     15050
     15037     15036     15039     15040     15037     15036     15039     15041
     15037     15036     15039     15047     15038     15036     15039     15040
     15038     15036     15039     15041     15038     15036     15039     15047
     15039     15041     15042     15043     15039     15041     15042     15044
     15039     15047     15050     15051     15040     15039     15041     15042
     15040     15039     15047     15048     15040     15039     15047     15049
     15040     15039     15047     15050     15041     15039     15047     15048
     15041     15039     15047     15049     15041     15039     15047     15050
     15041     15042     15044     15045     15041     15042     15044     15046
     15041     15042     15044     15056     15042     15041     15039     15047
     15042     15044     15056     15057     15042     15044     15056     15058
     15042     15044     15056     15059     15043     15042     15044     15045
     15043     15042     15044     15046     15043     15042     15044     15056
     15044     15056     15059     15060     15044     15056     15059     15061
     15044     15056     15059     15062     15045     15044     15056     15057
     15045     15044     15056     15058     15045     15044     15056     15059
     15046     15044     15056     15057     15046     15044     15056     15058
     15046     15044     15056     15059     15047     15050     15051     15052
     15047     15050     15051     15053     15048     15047     15050     15051
     15049     15047     15050     15051     15050     15051     15053     15054
     15050     15051     15053     15055     15050     15051     15053     15100
     15051     15053     15100     15101     15051     15053     15100     15102
     15051     15053     15100     15103     15052     15051     15053     15054
     15052     15051     15053     15055     15052     15051     15053     15100
     15053     15100     15103     15104     15053     15100     15103     15105
     15053     15100     15103     15106     15054     15053     15100     15101
     15054     15053     15100     15102     15054     15053     15100     15103
     15055     15053     15100     15101     15055     15053     15100     15102
     15055     15053     15100     15103     15056     15059     15062     15063
     15056     15059     15062     15064     15056     15059     15062     15065
     15057     15056     15059     15060     15057     15056     15059     15061
     15057     15056     15059     15062     15058     15056     15059     15060
     15058     15056     15059     15061     15058     15056     15059     15062
     15059     15062     15065     15066     15059     15062     15065     15067
     15059     15062     15065     15068     15060     15059     15062     15063
     15060     15059     15062     15064     15060     15059     15062     15065
     15061     15059     15062     15063     15061     15059     15062     15064
     15061     15059     15062     15065     15062     15065     15068     15069
     15062     15065     15068     15070     15062     15065     15068     15071
     15063     15062     15065     15066     15063     15062     15065     15067
     15063     15062     15065     15068     15064     15062     15065     15066
     15064     15062     15065     15067     15064     15062     15065     15068
     15065     15068     15071     15072     15065     15068     15071     15073
     15065     15068     15071     15074     15066     15065     15068     15069
     15066     15065     15068     15070     15066     15065     15068     15071
     15067     15065     15068     15069     15067     15065     15068     15070
     15067     15065     15068     15071     15068     15071     15074     15075
     15068     15071     15074     15076     15068     15071     15074     15079
     15069     15068     15071     15072     15069     15068     15071     15073
     15069     15068     15071     15074     15070     15068     15071     15072
     15070     15068     15071     15073     15070     15068     15071     15074
     15071     15074     15076     15077     15071     15074     15076     15078
     15071     15074     15076     15079     15071     15074     15079     15076
     15071     15074     15079     15080     15071     15074     15079     15081
     15072     15071     15074     15075     15072     15071     15074     15076
     15072     15071     15074     15079     15073     15071     15074     15075
     15073     15071     15074     15076     15073     15071     15074     15079
     15074     15076     15079     15080     15074     15076     15079     15081
     15074     15079     15076     15077     15074     15079     15076     15078
     15074     15079     15081     15082     15074     15079     15081     15083
     15074     15079     15081     15084     15075     15074     15076     15077
     15075     15074     15076     15078     15075     15074     15076     15079
     15075     15074     15079     15076     15075     15074     15079     15080
     15075     15074     15079     15081     15076     15074     15079     15080
     15076     15074     15079     15081     15076     15079     15081     15082
     15076     15079     15081     15083     15076     15079     15081     15084
     15077     15076     15074     15079     15077     15076     15079     15080
     15077     15076     15079     15081     15078     15076     15074     15079
     15078     15076     15079     15080     15078     15076     15079     15081
     15079     15081     15084     15085     15079     15081     15084     15086
     15079     15081     15084     15087     15080     15079     15081     15082
     15080     15079     15081     15083     15080     15079     15081     15084
     15081     15084     15087     15088     15081     15084     15087     15089
     15081     15084     15087     15090     15082     15081     15084     15085
     15082     15081     15084     15086     15082     15081     15084     15087
     15083     15081     15084     15085     15083     15081     15084     15086
     15083     15081     15084     15087     15084     15087     15090     15091
     15084     15087     15090     15092     15084     15087     15090     15093
     15085     15084     15087     15088     15085     15084     15087     15089
     15085     15084     15087     15090     15086     15084     15087     15088
     15086     15084     15087     15089     15086     15084     15087     15090
     15087     15090     15093     15094     15087     15090     15093     15095
     15087     15090     15093     15096     15088     15087     15090     15091
     15088     15087     15090     15092     15088     15087     15090     15093
     15089     15087     15090     15091     15089     15087     15090     15092
     15089     15087     15090     15093     15090     15093     15096     15097
     15090     15093     15096     15098     15090     15093     15096     15099
     15091     15090     15093     15094     15091     15090     15093     15095
     15091     15090     15093     15096     15092     15090     15093     15094
     15092     15090     15093     15095     15092     15090     15093     15096
     15094     15093     15096     15097     15094     15093     15096     15098
     15094     15093     15096     15099     15095     15093     15096     15097
     15095     15093     15096     15098     15095     15093     15096     15099
     15100     15103     15106     15107     15100     15103     15106     15108
     15100     15103     15106     15109     15101     15100     15103     15104
     15101     15100     15103     15105     15101     15100     15103     15106
     15102     15100     15103     15104     15102     15100     15103     15105
     15102     15100     15103     15106     15103     15106     15109     15110
     15103     15106     15109     15111     15103     15106     15109     15112
     15104     15103     15106     15107     15104     15103     15106     15108
     15104     15103     15106     15109     15105     15103     15106     15107
     15105     15103     15106     15108     15105     15103     15106     15109
     15106     15109     15112     15113     15106     15109     15112     15114
     15106     15109     15112     15115     15107     15106     15109     15110
     15107     15106     15109     15111     15107     15106     15109     15112
     15108     15106     15109     15110     15108     15106     15109     15111
     15108     15106     15109     15112     15109     15112     15115     15116
     15109     15112     15115     15117     15109     15112     15115     15118
     15110     15109     15112     15113     15110     15109     15112     15114
     15110     15109     15112     15115     15111     15109     15112     15113
     15111     15109     15112     15114     15111     15109     15112     15115
     15112     15115     15118     15119     15112     15115     15118     15120
     15112     15115     15118     15121     15113     15112     15115     15116
     15113     15112     15115     15117     15113     15112     15115     15118
     15114     15112     15115     15116     15114     15112     15115     15117
     15114     15112     15115     15118     15115     15118     15121     15122
     15115     15118     15121     15123     15115     15118     15121     15124
     15116     15115     15118     15119     15116     15115     15118     15120
     15116     15115     15118     15121     15117     15115     15118     15119
     15117     15115     15118     15120     15117     15115     15118     15121
     15118     15121     15124     15125     15118     15121     15124     15126
     15118     15121     15124     15127     15119     15118     15121     15122
     15119     15118     15121     15123     15119     15118     15121     15124
     15120     15118     15121     15122     15120     15118     15121     15123
     15120     15118     15121     15124     15121     15124     15127     15128
     15121     15124     15127     15129     15121     15124     15127     15130
     15122     15121     15124     15125     15122     15121     15124     15126
     15122     15121     15124     15127     15123     15121     15124     15125
     15123     15121     15124     15126     15123     15121     15124     15127
     15124     15127     15130     15131     15124     15127     15130     15132
     15124     15127     15130     15133     15125     15124     15127     15128
     15125     15124     15127     15129     15125     15124     15127     15130
     15126     15124     15127     15128     15126     15124     15127     15129
     15126     15124     15127     15130     15127     15130     15133     15134
     15127     15130     15133     15135     15127     15130     15133     15136
     15128     15127     15130     15131     15128     15127     15130     15132
     15128     15127     15130     15133     15129     15127     15130     15131
     15129     15127     15130     15132     15129     15127     15130     15133
     15130     15133     15136     15137     15130     15133     15136     15138
     15130     15133     15136     15139     15131     15130     15133     15134
     15131     15130     15133     15135     15131     15130     15133     15136
     15132     15130     15133     15134     15132     15130     15133     15135
     15132     15130     15133     15136     15133     15136     15139     15140
     15133     15136     15139     15141     15133     15136     15139     15142
     15134     15133     15136     15137     15134     15133     15136     15138
     15134     15133     15136     15139     15135     15133     15136     15137
     15135     15133     15136     15138     15135     15133     15136     15139
     15137     15136     15139     15140     15137     15136     15139     15141
     15137     15136     15139     15142     15138     15136     15139     15140
     15138     15136     15139     15141     15138     15136     15139     15142
     15143     15147     15150     15151     15143     15147     15150     15152
     15143     15147     15150     15157     15144     15143     15147     15148
     15144     15143     15147     15149     15144     15143     15147     15150
     15145     15143     15147     15148     15145     15143     15147     15149
     15145     15143     15147     15150     15146     15143     15147     15148
     15146     15143     15147     15149     15146     15143     15147     15150
     15147     15150     15157     15153     15148     15147     15150     15151
     15148     15147     15150     15152     15148     15147     15150     15157
     15149     15147     15150     15151     15149     15147     15150     15152
     15149     15147     15150     15157     15150     15157     15153     15154
     15150     15157     15153     15155     15150     15157     15153     15156
     15151     15150     15157     15153     15152     15150     15157     15153
     15153     15156     15158     15159     15153     15156     15158     15160
     15153     15156     15158     15161     15154     15153     15156     15158
     15155     15153     15156     15158     15156     15158     15161     15162
     15156     15158     15161     15163     15156     15158     15161     15169
     15157     15153     15156     15158     15158     15161     15163     15164
     15158     15161     15169     15170     15158     15161     15169     15171
     15158     15161     15169     15172     15159     15158     15161     15162
     15159     15158     15161     15163     15159     15158     15161     15169
     15160     15158     15161     15162     15160     15158     15161     15163
     15160     15158     15161     15169     15161     15163     15164     15165
     15161     15163     15164     15166     15161     15169     15172     15173
     15162     15161     15163     15164     15162     15161     15169     15170
     15162     15161     15169     15171     15162     15161     15169     15172
     15163     15161     15169     15170     15163     15161     15169     15171
     15163     15161     15169     15172     15163     15164     15166     15167
     15163     15164     15166     15168     15163     15164     15166     15178
     15164     15163     15161     15169     15164     15166     15178     15179
     15164     15166     15178     15180     15164     15166     15178     15181
     15165     15164     15166     15167     15165     15164     15166     15168
     15165     15164     15166     15178     15166     15178     15181     15182
     15166     15178     15181     15183     15166     15178     15181     15184
     15167     15166     15178     15179     15167     15166     15178     15180
     15167     15166     15178     15181     15168     15166     15178     15179
     15168     15166     15178     15180     15168     15166     15178     15181
     15169     15172     15173     15174     15169     15172     15173     15175
     15170     15169     15172     15173     15171     15169     15172     15173
     15172     15173     15175     15176     15172     15173     15175     15177
     15172     15173     15175     15225     15173     15175     15225     15226
     15173     15175     15225     15227     15173     15175     15225     15228
     15174     15173     15175     15176     15174     15173     15175     15177
     15174     15173     15175     15225     15175     15225     15228     15229
     15175     15225     15228     15230     15175     15225     15228     15231
     15176     15175     15225     15226     15176     15175     15225     15227
     15176     15175     15225     15228     15177     15175     15225     15226
     15177     15175     15225     15227     15177     15175     15225     15228
     15178     15181     15184     15185     15178     15181     15184     15186
     15178     15181     15184     15187     15179     15178     15181     15182
     15179     15178     15181     15183     15179     15178     15181     15184
     15180     15178     15181     15182     15180     15178     15181     15183
     15180     15178     15181     15184     15181     15184     15187     15188
     15181     15184     15187     15189     15181     15184     15187     15190
     15182     15181     15184     15185     15182     15181     15184     15186
     15182     15181     15184     15187     15183     15181     15184     15185
     15183     15181     15184     15186     15183     15181     15184     15187
     15184     15187     15190     15191     15184     15187     15190     15192
     15184     15187     15190     15193     15185     15184     15187     15188
     15185     15184     15187     15189     15185     15184     15187     15190
     15186     15184     15187     15188     15186     15184     15187     15189
     15186     15184     15187     15190     15187     15190     15193     15194
     15187     15190     15193     15195     15187     15190     15193     15196
     15188     15187     15190     15191     15188     15187     15190     15192
     15188     15187     15190     15193     15189     15187     15190     15191
     15189     15187     15190     15192     15189     15187     15190     15193
     15190     15193     15196     15197     15190     15193     15196     15198
     15191     15190     15193     15194     15191     15190     15193     15195
     15191     15190     15193     15196     15192     15190     15193     15194
     15192     15190     15193     15195     15192     15190     15193     15196
     15193     15196     15198     15199     15193     15196     15198     15200
     15194     15193     15196     15197     15194     15193     15196     15198
     15195     15193     15196     15197     15195     15193     15196     15198
     15196     15198     15200     15201     15196     15198     15200     15202
     15196     15198     15200     15203     15197     15196     15198     15199
     15197     15196     15198     15200     15198     15200     15203     15204
     15198     15200     15203     15205     15198     15200     15203     15206
     15199     15198     15200     15201     15199     15198     15200     15202
     15199     15198     15200     15203     15200     15203     15206     15207
     15200     15203     15206     15208     15200     15203     15206     15209
     15201     15200     15203     15204     15201     15200     15203     15205
     15201     15200     15203     15206     15202     15200     15203     15204
     15202     15200     15203     15205     15202     15200     15203     15206
     15203     15206     15209     15210     15203     15206     15209     15211
     15203     15206     15209     15212     15204     15203     15206     15207
     15204     15203     15206     15208     15204     15203     15206     15209
     15205     15203     15206     15207     15205     15203     15206     15208
     15205     15203     15206     15209     15206     15209     15212     15213
     15206     15209     15212     15214     15206     15209     15212     15215
     15207     15206     15209     15210     15207     15206     15209     15211
     15207     15206     15209     15212     15208     15206     15209     15210
     15208     15206     15209     15211     15208     15206     15209     15212
     15209     15212     15215     15216     15209     15212     15215     15217
     15209     15212     15215     15218     15210     15209     15212     15213
     15210     15209     15212     15214     15210     15209     15212     15215
     15211     15209     15212     15213     15211     15209     15212     15214
     15211     15209     15212     15215     15212     15215     15218     15219
     15212     15215     15218     15220     15212     15215     15218     15221
     15213     15212     15215     15216     15213     15212     15215     15217
     15213     15212     15215     15218     15214     15212     15215     15216
     15214     15212     15215     15217     15214     15212     15215     15218
     15215     15218     15221     15222     15215     15218     15221     15223
     15215     15218     15221     15224     15216     15215     15218     15219
     15216     15215     15218     15220     15216     15215     15218     15221
     15217     15215     15218     15219     15217     15215     15218     15220
     15217     15215     15218     15221     15219     15218     15221     15222
     15219     15218     15221     15223     15219     15218     15221     15224
     15220     15218     15221     15222     15220     15218     15221     15223
     15220     15218     15221     15224     15225     15228     15231     15232
     15225     15228     15231     15233     15225     15228     15231     15234
     15226     15225     15228     15229     15226     15225     15228     15230
     15226     15225     15228     15231     15227     15225     15228     15229
     15227     15225     15228     15230     15227     15225     15228     15231
     15228     15231     15234     15235     15228     15231     15234     15236
     15228     15231     15234     15237     15229     15228     15231     15232
     15229     15228     15231     15233     15229     15228     15231     15234
     15230     15228     15231     15232     15230     15228     15231     15233
     15230     15228     15231     15234     15231     15234     15237     15238
     15231     15234     15237     15239     15231     15234     15237     15240
     15232     15231     15234     15235     15232     15231     15234     15236
     15232     15231     15234     15237     15233     15231     15234     15235
     15233     15231     15234     15236     15233     15231     15234     15237
     15234     15237     15240     15241     15234     15237     15240     15242
     15234     15237     15240     15243     15235     15234     15237     15238
     15235     15234     15237     15239     15235     15234     15237     15240
     15236     15234     15237     15238     15236     15234     15237     15239
     15236     15234     15237     15240     15237     15240     15243     15244
     15237     15240     15243     15245     15237     15240     15243     15246
     15238     15237     15240     15241     15238     15237     15240     15242
     15238     15237     15240     15243     15239     15237     15240     15241
     15239     15237     15240     15242     15239     15237     15240     15243
     15240     15243     15246     15247     15240     15243     15246     15248
     15240     15243     15246     15249     15241     15240     15243     15244
     15241     15240     15243     15245     15241     15240     15243     15246
     15242     15240     15243     15244     15242     15240     15243     15245
     15242     15240     15243     15246     15243     15246     15249     15250
     15243     15246     15249     15251     15243     15246     15249     15252
     15244     15243     15246     15247     15244     15243     15246     15248
     15244     15243     15246     15249     15245     15243     15246     15247
     15245     15243     15246     15248     15245     15243     15246     15249
     15246     15249     15252     15253     15246     15249     15252     15254
     15246     15249     15252     15255     15247     15246     15249     15250
     15247     15246     15249     15251     15247     15246     15249     15252
     15248     15246     15249     15250     15248     15246     15249     15251
     15248     15246     15249     15252     15249     15252     15255     15256
     15249     15252     15255     15257     15249     15252     15255     15258
     15250     15249     15252     15253     15250     15249     15252     15254
     15250     15249     15252     15255     15251     15249     15252     15253
     15251     15249     15252     15254     15251     15249     15252     15255
     15252     15255     15258     15259     15252     15255     15258     15260
     15252     15255     15258     15261     15253     15252     15255     15256
     15253     15252     15255     15257     15253     15252     15255     15258
     15254     15252     15255     15256     15254     15252     15255     15257
     15254     15252     15255     15258     15255     15258     15261     15262
     15255     15258     15261     15263     15255     15258     15261     15264
     15256     15255     15258     15259     15256     15255     15258     15260
     15256     15255     15258     15261     15257     15255     15258     15259
     15257     15255     15258     15260     15257     15255     15258     15261
     15258     15261     15264     15265     15258     15261     15264     15266
     15258     15261     15264     15267     15259     15258     15261     15262
     15259     15258     15261     15263     15259     15258     15261     15264
     15260     15258     15261     15262     15260     15258     15261     15263
     15260     15258     15261     15264     15262     15261     15264     15265
     15262     15261     15264     15266     15262     15261     15264     15267
     15263     15261     15264     15265     15263     15261     15264     15266
     15263     15261     15264     15267     15268     15272     15275     15276
     15268     15272     15275     15277     15268     15272     15275     15282
     15269     15268     15272     15273     15269     15268     15272     15274
     15269     15268     15272     15275     15270     15268     15272     15273
     15270     15268     15272     15274     15270     15268     15272     15275
     15271     15268     15272     15273     15271     15268     15272     15274
     15271     15268     15272     15275     15272     15275     15282     15278
     15273     15272     15275     15276     15273     15272     15275     15277
     15273     15272     15275     15282     15274     15272     15275     15276
     15274     15272     15275     15277     15274     15272     15275     15282
     15275     15282     15278     15279     15275     15282     15278     15280
     15275     15282     15278     15281     15276     15275     15282     15278
     15277     15275     15282     15278     15278     15281     15283     15284
     15278     15281     15283     15285     15278     15281     15283     15286
     15279     15278     15281     15283     15280     15278     15281     15283
     15281     15283     15286     15287     15281     15283     15286     15288
     15281     15283     15286     15294     15282     15278     15281     15283
     15283     15286     15288     15289     15283     15286     15294     15295
     15283     15286     15294     15296     15283     15286     15294     15297
     15284     15283     15286     15287     15284     15283     15286     15288
     15284     15283     15286     15294     15285     15283     15286     15287
     15285     15283     15286     15288     15285     15283     15286     15294
     15286     15288     15289     15290     15286     15288     15289     15291
     15286     15294     15297     15298     15287     15286     15288     15289
     15287     15286     15294     15295     15287     15286     15294     15296
     15287     15286     15294     15297     15288     15286     15294     15295
     15288     15286     15294     15296     15288     15286     15294     15297
     15288     15289     15291     15292     15288     15289     15291     15293
     15288     15289     15291     15303     15289     15288     15286     15294
     15289     15291     15303     15304     15289     15291     15303     15305
     15289     15291     15303     15306     15290     15289     15291     15292
     15290     15289     15291     15293     15290     15289     15291     15303
     15291     15303     15306     15307     15291     15303     15306     15308
     15291     15303     15306     15309     15292     15291     15303     15304
     15292     15291     15303     15305     15292     15291     15303     15306
     15293     15291     15303     15304     15293     15291     15303     15305
     15293     15291     15303     15306     15294     15297     15298     15299
     15294     15297     15298     15300     15295     15294     15297     15298
     15296     15294     15297     15298     15297     15298     15300     15301
     15297     15298     15300     15302     15297     15298     15300     15347
     15298     15300     15347     15348     15298     15300     15347     15349
     15298     15300     15347     15350     15299     15298     15300     15301
     15299     15298     15300     15302     15299     15298     15300     15347
     15300     15347     15350     15351     15300     15347     15350     15352
     15300     15347     15350     15353     15301     15300     15347     15348
     15301     15300     15347     15349     15301     15300     15347     15350
     15302     15300     15347     15348     15302     15300     15347     15349
     15302     15300     15347     15350     15303     15306     15309     15310
     15303     15306     15309     15311     15303     15306     15309     15312
     15304     15303     15306     15307     15304     15303     15306     15308
     15304     15303     15306     15309     15305     15303     15306     15307
     15305     15303     15306     15308     15305     15303     15306     15309
     15306     15309     15312     15313     15306     15309     15312     15314
     15306     15309     15312     15315     15307     15306     15309     15310
     15307     15306     15309     15311     15307     15306     15309     15312
     15308     15306     15309     15310     15308     15306     15309     15311
     15308     15306     15309     15312     15309     15312     15315     15316
     15309     15312     15315     15317     15309     15312     15315     15318
     15310     15309     15312     15313     15310     15309     15312     15314
     15310     15309     15312     15315     15311     15309     15312     15313
     15311     15309     15312     15314     15311     15309     15312     15315
     15312     15315     15318     15319     15312     15315     15318     15320
     15312     15315     15318     15321     15313     15312     15315     15316
     15313     15312     15315     15317     15313     15312     15315     15318
     15314     15312     15315     15316     15314     15312     15315     15317
     15314     15312     15315     15318     15315     15318     15321     15322
     15315     15318     15321     15323     15315     15318     15321     15326
     15316     15315     15318     15319     15316     15315     15318     15320
     15316     15315     15318     15321     15317     15315     15318     15319
     15317     15315     15318     15320     15317     15315     15318     15321
     15318     15321     15323     15324     15318     15321     15323     15325
     15318     15321     15323     15326     15318     15321     15326     15323
     15318     15321     15326     15327     15318     15321     15326     15328
     15319     15318     15321     15322     15319     15318     15321     15323
     15319     15318     15321     15326     15320     15318     15321     15322
     15320     15318     15321     15323     15320     15318     15321     15326
     15321     15323     15326     15327     15321     15323     15326     15328
     15321     15326     15323     15324     15321     15326     15323     15325
     15321     15326     15328     15329     15321     15326     15328     15330
     15321     15326     15328     15331     15322     15321     15323     15324
     15322     15321     15323     15325     15322     15321     15323     15326
     15322     15321     15326     15323     15322     15321     15326     15327
     15322     15321     15326     15328     15323     15321     15326     15327
     15323     15321     15326     15328     15323     15326     15328     15329
     15323     15326     15328     15330     15323     15326     15328     15331
     15324     15323     15321     15326     15324     15323     15326     15327
     15324     15323     15326     15328     15325     15323     15321     15326
     15325     15323     15326     15327     15325     15323     15326     15328
     15326     15328     15331     15332     15326     15328     15331     15333
     15326     15328     15331     15334     15327     15326     15328     15329
     15327     15326     15328     15330     15327     15326     15328     15331
     15328     15331     15334     15335     15328     15331     15334     15336
     15328     15331     15334     15337     15329     15328     15331     15332
     15329     15328     15331     15333     15329     15328     15331     15334
     15330     15328     15331     15332     15330     15328     15331     15333
     15330     15328     15331     15334     15331     15334     15337     15338
     15331     15334     15337     15339     15331     15334     15337     15340
     15332     15331     15334     15335     15332     15331     15334     15336
     15332     15331     15334     15337     15333     15331     15334     15335
     15333     15331     15334     15336     15333     15331     15334     15337
     15334     15337     15340     15341     15334     15337     15340     15342
     15334     15337     15340     15343     15335     15334     15337     15338
     15335     15334     15337     15339     15335     15334     15337     15340
     15336     15334     15337     15338     15336     15334     15337     15339
     15336     15334     15337     15340     15337     15340     15343     15344
     15337     15340     15343     15345     15337     15340     15343     15346
     15338     15337     15340     15341     15338     15337     15340     15342
     15338     15337     15340     15343     15339     15337     15340     15341
     15339     15337     15340     15342     15339     15337     15340     15343
     15341     15340     15343     15344     15341     15340     15343     15345
     15341     15340     15343     15346     15342     15340     15343     15344
     15342     15340     15343     15345     15342     15340     15343     15346
     15347     15350     15353     15354     15347     15350     15353     15355
     15347     15350     15353     15356     15348     15347     15350     15351
     15348     15347     15350     15352     15348     15347     15350     15353
     15349     15347     15350     15351     15349     15347     15350     15352
     15349     15347     15350     15353     15350     15353     15356     15357
     15350     15353     15356     15358     15350     15353     15356     15359
     15351     15350     15353     15354     15351     15350     15353     15355
     15351     15350     15353     15356     15352     15350     15353     15354
     15352     15350     15353     15355     15352     15350     15353     15356
     15353     15356     15359     15360     15353     15356     15359     15361
     15353     15356     15359     15362     15354     15353     15356     15357
     15354     15353     15356     15358     15354     15353     15356     15359
     15355     15353     15356     15357     15355     15353     15356     15358
     15355     15353     15356     15359     15356     15359     15362     15363
     15356     15359     15362     15364     15356     15359     15362     15365
     15357     15356     15359     15360     15357     15356     15359     15361
     15357     15356     15359     15362     15358     15356     15359     15360
     15358     15356     15359     15361     15358     15356     15359     15362
     15359     15362     15365     15366     15359     15362     15365     15367
     15359     15362     15365     15368     15360     15359     15362     15363
     15360     15359     15362     15364     15360     15359     15362     15365
     15361     15359     15362     15363     15361     15359     15362     15364
     15361     15359     15362     15365     15362     15365     15368     15369
     15362     15365     15368     15370     15362     15365     15368     15371
     15363     15362     15365     15366     15363     15362     15365     15367
     15363     15362     15365     15368     15364     15362     15365     15366
     15364     15362     15365     15367     15364     15362     15365     15368
     15365     15368     15371     15372     15365     15368     15371     15373
     15365     15368     15371     15374     15366     15365     15368     15369
     15366     15365     15368     15370     15366     15365     15368     15371
     15367     15365     15368     15369     15367     15365     15368     15370
     15367     15365     15368     15371     15368     15371     15374     15375
     15368     15371     15374     15376     15368     15371     15374     15377
     15369     15368     15371     15372     15369     15368     15371     15373
     15369     15368     15371     15374     15370     15368     15371     15372
     15370     15368     15371     15373     15370     15368     15371     15374
     15371     15374     15377     15378     15371     15374     15377     15379
     15371     15374     15377     15380     15372     15371     15374     15375
     15372     15371     15374     15376     15372     15371     15374     15377
     15373     15371     15374     15375     15373     15371     15374     15376
     15373     15371     15374     15377     15374     15377     15380     15381
     15374     15377     15380     15382     15374     15377     15380     15383
     15375     15374     15377     15378     15375     15374     15377     15379
     15375     15374     15377     15380     15376     15374     15377     15378
     15376     15374     15377     15379     15376     15374     15377     15380
     15377     15380     15383     15384     15377     15380     15383     15385
     15377     15380     15383     15386     15378     15377     15380     15381
     15378     15377     15380     15382     15378     15377     15380     15383
     15379     15377     15380     15381     15379     15377     15380     15382
     15379     15377     15380     15383     15380     15383     15386     15387
     15380     15383     15386     15388     15380     15383     15386     15389
     15381     15380     15383     15384     15381     15380     15383     15385
     15381     15380     15383     15386     15382     15380     15383     15384
     15382     15380     15383     15385     15382     15380     15383     15386
     15384     15383     15386     15387     15384     15383     15386     15388
     15384     15383     15386     15389     15385     15383     15386     15387
     15385     15383     15386     15388     15385     15383     15386     15389
     15390     15394     15397     15398     15390     15394     15397     15399
     15390     15394     15397     15404     15391     15390     15394     15395
     15391     15390     15394     15396     15391     15390     15394     15397
     15392     15390     15394     15395     15392     15390     15394     15396
     15392     15390     15394     15397     15393     15390     15394     15395
     15393     15390     15394     15396     15393     15390     15394     15397
     15394     15397     15404     15400     15395     15394     15397     15398
     15395     15394     15397     15399     15395     15394     15397     15404
     15396     15394     15397     15398     15396     15394     15397     15399
     15396     15394     15397     15404     15397     15404     15400     15401
     15397     15404     15400     15402     15397     15404     15400     15403
     15398     15397     15404     15400     15399     15397     15404     15400
     15400     15403     15405     15406     15400     15403     15405     15407
     15400     15403     15405     15408     15401     15400     15403     15405
     15402     15400     15403     15405     15403     15405     15408     15409
     15403     15405     15408     15410     15403     15405     15408     15416
     15404     15400     15403     15405     15405     15408     15410     15411
     15405     15408     15416     15417     15405     15408     15416     15418
     15405     15408     15416     15419     15406     15405     15408     15409
     15406     15405     15408     15410     15406     15405     15408     15416
     15407     15405     15408     15409     15407     15405     15408     15410
     15407     15405     15408     15416     15408     15410     15411     15412
     15408     15410     15411     15413     15408     15416     15419     15420
     15409     15408     15410     15411     15409     15408     15416     15417
     15409     15408     15416     15418     15409     15408     15416     15419
     15410     15408     15416     15417     15410     15408     15416     15418
     15410     15408     15416     15419     15410     15411     15413     15414
     15410     15411     15413     15415     15410     15411     15413     15425
     15411     15410     15408     15416     15411     15413     15425     15426
     15411     15413     15425     15427     15411     15413     15425     15428
     15412     15411     15413     15414     15412     15411     15413     15415
     15412     15411     15413     15425     15413     15425     15428     15429
     15413     15425     15428     15430     15413     15425     15428     15431
     15414     15413     15425     15426     15414     15413     15425     15427
     15414     15413     15425     15428     15415     15413     15425     15426
     15415     15413     15425     15427     15415     15413     15425     15428
     15416     15419     15420     15421     15416     15419     15420     15422
     15417     15416     15419     15420     15418     15416     15419     15420
     15419     15420     15422     15423     15419     15420     15422     15424
     15419     15420     15422     15469     15420     15422     15469     15470
     15420     15422     15469     15471     15420     15422     15469     15472
     15421     15420     15422     15423     15421     15420     15422     15424
     15421     15420     15422     15469     15422     15469     15472     15473
     15422     15469     15472     15474     15422     15469     15472     15475
     15423     15422     15469     15470     15423     15422     15469     15471
     15423     15422     15469     15472     15424     15422     15469     15470
     15424     15422     15469     15471     15424     15422     15469     15472
     15425     15428     15431     15432     15425     15428     15431     15433
     15425     15428     15431     15434     15426     15425     15428     15429
     15426     15425     15428     15430     15426     15425     15428     15431
     15427     15425     15428     15429     15427     15425     15428     15430
     15427     15425     15428     15431     15428     15431     15434     15435
     15428     15431     15434     15436     15428     15431     15434     15437
     15429     15428     15431     15432     15429     15428     15431     15433
     15429     15428     15431     15434     15430     15428     15431     15432
     15430     15428     15431     15433     15430     15428     15431     15434
     15431     15434     15437     15438     15431     15434     15437     15439
     15431     15434     15437     15440     15432     15431     15434     15435
     15432     15431     15434     15436     15432     15431     15434     15437
     15433     15431     15434     15435     15433     15431     15434     15436
     15433     15431     15434     15437     15434     15437     15440     15441
     15434     15437     15440     15442     15434     15437     15440     15443
     15435     15434     15437     15438     15435     15434     15437     15439
     15435     15434     15437     15440     15436     15434     15437     15438
     15436     15434     15437     15439     15436     15434     15437     15440
     15437     15440     15443     15444     15437     15440     15443     15445
     15437     15440     15443     15448     15438     15437     15440     15441
     15438     15437     15440     15442     15438     15437     15440     15443
     15439     15437     15440     15441     15439     15437     15440     15442
     15439     15437     15440     15443     15440     15443     15445     15446
     15440     15443     15445     15447     15440     15443     15445     15448
     15440     15443     15448     15445     15440     15443     15448     15449
     15440     15443     15448     15450     15441     15440     15443     15444
     15441     15440     15443     15445     15441     15440     15443     15448
     15442     15440     15443     15444     15442     15440     15443     15445
     15442     15440     15443     15448     15443     15445     15448     15449
     15443     15445     15448     15450     15443     15448     15445     15446
     15443     15448     15445     15447     15443     15448     15450     15451
     15443     15448     15450     15452     15443     15448     15450     15453
     15444     15443     15445     15446     15444     15443     15445     15447
     15444     15443     15445     15448     15444     15443     15448     15445
     15444     15443     15448     15449     15444     15443     15448     15450
     15445     15443     15448     15449     15445     15443     15448     15450
     15445     15448     15450     15451     15445     15448     15450     15452
     15445     15448     15450     15453     15446     15445     15443     15448
     15446     15445     15448     15449     15446     15445     15448     15450
     15447     15445     15443     15448     15447     15445     15448     15449
     15447     15445     15448     15450     15448     15450     15453     15454
     15448     15450     15453     15455     15448     15450     15453     15456
     15449     15448     15450     15451     15449     15448     15450     15452
     15449     15448     15450     15453     15450     15453     15456     15457
     15450     15453     15456     15458     15450     15453     15456     15459
     15451     15450     15453     15454     15451     15450     15453     15455
     15451     15450     15453     15456     15452     15450     15453     15454
     15452     15450     15453     15455     15452     15450     15453     15456
     15453     15456     15459     15460     15453     15456     15459     15461
     15453     15456     15459     15462     15454     15453     15456     15457
     15454     15453     15456     15458     15454     15453     15456     15459
     15455     15453     15456     15457     15455     15453     15456     15458
     15455     15453     15456     15459     15456     15459     15462     15463
     15456     15459     15462     15464     15456     15459     15462     15465
     15457     15456     15459     15460     15457     15456     15459     15461
     15457     15456     15459     15462     15458     15456     15459     15460
     15458     15456     15459     15461     15458     15456     15459     15462
     15459     15462     15465     15466     15459     15462     15465     15467
     15459     15462     15465     15468     15460     15459     15462     15463
     15460     15459     15462     15464     15460     15459     15462     15465
     15461     15459     15462     15463     15461     15459     15462     15464
     15461     15459     15462     15465     15463     15462     15465     15466
     15463     15462     15465     15467     15463     15462     15465     15468
     15464     15462     15465     15466     15464     15462     15465     15467
     15464     15462     15465     15468     15469     15472     15475     15476
     15469     15472     15475     15477     15469     15472     15475     15478
     15470     15469     15472     15473     15470     15469     15472     15474
     15470     15469     15472     15475     15471     15469     15472     15473
     15471     15469     15472     15474     15471     15469     15472     15475
     15472     15475     15478     15479     15472     15475     15478     15480
     15472     15475     15478     15481     15473     15472     15475     15476
     15473     15472     15475     15477     15473     15472     15475     15478
     15474     15472     15475     15476     15474     15472     15475     15477
     15474     15472     15475     15478     15475     15478     15481     15482
     15475     15478     15481     15483     15475     15478     15481     15484
     15476     15475     15478     15479     15476     15475     15478     15480
     15476     15475     15478     15481     15477     15475     15478     15479
     15477     15475     15478     15480     15477     15475     15478     15481
     15478     15481     15484     15485     15478     15481     15484     15486
     15478     15481     15484     15487     15479     15478     15481     15482
     15479     15478     15481     15483     15479     15478     15481     15484
     15480     15478     15481     15482     15480     15478     15481     15483
     15480     15478     15481     15484     15481     15484     15487     15488
     15481     15484     15487     15489     15481     15484     15487     15490
     15482     15481     15484     15485     15482     15481     15484     15486
     15482     15481     15484     15487     15483     15481     15484     15485
     15483     15481     15484     15486     15483     15481     15484     15487
     15484     15487     15490     15491     15484     15487     15490     15492
     15484     15487     15490     15493     15485     15484     15487     15488
     15485     15484     15487     15489     15485     15484     15487     15490
     15486     15484     15487     15488     15486     15484     15487     15489
     15486     15484     15487     15490     15487     15490     15493     15494
     15487     15490     15493     15495     15487     15490     15493     15496
     15488     15487     15490     15491     15488     15487     15490     15492
     15488     15487     15490     15493     15489     15487     15490     15491
     15489     15487     15490     15492     15489     15487     15490     15493
     15490     15493     15496     15497     15490     15493     15496     15498
     15490     15493     15496     15499     15491     15490     15493     15494
     15491     15490     15493     15495     15491     15490     15493     15496
     15492     15490     15493     15494     15492     15490     15493     15495
     15492     15490     15493     15496     15493     15496     15499     15500
     15493     15496     15499     15501     15493     15496     15499     15502
     15494     15493     15496     15497     15494     15493     15496     15498
     15494     15493     15496     15499     15495     15493     15496     15497
     15495     15493     15496     15498     15495     15493     15496     15499
     15496     15499     15502     15503     15496     15499     15502     15504
     15496     15499     15502     15505     15497     15496     15499     15500
     15497     15496     15499     15501     15497     15496     15499     15502
     15498     15496     15499     15500     15498     15496     15499     15501
     15498     15496     15499     15502     15499     15502     15505     15506
     15499     15502     15505     15507     15499     15502     15505     15508
     15500     15499     15502     15503     15500     15499     15502     15504
     15500     15499     15502     15505     15501     15499     15502     15503
     15501     15499     15502     15504     15501     15499     15502     15505
     15502     15505     15508     15509     15502     15505     15508     15510
     15502     15505     15508     15511     15503     15502     15505     15506
     15503     15502     15505     15507     15503     15502     15505     15508
     15504     15502     15505     15506     15504     15502     15505     15507
     15504     15502     15505     15508     15506     15505     15508     15509
     15506     15505     15508     15510     15506     15505     15508     15511
     15507     15505     15508     15509     15507     15505     15508     15510
     15507     15505     15508     15511     15512     15517     15519     15520
     15512     15517     15521     15522     15512     15517     15521     15523
     15512     15517     15521     15528     15513     15512     15515     15516
     15513     15512     15517     15518     15513     15512     15517     15519
     15513     15512     15517     15521     15514     15512     15515     15516
     15514     15512     15517     15518     15514     15512     15517     15519
     15514     15512     15517     15521     15515     15512     15517     15518
     15515     15512     15517     15519     15515     15512     15517     15521
     15516     15515     15512     15517     15517     15521     15528     15524
     15518     15517     15519     15520     15518     15517     15521     15522
     15518     15517     15521     15523     15518     15517     15521     15528
     15519     15517     15521     15522     15519     15517     15521     15523
     15519     15517     15521     15528     15520     15519     15517     15521
     15521     15528     15524     15525     15521     15528     15524     15526
     15521     15528     15524     15527     15522     15521     15528     15524
     15523     15521     15528     15524     15524     15527     15529     15530
     15524     15527     15529     15531     15524     15527     15529     15532
     15525     15524     15527     15529     15526     15524     15527     15529
     15527     15529     15532     15533     15527     15529     15532     15534
     15527     15529     15532     15540     15528     15524     15527     15529
     15529     15532     15534     15535     15529     15532     15540     15541
     15529     15532     15540     15542     15529     15532     15540     15543
     15530     15529     15532     15533     15530     15529     15532     15534
     15530     15529     15532     15540     15531     15529     15532     15533
     15531     15529     15532     15534     15531     15529     15532     15540
     15532     15534     15535     15536     15532     15534     15535     15537
     15532     15540     15543     15544     15533     15532     15534     15535
     15533     15532     15540     15541     15533     15532     15540     15542
     15533     15532     15540     15543     15534     15532     15540     15541
     15534     15532     15540     15542     15534     15532     15540     15543
     15534     15535     15537     15538     15534     15535     15537     15539
     15534     15535     15537     15549     15535     15534     15532     15540
     15535     15537     15549     15550     15535     15537     15549     15551
     15535     15537     15549     15552     15536     15535     15537     15538
     15536     15535     15537     15539     15536     15535     15537     15549
     15537     15549     15552     15553     15537     15549     15552     15554
     15537     15549     15552     15555     15538     15537     15549     15550
     15538     15537     15549     15551     15538     15537     15549     15552
     15539     15537     15549     15550     15539     15537     15549     15551
     15539     15537     15549     15552     15540     15543     15544     15545
     15540     15543     15544     15546     15541     15540     15543     15544
     15542     15540     15543     15544     15543     15544     15546     15547
     15543     15544     15546     15548     15543     15544     15546     15593
     15544     15546     15593     15594     15544     15546     15593     15595
     15544     15546     15593     15596     15545     15544     15546     15547
     15545     15544     15546     15548     15545     15544     15546     15593
     15546     15593     15596     15597     15546     15593     15596     15598
     15546     15593     15596     15599     15547     15546     15593     15594
     15547     15546     15593     15595     15547     15546     15593     15596
     15548     15546     15593     15594     15548     15546     15593     15595
     15548     15546     15593     15596     15549     15552     15555     15556
     15549     15552     15555     15557     15549     15552     15555     15558
     15550     15549     15552     15553     15550     15549     15552     15554
     15550     15549     15552     15555     15551     15549     15552     15553
     15551     15549     15552     15554     15551     15549     15552     15555
     15552     15555     15558     15559     15552     15555     15558     15560
     15552     15555     15558     15561     15553     15552     15555     15556
     15553     15552     15555     15557     15553     15552     15555     15558
     15554     15552     15555     15556     15554     15552     15555     15557
     15554     15552     15555     15558     15555     15558     15561     15562
     15555     15558     15561     15563     15555     15558     15561     15564
     15556     15555     15558     15559     15556     15555     15558     15560
     15556     15555     15558     15561     15557     15555     15558     15559
     15557     15555     15558     15560     15557     15555     15558     15561
     15558     15561     15564     15565     15558     15561     15564     15566
     15558     15561     15564     15567     15559     15558     15561     15562
     15559     15558     15561     15563     15559     15558     15561     15564
     15560     15558     15561     15562     15560     15558     15561     15563
     15560     15558     15561     15564     15561     15564     15567     15568
     15561     15564     15567     15569     15561     15564     15567     15572
     15562     15561     15564     15565     15562     15561     15564     15566
     15562     15561     15564     15567     15563     15561     15564     15565
     15563     15561     15564     15566     15563     15561     15564     15567
     15564     15567     15569     15570     15564     15567     15569     15571
     15564     15567     15569     15572     15564     15567     15572     15569
     15564     15567     15572     15573     15564     15567     15572     15574
     15565     15564     15567     15568     15565     15564     15567     15569
     15565     15564     15567     15572     15566     15564     15567     15568
     15566     15564     15567     15569     15566     15564     15567     15572
     15567     15569     15572     15573     15567     15569     15572     15574
     15567     15572     15569     15570     15567     15572     15569     15571
     15567     15572     15574     15575     15567     15572     15574     15576
     15567     15572     15574     15577     15568     15567     15569     15570
     15568     15567     15569     15571     15568     15567     15569     15572
     15568     15567     15572     15569     15568     15567     15572     15573
     15568     15567     15572     15574     15569     15567     15572     15573
     15569     15567     15572     15574     15569     15572     15574     15575
     15569     15572     15574     15576     15569     15572     15574     15577
     15570     15569     15567     15572     15570     15569     15572     15573
     15570     15569     15572     15574     15571     15569     15567     15572
     15571     15569     15572     15573     15571     15569     15572     15574
     15572     15574     15577     15578     15572     15574     15577     15579
     15572     15574     15577     15580     15573     15572     15574     15575
     15573     15572     15574     15576     15573     15572     15574     15577
     15574     15577     15580     15581     15574     15577     15580     15582
     15574     15577     15580     15583     15575     15574     15577     15578
     15575     15574     15577     15579     15575     15574     15577     15580
     15576     15574     15577     15578     15576     15574     15577     15579
     15576     15574     15577     15580     15577     15580     15583     15584
     15577     15580     15583     15585     15577     15580     15583     15586
     15578     15577     15580     15581     15578     15577     15580     15582
     15578     15577     15580     15583     15579     15577     15580     15581
     15579     15577     15580     15582     15579     15577     15580     15583
     15580     15583     15586     15587     15580     15583     15586     15588
     15580     15583     15586     15589     15581     15580     15583     15584
     15581     15580     15583     15585     15581     15580     15583     15586
     15582     15580     15583     15584     15582     15580     15583     15585
     15582     15580     15583     15586     15583     15586     15589     15590
     15583     15586     15589     15591     15583     15586     15589     15592
     15584     15583     15586     15587     15584     15583     15586     15588
     15584     15583     15586     15589     15585     15583     15586     15587
     15585     15583     15586     15588     15585     15583     15586     15589
     15587     15586     15589     15590     15587     15586     15589     15591
     15587     15586     15589     15592     15588     15586     15589     15590
     15588     15586     15589     15591     15588     15586     15589     15592
     15593     15596     15599     15600     15593     15596     15599     15601
     15593     15596     15599     15602     15594     15593     15596     15597
     15594     15593     15596     15598     15594     15593     15596     15599
     15595     15593     15596     15597     15595     15593     15596     15598
     15595     15593     15596     15599     15596     15599     15602     15603
     15596     15599     15602     15604     15596     15599     15602     15605
     15597     15596     15599     15600     15597     15596     15599     15601
     15597     15596     15599     15602     15598     15596     15599     15600
     15598     15596     15599     15601     15598     15596     15599     15602
     15599     15602     15605     15606     15599     15602     15605     15607
     15599     15602     15605     15608     15600     15599     15602     15603
     15600     15599     15602     15604     15600     15599     15602     15605
     15601     15599     15602     15603     15601     15599     15602     15604
     15601     15599     15602     15605     15602     15605     15608     15609
     15602     15605     15608     15610     15602     15605     15608     15611
     15603     15602     15605     15606     15603     15602     15605     15607
     15603     15602     15605     15608     15604     15602     15605     15606
     15604     15602     15605     15607     15604     15602     15605     15608
     15605     15608     15611     15612     15605     15608     15611     15613
     15605     15608     15611     15614     15606     15605     15608     15609
     15606     15605     15608     15610     15606     15605     15608     15611
     15607     15605     15608     15609     15607     15605     15608     15610
     15607     15605     15608     15611     15608     15611     15614     15615
     15608     15611     15614     15616     15608     15611     15614     15617
     15609     15608     15611     15612     15609     15608     15611     15613
     15609     15608     15611     15614     15610     15608     15611     15612
     15610     15608     15611     15613     15610     15608     15611     15614
     15611     15614     15617     15618     15611     15614     15617     15619
     15611     15614     15617     15620     15612     15611     15614     15615
     15612     15611     15614     15616     15612     15611     15614     15617
     15613     15611     15614     15615     15613     15611     15614     15616
     15613     15611     15614     15617     15614     15617     15620     15621
     15614     15617     15620     15622     15614     15617     15620     15623
     15615     15614     15617     15618     15615     15614     15617     15619
     15615     15614     15617     15620     15616     15614     15617     15618
     15616     15614     15617     15619     15616     15614     15617     15620
     15617     15620     15623     15624     15617     15620     15623     15625
     15617     15620     15623     15626     15618     15617     15620     15621
     15618     15617     15620     15622     15618     15617     15620     15623
     15619     15617     15620     15621     15619     15617     15620     15622
     15619     15617     15620     15623     15620     15623     15626     15627
     15620     15623     15626     15628     15620     15623     15626     15629
     15621     15620     15623     15624     15621     15620     15623     15625
     15621     15620     15623     15626     15622     15620     15623     15624
     15622     15620     15623     15625     15622     15620     15623     15626
     15623     15626     15629     15630     15623     15626     15629     15631
     15623     15626     15629     15632     15624     15623     15626     15627
     15624     15623     15626     15628     15624     15623     15626     15629
     15625     15623     15626     15627     15625     15623     15626     15628
     15625     15623     15626     15629     15626     15629     15632     15633
     15626     15629     15632     15634     15626     15629     15632     15635
     15627     15626     15629     15630     15627     15626     15629     15631
     15627     15626     15629     15632     15628     15626     15629     15630
     15628     15626     15629     15631     15628     15626     15629     15632
     15630     15629     15632     15633     15630     15629     15632     15634
     15630     15629     15632     15635     15631     15629     15632     15633
     15631     15629     15632     15634     15631     15629     15632     15635
     15636     15640     15643     15644     15636     15640     15643     15645
     15636     15640     15643     15650     15637     15636     15640     15641
     15637     15636     15640     15642     15637     15636     15640     15643
     15638     15636     15640     15641     15638     15636     15640     15642
     15638     15636     15640     15643     15639     15636     15640     15641
     15639     15636     15640     15642     15639     15636     15640     15643
     15640     15643     15650     15646     15641     15640     15643     15644
     15641     15640     15643     15645     15641     15640     15643     15650
     15642     15640     15643     15644     15642     15640     15643     15645
     15642     15640     15643     15650     15643     15650     15646     15647
     15643     15650     15646     15648     15643     15650     15646     15649
     15644     15643     15650     15646     15645     15643     15650     15646
     15646     15649     15651     15652     15646     15649     15651     15653
     15646     15649     15651     15654     15647     15646     15649     15651
     15648     15646     15649     15651     15649     15651     15654     15655
     15649     15651     15654     15656     15649     15651     15654     15662
     15650     15646     15649     15651     15651     15654     15656     15657
     15651     15654     15662     15663     15651     15654     15662     15664
     15651     15654     15662     15665     15652     15651     15654     15655
     15652     15651     15654     15656     15652     15651     15654     15662
     15653     15651     15654     15655     15653     15651     15654     15656
     15653     15651     15654     15662     15654     15656     15657     15658
     15654     15656     15657     15659     15654     15662     15665     15666
     15655     15654     15656     15657     15655     15654     15662     15663
     15655     15654     15662     15664     15655     15654     15662     15665
     15656     15654     15662     15663     15656     15654     15662     15664
     15656     15654     15662     15665     15656     15657     15659     15660
     15656     15657     15659     15661     15656     15657     15659     15671
     15657     15656     15654     15662     15657     15659     15671     15672
     15657     15659     15671     15673     15657     15659     15671     15674
     15658     15657     15659     15660     15658     15657     15659     15661
     15658     15657     15659     15671     15659     15671     15674     15675
     15659     15671     15674     15676     15659     15671     15674     15677
     15660     15659     15671     15672     15660     15659     15671     15673
     15660     15659     15671     15674     15661     15659     15671     15672
     15661     15659     15671     15673     15661     15659     15671     15674
     15662     15665     15666     15667     15662     15665     15666     15668
     15663     15662     15665     15666     15664     15662     15665     15666
     15665     15666     15668     15669     15665     15666     15668     15670
     15665     15666     15668     15715     15666     15668     15715     15716
     15666     15668     15715     15717     15666     15668     15715     15718
     15667     15666     15668     15669     15667     15666     15668     15670
     15667     15666     15668     15715     15668     15715     15718     15719
     15668     15715     15718     15720     15668     15715     15718     15721
     15669     15668     15715     15716     15669     15668     15715     15717
     15669     15668     15715     15718     15670     15668     15715     15716
     15670     15668     15715     15717     15670     15668     15715     15718
     15671     15674     15677     15678     15671     15674     15677     15679
     15671     15674     15677     15680     15672     15671     15674     15675
     15672     15671     15674     15676     15672     15671     15674     15677
     15673     15671     15674     15675     15673     15671     15674     15676
     15673     15671     15674     15677     15674     15677     15680     15681
     15674     15677     15680     15682     15674     15677     15680     15683
     15675     15674     15677     15678     15675     15674     15677     15679
     15675     15674     15677     15680     15676     15674     15677     15678
     15676     15674     15677     15679     15676     15674     15677     15680
     15677     15680     15683     15684     15677     15680     15683     15685
     15677     15680     15683     15686     15678     15677     15680     15681
     15678     15677     15680     15682     15678     15677     15680     15683
     15679     15677     15680     15681     15679     15677     15680     15682
     15679     15677     15680     15683     15680     15683     15686     15687
     15680     15683     15686     15688     15680     15683     15686     15689
     15681     15680     15683     15684     15681     15680     15683     15685
     15681     15680     15683     15686     15682     15680     15683     15684
     15682     15680     15683     15685     15682     15680     15683     15686
     15683     15686     15689     15690     15683     15686     15689     15691
     15683     15686     15689     15694     15684     15683     15686     15687
     15684     15683     15686     15688     15684     15683     15686     15689
     15685     15683     15686     15687     15685     15683     15686     15688
     15685     15683     15686     15689     15686     15689     15691     15692
     15686     15689     15691     15693     15686     15689     15691     15694
     15686     15689     15694     15691     15686     15689     15694     15695
     15686     15689     15694     15696     15687     15686     15689     15690
     15687     15686     15689     15691     15687     15686     15689     15694
     15688     15686     15689     15690     15688     15686     15689     15691
     15688     15686     15689     15694     15689     15691     15694     15695
     15689     15691     15694     15696     15689     15694     15691     15692
     15689     15694     15691     15693     15689     15694     15696     15697
     15689     15694     15696     15698     15689     15694     15696     15699
     15690     15689     15691     15692     15690     15689     15691     15693
     15690     15689     15691     15694     15690     15689     15694     15691
     15690     15689     15694     15695     15690     15689     15694     15696
     15691     15689     15694     15695     15691     15689     15694     15696
     15691     15694     15696     15697     15691     15694     15696     15698
     15691     15694     15696     15699     15692     15691     15689     15694
     15692     15691     15694     15695     15692     15691     15694     15696
     15693     15691     15689     15694     15693     15691     15694     15695
     15693     15691     15694     15696     15694     15696     15699     15700
     15694     15696     15699     15701     15694     15696     15699     15702
     15695     15694     15696     15697     15695     15694     15696     15698
     15695     15694     15696     15699     15696     15699     15702     15703
     15696     15699     15702     15704     15696     15699     15702     15705
     15697     15696     15699     15700     15697     15696     15699     15701
     15697     15696     15699     15702     15698     15696     15699     15700
     15698     15696     15699     15701     15698     15696     15699     15702
     15699     15702     15705     15706     15699     15702     15705     15707
     15699     15702     15705     15708     15700     15699     15702     15703
     15700     15699     15702     15704     15700     15699     15702     15705
     15701     15699     15702     15703     15701     15699     15702     15704
     15701     15699     15702     15705     15702     15705     15708     15709
     15702     15705     15708     15710     15702     15705     15708     15711
     15703     15702     15705     15706     15703     15702     15705     15707
     15703     15702     15705     15708     15704     15702     15705     15706
     15704     15702     15705     15707     15704     15702     15705     15708
     15705     15708     15711     15712     15705     15708     15711     15713
     15705     15708     15711     15714     15706     15705     15708     15709
     15706     15705     15708     15710     15706     15705     15708     15711
     15707     15705     15708     15709     15707     15705     15708     15710
     15707     15705     15708     15711     15709     15708     15711     15712
     15709     15708     15711     15713     15709     15708     15711     15714
     15710     15708     15711     15712     15710     15708     15711     15713
     15710     15708     15711     15714     15715     15718     15721     15722
     15715     15718     15721     15723     15715     15718     15721     15724
     15716     15715     15718     15719     15716     15715     15718     15720
     15716     15715     15718     15721     15717     15715     15718     15719
     15717     15715     15718     15720     15717     15715     15718     15721
     15718     15721     15724     15725     15718     15721     15724     15726
     15718     15721     15724     15727     15719     15718     15721     15722
     15719     15718     15721     15723     15719     15718     15721     15724
     15720     15718     15721     15722     15720     15718     15721     15723
     15720     15718     15721     15724     15721     15724     15727     15728
     15721     15724     15727     15729     15721     15724     15727     15730
     15722     15721     15724     15725     15722     15721     15724     15726
     15722     15721     15724     15727     15723     15721     15724     15725
     15723     15721     15724     15726     15723     15721     15724     15727
     15724     15727     15730     15731     15724     15727     15730     15732
     15724     15727     15730     15733     15725     15724     15727     15728
     15725     15724     15727     15729     15725     15724     15727     15730
     15726     15724     15727     15728     15726     15724     15727     15729
     15726     15724     15727     15730     15727     15730     15733     15734
     15727     15730     15733     15735     15727     15730     15733     15736
     15728     15727     15730     15731     15728     15727     15730     15732
     15728     15727     15730     15733     15729     15727     15730     15731
     15729     15727     15730     15732     15729     15727     15730     15733
     15730     15733     15736     15737     15730     15733     15736     15738
     15730     15733     15736     15739     15731     15730     15733     15734
     15731     15730     15733     15735     15731     15730     15733     15736
     15732     15730     15733     15734     15732     15730     15733     15735
     15732     15730     15733     15736     15733     15736     15739     15740
     15733     15736     15739     15741     15733     15736     15739     15742
     15734     15733     15736     15737     15734     15733     15736     15738
     15734     15733     15736     15739     15735     15733     15736     15737
     15735     15733     15736     15738     15735     15733     15736     15739
     15736     15739     15742     15743     15736     15739     15742     15744
     15736     15739     15742     15745     15737     15736     15739     15740
     15737     15736     15739     15741     15737     15736     15739     15742
     15738     15736     15739     15740     15738     15736     15739     15741
     15738     15736     15739     15742     15739     15742     15745     15746
     15739     15742     15745     15747     15739     15742     15745     15748
     15740     15739     15742     15743     15740     15739     15742     15744
     15740     15739     15742     15745     15741     15739     15742     15743
     15741     15739     15742     15744     15741     15739     15742     15745
     15742     15745     15748     15749     15742     15745     15748     15750
     15742     15745     15748     15751     15743     15742     15745     15746
     15743     15742     15745     15747     15743     15742     15745     15748
     15744     15742     15745     15746     15744     15742     15745     15747
     15744     15742     15745     15748     15745     15748     15751     15752
     15745     15748     15751     15753     15745     15748     15751     15754
     15746     15745     15748     15749     15746     15745     15748     15750
     15746     15745     15748     15751     15747     15745     15748     15749
     15747     15745     15748     15750     15747     15745     15748     15751
     15748     15751     15754     15755     15748     15751     15754     15756
     15748     15751     15754     15757     15749     15748     15751     15752
     15749     15748     15751     15753     15749     15748     15751     15754
     15750     15748     15751     15752     15750     15748     15751     15753
     15750     15748     15751     15754     15752     15751     15754     15755
     15752     15751     15754     15756     15752     15751     15754     15757
     15753     15751     15754     15755     15753     15751     15754     15756
     15753     15751     15754     15757     15758     15762     15765     15766
     15758     15762     15765     15767     15758     15762     15765     15772
     15759     15758     15762     15763     15759     15758     15762     15764
     15759     15758     15762     15765     15760     15758     15762     15763
     15760     15758     15762     15764     15760     15758     15762     15765
     15761     15758     15762     15763     15761     15758     15762     15764
     15761     15758     15762     15765     15762     15765     15772     15768
     15763     15762     15765     15766     15763     15762     15765     15767
     15763     15762     15765     15772     15764     15762     15765     15766
     15764     15762     15765     15767     15764     15762     15765     15772
     15765     15772     15768     15769     15765     15772     15768     15770
     15765     15772     15768     15771     15766     15765     15772     15768
     15767     15765     15772     15768     15768     15771     15773     15774
     15768     15771     15773     15775     15768     15771     15773     15776
     15769     15768     15771     15773     15770     15768     15771     15773
     15771     15773     15776     15777     15771     15773     15776     15778
     15771     15773     15776     15784     15772     15768     15771     15773
     15773     15776     15778     15779     15773     15776     15784     15785
     15773     15776     15784     15786     15773     15776     15784     15787
     15774     15773     15776     15777     15774     15773     15776     15778
     15774     15773     15776     15784     15775     15773     15776     15777
     15775     15773     15776     15778     15775     15773     15776     15784
     15776     15778     15779     15780     15776     15778     15779     15781
     15776     15784     15787     15788     15777     15776     15778     15779
     15777     15776     15784     15785     15777     15776     15784     15786
     15777     15776     15784     15787     15778     15776     15784     15785
     15778     15776     15784     15786     15778     15776     15784     15787
     15778     15779     15781     15782     15778     15779     15781     15783
     15778     15779     15781     15793     15779     15778     15776     15784
     15779     15781     15793     15794     15779     15781     15793     15795
     15779     15781     15793     15796     15780     15779     15781     15782
     15780     15779     15781     15783     15780     15779     15781     15793
     15781     15793     15796     15797     15781     15793     15796     15798
     15781     15793     15796     15799     15782     15781     15793     15794
     15782     15781     15793     15795     15782     15781     15793     15796
     15783     15781     15793     15794     15783     15781     15793     15795
     15783     15781     15793     15796     15784     15787     15788     15789
     15784     15787     15788     15790     15785     15784     15787     15788
     15786     15784     15787     15788     15787     15788     15790     15791
     15787     15788     15790     15792     15787     15788     15790     15837
     15788     15790     15837     15838     15788     15790     15837     15839
     15788     15790     15837     15840     15789     15788     15790     15791
     15789     15788     15790     15792     15789     15788     15790     15837
     15790     15837     15840     15841     15790     15837     15840     15842
     15790     15837     15840     15843     15791     15790     15837     15838
     15791     15790     15837     15839     15791     15790     15837     15840
     15792     15790     15837     15838     15792     15790     15837     15839
     15792     15790     15837     15840     15793     15796     15799     15800
     15793     15796     15799     15801     15793     15796     15799     15802
     15794     15793     15796     15797     15794     15793     15796     15798
     15794     15793     15796     15799     15795     15793     15796     15797
     15795     15793     15796     15798     15795     15793     15796     15799
     15796     15799     15802     15803     15796     15799     15802     15804
     15796     15799     15802     15805     15797     15796     15799     15800
     15797     15796     15799     15801     15797     15796     15799     15802
     15798     15796     15799     15800     15798     15796     15799     15801
     15798     15796     15799     15802     15799     15802     15805     15806
     15799     15802     15805     15807     15799     15802     15805     15808
     15800     15799     15802     15803     15800     15799     15802     15804
     15800     15799     15802     15805     15801     15799     15802     15803
     15801     15799     15802     15804     15801     15799     15802     15805
     15802     15805     15808     15809     15802     15805     15808     15810
     15802     15805     15808     15811     15803     15802     15805     15806
     15803     15802     15805     15807     15803     15802     15805     15808
     15804     15802     15805     15806     15804     15802     15805     15807
     15804     15802     15805     15808     15805     15808     15811     15812
     15805     15808     15811     15813     15805     15808     15811     15816
     15806     15805     15808     15809     15806     15805     15808     15810
     15806     15805     15808     15811     15807     15805     15808     15809
     15807     15805     15808     15810     15807     15805     15808     15811
     15808     15811     15813     15814     15808     15811     15813     15815
     15808     15811     15813     15816     15808     15811     15816     15813
     15808     15811     15816     15817     15808     15811     15816     15818
     15809     15808     15811     15812     15809     15808     15811     15813
     15809     15808     15811     15816     15810     15808     15811     15812
     15810     15808     15811     15813     15810     15808     15811     15816
     15811     15813     15816     15817     15811     15813     15816     15818
     15811     15816     15813     15814     15811     15816     15813     15815
     15811     15816     15818     15819     15811     15816     15818     15820
     15811     15816     15818     15821     15812     15811     15813     15814
     15812     15811     15813     15815     15812     15811     15813     15816
     15812     15811     15816     15813     15812     15811     15816     15817
     15812     15811     15816     15818     15813     15811     15816     15817
     15813     15811     15816     15818     15813     15816     15818     15819
     15813     15816     15818     15820     15813     15816     15818     15821
     15814     15813     15811     15816     15814     15813     15816     15817
     15814     15813     15816     15818     15815     15813     15811     15816
     15815     15813     15816     15817     15815     15813     15816     15818
     15816     15818     15821     15822     15816     15818     15821     15823
     15816     15818     15821     15824     15817     15816     15818     15819
     15817     15816     15818     15820     15817     15816     15818     15821
     15818     15821     15824     15825     15818     15821     15824     15826
     15818     15821     15824     15827     15819     15818     15821     15822
     15819     15818     15821     15823     15819     15818     15821     15824
     15820     15818     15821     15822     15820     15818     15821     15823
     15820     15818     15821     15824     15821     15824     15827     15828
     15821     15824     15827     15829     15821     15824     15827     15830
     15822     15821     15824     15825     15822     15821     15824     15826
     15822     15821     15824     15827     15823     15821     15824     15825
     15823     15821     15824     15826     15823     15821     15824     15827
     15824     15827     15830     15831     15824     15827     15830     15832
     15824     15827     15830     15833     15825     15824     15827     15828
     15825     15824     15827     15829     15825     15824     15827     15830
     15826     15824     15827     15828     15826     15824     15827     15829
     15826     15824     15827     15830     15827     15830     15833     15834
     15827     15830     15833     15835     15827     15830     15833     15836
     15828     15827     15830     15831     15828     15827     15830     15832
     15828     15827     15830     15833     15829     15827     15830     15831
     15829     15827     15830     15832     15829     15827     15830     15833
     15831     15830     15833     15834     15831     15830     15833     15835
     15831     15830     15833     15836     15832     15830     15833     15834
     15832     15830     15833     15835     15832     15830     15833     15836
     15837     15840     15843     15844     15837     15840     15843     15845
     15837     15840     15843     15846     15838     15837     15840     15841
     15838     15837     15840     15842     15838     15837     15840     15843
     15839     15837     15840     15841     15839     15837     15840     15842
     15839     15837     15840     15843     15840     15843     15846     15847
     15840     15843     15846     15848     15840     15843     15846     15849
     15841     15840     15843     15844     15841     15840     15843     15845
     15841     15840     15843     15846     15842     15840     15843     15844
     15842     15840     15843     15845     15842     15840     15843     15846
     15843     15846     15849     15850     15843     15846     15849     15851
     15843     15846     15849     15852     15844     15843     15846     15847
     15844     15843     15846     15848     15844     15843     15846     15849
     15845     15843     15846     15847     15845     15843     15846     15848
     15845     15843     15846     15849     15846     15849     15852     15853
     15846     15849     15852     15854     15846     15849     15852     15855
     15847     15846     15849     15850     15847     15846     15849     15851
     15847     15846     15849     15852     15848     15846     15849     15850
     15848     15846     15849     15851     15848     15846     15849     15852
     15849     15852     15855     15856     15849     15852     15855     15857
     15849     15852     15855     15858     15850     15849     15852     15853
     15850     15849     15852     15854     15850     15849     15852     15855
     15851     15849     15852     15853     15851     15849     15852     15854
     15851     15849     15852     15855     15852     15855     15858     15859
     15852     15855     15858     15860     15852     15855     15858     15861
     15853     15852     15855     15856     15853     15852     15855     15857
     15853     15852     15855     15858     15854     15852     15855     15856
     15854     15852     15855     15857     15854     15852     15855     15858
     15855     15858     15861     15862     15855     15858     15861     15863
     15855     15858     15861     15864     15856     15855     15858     15859
     15856     15855     15858     15860     15856     15855     15858     15861
     15857     15855     15858     15859     15857     15855     15858     15860
     15857     15855     15858     15861     15858     15861     15864     15865
     15858     15861     15864     15866     15858     15861     15864     15867
     15859     15858     15861     15862     15859     15858     15861     15863
     15859     15858     15861     15864     15860     15858     15861     15862
     15860     15858     15861     15863     15860     15858     15861     15864
     15861     15864     15867     15868     15861     15864     15867     15869
     15861     15864     15867     15870     15862     15861     15864     15865
     15862     15861     15864     15866     15862     15861     15864     15867
     15863     15861     15864     15865     15863     15861     15864     15866
     15863     15861     15864     15867     15864     15867     15870     15871
     15864     15867     15870     15872     15864     15867     15870     15873
     15865     15864     15867     15868     15865     15864     15867     15869
     15865     15864     15867     15870     15866     15864     15867     15868
     15866     15864     15867     15869     15866     15864     15867     15870
     15867     15870     15873     15874     15867     15870     15873     15875
     15867     15870     15873     15876     15868     15867     15870     15871
     15868     15867     15870     15872     15868     15867     15870     15873
     15869     15867     15870     15871     15869     15867     15870     15872
     15869     15867     15870     15873     15871     15870     15873     15874
     15871     15870     15873     15875     15871     15870     15873     15876
     15872     15870     15873     15874     15872     15870     15873     15875
     15872     15870     15873     15876     15877     15882     15884     15885
     15877     15882     15886     15887     15877     15882     15886     15888
     15877     15882     15886     15893     15878     15877     15880     15881
     15878     15877     15882     15883     15878     15877     15882     15884
     15878     15877     15882     15886     15879     15877     15880     15881
     15879     15877     15882     15883     15879     15877     15882     15884
     15879     15877     15882     15886     15880     15877     15882     15883
     15880     15877     15882     15884     15880     15877     15882     15886
     15881     15880     15877     15882     15882     15886     15893     15889
     15883     15882     15884     15885     15883     15882     15886     15887
     15883     15882     15886     15888     15883     15882     15886     15893
     15884     15882     15886     15887     15884     15882     15886     15888
     15884     15882     15886     15893     15885     15884     15882     15886
     15886     15893     15889     15890     15886     15893     15889     15891
     15886     15893     15889     15892     15887     15886     15893     15889
     15888     15886     15893     15889     15889     15892     15894     15895
     15889     15892     15894     15896     15889     15892     15894     15897
     15890     15889     15892     15894     15891     15889     15892     15894
     15892     15894     15897     15898     15892     15894     15897     15899
     15892     15894     15897     15905     15893     15889     15892     15894
     15894     15897     15899     15900     15894     15897     15905     15906
     15894     15897     15905     15907     15894     15897     15905     15908
     15895     15894     15897     15898     15895     15894     15897     15899
     15895     15894     15897     15905     15896     15894     15897     15898
     15896     15894     15897     15899     15896     15894     15897     15905
     15897     15899     15900     15901     15897     15899     15900     15902
     15897     15905     15908     15909     15898     15897     15899     15900
     15898     15897     15905     15906     15898     15897     15905     15907
     15898     15897     15905     15908     15899     15897     15905     15906
     15899     15897     15905     15907     15899     15897     15905     15908
     15899     15900     15902     15903     15899     15900     15902     15904
     15899     15900     15902     15914     15900     15899     15897     15905
     15900     15902     15914     15915     15900     15902     15914     15916
     15900     15902     15914     15917     15901     15900     15902     15903
     15901     15900     15902     15904     15901     15900     15902     15914
     15902     15914     15917     15918     15902     15914     15917     15919
     15902     15914     15917     15920     15903     15902     15914     15915
     15903     15902     15914     15916     15903     15902     15914     15917
     15904     15902     15914     15915     15904     15902     15914     15916
     15904     15902     15914     15917     15905     15908     15909     15910
     15905     15908     15909     15911     15906     15905     15908     15909
     15907     15905     15908     15909     15908     15909     15911     15912
     15908     15909     15911     15913     15908     15909     15911     15955
     15909     15911     15955     15956     15909     15911     15955     15957
     15909     15911     15955     15958     15910     15909     15911     15912
     15910     15909     15911     15913     15910     15909     15911     15955
     15911     15955     15958     15959     15911     15955     15958     15960
     15911     15955     15958     15961     15912     15911     15955     15956
     15912     15911     15955     15957     15912     15911     15955     15958
     15913     15911     15955     15956     15913     15911     15955     15957
     15913     15911     15955     15958     15914     15917     15920     15921
     15914     15917     15920     15922     15914     15917     15920     15923
     15915     15914     15917     15918     15915     15914     15917     15919
     15915     15914     15917     15920     15916     15914     15917     15918
     15916     15914     15917     15919     15916     15914     15917     15920
     15917     15920     15923     15924     15917     15920     15923     15925
     15917     15920     15923     15926     15918     15917     15920     15921
     15918     15917     15920     15922     15918     15917     15920     15923
     15919     15917     15920     15921     15919     15917     15920     15922
     15919     15917     15920     15923     15920     15923     15926     15927
     15920     15923     15926     15928     15920     15923     15926     15929
     15921     15920     15923     15924     15921     15920     15923     15925
     15921     15920     15923     15926     15922     15920     15923     15924
     15922     15920     15923     15925     15922     15920     15923     15926
     15923     15926     15929     15930     15923     15926     15929     15931
     15923     15926     15929     15932     15924     15923     15926     15927
     15924     15923     15926     15928     15924     15923     15926     15929
     15925     15923     15926     15927     15925     15923     15926     15928
     15925     15923     15926     15929     15926     15929     15932     15933
     15926     15929     15932     15934     15927     15926     15929     15930
     15927     15926     15929     15931     15927     15926     15929     15932
     15928     15926     15929     15930     15928     15926     15929     15931
     15928     15926     15929     15932     15929     15932     15934     15935
     15929     15932     15934     15936     15930     15929     15932     15933
     15930     15929     15932     15934     15931     15929     15932     15933
     15931     15929     15932     15934     15932     15934     15936     15937
     15932     15934     15936     15938     15932     15934     15936     15939
     15933     15932     15934     15935     15933     15932     15934     15936
     15934     15936     15939     15940     15934     15936     15939     15941
     15934     15936     15939     15942     15935     15934     15936     15937
     15935     15934     15936     15938     15935     15934     15936     15939
     15936     15939     15942     15943     15936     15939     15942     15944
     15936     15939     15942     15945     15937     15936     15939     15940
     15937     15936     15939     15941     15937     15936     15939     15942
     15938     15936     15939     15940     15938     15936     15939     15941
     15938     15936     15939     15942     15939     15942     15945     15946
     15939     15942     15945     15947     15939     15942     15945     15948
     15940     15939     15942     15943     15940     15939     15942     15944
     15940     15939     15942     15945     15941     15939     15942     15943
     15941     15939     15942     15944     15941     15939     15942     15945
     15942     15945     15948     15949     15942     15945     15948     15950
     15942     15945     15948     15951     15943     15942     15945     15946
     15943     15942     15945     15947     15943     15942     15945     15948
     15944     15942     15945     15946     15944     15942     15945     15947
     15944     15942     15945     15948     15945     15948     15951     15952
     15945     15948     15951     15953     15945     15948     15951     15954
     15946     15945     15948     15949     15946     15945     15948     15950
     15946     15945     15948     15951     15947     15945     15948     15949
     15947     15945     15948     15950     15947     15945     15948     15951
     15949     15948     15951     15952     15949     15948     15951     15953
     15949     15948     15951     15954     15950     15948     15951     15952
     15950     15948     15951     15953     15950     15948     15951     15954
     15955     15958     15961     15962     15955     15958     15961     15963
     15955     15958     15961     15964     15956     15955     15958     15959
     15956     15955     15958     15960     15956     15955     15958     15961
     15957     15955     15958     15959     15957     15955     15958     15960
     15957     15955     15958     15961     15958     15961     15964     15965
     15958     15961     15964     15966     15958     15961     15964     15967
     15959     15958     15961     15962     15959     15958     15961     15963
     15959     15958     15961     15964     15960     15958     15961     15962
     15960     15958     15961     15963     15960     15958     15961     15964
     15961     15964     15967     15968     15961     15964     15967     15969
     15961     15964     15967     15970     15962     15961     15964     15965
     15962     15961     15964     15966     15962     15961     15964     15967
     15963     15961     15964     15965     15963     15961     15964     15966
     15963     15961     15964     15967     15964     15967     15970     15971
     15964     15967     15970     15972     15964     15967     15970     15973
     15965     15964     15967     15968     15965     15964     15967     15969
     15965     15964     15967     15970     15966     15964     15967     15968
     15966     15964     15967     15969     15966     15964     15967     15970
     15967     15970     15973     15974     15967     15970     15973     15975
     15967     15970     15973     15976     15968     15967     15970     15971
     15968     15967     15970     15972     15968     15967     15970     15973
     15969     15967     15970     15971     15969     15967     15970     15972
     15969     15967     15970     15973     15970     15973     15976     15977
     15970     15973     15976     15978     15970     15973     15976     15979
     15971     15970     15973     15974     15971     15970     15973     15975
     15971     15970     15973     15976     15972     15970     15973     15974
     15972     15970     15973     15975     15972     15970     15973     15976
     15973     15976     15979     15980     15973     15976     15979     15981
     15973     15976     15979     15982     15974     15973     15976     15977
     15974     15973     15976     15978     15974     15973     15976     15979
     15975     15973     15976     15977     15975     15973     15976     15978
     15975     15973     15976     15979     15976     15979     15982     15983
     15976     15979     15982     15984     15976     15979     15982     15985
     15977     15976     15979     15980     15977     15976     15979     15981
     15977     15976     15979     15982     15978     15976     15979     15980
     15978     15976     15979     15981     15978     15976     15979     15982
     15979     15982     15985     15986     15979     15982     15985     15987
     15979     15982     15985     15988     15980     15979     15982     15983
     15980     15979     15982     15984     15980     15979     15982     15985
     15981     15979     15982     15983     15981     15979     15982     15984
     15981     15979     15982     15985     15982     15985     15988     15989
     15982     15985     15988     15990     15982     15985     15988     15991
     15983     15982     15985     15986     15983     15982     15985     15987
     15983     15982     15985     15988     15984     15982     15985     15986
     15984     15982     15985     15987     15984     15982     15985     15988
     15985     15988     15991     15992     15985     15988     15991     15993
     15985     15988     15991     15994     15986     15985     15988     15989
     15986     15985     15988     15990     15986     15985     15988     15991
     15987     15985     15988     15989     15987     15985     15988     15990
     15987     15985     15988     15991     15988     15991     15994     15995
     15988     15991     15994     15996     15988     15991     15994     15997
     15989     15988     15991     15992     15989     15988     15991     15993
     15989     15988     15991     15994     15990     15988     15991     15992
     15990     15988     15991     15993     15990     15988     15991     15994
     15992     15991     15994     15995     15992     15991     15994     15996
     15992     15991     15994     15997     15993     15991     15994     15995
     15993     15991     15994     15996     15993     15991     15994     15997
     15998     16003     16005     16006     15998     16003     16007     16008
     15998     16003     16007     16009     15998     16003     16007     16014
     15999     15998     16001     16002     15999     15998     16003     16004
     15999     15998     16003     16005     15999     15998     16003     16007
     16000     15998     16001     16002     16000     15998     16003     16004
     16000     15998     16003     16005     16000     15998     16003     16007
     16001     15998     16003     16004     16001     15998     16003     16005
     16001     15998     16003     16007     16002     16001     15998     16003
     16003     16007     16014     16010     16004     16003     16005     16006
     16004     16003     16007     16008     16004     16003     16007     16009
     16004     16003     16007     16014     16005     16003     16007     16008
     16005     16003     16007     16009     16005     16003     16007     16014
     16006     16005     16003     16007     16007     16014     16010     16011
     16007     16014     16010     16012     16007     16014     16010     16013
     16008     16007     16014     16010     16009     16007     16014     16010
     16010     16013     16015     16016     16010     16013     16015     16017
     16010     16013     16015     16018     16011     16010     16013     16015
     16012     16010     16013     16015     16013     16015     16018     16019
     16013     16015     16018     16020     16013     16015     16018     16026
     16014     16010     16013     16015     16015     16018     16020     16021
     16015     16018     16026     16027     16015     16018     16026     16028
     16015     16018     16026     16029     16016     16015     16018     16019
     16016     16015     16018     16020     16016     16015     16018     16026
     16017     16015     16018     16019     16017     16015     16018     16020
     16017     16015     16018     16026     16018     16020     16021     16022
     16018     16020     16021     16023     16018     16026     16029     16030
     16019     16018     16020     16021     16019     16018     16026     16027
     16019     16018     16026     16028     16019     16018     16026     16029
     16020     16018     16026     16027     16020     16018     16026     16028
     16020     16018     16026     16029     16020     16021     16023     16024
     16020     16021     16023     16025     16020     16021     16023     16035
     16021     16020     16018     16026     16021     16023     16035     16036
     16021     16023     16035     16037     16021     16023     16035     16038
     16022     16021     16023     16024     16022     16021     16023     16025
     16022     16021     16023     16035     16023     16035     16038     16039
     16023     16035     16038     16040     16023     16035     16038     16041
     16024     16023     16035     16036     16024     16023     16035     16037
     16024     16023     16035     16038     16025     16023     16035     16036
     16025     16023     16035     16037     16025     16023     16035     16038
     16026     16029     16030     16031     16026     16029     16030     16032
     16027     16026     16029     16030     16028     16026     16029     16030
     16029     16030     16032     16033     16029     16030     16032     16034
     16029     16030     16032     16076     16030     16032     16076     16077
     16030     16032     16076     16078     16030     16032     16076     16079
     16031     16030     16032     16033     16031     16030     16032     16034
     16031     16030     16032     16076     16032     16076     16079     16080
     16032     16076     16079     16081     16032     16076     16079     16082
     16033     16032     16076     16077     16033     16032     16076     16078
     16033     16032     16076     16079     16034     16032     16076     16077
     16034     16032     16076     16078     16034     16032     16076     16079
     16035     16038     16041     16042     16035     16038     16041     16043
     16035     16038     16041     16044     16036     16035     16038     16039
     16036     16035     16038     16040     16036     16035     16038     16041
     16037     16035     16038     16039     16037     16035     16038     16040
     16037     16035     16038     16041     16038     16041     16044     16045
     16038     16041     16044     16046     16038     16041     16044     16047
     16039     16038     16041     16042     16039     16038     16041     16043
     16039     16038     16041     16044     16040     16038     16041     16042
     16040     16038     16041     16043     16040     16038     16041     16044
     16041     16044     16047     16048     16041     16044     16047     16049
     16041     16044     16047     16050     16042     16041     16044     16045
     16042     16041     16044     16046     16042     16041     16044     16047
     16043     16041     16044     16045     16043     16041     16044     16046
     16043     16041     16044     16047     16044     16047     16050     16051
     16044     16047     16050     16052     16044     16047     16050     16053
     16045     16044     16047     16048     16045     16044     16047     16049
     16045     16044     16047     16050     16046     16044     16047     16048
     16046     16044     16047     16049     16046     16044     16047     16050
     16047     16050     16053     16054     16047     16050     16053     16055
     16048     16047     16050     16051     16048     16047     16050     16052
     16048     16047     16050     16053     16049     16047     16050     16051
     16049     16047     16050     16052     16049     16047     16050     16053
     16050     16053     16055     16056     16050     16053     16055     16057
     16051     16050     16053     16054     16051     16050     16053     16055
     16052     16050     16053     16054     16052     16050     16053     16055
     16053     16055     16057     16058     16053     16055     16057     16059
     16053     16055     16057     16060     16054     16053     16055     16056
     16054     16053     16055     16057     16055     16057     16060     16061
     16055     16057     16060     16062     16055     16057     16060     16063
     16056     16055     16057     16058     16056     16055     16057     16059
     16056     16055     16057     16060     16057     16060     16063     16064
     16057     16060     16063     16065     16057     16060     16063     16066
     16058     16057     16060     16061     16058     16057     16060     16062
     16058     16057     16060     16063     16059     16057     16060     16061
     16059     16057     16060     16062     16059     16057     16060     16063
     16060     16063     16066     16067     16060     16063     16066     16068
     16060     16063     16066     16069     16061     16060     16063     16064
     16061     16060     16063     16065     16061     16060     16063     16066
     16062     16060     16063     16064     16062     16060     16063     16065
     16062     16060     16063     16066     16063     16066     16069     16070
     16063     16066     16069     16071     16063     16066     16069     16072
     16064     16063     16066     16067     16064     16063     16066     16068
     16064     16063     16066     16069     16065     16063     16066     16067
     16065     16063     16066     16068     16065     16063     16066     16069
     16066     16069     16072     16073     16066     16069     16072     16074
     16066     16069     16072     16075     16067     16066     16069     16070
     16067     16066     16069     16071     16067     16066     16069     16072
     16068     16066     16069     16070     16068     16066     16069     16071
     16068     16066     16069     16072     16070     16069     16072     16073
     16070     16069     16072     16074     16070     16069     16072     16075
     16071     16069     16072     16073     16071     16069     16072     16074
     16071     16069     16072     16075     16076     16079     16082     16083
     16076     16079     16082     16084     16076     16079     16082     16085
     16077     16076     16079     16080     16077     16076     16079     16081
     16077     16076     16079     16082     16078     16076     16079     16080
     16078     16076     16079     16081     16078     16076     16079     16082
     16079     16082     16085     16086     16079     16082     16085     16087
     16079     16082     16085     16088     16080     16079     16082     16083
     16080     16079     16082     16084     16080     16079     16082     16085
     16081     16079     16082     16083     16081     16079     16082     16084
     16081     16079     16082     16085     16082     16085     16088     16089
     16082     16085     16088     16090     16082     16085     16088     16091
     16083     16082     16085     16086     16083     16082     16085     16087
     16083     16082     16085     16088     16084     16082     16085     16086
     16084     16082     16085     16087     16084     16082     16085     16088
     16085     16088     16091     16092     16085     16088     16091     16093
     16085     16088     16091     16094     16086     16085     16088     16089
     16086     16085     16088     16090     16086     16085     16088     16091
     16087     16085     16088     16089     16087     16085     16088     16090
     16087     16085     16088     16091     16088     16091     16094     16095
     16088     16091     16094     16096     16088     16091     16094     16097
     16089     16088     16091     16092     16089     16088     16091     16093
     16089     16088     16091     16094     16090     16088     16091     16092
     16090     16088     16091     16093     16090     16088     16091     16094
     16091     16094     16097     16098     16091     16094     16097     16099
     16091     16094     16097     16100     16092     16091     16094     16095
     16092     16091     16094     16096     16092     16091     16094     16097
     16093     16091     16094     16095     16093     16091     16094     16096
     16093     16091     16094     16097     16094     16097     16100     16101
     16094     16097     16100     16102     16094     16097     16100     16103
     16095     16094     16097     16098     16095     16094     16097     16099
     16095     16094     16097     16100     16096     16094     16097     16098
     16096     16094     16097     16099     16096     16094     16097     16100
     16097     16100     16103     16104     16097     16100     16103     16105
     16097     16100     16103     16106     16098     16097     16100     16101
     16098     16097     16100     16102     16098     16097     16100     16103
     16099     16097     16100     16101     16099     16097     16100     16102
     16099     16097     16100     16103     16100     16103     16106     16107
     16100     16103     16106     16108     16100     16103     16106     16109
     16101     16100     16103     16104     16101     16100     16103     16105
     16101     16100     16103     16106     16102     16100     16103     16104
     16102     16100     16103     16105     16102     16100     16103     16106
     16103     16106     16109     16110     16103     16106     16109     16111
     16103     16106     16109     16112     16104     16103     16106     16107
     16104     16103     16106     16108     16104     16103     16106     16109
     16105     16103     16106     16107     16105     16103     16106     16108
     16105     16103     16106     16109     16106     16109     16112     16113
     16106     16109     16112     16114     16106     16109     16112     16115
     16107     16106     16109     16110     16107     16106     16109     16111
     16107     16106     16109     16112     16108     16106     16109     16110
     16108     16106     16109     16111     16108     16106     16109     16112
     16109     16112     16115     16116     16109     16112     16115     16117
     16109     16112     16115     16118     16110     16109     16112     16113
     16110     16109     16112     16114     16110     16109     16112     16115
     16111     16109     16112     16113     16111     16109     16112     16114
     16111     16109     16112     16115     16113     16112     16115     16116
     16113     16112     16115     16117     16113     16112     16115     16118
     16114     16112     16115     16116     16114     16112     16115     16117
     16114     16112     16115     16118     16119     16123     16126     16127
     16119     16123     16126     16128     16119     16123     16126     16133
     16120     16119     16123     16124     16120     16119     16123     16125
     16120     16119     16123     16126     16121     16119     16123     16124
     16121     16119     16123     16125     16121     16119     16123     16126
     16122     16119     16123     16124     16122     16119     16123     16125
     16122     16119     16123     16126     16123     16126     16133     16129
     16124     16123     16126     16127     16124     16123     16126     16128
     16124     16123     16126     16133     16125     16123     16126     16127
     16125     16123     16126     16128     16125     16123     16126     16133
     16126     16133     16129     16130     16126     16133     16129     16131
     16126     16133     16129     16132     16127     16126     16133     16129
     16128     16126     16133     16129     16129     16132     16134     16135
     16129     16132     16134     16136     16129     16132     16134     16137
     16130     16129     16132     16134     16131     16129     16132     16134
     16132     16134     16137     16138     16132     16134     16137     16139
     16132     16134     16137     16145     16133     16129     16132     16134
     16134     16137     16139     16140     16134     16137     16145     16146
     16134     16137     16145     16147     16134     16137     16145     16148
     16135     16134     16137     16138     16135     16134     16137     16139
     16135     16134     16137     16145     16136     16134     16137     16138
     16136     16134     16137     16139     16136     16134     16137     16145
     16137     16139     16140     16141     16137     16139     16140     16142
     16137     16145     16148     16149     16138     16137     16139     16140
     16138     16137     16145     16146     16138     16137     16145     16147
     16138     16137     16145     16148     16139     16137     16145     16146
     16139     16137     16145     16147     16139     16137     16145     16148
     16139     16140     16142     16143     16139     16140     16142     16144
     16139     16140     16142     16154     16140     16139     16137     16145
     16140     16142     16154     16155     16140     16142     16154     16156
     16140     16142     16154     16157     16141     16140     16142     16143
     16141     16140     16142     16144     16141     16140     16142     16154
     16142     16154     16157     16158     16142     16154     16157     16159
     16142     16154     16157     16160     16143     16142     16154     16155
     16143     16142     16154     16156     16143     16142     16154     16157
     16144     16142     16154     16155     16144     16142     16154     16156
     16144     16142     16154     16157     16145     16148     16149     16150
     16145     16148     16149     16151     16146     16145     16148     16149
     16147     16145     16148     16149     16148     16149     16151     16152
     16148     16149     16151     16153     16148     16149     16151     16198
     16149     16151     16198     16199     16149     16151     16198     16200
     16149     16151     16198     16201     16150     16149     16151     16152
     16150     16149     16151     16153     16150     16149     16151     16198
     16151     16198     16201     16202     16151     16198     16201     16203
     16151     16198     16201     16204     16152     16151     16198     16199
     16152     16151     16198     16200     16152     16151     16198     16201
     16153     16151     16198     16199     16153     16151     16198     16200
     16153     16151     16198     16201     16154     16157     16160     16161
     16154     16157     16160     16162     16154     16157     16160     16163
     16155     16154     16157     16158     16155     16154     16157     16159
     16155     16154     16157     16160     16156     16154     16157     16158
     16156     16154     16157     16159     16156     16154     16157     16160
     16157     16160     16163     16164     16157     16160     16163     16165
     16157     16160     16163     16166     16158     16157     16160     16161
     16158     16157     16160     16162     16158     16157     16160     16163
     16159     16157     16160     16161     16159     16157     16160     16162
     16159     16157     16160     16163     16160     16163     16166     16167
     16160     16163     16166     16168     16160     16163     16166     16169
     16161     16160     16163     16164     16161     16160     16163     16165
     16161     16160     16163     16166     16162     16160     16163     16164
     16162     16160     16163     16165     16162     16160     16163     16166
     16163     16166     16169     16170     16163     16166     16169     16171
     16163     16166     16169     16172     16164     16163     16166     16167
     16164     16163     16166     16168     16164     16163     16166     16169
     16165     16163     16166     16167     16165     16163     16166     16168
     16165     16163     16166     16169     16166     16169     16172     16173
     16166     16169     16172     16174     16166     16169     16172     16177
     16167     16166     16169     16170     16167     16166     16169     16171
     16167     16166     16169     16172     16168     16166     16169     16170
     16168     16166     16169     16171     16168     16166     16169     16172
     16169     16172     16174     16175     16169     16172     16174     16176
     16169     16172     16174     16177     16169     16172     16177     16174
     16169     16172     16177     16178     16169     16172     16177     16179
     16170     16169     16172     16173     16170     16169     16172     16174
     16170     16169     16172     16177     16171     16169     16172     16173
     16171     16169     16172     16174     16171     16169     16172     16177
     16172     16174     16177     16178     16172     16174     16177     16179
     16172     16177     16174     16175     16172     16177     16174     16176
     16172     16177     16179     16180     16172     16177     16179     16181
     16172     16177     16179     16182     16173     16172     16174     16175
     16173     16172     16174     16176     16173     16172     16174     16177
     16173     16172     16177     16174     16173     16172     16177     16178
     16173     16172     16177     16179     16174     16172     16177     16178
     16174     16172     16177     16179     16174     16177     16179     16180
     16174     16177     16179     16181     16174     16177     16179     16182
     16175     16174     16172     16177     16175     16174     16177     16178
     16175     16174     16177     16179     16176     16174     16172     16177
     16176     16174     16177     16178     16176     16174     16177     16179
     16177     16179     16182     16183     16177     16179     16182     16184
     16177     16179     16182     16185     16178     16177     16179     16180
     16178     16177     16179     16181     16178     16177     16179     16182
     16179     16182     16185     16186     16179     16182     16185     16187
     16179     16182     16185     16188     16180     16179     16182     16183
     16180     16179     16182     16184     16180     16179     16182     16185
     16181     16179     16182     16183     16181     16179     16182     16184
     16181     16179     16182     16185     16182     16185     16188     16189
     16182     16185     16188     16190     16182     16185     16188     16191
     16183     16182     16185     16186     16183     16182     16185     16187
     16183     16182     16185     16188     16184     16182     16185     16186
     16184     16182     16185     16187     16184     16182     16185     16188
     16185     16188     16191     16192     16185     16188     16191     16193
     16185     16188     16191     16194     16186     16185     16188     16189
     16186     16185     16188     16190     16186     16185     16188     16191
     16187     16185     16188     16189     16187     16185     16188     16190
     16187     16185     16188     16191     16188     16191     16194     16195
     16188     16191     16194     16196     16188     16191     16194     16197
     16189     16188     16191     16192     16189     16188     16191     16193
     16189     16188     16191     16194     16190     16188     16191     16192
     16190     16188     16191     16193     16190     16188     16191     16194
     16192     16191     16194     16195     16192     16191     16194     16196
     16192     16191     16194     16197     16193     16191     16194     16195
     16193     16191     16194     16196     16193     16191     16194     16197
     16198     16201     16204     16205     16198     16201     16204     16206
     16198     16201     16204     16207     16199     16198     16201     16202
     16199     16198     16201     16203     16199     16198     16201     16204
     16200     16198     16201     16202     16200     16198     16201     16203
     16200     16198     16201     16204     16201     16204     16207     16208
     16201     16204     16207     16209     16201     16204     16207     16210
     16202     16201     16204     16205     16202     16201     16204     16206
     16202     16201     16204     16207     16203     16201     16204     16205
     16203     16201     16204     16206     16203     16201     16204     16207
     16204     16207     16210     16211     16204     16207     16210     16212
     16204     16207     16210     16213     16205     16204     16207     16208
     16205     16204     16207     16209     16205     16204     16207     16210
     16206     16204     16207     16208     16206     16204     16207     16209
     16206     16204     16207     16210     16207     16210     16213     16214
     16207     16210     16213     16215     16207     16210     16213     16216
     16208     16207     16210     16211     16208     16207     16210     16212
     16208     16207     16210     16213     16209     16207     16210     16211
     16209     16207     16210     16212     16209     16207     16210     16213
     16210     16213     16216     16217     16210     16213     16216     16218
     16210     16213     16216     16219     16211     16210     16213     16214
     16211     16210     16213     16215     16211     16210     16213     16216
     16212     16210     16213     16214     16212     16210     16213     16215
     16212     16210     16213     16216     16213     16216     16219     16220
     16213     16216     16219     16221     16213     16216     16219     16222
     16214     16213     16216     16217     16214     16213     16216     16218
     16214     16213     16216     16219     16215     16213     16216     16217
     16215     16213     16216     16218     16215     16213     16216     16219
     16216     16219     16222     16223     16216     16219     16222     16224
     16216     16219     16222     16225     16217     16216     16219     16220
     16217     16216     16219     16221     16217     16216     16219     16222
     16218     16216     16219     16220     16218     16216     16219     16221
     16218     16216     16219     16222     16219     16222     16225     16226
     16219     16222     16225     16227     16219     16222     16225     16228
     16220     16219     16222     16223     16220     16219     16222     16224
     16220     16219     16222     16225     16221     16219     16222     16223
     16221     16219     16222     16224     16221     16219     16222     16225
     16222     16225     16228     16229     16222     16225     16228     16230
     16222     16225     16228     16231     16223     16222     16225     16226
     16223     16222     16225     16227     16223     16222     16225     16228
     16224     16222     16225     16226     16224     16222     16225     16227
     16224     16222     16225     16228     16225     16228     16231     16232
     16225     16228     16231     16233     16225     16228     16231     16234
     16226     16225     16228     16229     16226     16225     16228     16230
     16226     16225     16228     16231     16227     16225     16228     16229
     16227     16225     16228     16230     16227     16225     16228     16231
     16228     16231     16234     16235     16228     16231     16234     16236
     16228     16231     16234     16237     16229     16228     16231     16232
     16229     16228     16231     16233     16229     16228     16231     16234
     16230     16228     16231     16232     16230     16228     16231     16233
     16230     16228     16231     16234     16231     16234     16237     16238
     16231     16234     16237     16239     16231     16234     16237     16240
     16232     16231     16234     16235     16232     16231     16234     16236
     16232     16231     16234     16237     16233     16231     16234     16235
     16233     16231     16234     16236     16233     16231     16234     16237
     16235     16234     16237     16238     16235     16234     16237     16239
     16235     16234     16237     16240     16236     16234     16237     16238
     16236     16234     16237     16239     16236     16234     16237     16240
     16241     16245     16248     16249     16241     16245     16248     16250
     16241     16245     16248     16255     16242     16241     16245     16246
     16242     16241     16245     16247     16242     16241     16245     16248
     16243     16241     16245     16246     16243     16241     16245     16247
     16243     16241     16245     16248     16244     16241     16245     16246
     16244     16241     16245     16247     16244     16241     16245     16248
     16245     16248     16255     16251     16246     16245     16248     16249
     16246     16245     16248     16250     16246     16245     16248     16255
     16247     16245     16248     16249     16247     16245     16248     16250
     16247     16245     16248     16255     16248     16255     16251     16252
     16248     16255     16251     16253     16248     16255     16251     16254
     16249     16248     16255     16251     16250     16248     16255     16251
     16251     16254     16256     16257     16251     16254     16256     16258
     16251     16254     16256     16259     16252     16251     16254     16256
     16253     16251     16254     16256     16254     16256     16259     16260
     16254     16256     16259     16261     16254     16256     16259     16267
     16255     16251     16254     16256     16256     16259     16261     16262
     16256     16259     16267     16268     16256     16259     16267     16269
     16256     16259     16267     16270     16257     16256     16259     16260
     16257     16256     16259     16261     16257     16256     16259     16267
     16258     16256     16259     16260     16258     16256     16259     16261
     16258     16256     16259     16267     16259     16261     16262     16263
     16259     16261     16262     16264     16259     16267     16270     16271
     16260     16259     16261     16262     16260     16259     16267     16268
     16260     16259     16267     16269     16260     16259     16267     16270
     16261     16259     16267     16268     16261     16259     16267     16269
     16261     16259     16267     16270     16261     16262     16264     16265
     16261     16262     16264     16266     16261     16262     16264     16276
     16262     16261     16259     16267     16262     16264     16276     16277
     16262     16264     16276     16278     16262     16264     16276     16279
     16263     16262     16264     16265     16263     16262     16264     16266
     16263     16262     16264     16276     16264     16276     16279     16280
     16264     16276     16279     16281     16264     16276     16279     16282
     16265     16264     16276     16277     16265     16264     16276     16278
     16265     16264     16276     16279     16266     16264     16276     16277
     16266     16264     16276     16278     16266     16264     16276     16279
     16267     16270     16271     16272     16267     16270     16271     16273
     16268     16267     16270     16271     16269     16267     16270     16271
     16270     16271     16273     16274     16270     16271     16273     16275
     16270     16271     16273     16323     16271     16273     16323     16324
     16271     16273     16323     16325     16271     16273     16323     16326
     16272     16271     16273     16274     16272     16271     16273     16275
     16272     16271     16273     16323     16273     16323     16326     16327
     16273     16323     16326     16328     16273     16323     16326     16329
     16274     16273     16323     16324     16274     16273     16323     16325
     16274     16273     16323     16326     16275     16273     16323     16324
     16275     16273     16323     16325     16275     16273     16323     16326
     16276     16279     16282     16283     16276     16279     16282     16284
     16276     16279     16282     16285     16277     16276     16279     16280
     16277     16276     16279     16281     16277     16276     16279     16282
     16278     16276     16279     16280     16278     16276     16279     16281
     16278     16276     16279     16282     16279     16282     16285     16286
     16279     16282     16285     16287     16279     16282     16285     16288
     16280     16279     16282     16283     16280     16279     16282     16284
     16280     16279     16282     16285     16281     16279     16282     16283
     16281     16279     16282     16284     16281     16279     16282     16285
     16282     16285     16288     16289     16282     16285     16288     16290
     16282     16285     16288     16291     16283     16282     16285     16286
     16283     16282     16285     16287     16283     16282     16285     16288
     16284     16282     16285     16286     16284     16282     16285     16287
     16284     16282     16285     16288     16285     16288     16291     16292
     16285     16288     16291     16293     16285     16288     16291     16294
     16286     16285     16288     16289     16286     16285     16288     16290
     16286     16285     16288     16291     16287     16285     16288     16289
     16287     16285     16288     16290     16287     16285     16288     16291
     16288     16291     16294     16295     16288     16291     16294     16296
     16289     16288     16291     16292     16289     16288     16291     16293
     16289     16288     16291     16294     16290     16288     16291     16292
     16290     16288     16291     16293     16290     16288     16291     16294
     16291     16294     16296     16297     16291     16294     16296     16298
     16292     16291     16294     16295     16292     16291     16294     16296
     16293     16291     16294     16295     16293     16291     16294     16296
     16294     16296     16298     16299     16294     16296     16298     16300
     16294     16296     16298     16301     16295     16294     16296     16297
     16295     16294     16296     16298     16296     16298     16301     16302
     16296     16298     16301     16303     16296     16298     16301     16304
     16297     16296     16298     16299     16297     16296     16298     16300
     16297     16296     16298     16301     16298     16301     16304     16305
     16298     16301     16304     16306     16298     16301     16304     16307
     16299     16298     16301     16302     16299     16298     16301     16303
     16299     16298     16301     16304     16300     16298     16301     16302
     16300     16298     16301     16303     16300     16298     16301     16304
     16301     16304     16307     16308     16301     16304     16307     16309
     16301     16304     16307     16310     16302     16301     16304     16305
     16302     16301     16304     16306     16302     16301     16304     16307
     16303     16301     16304     16305     16303     16301     16304     16306
     16303     16301     16304     16307     16304     16307     16310     16311
     16304     16307     16310     16312     16304     16307     16310     16313
     16305     16304     16307     16308     16305     16304     16307     16309
     16305     16304     16307     16310     16306     16304     16307     16308
     16306     16304     16307     16309     16306     16304     16307     16310
     16307     16310     16313     16314     16307     16310     16313     16315
     16307     16310     16313     16316     16308     16307     16310     16311
     16308     16307     16310     16312     16308     16307     16310     16313
     16309     16307     16310     16311     16309     16307     16310     16312
     16309     16307     16310     16313     16310     16313     16316     16317
     16310     16313     16316     16318     16310     16313     16316     16319
     16311     16310     16313     16314     16311     16310     16313     16315
     16311     16310     16313     16316     16312     16310     16313     16314
     16312     16310     16313     16315     16312     16310     16313     16316
     16313     16316     16319     16320     16313     16316     16319     16321
     16313     16316     16319     16322     16314     16313     16316     16317
     16314     16313     16316     16318     16314     16313     16316     16319
     16315     16313     16316     16317     16315     16313     16316     16318
     16315     16313     16316     16319     16317     16316     16319     16320
     16317     16316     16319     16321     16317     16316     16319     16322
     16318     16316     16319     16320     16318     16316     16319     16321
     16318     16316     16319     16322     16323     16326     16329     16330
     16323     16326     16329     16331     16323     16326     16329     16332
     16324     16323     16326     16327     16324     16323     16326     16328
     16324     16323     16326     16329     16325     16323     16326     16327
     16325     16323     16326     16328     16325     16323     16326     16329
     16326     16329     16332     16333     16326     16329     16332     16334
     16326     16329     16332     16335     16327     16326     16329     16330
     16327     16326     16329     16331     16327     16326     16329     16332
     16328     16326     16329     16330     16328     16326     16329     16331
     16328     16326     16329     16332     16329     16332     16335     16336
     16329     16332     16335     16337     16329     16332     16335     16338
     16330     16329     16332     16333     16330     16329     16332     16334
     16330     16329     16332     16335     16331     16329     16332     16333
     16331     16329     16332     16334     16331     16329     16332     16335
     16332     16335     16338     16339     16332     16335     16338     16340
     16332     16335     16338     16341     16333     16332     16335     16336
     16333     16332     16335     16337     16333     16332     16335     16338
     16334     16332     16335     16336     16334     16332     16335     16337
     16334     16332     16335     16338     16335     16338     16341     16342
     16335     16338     16341     16343     16335     16338     16341     16344
     16336     16335     16338     16339     16336     16335     16338     16340
     16336     16335     16338     16341     16337     16335     16338     16339
     16337     16335     16338     16340     16337     16335     16338     16341
     16338     16341     16344     16345     16338     16341     16344     16346
     16338     16341     16344     16347     16339     16338     16341     16342
     16339     16338     16341     16343     16339     16338     16341     16344
     16340     16338     16341     16342     16340     16338     16341     16343
     16340     16338     16341     16344     16341     16344     16347     16348
     16341     16344     16347     16349     16341     16344     16347     16350
     16342     16341     16344     16345     16342     16341     16344     16346
     16342     16341     16344     16347     16343     16341     16344     16345
     16343     16341     16344     16346     16343     16341     16344     16347
     16344     16347     16350     16351     16344     16347     16350     16352
     16344     16347     16350     16353     16345     16344     16347     16348
     16345     16344     16347     16349     16345     16344     16347     16350
     16346     16344     16347     16348     16346     16344     16347     16349
     16346     16344     16347     16350     16347     16350     16353     16354
     16347     16350     16353     16355     16347     16350     16353     16356
     16348     16347     16350     16351     16348     16347     16350     16352
     16348     16347     16350     16353     16349     16347     16350     16351
     16349     16347     16350     16352     16349     16347     16350     16353
     16350     16353     16356     16357     16350     16353     16356     16358
     16350     16353     16356     16359     16351     16350     16353     16354
     16351     16350     16353     16355     16351     16350     16353     16356
     16352     16350     16353     16354     16352     16350     16353     16355
     16352     16350     16353     16356     16353     16356     16359     16360
     16353     16356     16359     16361     16353     16356     16359     16362
     16354     16353     16356     16357     16354     16353     16356     16358
     16354     16353     16356     16359     16355     16353     16356     16357
     16355     16353     16356     16358     16355     16353     16356     16359
     16356     16359     16362     16363     16356     16359     16362     16364
     16356     16359     16362     16365     16357     16356     16359     16360
     16357     16356     16359     16361     16357     16356     16359     16362
     16358     16356     16359     16360     16358     16356     16359     16361
     16358     16356     16359     16362     16360     16359     16362     16363
     16360     16359     16362     16364     16360     16359     16362     16365
     16361     16359     16362     16363     16361     16359     16362     16364
     16361     16359     16362     16365     16366     16370     16373     16374
     16366     16370     16373     16375     16366     16370     16373     16380
     16367     16366     16370     16371     16367     16366     16370     16372
     16367     16366     16370     16373     16368     16366     16370     16371
     16368     16366     16370     16372     16368     16366     16370     16373
     16369     16366     16370     16371     16369     16366     16370     16372
     16369     16366     16370     16373     16370     16373     16380     16376
     16371     16370     16373     16374     16371     16370     16373     16375
     16371     16370     16373     16380     16372     16370     16373     16374
     16372     16370     16373     16375     16372     16370     16373     16380
     16373     16380     16376     16377     16373     16380     16376     16378
     16373     16380     16376     16379     16374     16373     16380     16376
     16375     16373     16380     16376     16376     16379     16381     16382
     16376     16379     16381     16383     16376     16379     16381     16384
     16377     16376     16379     16381     16378     16376     16379     16381
     16379     16381     16384     16385     16379     16381     16384     16386
     16379     16381     16384     16392     16380     16376     16379     16381
     16381     16384     16386     16387     16381     16384     16392     16393
     16381     16384     16392     16394     16381     16384     16392     16395
     16382     16381     16384     16385     16382     16381     16384     16386
     16382     16381     16384     16392     16383     16381     16384     16385
     16383     16381     16384     16386     16383     16381     16384     16392
     16384     16386     16387     16388     16384     16386     16387     16389
     16384     16392     16395     16396     16385     16384     16386     16387
     16385     16384     16392     16393     16385     16384     16392     16394
     16385     16384     16392     16395     16386     16384     16392     16393
     16386     16384     16392     16394     16386     16384     16392     16395
     16386     16387     16389     16390     16386     16387     16389     16391
     16386     16387     16389     16401     16387     16386     16384     16392
     16387     16389     16401     16402     16387     16389     16401     16403
     16387     16389     16401     16404     16388     16387     16389     16390
     16388     16387     16389     16391     16388     16387     16389     16401
     16389     16401     16404     16405     16389     16401     16404     16406
     16389     16401     16404     16407     16390     16389     16401     16402
     16390     16389     16401     16403     16390     16389     16401     16404
     16391     16389     16401     16402     16391     16389     16401     16403
     16391     16389     16401     16404     16392     16395     16396     16397
     16392     16395     16396     16398     16393     16392     16395     16396
     16394     16392     16395     16396     16395     16396     16398     16399
     16395     16396     16398     16400     16395     16396     16398     16448
     16396     16398     16448     16449     16396     16398     16448     16450
     16396     16398     16448     16451     16397     16396     16398     16399
     16397     16396     16398     16400     16397     16396     16398     16448
     16398     16448     16451     16452     16398     16448     16451     16453
     16398     16448     16451     16454     16399     16398     16448     16449
     16399     16398     16448     16450     16399     16398     16448     16451
     16400     16398     16448     16449     16400     16398     16448     16450
     16400     16398     16448     16451     16401     16404     16407     16408
     16401     16404     16407     16409     16401     16404     16407     16410
     16402     16401     16404     16405     16402     16401     16404     16406
     16402     16401     16404     16407     16403     16401     16404     16405
     16403     16401     16404     16406     16403     16401     16404     16407
     16404     16407     16410     16411     16404     16407     16410     16412
     16404     16407     16410     16413     16405     16404     16407     16408
     16405     16404     16407     16409     16405     16404     16407     16410
     16406     16404     16407     16408     16406     16404     16407     16409
     16406     16404     16407     16410     16407     16410     16413     16414
     16407     16410     16413     16415     16407     16410     16413     16416
     16408     16407     16410     16411     16408     16407     16410     16412
     16408     16407     16410     16413     16409     16407     16410     16411
     16409     16407     16410     16412     16409     16407     16410     16413
     16410     16413     16416     16417     16410     16413     16416     16418
     16410     16413     16416     16419     16411     16410     16413     16414
     16411     16410     16413     16415     16411     16410     16413     16416
     16412     16410     16413     16414     16412     16410     16413     16415
     16412     16410     16413     16416     16413     16416     16419     16420
     16413     16416     16419     16421     16414     16413     16416     16417
     16414     16413     16416     16418     16414     16413     16416     16419
     16415     16413     16416     16417     16415     16413     16416     16418
     16415     16413     16416     16419     16416     16419     16421     16422
     16416     16419     16421     16423     16417     16416     16419     16420
     16417     16416     16419     16421     16418     16416     16419     16420
     16418     16416     16419     16421     16419     16421     16423     16424
     16419     16421     16423     16425     16419     16421     16423     16426
     16420     16419     16421     16422     16420     16419     16421     16423
     16421     16423     16426     16427     16421     16423     16426     16428
     16421     16423     16426     16429     16422     16421     16423     16424
     16422     16421     16423     16425     16422     16421     16423     16426
     16423     16426     16429     16430     16423     16426     16429     16431
     16423     16426     16429     16432     16424     16423     16426     16427
     16424     16423     16426     16428     16424     16423     16426     16429
     16425     16423     16426     16427     16425     16423     16426     16428
     16425     16423     16426     16429     16426     16429     16432     16433
     16426     16429     16432     16434     16426     16429     16432     16435
     16427     16426     16429     16430     16427     16426     16429     16431
     16427     16426     16429     16432     16428     16426     16429     16430
     16428     16426     16429     16431     16428     16426     16429     16432
     16429     16432     16435     16436     16429     16432     16435     16437
     16429     16432     16435     16438     16430     16429     16432     16433
     16430     16429     16432     16434     16430     16429     16432     16435
     16431     16429     16432     16433     16431     16429     16432     16434
     16431     16429     16432     16435     16432     16435     16438     16439
     16432     16435     16438     16440     16432     16435     16438     16441
     16433     16432     16435     16436     16433     16432     16435     16437
     16433     16432     16435     16438     16434     16432     16435     16436
     16434     16432     16435     16437     16434     16432     16435     16438
     16435     16438     16441     16442     16435     16438     16441     16443
     16435     16438     16441     16444     16436     16435     16438     16439
     16436     16435     16438     16440     16436     16435     16438     16441
     16437     16435     16438     16439     16437     16435     16438     16440
     16437     16435     16438     16441     16438     16441     16444     16445
     16438     16441     16444     16446     16438     16441     16444     16447
     16439     16438     16441     16442     16439     16438     16441     16443
     16439     16438     16441     16444     16440     16438     16441     16442
     16440     16438     16441     16443     16440     16438     16441     16444
     16442     16441     16444     16445     16442     16441     16444     16446
     16442     16441     16444     16447     16443     16441     16444     16445
     16443     16441     16444     16446     16443     16441     16444     16447
     16448     16451     16454     16455     16448     16451     16454     16456
     16448     16451     16454     16457     16449     16448     16451     16452
     16449     16448     16451     16453     16449     16448     16451     16454
     16450     16448     16451     16452     16450     16448     16451     16453
     16450     16448     16451     16454     16451     16454     16457     16458
     16451     16454     16457     16459     16451     16454     16457     16460
     16452     16451     16454     16455     16452     16451     16454     16456
     16452     16451     16454     16457     16453     16451     16454     16455
     16453     16451     16454     16456     16453     16451     16454     16457
     16454     16457     16460     16461     16454     16457     16460     16462
     16454     16457     16460     16463     16455     16454     16457     16458
     16455     16454     16457     16459     16455     16454     16457     16460
     16456     16454     16457     16458     16456     16454     16457     16459
     16456     16454     16457     16460     16457     16460     16463     16464
     16457     16460     16463     16465     16457     16460     16463     16466
     16458     16457     16460     16461     16458     16457     16460     16462
     16458     16457     16460     16463     16459     16457     16460     16461
     16459     16457     16460     16462     16459     16457     16460     16463
     16460     16463     16466     16467     16460     16463     16466     16468
     16460     16463     16466     16469     16461     16460     16463     16464
     16461     16460     16463     16465     16461     16460     16463     16466
     16462     16460     16463     16464     16462     16460     16463     16465
     16462     16460     16463     16466     16463     16466     16469     16470
     16463     16466     16469     16471     16463     16466     16469     16472
     16464     16463     16466     16467     16464     16463     16466     16468
     16464     16463     16466     16469     16465     16463     16466     16467
     16465     16463     16466     16468     16465     16463     16466     16469
     16466     16469     16472     16473     16466     16469     16472     16474
     16466     16469     16472     16475     16467     16466     16469     16470
     16467     16466     16469     16471     16467     16466     16469     16472
     16468     16466     16469     16470     16468     16466     16469     16471
     16468     16466     16469     16472     16469     16472     16475     16476
     16469     16472     16475     16477     16469     16472     16475     16478
     16470     16469     16472     16473     16470     16469     16472     16474
     16470     16469     16472     16475     16471     16469     16472     16473
     16471     16469     16472     16474     16471     16469     16472     16475
     16472     16475     16478     16479     16472     16475     16478     16480
     16472     16475     16478     16481     16473     16472     16475     16476
     16473     16472     16475     16477     16473     16472     16475     16478
     16474     16472     16475     16476     16474     16472     16475     16477
     16474     16472     16475     16478     16475     16478     16481     16482
     16475     16478     16481     16483     16475     16478     16481     16484
     16476     16475     16478     16479     16476     16475     16478     16480
     16476     16475     16478     16481     16477     16475     16478     16479
     16477     16475     16478     16480     16477     16475     16478     16481
     16478     16481     16484     16485     16478     16481     16484     16486
     16478     16481     16484     16487     16479     16478     16481     16482
     16479     16478     16481     16483     16479     16478     16481     16484
     16480     16478     16481     16482     16480     16478     16481     16483
     16480     16478     16481     16484     16481     16484     16487     16488
     16481     16484     16487     16489     16481     16484     16487     16490
     16482     16481     16484     16485     16482     16481     16484     16486
     16482     16481     16484     16487     16483     16481     16484     16485
     16483     16481     16484     16486     16483     16481     16484     16487
     16485     16484     16487     16488     16485     16484     16487     16489
     16485     16484     16487     16490     16486     16484     16487     16488
     16486     16484     16487     16489     16486     16484     16487     16490
     16491     16495     16498     16499     16491     16495     16498     16500
     16491     16495     16498     16505     16492     16491     16495     16496
     16492     16491     16495     16497     16492     16491     16495     16498
     16493     16491     16495     16496     16493     16491     16495     16497
     16493     16491     16495     16498     16494     16491     16495     16496
     16494     16491     16495     16497     16494     16491     16495     16498
     16495     16498     16505     16501     16496     16495     16498     16499
     16496     16495     16498     16500     16496     16495     16498     16505
     16497     16495     16498     16499     16497     16495     16498     16500
     16497     16495     16498     16505     16498     16505     16501     16502
     16498     16505     16501     16503     16498     16505     16501     16504
     16499     16498     16505     16501     16500     16498     16505     16501
     16501     16504     16506     16507     16501     16504     16506     16508
     16501     16504     16506     16509     16502     16501     16504     16506
     16503     16501     16504     16506     16504     16506     16509     16510
     16504     16506     16509     16511     16504     16506     16509     16517
     16505     16501     16504     16506     16506     16509     16511     16512
     16506     16509     16517     16518     16506     16509     16517     16519
     16506     16509     16517     16520     16507     16506     16509     16510
     16507     16506     16509     16511     16507     16506     16509     16517
     16508     16506     16509     16510     16508     16506     16509     16511
     16508     16506     16509     16517     16509     16511     16512     16513
     16509     16511     16512     16514     16509     16517     16520     16521
     16510     16509     16511     16512     16510     16509     16517     16518
     16510     16509     16517     16519     16510     16509     16517     16520
     16511     16509     16517     16518     16511     16509     16517     16519
     16511     16509     16517     16520     16511     16512     16514     16515
     16511     16512     16514     16516     16511     16512     16514     16526
     16512     16511     16509     16517     16512     16514     16526     16527
     16512     16514     16526     16528     16512     16514     16526     16529
     16513     16512     16514     16515     16513     16512     16514     16516
     16513     16512     16514     16526     16514     16526     16529     16530
     16514     16526     16529     16531     16514     16526     16529     16532
     16515     16514     16526     16527     16515     16514     16526     16528
     16515     16514     16526     16529     16516     16514     16526     16527
     16516     16514     16526     16528     16516     16514     16526     16529
     16517     16520     16521     16522     16517     16520     16521     16523
     16518     16517     16520     16521     16519     16517     16520     16521
     16520     16521     16523     16524     16520     16521     16523     16525
     16520     16521     16523     16567     16521     16523     16567     16568
     16521     16523     16567     16569     16521     16523     16567     16570
     16522     16521     16523     16524     16522     16521     16523     16525
     16522     16521     16523     16567     16523     16567     16570     16571
     16523     16567     16570     16572     16523     16567     16570     16573
     16524     16523     16567     16568     16524     16523     16567     16569
     16524     16523     16567     16570     16525     16523     16567     16568
     16525     16523     16567     16569     16525     16523     16567     16570
     16526     16529     16532     16533     16526     16529     16532     16534
     16526     16529     16532     16535     16527     16526     16529     16530
     16527     16526     16529     16531     16527     16526     16529     16532
     16528     16526     16529     16530     16528     16526     16529     16531
     16528     16526     16529     16532     16529     16532     16535     16536
     16529     16532     16535     16537     16529     16532     16535     16538
     16530     16529     16532     16533     16530     16529     16532     16534
     16530     16529     16532     16535     16531     16529     16532     16533
     16531     16529     16532     16534     16531     16529     16532     16535
     16532     16535     16538     16539     16532     16535     16538     16540
     16532     16535     16538     16541     16533     16532     16535     16536
     16533     16532     16535     16537     16533     16532     16535     16538
     16534     16532     16535     16536     16534     16532     16535     16537
     16534     16532     16535     16538     16535     16538     16541     16542
     16535     16538     16541     16543     16535     16538     16541     16544
     16536     16535     16538     16539     16536     16535     16538     16540
     16536     16535     16538     16541     16537     16535     16538     16539
     16537     16535     16538     16540     16537     16535     16538     16541
     16538     16541     16544     16545     16538     16541     16544     16546
     16539     16538     16541     16542     16539     16538     16541     16543
     16539     16538     16541     16544     16540     16538     16541     16542
     16540     16538     16541     16543     16540     16538     16541     16544
     16541     16544     16546     16547     16541     16544     16546     16548
     16542     16541     16544     16545     16542     16541     16544     16546
     16543     16541     16544     16545     16543     16541     16544     16546
     16544     16546     16548     16549     16544     16546     16548     16550
     16544     16546     16548     16551     16545     16544     16546     16547
     16545     16544     16546     16548     16546     16548     16551     16552
     16546     16548     16551     16553     16546     16548     16551     16554
     16547     16546     16548     16549     16547     16546     16548     16550
     16547     16546     16548     16551     16548     16551     16554     16555
     16548     16551     16554     16556     16548     16551     16554     16557
     16549     16548     16551     16552     16549     16548     16551     16553
     16549     16548     16551     16554     16550     16548     16551     16552
     16550     16548     16551     16553     16550     16548     16551     16554
     16551     16554     16557     16558     16551     16554     16557     16559
     16551     16554     16557     16560     16552     16551     16554     16555
     16552     16551     16554     16556     16552     16551     16554     16557
     16553     16551     16554     16555     16553     16551     16554     16556
     16553     16551     16554     16557     16554     16557     16560     16561
     16554     16557     16560     16562     16554     16557     16560     16563
     16555     16554     16557     16558     16555     16554     16557     16559
     16555     16554     16557     16560     16556     16554     16557     16558
     16556     16554     16557     16559     16556     16554     16557     16560
     16557     16560     16563     16564     16557     16560     16563     16565
     16557     16560     16563     16566     16558     16557     16560     16561
     16558     16557     16560     16562     16558     16557     16560     16563
     16559     16557     16560     16561     16559     16557     16560     16562
     16559     16557     16560     16563     16561     16560     16563     16564
     16561     16560     16563     16565     16561     16560     16563     16566
     16562     16560     16563     16564     16562     16560     16563     16565
     16562     16560     16563     16566     16567     16570     16573     16574
     16567     16570     16573     16575     16567     16570     16573     16576
     16568     16567     16570     16571     16568     16567     16570     16572
     16568     16567     16570     16573     16569     16567     16570     16571
     16569     16567     16570     16572     16569     16567     16570     16573
     16570     16573     16576     16577     16570     16573     16576     16578
     16570     16573     16576     16579     16571     16570     16573     16574
     16571     16570     16573     16575     16571     16570     16573     16576
     16572     16570     16573     16574     16572     16570     16573     16575
     16572     16570     16573     16576     16573     16576     16579     16580
     16573     16576     16579     16581     16573     16576     16579     16582
     16574     16573     16576     16577     16574     16573     16576     16578
     16574     16573     16576     16579     16575     16573     16576     16577
     16575     16573     16576     16578     16575     16573     16576     16579
     16576     16579     16582     16583     16576     16579     16582     16584
     16576     16579     16582     16585     16577     16576     16579     16580
     16577     16576     16579     16581     16577     16576     16579     16582
     16578     16576     16579     16580     16578     16576     16579     16581
     16578     16576     16579     16582     16579     16582     16585     16586
     16579     16582     16585     16587     16580     16579     16582     16583
     16580     16579     16582     16584     16580     16579     16582     16585
     16581     16579     16582     16583     16581     16579     16582     16584
     16581     16579     16582     16585     16582     16585     16587     16588
     16582     16585     16587     16589     16583     16582     16585     16586
     16583     16582     16585     16587     16584     16582     16585     16586
     16584     16582     16585     16587     16585     16587     16589     16590
     16585     16587     16589     16591     16585     16587     16589     16592
     16586     16585     16587     16588     16586     16585     16587     16589
     16587     16589     16592     16593     16587     16589     16592     16594
     16587     16589     16592     16595     16588     16587     16589     16590
     16588     16587     16589     16591     16588     16587     16589     16592
     16589     16592     16595     16596     16589     16592     16595     16597
     16589     16592     16595     16598     16590     16589     16592     16593
     16590     16589     16592     16594     16590     16589     16592     16595
     16591     16589     16592     16593     16591     16589     16592     16594
     16591     16589     16592     16595     16592     16595     16598     16599
     16592     16595     16598     16600     16592     16595     16598     16601
     16593     16592     16595     16596     16593     16592     16595     16597
     16593     16592     16595     16598     16594     16592     16595     16596
     16594     16592     16595     16597     16594     16592     16595     16598
     16595     16598     16601     16602     16595     16598     16601     16603
     16595     16598     16601     16604     16596     16595     16598     16599
     16596     16595     16598     16600     16596     16595     16598     16601
     16597     16595     16598     16599     16597     16595     16598     16600
     16597     16595     16598     16601     16598     16601     16604     16605
     16598     16601     16604     16606     16598     16601     16604     16607
     16599     16598     16601     16602     16599     16598     16601     16603
     16599     16598     16601     16604     16600     16598     16601     16602
     16600     16598     16601     16603     16600     16598     16601     16604
     16601     16604     16607     16608     16601     16604     16607     16609
     16601     16604     16607     16610     16602     16601     16604     16605
     16602     16601     16604     16606     16602     16601     16604     16607
     16603     16601     16604     16605     16603     16601     16604     16606
     16603     16601     16604     16607     16604     16607     16610     16611
     16604     16607     16610     16612     16604     16607     16610     16613
     16605     16604     16607     16608     16605     16604     16607     16609
     16605     16604     16607     16610     16606     16604     16607     16608
     16606     16604     16607     16609     16606     16604     16607     16610
     16608     16607     16610     16611     16608     16607     16610     16612
     16608     16607     16610     16613     16609     16607     16610     16611
     16609     16607     16610     16612     16609     16607     16610     16613
     16614     16618     16621     16622     16614     16618     16621     16623
     16614     16618     16621     16628     16615     16614     16618     16619
     16615     16614     16618     16620     16615     16614     16618     16621
     16616     16614     16618     16619     16616     16614     16618     16620
     16616     16614     16618     16621     16617     16614     16618     16619
     16617     16614     16618     16620     16617     16614     16618     16621
     16618     16621     16628     16624     16619     16618     16621     16622
     16619     16618     16621     16623     16619     16618     16621     16628
     16620     16618     16621     16622     16620     16618     16621     16623
     16620     16618     16621     16628     16621     16628     16624     16625
     16621     16628     16624     16626     16621     16628     16624     16627
     16622     16621     16628     16624     16623     16621     16628     16624
     16624     16627     16629     16630     16624     16627     16629     16631
     16624     16627     16629     16632     16625     16624     16627     16629
     16626     16624     16627     16629     16627     16629     16632     16633
     16627     16629     16632     16634     16627     16629     16632     16640
     16628     16624     16627     16629     16629     16632     16634     16635
     16629     16632     16640     16641     16629     16632     16640     16642
     16629     16632     16640     16643     16630     16629     16632     16633
     16630     16629     16632     16634     16630     16629     16632     16640
     16631     16629     16632     16633     16631     16629     16632     16634
     16631     16629     16632     16640     16632     16634     16635     16636
     16632     16634     16635     16637     16632     16640     16643     16644
     16633     16632     16634     16635     16633     16632     16640     16641
     16633     16632     16640     16642     16633     16632     16640     16643
     16634     16632     16640     16641     16634     16632     16640     16642
     16634     16632     16640     16643     16634     16635     16637     16638
     16634     16635     16637     16639     16634     16635     16637     16649
     16635     16634     16632     16640     16635     16637     16649     16650
     16635     16637     16649     16651     16635     16637     16649     16652
     16636     16635     16637     16638     16636     16635     16637     16639
     16636     16635     16637     16649     16637     16649     16652     16653
     16637     16649     16652     16654     16637     16649     16652     16655
     16638     16637     16649     16650     16638     16637     16649     16651
     16638     16637     16649     16652     16639     16637     16649     16650
     16639     16637     16649     16651     16639     16637     16649     16652
     16640     16643     16644     16645     16640     16643     16644     16646
     16641     16640     16643     16644     16642     16640     16643     16644
     16643     16644     16646     16647     16643     16644     16646     16648
     16643     16644     16646     16693     16644     16646     16693     16694
     16644     16646     16693     16695     16644     16646     16693     16696
     16645     16644     16646     16647     16645     16644     16646     16648
     16645     16644     16646     16693     16646     16693     16696     16697
     16646     16693     16696     16698     16646     16693     16696     16699
     16647     16646     16693     16694     16647     16646     16693     16695
     16647     16646     16693     16696     16648     16646     16693     16694
     16648     16646     16693     16695     16648     16646     16693     16696
     16649     16652     16655     16656     16649     16652     16655     16657
     16649     16652     16655     16658     16650     16649     16652     16653
     16650     16649     16652     16654     16650     16649     16652     16655
     16651     16649     16652     16653     16651     16649     16652     16654
     16651     16649     16652     16655     16652     16655     16658     16659
     16652     16655     16658     16660     16652     16655     16658     16661
     16653     16652     16655     16656     16653     16652     16655     16657
     16653     16652     16655     16658     16654     16652     16655     16656
     16654     16652     16655     16657     16654     16652     16655     16658
     16655     16658     16661     16662     16655     16658     16661     16663
     16655     16658     16661     16664     16656     16655     16658     16659
     16656     16655     16658     16660     16656     16655     16658     16661
     16657     16655     16658     16659     16657     16655     16658     16660
     16657     16655     16658     16661     16658     16661     16664     16665
     16658     16661     16664     16666     16658     16661     16664     16667
     16659     16658     16661     16662     16659     16658     16661     16663
     16659     16658     16661     16664     16660     16658     16661     16662
     16660     16658     16661     16663     16660     16658     16661     16664
     16661     16664     16667     16668     16661     16664     16667     16669
     16661     16664     16667     16672     16662     16661     16664     16665
     16662     16661     16664     16666     16662     16661     16664     16667
     16663     16661     16664     16665     16663     16661     16664     16666
     16663     16661     16664     16667     16664     16667     16669     16670
     16664     16667     16669     16671     16664     16667     16669     16672
     16664     16667     16672     16669     16664     16667     16672     16673
     16664     16667     16672     16674     16665     16664     16667     16668
     16665     16664     16667     16669     16665     16664     16667     16672
     16666     16664     16667     16668     16666     16664     16667     16669
     16666     16664     16667     16672     16667     16669     16672     16673
     16667     16669     16672     16674     16667     16672     16669     16670
     16667     16672     16669     16671     16667     16672     16674     16675
     16667     16672     16674     16676     16667     16672     16674     16677
     16668     16667     16669     16670     16668     16667     16669     16671
     16668     16667     16669     16672     16668     16667     16672     16669
     16668     16667     16672     16673     16668     16667     16672     16674
     16669     16667     16672     16673     16669     16667     16672     16674
     16669     16672     16674     16675     16669     16672     16674     16676
     16669     16672     16674     16677     16670     16669     16667     16672
     16670     16669     16672     16673     16670     16669     16672     16674
     16671     16669     16667     16672     16671     16669     16672     16673
     16671     16669     16672     16674     16672     16674     16677     16678
     16672     16674     16677     16679     16672     16674     16677     16680
     16673     16672     16674     16675     16673     16672     16674     16676
     16673     16672     16674     16677     16674     16677     16680     16681
     16674     16677     16680     16682     16674     16677     16680     16683
     16675     16674     16677     16678     16675     16674     16677     16679
     16675     16674     16677     16680     16676     16674     16677     16678
     16676     16674     16677     16679     16676     16674     16677     16680
     16677     16680     16683     16684     16677     16680     16683     16685
     16677     16680     16683     16686     16678     16677     16680     16681
     16678     16677     16680     16682     16678     16677     16680     16683
     16679     16677     16680     16681     16679     16677     16680     16682
     16679     16677     16680     16683     16680     16683     16686     16687
     16680     16683     16686     16688     16680     16683     16686     16689
     16681     16680     16683     16684     16681     16680     16683     16685
     16681     16680     16683     16686     16682     16680     16683     16684
     16682     16680     16683     16685     16682     16680     16683     16686
     16683     16686     16689     16690     16683     16686     16689     16691
     16683     16686     16689     16692     16684     16683     16686     16687
     16684     16683     16686     16688     16684     16683     16686     16689
     16685     16683     16686     16687     16685     16683     16686     16688
     16685     16683     16686     16689     16687     16686     16689     16690
     16687     16686     16689     16691     16687     16686     16689     16692
     16688     16686     16689     16690     16688     16686     16689     16691
     16688     16686     16689     16692     16693     16696     16699     16700
     16693     16696     16699     16701     16693     16696     16699     16702
     16694     16693     16696     16697     16694     16693     16696     16698
     16694     16693     16696     16699     16695     16693     16696     16697
     16695     16693     16696     16698     16695     16693     16696     16699
     16696     16699     16702     16703     16696     16699     16702     16704
     16696     16699     16702     16705     16697     16696     16699     16700
     16697     16696     16699     16701     16697     16696     16699     16702
     16698     16696     16699     16700     16698     16696     16699     16701
     16698     16696     16699     16702     16699     16702     16705     16706
     16699     16702     16705     16707     16699     16702     16705     16708
     16700     16699     16702     16703     16700     16699     16702     16704
     16700     16699     16702     16705     16701     16699     16702     16703
     16701     16699     16702     16704     16701     16699     16702     16705
     16702     16705     16708     16709     16702     16705     16708     16710
     16702     16705     16708     16711     16703     16702     16705     16706
     16703     16702     16705     16707     16703     16702     16705     16708
     16704     16702     16705     16706     16704     16702     16705     16707
     16704     16702     16705     16708     16705     16708     16711     16712
     16705     16708     16711     16713     16705     16708     16711     16714
     16706     16705     16708     16709     16706     16705     16708     16710
     16706     16705     16708     16711     16707     16705     16708     16709
     16707     16705     16708     16710     16707     16705     16708     16711
     16708     16711     16714     16715     16708     16711     16714     16716
     16708     16711     16714     16717     16709     16708     16711     16712
     16709     16708     16711     16713     16709     16708     16711     16714
     16710     16708     16711     16712     16710     16708     16711     16713
     16710     16708     16711     16714     16711     16714     16717     16718
     16711     16714     16717     16719     16711     16714     16717     16720
     16712     16711     16714     16715     16712     16711     16714     16716
     16712     16711     16714     16717     16713     16711     16714     16715
     16713     16711     16714     16716     16713     16711     16714     16717
     16714     16717     16720     16721     16714     16717     16720     16722
     16714     16717     16720     16723     16715     16714     16717     16718
     16715     16714     16717     16719     16715     16714     16717     16720
     16716     16714     16717     16718     16716     16714     16717     16719
     16716     16714     16717     16720     16717     16720     16723     16724
     16717     16720     16723     16725     16717     16720     16723     16726
     16718     16717     16720     16721     16718     16717     16720     16722
     16718     16717     16720     16723     16719     16717     16720     16721
     16719     16717     16720     16722     16719     16717     16720     16723
     16720     16723     16726     16727     16720     16723     16726     16728
     16720     16723     16726     16729     16721     16720     16723     16724
     16721     16720     16723     16725     16721     16720     16723     16726
     16722     16720     16723     16724     16722     16720     16723     16725
     16722     16720     16723     16726     16723     16726     16729     16730
     16723     16726     16729     16731     16723     16726     16729     16732
     16724     16723     16726     16727     16724     16723     16726     16728
     16724     16723     16726     16729     16725     16723     16726     16727
     16725     16723     16726     16728     16725     16723     16726     16729
     16726     16729     16732     16733     16726     16729     16732     16734
     16726     16729     16732     16735     16727     16726     16729     16730
     16727     16726     16729     16731     16727     16726     16729     16732
     16728     16726     16729     16730     16728     16726     16729     16731
     16728     16726     16729     16732     16730     16729     16732     16733
     16730     16729     16732     16734     16730     16729     16732     16735
     16731     16729     16732     16733     16731     16729     16732     16734
     16731     16729     16732     16735     16736     16740     16743     16744
     16736     16740     16743     16745     16736     16740     16743     16750
     16737     16736     16740     16741     16737     16736     16740     16742
     16737     16736     16740     16743     16738     16736     16740     16741
     16738     16736     16740     16742     16738     16736     16740     16743
     16739     16736     16740     16741     16739     16736     16740     16742
     16739     16736     16740     16743     16740     16743     16750     16746
     16741     16740     16743     16744     16741     16740     16743     16745
     16741     16740     16743     16750     16742     16740     16743     16744
     16742     16740     16743     16745     16742     16740     16743     16750
     16743     16750     16746     16747     16743     16750     16746     16748
     16743     16750     16746     16749     16744     16743     16750     16746
     16745     16743     16750     16746     16746     16749     16751     16752
     16746     16749     16751     16753     16746     16749     16751     16754
     16747     16746     16749     16751     16748     16746     16749     16751
     16749     16751     16754     16755     16749     16751     16754     16756
     16749     16751     16754     16762     16750     16746     16749     16751
     16751     16754     16756     16757     16751     16754     16762     16763
     16751     16754     16762     16764     16751     16754     16762     16765
     16752     16751     16754     16755     16752     16751     16754     16756
     16752     16751     16754     16762     16753     16751     16754     16755
     16753     16751     16754     16756     16753     16751     16754     16762
     16754     16756     16757     16758     16754     16756     16757     16759
     16754     16762     16765     16766     16755     16754     16756     16757
     16755     16754     16762     16763     16755     16754     16762     16764
     16755     16754     16762     16765     16756     16754     16762     16763
     16756     16754     16762     16764     16756     16754     16762     16765
     16756     16757     16759     16760     16756     16757     16759     16761
     16756     16757     16759     16771     16757     16756     16754     16762
     16757     16759     16771     16772     16757     16759     16771     16773
     16757     16759     16771     16774     16758     16757     16759     16760
     16758     16757     16759     16761     16758     16757     16759     16771
     16759     16771     16774     16775     16759     16771     16774     16776
     16759     16771     16774     16777     16760     16759     16771     16772
     16760     16759     16771     16773     16760     16759     16771     16774
     16761     16759     16771     16772     16761     16759     16771     16773
     16761     16759     16771     16774     16762     16765     16766     16767
     16762     16765     16766     16768     16763     16762     16765     16766
     16764     16762     16765     16766     16765     16766     16768     16769
     16765     16766     16768     16770     16765     16766     16768     16815
     16766     16768     16815     16816     16766     16768     16815     16817
     16766     16768     16815     16818     16767     16766     16768     16769
     16767     16766     16768     16770     16767     16766     16768     16815
     16768     16815     16818     16819     16768     16815     16818     16820
     16768     16815     16818     16821     16769     16768     16815     16816
     16769     16768     16815     16817     16769     16768     16815     16818
     16770     16768     16815     16816     16770     16768     16815     16817
     16770     16768     16815     16818     16771     16774     16777     16778
     16771     16774     16777     16779     16771     16774     16777     16780
     16772     16771     16774     16775     16772     16771     16774     16776
     16772     16771     16774     16777     16773     16771     16774     16775
     16773     16771     16774     16776     16773     16771     16774     16777
     16774     16777     16780     16781     16774     16777     16780     16782
     16774     16777     16780     16783     16775     16774     16777     16778
     16775     16774     16777     16779     16775     16774     16777     16780
     16776     16774     16777     16778     16776     16774     16777     16779
     16776     16774     16777     16780     16777     16780     16783     16784
     16777     16780     16783     16785     16777     16780     16783     16786
     16778     16777     16780     16781     16778     16777     16780     16782
     16778     16777     16780     16783     16779     16777     16780     16781
     16779     16777     16780     16782     16779     16777     16780     16783
     16780     16783     16786     16787     16780     16783     16786     16788
     16780     16783     16786     16789     16781     16780     16783     16784
     16781     16780     16783     16785     16781     16780     16783     16786
     16782     16780     16783     16784     16782     16780     16783     16785
     16782     16780     16783     16786     16783     16786     16789     16790
     16783     16786     16789     16791     16783     16786     16789     16794
     16784     16783     16786     16787     16784     16783     16786     16788
     16784     16783     16786     16789     16785     16783     16786     16787
     16785     16783     16786     16788     16785     16783     16786     16789
     16786     16789     16791     16792     16786     16789     16791     16793
     16786     16789     16791     16794     16786     16789     16794     16791
     16786     16789     16794     16795     16786     16789     16794     16796
     16787     16786     16789     16790     16787     16786     16789     16791
     16787     16786     16789     16794     16788     16786     16789     16790
     16788     16786     16789     16791     16788     16786     16789     16794
     16789     16791     16794     16795     16789     16791     16794     16796
     16789     16794     16791     16792     16789     16794     16791     16793
     16789     16794     16796     16797     16789     16794     16796     16798
     16789     16794     16796     16799     16790     16789     16791     16792
     16790     16789     16791     16793     16790     16789     16791     16794
     16790     16789     16794     16791     16790     16789     16794     16795
     16790     16789     16794     16796     16791     16789     16794     16795
     16791     16789     16794     16796     16791     16794     16796     16797
     16791     16794     16796     16798     16791     16794     16796     16799
     16792     16791     16789     16794     16792     16791     16794     16795
     16792     16791     16794     16796     16793     16791     16789     16794
     16793     16791     16794     16795     16793     16791     16794     16796
     16794     16796     16799     16800     16794     16796     16799     16801
     16794     16796     16799     16802     16795     16794     16796     16797
     16795     16794     16796     16798     16795     16794     16796     16799
     16796     16799     16802     16803     16796     16799     16802     16804
     16796     16799     16802     16805     16797     16796     16799     16800
     16797     16796     16799     16801     16797     16796     16799     16802
     16798     16796     16799     16800     16798     16796     16799     16801
     16798     16796     16799     16802     16799     16802     16805     16806
     16799     16802     16805     16807     16799     16802     16805     16808
     16800     16799     16802     16803     16800     16799     16802     16804
     16800     16799     16802     16805     16801     16799     16802     16803
     16801     16799     16802     16804     16801     16799     16802     16805
     16802     16805     16808     16809     16802     16805     16808     16810
     16802     16805     16808     16811     16803     16802     16805     16806
     16803     16802     16805     16807     16803     16802     16805     16808
     16804     16802     16805     16806     16804     16802     16805     16807
     16804     16802     16805     16808     16805     16808     16811     16812
     16805     16808     16811     16813     16805     16808     16811     16814
     16806     16805     16808     16809     16806     16805     16808     16810
     16806     16805     16808     16811     16807     16805     16808     16809
     16807     16805     16808     16810     16807     16805     16808     16811
     16809     16808     16811     16812     16809     16808     16811     16813
     16809     16808     16811     16814     16810     16808     16811     16812
     16810     16808     16811     16813     16810     16808     16811     16814
     16815     16818     16821     16822     16815     16818     16821     16823
     16815     16818     16821     16824     16816     16815     16818     16819
     16816     16815     16818     16820     16816     16815     16818     16821
     16817     16815     16818     16819     16817     16815     16818     16820
     16817     16815     16818     16821     16818     16821     16824     16825
     16818     16821     16824     16826     16818     16821     16824     16827
     16819     16818     16821     16822     16819     16818     16821     16823
     16819     16818     16821     16824     16820     16818     16821     16822
     16820     16818     16821     16823     16820     16818     16821     16824
     16821     16824     16827     16828     16821     16824     16827     16829
     16821     16824     16827     16830     16822     16821     16824     16825
     16822     16821     16824     16826     16822     16821     16824     16827
     16823     16821     16824     16825     16823     16821     16824     16826
     16823     16821     16824     16827     16824     16827     16830     16831
     16824     16827     16830     16832     16824     16827     16830     16833
     16825     16824     16827     16828     16825     16824     16827     16829
     16825     16824     16827     16830     16826     16824     16827     16828
     16826     16824     16827     16829     16826     16824     16827     16830
     16827     16830     16833     16834     16827     16830     16833     16835
     16827     16830     16833     16836     16828     16827     16830     16831
     16828     16827     16830     16832     16828     16827     16830     16833
     16829     16827     16830     16831     16829     16827     16830     16832
     16829     16827     16830     16833     16830     16833     16836     16837
     16830     16833     16836     16838     16830     16833     16836     16839
     16831     16830     16833     16834     16831     16830     16833     16835
     16831     16830     16833     16836     16832     16830     16833     16834
     16832     16830     16833     16835     16832     16830     16833     16836
     16833     16836     16839     16840     16833     16836     16839     16841
     16833     16836     16839     16842     16834     16833     16836     16837
     16834     16833     16836     16838     16834     16833     16836     16839
     16835     16833     16836     16837     16835     16833     16836     16838
     16835     16833     16836     16839     16836     16839     16842     16843
     16836     16839     16842     16844     16836     16839     16842     16845
     16837     16836     16839     16840     16837     16836     16839     16841
     16837     16836     16839     16842     16838     16836     16839     16840
     16838     16836     16839     16841     16838     16836     16839     16842
     16839     16842     16845     16846     16839     16842     16845     16847
     16839     16842     16845     16848     16840     16839     16842     16843
     16840     16839     16842     16844     16840     16839     16842     16845
     16841     16839     16842     16843     16841     16839     16842     16844
     16841     16839     16842     16845     16842     16845     16848     16849
     16842     16845     16848     16850     16842     16845     16848     16851
     16843     16842     16845     16846     16843     16842     16845     16847
     16843     16842     16845     16848     16844     16842     16845     16846
     16844     16842     16845     16847     16844     16842     16845     16848
     16845     16848     16851     16852     16845     16848     16851     16853
     16845     16848     16851     16854     16846     16845     16848     16849
     16846     16845     16848     16850     16846     16845     16848     16851
     16847     16845     16848     16849     16847     16845     16848     16850
     16847     16845     16848     16851     16848     16851     16854     16855
     16848     16851     16854     16856     16848     16851     16854     16857
     16849     16848     16851     16852     16849     16848     16851     16853
     16849     16848     16851     16854     16850     16848     16851     16852
     16850     16848     16851     16853     16850     16848     16851     16854
     16852     16851     16854     16855     16852     16851     16854     16856
     16852     16851     16854     16857     16853     16851     16854     16855
     16853     16851     16854     16856     16853     16851     16854     16857
     16858     16862     16865     16866     16858     16862     16865     16867
     16858     16862     16865     16872     16859     16858     16862     16863
     16859     16858     16862     16864     16859     16858     16862     16865
     16860     16858     16862     16863     16860     16858     16862     16864
     16860     16858     16862     16865     16861     16858     16862     16863
     16861     16858     16862     16864     16861     16858     16862     16865
     16862     16865     16872     16868     16863     16862     16865     16866
     16863     16862     16865     16867     16863     16862     16865     16872
     16864     16862     16865     16866     16864     16862     16865     16867
     16864     16862     16865     16872     16865     16872     16868     16869
     16865     16872     16868     16870     16865     16872     16868     16871
     16866     16865     16872     16868     16867     16865     16872     16868
     16868     16871     16873     16874     16868     16871     16873     16875
     16868     16871     16873     16876     16869     16868     16871     16873
     16870     16868     16871     16873     16871     16873     16876     16877
     16871     16873     16876     16878     16871     16873     16876     16884
     16872     16868     16871     16873     16873     16876     16878     16879
     16873     16876     16884     16885     16873     16876     16884     16886
     16873     16876     16884     16887     16874     16873     16876     16877
     16874     16873     16876     16878     16874     16873     16876     16884
     16875     16873     16876     16877     16875     16873     16876     16878
     16875     16873     16876     16884     16876     16878     16879     16880
     16876     16878     16879     16881     16876     16884     16887     16888
     16877     16876     16878     16879     16877     16876     16884     16885
     16877     16876     16884     16886     16877     16876     16884     16887
     16878     16876     16884     16885     16878     16876     16884     16886
     16878     16876     16884     16887     16878     16879     16881     16882
     16878     16879     16881     16883     16878     16879     16881     16893
     16879     16878     16876     16884     16879     16881     16893     16894
     16879     16881     16893     16895     16879     16881     16893     16896
     16880     16879     16881     16882     16880     16879     16881     16883
     16880     16879     16881     16893     16881     16893     16896     16897
     16881     16893     16896     16898     16881     16893     16896     16899
     16882     16881     16893     16894     16882     16881     16893     16895
     16882     16881     16893     16896     16883     16881     16893     16894
     16883     16881     16893     16895     16883     16881     16893     16896
     16884     16887     16888     16889     16884     16887     16888     16890
     16885     16884     16887     16888     16886     16884     16887     16888
     16887     16888     16890     16891     16887     16888     16890     16892
     16887     16888     16890     16937     16888     16890     16937     16938
     16888     16890     16937     16939     16888     16890     16937     16940
     16889     16888     16890     16891     16889     16888     16890     16892
     16889     16888     16890     16937     16890     16937     16940     16941
     16890     16937     16940     16942     16890     16937     16940     16943
     16891     16890     16937     16938     16891     16890     16937     16939
     16891     16890     16937     16940     16892     16890     16937     16938
     16892     16890     16937     16939     16892     16890     16937     16940
     16893     16896     16899     16900     16893     16896     16899     16901
     16893     16896     16899     16902     16894     16893     16896     16897
     16894     16893     16896     16898     16894     16893     16896     16899
     16895     16893     16896     16897     16895     16893     16896     16898
     16895     16893     16896     16899     16896     16899     16902     16903
     16896     16899     16902     16904     16896     16899     16902     16905
     16897     16896     16899     16900     16897     16896     16899     16901
     16897     16896     16899     16902     16898     16896     16899     16900
     16898     16896     16899     16901     16898     16896     16899     16902
     16899     16902     16905     16906     16899     16902     16905     16907
     16899     16902     16905     16908     16900     16899     16902     16903
     16900     16899     16902     16904     16900     16899     16902     16905
     16901     16899     16902     16903     16901     16899     16902     16904
     16901     16899     16902     16905     16902     16905     16908     16909
     16902     16905     16908     16910     16902     16905     16908     16911
     16903     16902     16905     16906     16903     16902     16905     16907
     16903     16902     16905     16908     16904     16902     16905     16906
     16904     16902     16905     16907     16904     16902     16905     16908
     16905     16908     16911     16912     16905     16908     16911     16913
     16905     16908     16911     16916     16906     16905     16908     16909
     16906     16905     16908     16910     16906     16905     16908     16911
     16907     16905     16908     16909     16907     16905     16908     16910
     16907     16905     16908     16911     16908     16911     16913     16914
     16908     16911     16913     16915     16908     16911     16913     16916
     16908     16911     16916     16913     16908     16911     16916     16917
     16908     16911     16916     16918     16909     16908     16911     16912
     16909     16908     16911     16913     16909     16908     16911     16916
     16910     16908     16911     16912     16910     16908     16911     16913
     16910     16908     16911     16916     16911     16913     16916     16917
     16911     16913     16916     16918     16911     16916     16913     16914
     16911     16916     16913     16915     16911     16916     16918     16919
     16911     16916     16918     16920     16911     16916     16918     16921
     16912     16911     16913     16914     16912     16911     16913     16915
     16912     16911     16913     16916     16912     16911     16916     16913
     16912     16911     16916     16917     16912     16911     16916     16918
     16913     16911     16916     16917     16913     16911     16916     16918
     16913     16916     16918     16919     16913     16916     16918     16920
     16913     16916     16918     16921     16914     16913     16911     16916
     16914     16913     16916     16917     16914     16913     16916     16918
     16915     16913     16911     16916     16915     16913     16916     16917
     16915     16913     16916     16918     16916     16918     16921     16922
     16916     16918     16921     16923     16916     16918     16921     16924
     16917     16916     16918     16919     16917     16916     16918     16920
     16917     16916     16918     16921     16918     16921     16924     16925
     16918     16921     16924     16926     16918     16921     16924     16927
     16919     16918     16921     16922     16919     16918     16921     16923
     16919     16918     16921     16924     16920     16918     16921     16922
     16920     16918     16921     16923     16920     16918     16921     16924
     16921     16924     16927     16928     16921     16924     16927     16929
     16921     16924     16927     16930     16922     16921     16924     16925
     16922     16921     16924     16926     16922     16921     16924     16927
     16923     16921     16924     16925     16923     16921     16924     16926
     16923     16921     16924     16927     16924     16927     16930     16931
     16924     16927     16930     16932     16924     16927     16930     16933
     16925     16924     16927     16928     16925     16924     16927     16929
     16925     16924     16927     16930     16926     16924     16927     16928
     16926     16924     16927     16929     16926     16924     16927     16930
     16927     16930     16933     16934     16927     16930     16933     16935
     16927     16930     16933     16936     16928     16927     16930     16931
     16928     16927     16930     16932     16928     16927     16930     16933
     16929     16927     16930     16931     16929     16927     16930     16932
     16929     16927     16930     16933     16931     16930     16933     16934
     16931     16930     16933     16935     16931     16930     16933     16936
     16932     16930     16933     16934     16932     16930     16933     16935
     16932     16930     16933     16936     16937     16940     16943     16944
     16937     16940     16943     16945     16937     16940     16943     16946
     16938     16937     16940     16941     16938     16937     16940     16942
     16938     16937     16940     16943     16939     16937     16940     16941
     16939     16937     16940     16942     16939     16937     16940     16943
     16940     16943     16946     16947     16940     16943     16946     16948
     16940     16943     16946     16949     16941     16940     16943     16944
     16941     16940     16943     16945     16941     16940     16943     16946
     16942     16940     16943     16944     16942     16940     16943     16945
     16942     16940     16943     16946     16943     16946     16949     16950
     16943     16946     16949     16951     16943     16946     16949     16952
     16944     16943     16946     16947     16944     16943     16946     16948
     16944     16943     16946     16949     16945     16943     16946     16947
     16945     16943     16946     16948     16945     16943     16946     16949
     16946     16949     16952     16953     16946     16949     16952     16954
     16946     16949     16952     16955     16947     16946     16949     16950
     16947     16946     16949     16951     16947     16946     16949     16952
     16948     16946     16949     16950     16948     16946     16949     16951
     16948     16946     16949     16952     16949     16952     16955     16956
     16949     16952     16955     16957     16949     16952     16955     16958
     16950     16949     16952     16953     16950     16949     16952     16954
     16950     16949     16952     16955     16951     16949     16952     16953
     16951     16949     16952     16954     16951     16949     16952     16955
     16952     16955     16958     16959     16952     16955     16958     16960
     16952     16955     16958     16961     16953     16952     16955     16956
     16953     16952     16955     16957     16953     16952     16955     16958
     16954     16952     16955     16956     16954     16952     16955     16957
     16954     16952     16955     16958     16955     16958     16961     16962
     16955     16958     16961     16963     16955     16958     16961     16964
     16956     16955     16958     16959     16956     16955     16958     16960
     16956     16955     16958     16961     16957     16955     16958     16959
     16957     16955     16958     16960     16957     16955     16958     16961
     16958     16961     16964     16965     16958     16961     16964     16966
     16958     16961     16964     16967     16959     16958     16961     16962
     16959     16958     16961     16963     16959     16958     16961     16964
     16960     16958     16961     16962     16960     16958     16961     16963
     16960     16958     16961     16964     16961     16964     16967     16968
     16961     16964     16967     16969     16961     16964     16967     16970
     16962     16961     16964     16965     16962     16961     16964     16966
     16962     16961     16964     16967     16963     16961     16964     16965
     16963     16961     16964     16966     16963     16961     16964     16967
     16964     16967     16970     16971     16964     16967     16970     16972
     16964     16967     16970     16973     16965     16964     16967     16968
     16965     16964     16967     16969     16965     16964     16967     16970
     16966     16964     16967     16968     16966     16964     16967     16969
     16966     16964     16967     16970     16967     16970     16973     16974
     16967     16970     16973     16975     16967     16970     16973     16976
     16968     16967     16970     16971     16968     16967     16970     16972
     16968     16967     16970     16973     16969     16967     16970     16971
     16969     16967     16970     16972     16969     16967     16970     16973
     16971     16970     16973     16974     16971     16970     16973     16975
     16971     16970     16973     16976     16972     16970     16973     16974
     16972     16970     16973     16975     16972     16970     16973     16976
     16977     16982     16984     16985     16977     16982     16986     16987
     16977     16982     16986     16988     16977     16982     16986     16993
     16978     16977     16980     16981     16978     16977     16982     16983
     16978     16977     16982     16984     16978     16977     16982     16986
     16979     16977     16980     16981     16979     16977     16982     16983
     16979     16977     16982     16984     16979     16977     16982     16986
     16980     16977     16982     16983     16980     16977     16982     16984
     16980     16977     16982     16986     16981     16980     16977     16982
     16982     16986     16993     16989     16983     16982     16984     16985
     16983     16982     16986     16987     16983     16982     16986     16988
     16983     16982     16986     16993     16984     16982     16986     16987
     16984     16982     16986     16988     16984     16982     16986     16993
     16985     16984     16982     16986     16986     16993     16989     16990
     16986     16993     16989     16991     16986     16993     16989     16992
     16987     16986     16993     16989     16988     16986     16993     16989
     16989     16992     16994     16995     16989     16992     16994     16996
     16989     16992     16994     16997     16990     16989     16992     16994
     16991     16989     16992     16994     16992     16994     16997     16998
     16992     16994     16997     16999     16992     16994     16997     17005
     16993     16989     16992     16994     16994     16997     16999     17000
     16994     16997     17005     17006     16994     16997     17005     17007
     16994     16997     17005     17008     16995     16994     16997     16998
     16995     16994     16997     16999     16995     16994     16997     17005
     16996     16994     16997     16998     16996     16994     16997     16999
     16996     16994     16997     17005     16997     16999     17000     17001
     16997     16999     17000     17002     16997     17005     17008     17009
     16998     16997     16999     17000     16998     16997     17005     17006
     16998     16997     17005     17007     16998     16997     17005     17008
     16999     16997     17005     17006     16999     16997     17005     17007
     16999     16997     17005     17008     16999     17000     17002     17003
     16999     17000     17002     17004     16999     17000     17002     17014
     17000     16999     16997     17005     17000     17002     17014     17015
     17000     17002     17014     17016     17000     17002     17014     17017
     17001     17000     17002     17003     17001     17000     17002     17004
     17001     17000     17002     17014     17002     17014     17017     17018
     17002     17014     17017     17019     17002     17014     17017     17020
     17003     17002     17014     17015     17003     17002     17014     17016
     17003     17002     17014     17017     17004     17002     17014     17015
     17004     17002     17014     17016     17004     17002     17014     17017
     17005     17008     17009     17010     17005     17008     17009     17011
     17006     17005     17008     17009     17007     17005     17008     17009
     17008     17009     17011     17012     17008     17009     17011     17013
     17008     17009     17011     17058     17009     17011     17058     17059
     17009     17011     17058     17060     17009     17011     17058     17061
     17010     17009     17011     17012     17010     17009     17011     17013
     17010     17009     17011     17058     17011     17058     17061     17062
     17011     17058     17061     17063     17011     17058     17061     17064
     17012     17011     17058     17059     17012     17011     17058     17060
     17012     17011     17058     17061     17013     17011     17058     17059
     17013     17011     17058     17060     17013     17011     17058     17061
     17014     17017     17020     17021     17014     17017     17020     17022
     17014     17017     17020     17023     17015     17014     17017     17018
     17015     17014     17017     17019     17015     17014     17017     17020
     17016     17014     17017     17018     17016     17014     17017     17019
     17016     17014     17017     17020     17017     17020     17023     17024
     17017     17020     17023     17025     17017     17020     17023     17026
     17018     17017     17020     17021     17018     17017     17020     17022
     17018     17017     17020     17023     17019     17017     17020     17021
     17019     17017     17020     17022     17019     17017     17020     17023
     17020     17023     17026     17027     17020     17023     17026     17028
     17020     17023     17026     17029     17021     17020     17023     17024
     17021     17020     17023     17025     17021     17020     17023     17026
     17022     17020     17023     17024     17022     17020     17023     17025
     17022     17020     17023     17026     17023     17026     17029     17030
     17023     17026     17029     17031     17023     17026     17029     17032
     17024     17023     17026     17027     17024     17023     17026     17028
     17024     17023     17026     17029     17025     17023     17026     17027
     17025     17023     17026     17028     17025     17023     17026     17029
     17026     17029     17032     17033     17026     17029     17032     17034
     17026     17029     17032     17037     17027     17026     17029     17030
     17027     17026     17029     17031     17027     17026     17029     17032
     17028     17026     17029     17030     17028     17026     17029     17031
     17028     17026     17029     17032     17029     17032     17034     17035
     17029     17032     17034     17036     17029     17032     17034     17037
     17029     17032     17037     17034     17029     17032     17037     17038
     17029     17032     17037     17039     17030     17029     17032     17033
     17030     17029     17032     17034     17030     17029     17032     17037
     17031     17029     17032     17033     17031     17029     17032     17034
     17031     17029     17032     17037     17032     17034     17037     17038
     17032     17034     17037     17039     17032     17037     17034     17035
     17032     17037     17034     17036     17032     17037     17039     17040
     17032     17037     17039     17041     17032     17037     17039     17042
     17033     17032     17034     17035     17033     17032     17034     17036
     17033     17032     17034     17037     17033     17032     17037     17034
     17033     17032     17037     17038     17033     17032     17037     17039
     17034     17032     17037     17038     17034     17032     17037     17039
     17034     17037     17039     17040     17034     17037     17039     17041
     17034     17037     17039     17042     17035     17034     17032     17037
     17035     17034     17037     17038     17035     17034     17037     17039
     17036     17034     17032     17037     17036     17034     17037     17038
     17036     17034     17037     17039     17037     17039     17042     17043
     17037     17039     17042     17044     17037     17039     17042     17045
     17038     17037     17039     17040     17038     17037     17039     17041
     17038     17037     17039     17042     17039     17042     17045     17046
     17039     17042     17045     17047     17039     17042     17045     17048
     17040     17039     17042     17043     17040     17039     17042     17044
     17040     17039     17042     17045     17041     17039     17042     17043
     17041     17039     17042     17044     17041     17039     17042     17045
     17042     17045     17048     17049     17042     17045     17048     17050
     17042     17045     17048     17051     17043     17042     17045     17046
     17043     17042     17045     17047     17043     17042     17045     17048
     17044     17042     17045     17046     17044     17042     17045     17047
     17044     17042     17045     17048     17045     17048     17051     17052
     17045     17048     17051     17053     17045     17048     17051     17054
     17046     17045     17048     17049     17046     17045     17048     17050
     17046     17045     17048     17051     17047     17045     17048     17049
     17047     17045     17048     17050     17047     17045     17048     17051
     17048     17051     17054     17055     17048     17051     17054     17056
     17048     17051     17054     17057     17049     17048     17051     17052
     17049     17048     17051     17053     17049     17048     17051     17054
     17050     17048     17051     17052     17050     17048     17051     17053
     17050     17048     17051     17054     17052     17051     17054     17055
     17052     17051     17054     17056     17052     17051     17054     17057
     17053     17051     17054     17055     17053     17051     17054     17056
     17053     17051     17054     17057     17058     17061     17064     17065
     17058     17061     17064     17066     17058     17061     17064     17067
     17059     17058     17061     17062     17059     17058     17061     17063
     17059     17058     17061     17064     17060     17058     17061     17062
     17060     17058     17061     17063     17060     17058     17061     17064
     17061     17064     17067     17068     17061     17064     17067     17069
     17061     17064     17067     17070     17062     17061     17064     17065
     17062     17061     17064     17066     17062     17061     17064     17067
     17063     17061     17064     17065     17063     17061     17064     17066
     17063     17061     17064     17067     17064     17067     17070     17071
     17064     17067     17070     17072     17064     17067     17070     17073
     17065     17064     17067     17068     17065     17064     17067     17069
     17065     17064     17067     17070     17066     17064     17067     17068
     17066     17064     17067     17069     17066     17064     17067     17070
     17067     17070     17073     17074     17067     17070     17073     17075
     17067     17070     17073     17076     17068     17067     17070     17071
     17068     17067     17070     17072     17068     17067     17070     17073
     17069     17067     17070     17071     17069     17067     17070     17072
     17069     17067     17070     17073     17070     17073     17076     17077
     17070     17073     17076     17078     17070     17073     17076     17079
     17071     17070     17073     17074     17071     17070     17073     17075
     17071     17070     17073     17076     17072     17070     17073     17074
     17072     17070     17073     17075     17072     17070     17073     17076
     17073     17076     17079     17080     17073     17076     17079     17081
     17073     17076     17079     17082     17074     17073     17076     17077
     17074     17073     17076     17078     17074     17073     17076     17079
     17075     17073     17076     17077     17075     17073     17076     17078
     17075     17073     17076     17079     17076     17079     17082     17083
     17076     17079     17082     17084     17076     17079     17082     17085
     17077     17076     17079     17080     17077     17076     17079     17081
     17077     17076     17079     17082     17078     17076     17079     17080
     17078     17076     17079     17081     17078     17076     17079     17082
     17079     17082     17085     17086     17079     17082     17085     17087
     17079     17082     17085     17088     17080     17079     17082     17083
     17080     17079     17082     17084     17080     17079     17082     17085
     17081     17079     17082     17083     17081     17079     17082     17084
     17081     17079     17082     17085     17082     17085     17088     17089
     17082     17085     17088     17090     17082     17085     17088     17091
     17083     17082     17085     17086     17083     17082     17085     17087
     17083     17082     17085     17088     17084     17082     17085     17086
     17084     17082     17085     17087     17084     17082     17085     17088
     17085     17088     17091     17092     17085     17088     17091     17093
     17085     17088     17091     17094     17086     17085     17088     17089
     17086     17085     17088     17090     17086     17085     17088     17091
     17087     17085     17088     17089     17087     17085     17088     17090
     17087     17085     17088     17091     17088     17091     17094     17095
     17088     17091     17094     17096     17088     17091     17094     17097
     17089     17088     17091     17092     17089     17088     17091     17093
     17089     17088     17091     17094     17090     17088     17091     17092
     17090     17088     17091     17093     17090     17088     17091     17094
     17091     17094     17097     17098     17091     17094     17097     17099
     17091     17094     17097     17100     17092     17091     17094     17095
     17092     17091     17094     17096     17092     17091     17094     17097
     17093     17091     17094     17095     17093     17091     17094     17096
     17093     17091     17094     17097     17095     17094     17097     17098
     17095     17094     17097     17099     17095     17094     17097     17100
     17096     17094     17097     17098     17096     17094     17097     17099
     17096     17094     17097     17100     17101     17105     17108     17109
     17101     17105     17108     17110     17101     17105     17108     17115
     17102     17101     17105     17106     17102     17101     17105     17107
     17102     17101     17105     17108     17103     17101     17105     17106
     17103     17101     17105     17107     17103     17101     17105     17108
     17104     17101     17105     17106     17104     17101     17105     17107
     17104     17101     17105     17108     17105     17108     17115     17111
     17106     17105     17108     17109     17106     17105     17108     17110
     17106     17105     17108     17115     17107     17105     17108     17109
     17107     17105     17108     17110     17107     17105     17108     17115
     17108     17115     17111     17112     17108     17115     17111     17113
     17108     17115     17111     17114     17109     17108     17115     17111
     17110     17108     17115     17111     17111     17114     17116     17117
     17111     17114     17116     17118     17111     17114     17116     17119
     17112     17111     17114     17116     17113     17111     17114     17116
     17114     17116     17119     17120     17114     17116     17119     17121
     17114     17116     17119     17127     17115     17111     17114     17116
     17116     17119     17121     17122     17116     17119     17127     17128
     17116     17119     17127     17129     17116     17119     17127     17130
     17117     17116     17119     17120     17117     17116     17119     17121
     17117     17116     17119     17127     17118     17116     17119     17120
     17118     17116     17119     17121     17118     17116     17119     17127
     17119     17121     17122     17123     17119     17121     17122     17124
     17119     17127     17130     17131     17120     17119     17121     17122
     17120     17119     17127     17128     17120     17119     17127     17129
     17120     17119     17127     17130     17121     17119     17127     17128
     17121     17119     17127     17129     17121     17119     17127     17130
     17121     17122     17124     17125     17121     17122     17124     17126
     17121     17122     17124     17136     17122     17121     17119     17127
     17122     17124     17136     17137     17122     17124     17136     17138
     17122     17124     17136     17139     17123     17122     17124     17125
     17123     17122     17124     17126     17123     17122     17124     17136
     17124     17136     17139     17140     17124     17136     17139     17141
     17124     17136     17139     17142     17125     17124     17136     17137
     17125     17124     17136     17138     17125     17124     17136     17139
     17126     17124     17136     17137     17126     17124     17136     17138
     17126     17124     17136     17139     17127     17130     17131     17132
     17127     17130     17131     17133     17128     17127     17130     17131
     17129     17127     17130     17131     17130     17131     17133     17134
     17130     17131     17133     17135     17130     17131     17133     17183
     17131     17133     17183     17184     17131     17133     17183     17185
     17131     17133     17183     17186     17132     17131     17133     17134
     17132     17131     17133     17135     17132     17131     17133     17183
     17133     17183     17186     17187     17133     17183     17186     17188
     17133     17183     17186     17189     17134     17133     17183     17184
     17134     17133     17183     17185     17134     17133     17183     17186
     17135     17133     17183     17184     17135     17133     17183     17185
     17135     17133     17183     17186     17136     17139     17142     17143
     17136     17139     17142     17144     17136     17139     17142     17145
     17137     17136     17139     17140     17137     17136     17139     17141
     17137     17136     17139     17142     17138     17136     17139     17140
     17138     17136     17139     17141     17138     17136     17139     17142
     17139     17142     17145     17146     17139     17142     17145     17147
     17139     17142     17145     17148     17140     17139     17142     17143
     17140     17139     17142     17144     17140     17139     17142     17145
     17141     17139     17142     17143     17141     17139     17142     17144
     17141     17139     17142     17145     17142     17145     17148     17149
     17142     17145     17148     17150     17142     17145     17148     17151
     17143     17142     17145     17146     17143     17142     17145     17147
     17143     17142     17145     17148     17144     17142     17145     17146
     17144     17142     17145     17147     17144     17142     17145     17148
     17145     17148     17151     17152     17145     17148     17151     17153
     17145     17148     17151     17154     17146     17145     17148     17149
     17146     17145     17148     17150     17146     17145     17148     17151
     17147     17145     17148     17149     17147     17145     17148     17150
     17147     17145     17148     17151     17148     17151     17154     17155
     17148     17151     17154     17156     17149     17148     17151     17152
     17149     17148     17151     17153     17149     17148     17151     17154
     17150     17148     17151     17152     17150     17148     17151     17153
     17150     17148     17151     17154     17151     17154     17156     17157
     17151     17154     17156     17158     17152     17151     17154     17155
     17152     17151     17154     17156     17153     17151     17154     17155
     17153     17151     17154     17156     17154     17156     17158     17159
     17154     17156     17158     17160     17154     17156     17158     17161
     17155     17154     17156     17157     17155     17154     17156     17158
     17156     17158     17161     17162     17156     17158     17161     17163
     17156     17158     17161     17164     17157     17156     17158     17159
     17157     17156     17158     17160     17157     17156     17158     17161
     17158     17161     17164     17165     17158     17161     17164     17166
     17158     17161     17164     17167     17159     17158     17161     17162
     17159     17158     17161     17163     17159     17158     17161     17164
     17160     17158     17161     17162     17160     17158     17161     17163
     17160     17158     17161     17164     17161     17164     17167     17168
     17161     17164     17167     17169     17161     17164     17167     17170
     17162     17161     17164     17165     17162     17161     17164     17166
     17162     17161     17164     17167     17163     17161     17164     17165
     17163     17161     17164     17166     17163     17161     17164     17167
     17164     17167     17170     17171     17164     17167     17170     17172
     17164     17167     17170     17173     17165     17164     17167     17168
     17165     17164     17167     17169     17165     17164     17167     17170
     17166     17164     17167     17168     17166     17164     17167     17169
     17166     17164     17167     17170     17167     17170     17173     17174
     17167     17170     17173     17175     17167     17170     17173     17176
     17168     17167     17170     17171     17168     17167     17170     17172
     17168     17167     17170     17173     17169     17167     17170     17171
     17169     17167     17170     17172     17169     17167     17170     17173
     17170     17173     17176     17177     17170     17173     17176     17178
     17170     17173     17176     17179     17171     17170     17173     17174
     17171     17170     17173     17175     17171     17170     17173     17176
     17172     17170     17173     17174     17172     17170     17173     17175
     17172     17170     17173     17176     17173     17176     17179     17180
     17173     17176     17179     17181     17173     17176     17179     17182
     17174     17173     17176     17177     17174     17173     17176     17178
     17174     17173     17176     17179     17175     17173     17176     17177
     17175     17173     17176     17178     17175     17173     17176     17179
     17177     17176     17179     17180     17177     17176     17179     17181
     17177     17176     17179     17182     17178     17176     17179     17180
     17178     17176     17179     17181     17178     17176     17179     17182
     17183     17186     17189     17190     17183     17186     17189     17191
     17183     17186     17189     17192     17184     17183     17186     17187
     17184     17183     17186     17188     17184     17183     17186     17189
     17185     17183     17186     17187     17185     17183     17186     17188
     17185     17183     17186     17189     17186     17189     17192     17193
     17186     17189     17192     17194     17186     17189     17192     17195
     17187     17186     17189     17190     17187     17186     17189     17191
     17187     17186     17189     17192     17188     17186     17189     17190
     17188     17186     17189     17191     17188     17186     17189     17192
     17189     17192     17195     17196     17189     17192     17195     17197
     17189     17192     17195     17198     17190     17189     17192     17193
     17190     17189     17192     17194     17190     17189     17192     17195
     17191     17189     17192     17193     17191     17189     17192     17194
     17191     17189     17192     17195     17192     17195     17198     17199
     17192     17195     17198     17200     17192     17195     17198     17201
     17193     17192     17195     17196     17193     17192     17195     17197
     17193     17192     17195     17198     17194     17192     17195     17196
     17194     17192     17195     17197     17194     17192     17195     17198
     17195     17198     17201     17202     17195     17198     17201     17203
     17195     17198     17201     17204     17196     17195     17198     17199
     17196     17195     17198     17200     17196     17195     17198     17201
     17197     17195     17198     17199     17197     17195     17198     17200
     17197     17195     17198     17201     17198     17201     17204     17205
     17198     17201     17204     17206     17198     17201     17204     17207
     17199     17198     17201     17202     17199     17198     17201     17203
     17199     17198     17201     17204     17200     17198     17201     17202
     17200     17198     17201     17203     17200     17198     17201     17204
     17201     17204     17207     17208     17201     17204     17207     17209
     17201     17204     17207     17210     17202     17201     17204     17205
     17202     17201     17204     17206     17202     17201     17204     17207
     17203     17201     17204     17205     17203     17201     17204     17206
     17203     17201     17204     17207     17204     17207     17210     17211
     17204     17207     17210     17212     17204     17207     17210     17213
     17205     17204     17207     17208     17205     17204     17207     17209
     17205     17204     17207     17210     17206     17204     17207     17208
     17206     17204     17207     17209     17206     17204     17207     17210
     17207     17210     17213     17214     17207     17210     17213     17215
     17207     17210     17213     17216     17208     17207     17210     17211
     17208     17207     17210     17212     17208     17207     17210     17213
     17209     17207     17210     17211     17209     17207     17210     17212
     17209     17207     17210     17213     17210     17213     17216     17217
     17210     17213     17216     17218     17210     17213     17216     17219
     17211     17210     17213     17214     17211     17210     17213     17215
     17211     17210     17213     17216     17212     17210     17213     17214
     17212     17210     17213     17215     17212     17210     17213     17216
     17213     17216     17219     17220     17213     17216     17219     17221
     17213     17216     17219     17222     17214     17213     17216     17217
     17214     17213     17216     17218     17214     17213     17216     17219
     17215     17213     17216     17217     17215     17213     17216     17218
     17215     17213     17216     17219     17216     17219     17222     17223
     17216     17219     17222     17224     17216     17219     17222     17225
     17217     17216     17219     17220     17217     17216     17219     17221
     17217     17216     17219     17222     17218     17216     17219     17220
     17218     17216     17219     17221     17218     17216     17219     17222
     17220     17219     17222     17223     17220     17219     17222     17224
     17220     17219     17222     17225     17221     17219     17222     17223
     17221     17219     17222     17224     17221     17219     17222     17225
     17226     17231     17233     17234     17226     17231     17235     17236
     17226     17231     17235     17237     17226     17231     17235     17242
     17227     17226     17229     17230     17227     17226     17231     17232
     17227     17226     17231     17233     17227     17226     17231     17235
     17228     17226     17229     17230     17228     17226     17231     17232
     17228     17226     17231     17233     17228     17226     17231     17235
     17229     17226     17231     17232     17229     17226     17231     17233
     17229     17226     17231     17235     17230     17229     17226     17231
     17231     17235     17242     17238     17232     17231     17233     17234
     17232     17231     17235     17236     17232     17231     17235     17237
     17232     17231     17235     17242     17233     17231     17235     17236
     17233     17231     17235     17237     17233     17231     17235     17242
     17234     17233     17231     17235     17235     17242     17238     17239
     17235     17242     17238     17240     17235     17242     17238     17241
     17236     17235     17242     17238     17237     17235     17242     17238
     17238     17241     17243     17244     17238     17241     17243     17245
     17238     17241     17243     17246     17239     17238     17241     17243
     17240     17238     17241     17243     17241     17243     17246     17247
     17241     17243     17246     17248     17241     17243     17246     17254
     17242     17238     17241     17243     17243     17246     17248     17249
     17243     17246     17254     17255     17243     17246     17254     17256
     17243     17246     17254     17257     17244     17243     17246     17247
     17244     17243     17246     17248     17244     17243     17246     17254
     17245     17243     17246     17247     17245     17243     17246     17248
     17245     17243     17246     17254     17246     17248     17249     17250
     17246     17248     17249     17251     17246     17254     17257     17258
     17247     17246     17248     17249     17247     17246     17254     17255
     17247     17246     17254     17256     17247     17246     17254     17257
     17248     17246     17254     17255     17248     17246     17254     17256
     17248     17246     17254     17257     17248     17249     17251     17252
     17248     17249     17251     17253     17248     17249     17251     17263
     17249     17248     17246     17254     17249     17251     17263     17264
     17249     17251     17263     17265     17249     17251     17263     17266
     17250     17249     17251     17252     17250     17249     17251     17253
     17250     17249     17251     17263     17251     17263     17266     17267
     17251     17263     17266     17268     17251     17263     17266     17269
     17252     17251     17263     17264     17252     17251     17263     17265
     17252     17251     17263     17266     17253     17251     17263     17264
     17253     17251     17263     17265     17253     17251     17263     17266
     17254     17257     17258     17259     17254     17257     17258     17260
     17255     17254     17257     17258     17256     17254     17257     17258
     17257     17258     17260     17261     17257     17258     17260     17262
     17257     17258     17260     17304     17258     17260     17304     17305
     17258     17260     17304     17306     17258     17260     17304     17307
     17259     17258     17260     17261     17259     17258     17260     17262
     17259     17258     17260     17304     17260     17304     17307     17308
     17260     17304     17307     17309     17260     17304     17307     17310
     17261     17260     17304     17305     17261     17260     17304     17306
     17261     17260     17304     17307     17262     17260     17304     17305
     17262     17260     17304     17306     17262     17260     17304     17307
     17263     17266     17269     17270     17263     17266     17269     17271
     17263     17266     17269     17272     17264     17263     17266     17267
     17264     17263     17266     17268     17264     17263     17266     17269
     17265     17263     17266     17267     17265     17263     17266     17268
     17265     17263     17266     17269     17266     17269     17272     17273
     17266     17269     17272     17274     17266     17269     17272     17275
     17267     17266     17269     17270     17267     17266     17269     17271
     17267     17266     17269     17272     17268     17266     17269     17270
     17268     17266     17269     17271     17268     17266     17269     17272
     17269     17272     17275     17276     17269     17272     17275     17277
     17269     17272     17275     17278     17270     17269     17272     17273
     17270     17269     17272     17274     17270     17269     17272     17275
     17271     17269     17272     17273     17271     17269     17272     17274
     17271     17269     17272     17275     17272     17275     17278     17279
     17272     17275     17278     17280     17272     17275     17278     17281
     17273     17272     17275     17276     17273     17272     17275     17277
     17273     17272     17275     17278     17274     17272     17275     17276
     17274     17272     17275     17277     17274     17272     17275     17278
     17275     17278     17281     17282     17275     17278     17281     17283
     17276     17275     17278     17279     17276     17275     17278     17280
     17276     17275     17278     17281     17277     17275     17278     17279
     17277     17275     17278     17280     17277     17275     17278     17281
     17278     17281     17283     17284     17278     17281     17283     17285
     17279     17278     17281     17282     17279     17278     17281     17283
     17280     17278     17281     17282     17280     17278     17281     17283
     17281     17283     17285     17286     17281     17283     17285     17287
     17281     17283     17285     17288     17282     17281     17283     17284
     17282     17281     17283     17285     17283     17285     17288     17289
     17283     17285     17288     17290     17283     17285     17288     17291
     17284     17283     17285     17286     17284     17283     17285     17287
     17284     17283     17285     17288     17285     17288     17291     17292
     17285     17288     17291     17293     17285     17288     17291     17294
     17286     17285     17288     17289     17286     17285     17288     17290
     17286     17285     17288     17291     17287     17285     17288     17289
     17287     17285     17288     17290     17287     17285     17288     17291
     17288     17291     17294     17295     17288     17291     17294     17296
     17288     17291     17294     17297     17289     17288     17291     17292
     17289     17288     17291     17293     17289     17288     17291     17294
     17290     17288     17291     17292     17290     17288     17291     17293
     17290     17288     17291     17294     17291     17294     17297     17298
     17291     17294     17297     17299     17291     17294     17297     17300
     17292     17291     17294     17295     17292     17291     17294     17296
     17292     17291     17294     17297     17293     17291     17294     17295
     17293     17291     17294     17296     17293     17291     17294     17297
     17294     17297     17300     17301     17294     17297     17300     17302
     17294     17297     17300     17303     17295     17294     17297     17298
     17295     17294     17297     17299     17295     17294     17297     17300
     17296     17294     17297     17298     17296     17294     17297     17299
     17296     17294     17297     17300     17298     17297     17300     17301
     17298     17297     17300     17302     17298     17297     17300     17303
     17299     17297     17300     17301     17299     17297     17300     17302
     17299     17297     17300     17303     17304     17307     17310     17311
     17304     17307     17310     17312     17304     17307     17310     17313
     17305     17304     17307     17308     17305     17304     17307     17309
     17305     17304     17307     17310     17306     17304     17307     17308
     17306     17304     17307     17309     17306     17304     17307     17310
     17307     17310     17313     17314     17307     17310     17313     17315
     17307     17310     17313     17316     17308     17307     17310     17311
     17308     17307     17310     17312     17308     17307     17310     17313
     17309     17307     17310     17311     17309     17307     17310     17312
     17309     17307     17310     17313     17310     17313     17316     17317
     17310     17313     17316     17318     17310     17313     17316     17319
     17311     17310     17313     17314     17311     17310     17313     17315
     17311     17310     17313     17316     17312     17310     17313     17314
     17312     17310     17313     17315     17312     17310     17313     17316
     17313     17316     17319     17320     17313     17316     17319     17321
     17313     17316     17319     17322     17314     17313     17316     17317
     17314     17313     17316     17318     17314     17313     17316     17319
     17315     17313     17316     17317     17315     17313     17316     17318
     17315     17313     17316     17319     17316     17319     17322     17323
     17316     17319     17322     17324     17316     17319     17322     17325
     17317     17316     17319     17320     17317     17316     17319     17321
     17317     17316     17319     17322     17318     17316     17319     17320
     17318     17316     17319     17321     17318     17316     17319     17322
     17319     17322     17325     17326     17319     17322     17325     17327
     17319     17322     17325     17328     17320     17319     17322     17323
     17320     17319     17322     17324     17320     17319     17322     17325
     17321     17319     17322     17323     17321     17319     17322     17324
     17321     17319     17322     17325     17322     17325     17328     17329
     17322     17325     17328     17330     17322     17325     17328     17331
     17323     17322     17325     17326     17323     17322     17325     17327
     17323     17322     17325     17328     17324     17322     17325     17326
     17324     17322     17325     17327     17324     17322     17325     17328
     17325     17328     17331     17332     17325     17328     17331     17333
     17325     17328     17331     17334     17326     17325     17328     17329
     17326     17325     17328     17330     17326     17325     17328     17331
     17327     17325     17328     17329     17327     17325     17328     17330
     17327     17325     17328     17331     17328     17331     17334     17335
     17328     17331     17334     17336     17328     17331     17334     17337
     17329     17328     17331     17332     17329     17328     17331     17333
     17329     17328     17331     17334     17330     17328     17331     17332
     17330     17328     17331     17333     17330     17328     17331     17334
     17331     17334     17337     17338     17331     17334     17337     17339
     17331     17334     17337     17340     17332     17331     17334     17335
     17332     17331     17334     17336     17332     17331     17334     17337
     17333     17331     17334     17335     17333     17331     17334     17336
     17333     17331     17334     17337     17334     17337     17340     17341
     17334     17337     17340     17342     17334     17337     17340     17343
     17335     17334     17337     17338     17335     17334     17337     17339
     17335     17334     17337     17340     17336     17334     17337     17338
     17336     17334     17337     17339     17336     17334     17337     17340
     17337     17340     17343     17344     17337     17340     17343     17345
     17337     17340     17343     17346     17338     17337     17340     17341
     17338     17337     17340     17342     17338     17337     17340     17343
     17339     17337     17340     17341     17339     17337     17340     17342
     17339     17337     17340     17343     17341     17340     17343     17344
     17341     17340     17343     17345     17341     17340     17343     17346
     17342     17340     17343     17344     17342     17340     17343     17345
     17342     17340     17343     17346     17347     17351     17354     17355
     17347     17351     17354     17356     17347     17351     17354     17361
     17348     17347     17351     17352     17348     17347     17351     17353
     17348     17347     17351     17354     17349     17347     17351     17352
     17349     17347     17351     17353     17349     17347     17351     17354
     17350     17347     17351     17352     17350     17347     17351     17353
     17350     17347     17351     17354     17351     17354     17361     17357
     17352     17351     17354     17355     17352     17351     17354     17356
     17352     17351     17354     17361     17353     17351     17354     17355
     17353     17351     17354     17356     17353     17351     17354     17361
     17354     17361     17357     17358     17354     17361     17357     17359
     17354     17361     17357     17360     17355     17354     17361     17357
     17356     17354     17361     17357     17357     17360     17362     17363
     17357     17360     17362     17364     17357     17360     17362     17365
     17358     17357     17360     17362     17359     17357     17360     17362
     17360     17362     17365     17366     17360     17362     17365     17367
     17360     17362     17365     17373     17361     17357     17360     17362
     17362     17365     17367     17368     17362     17365     17373     17374
     17362     17365     17373     17375     17362     17365     17373     17376
     17363     17362     17365     17366     17363     17362     17365     17367
     17363     17362     17365     17373     17364     17362     17365     17366
     17364     17362     17365     17367     17364     17362     17365     17373
     17365     17367     17368     17369     17365     17367     17368     17370
     17365     17373     17376     17377     17366     17365     17367     17368
     17366     17365     17373     17374     17366     17365     17373     17375
     17366     17365     17373     17376     17367     17365     17373     17374
     17367     17365     17373     17375     17367     17365     17373     17376
     17367     17368     17370     17371     17367     17368     17370     17372
     17367     17368     17370     17382     17368     17367     17365     17373
     17368     17370     17382     17383     17368     17370     17382     17384
     17368     17370     17382     17385     17369     17368     17370     17371
     17369     17368     17370     17372     17369     17368     17370     17382
     17370     17382     17385     17386     17370     17382     17385     17387
     17370     17382     17385     17388     17371     17370     17382     17383
     17371     17370     17382     17384     17371     17370     17382     17385
     17372     17370     17382     17383     17372     17370     17382     17384
     17372     17370     17382     17385     17373     17376     17377     17378
     17373     17376     17377     17379     17374     17373     17376     17377
     17375     17373     17376     17377     17376     17377     17379     17380
     17376     17377     17379     17381     17376     17377     17379     17426
     17377     17379     17426     17427     17377     17379     17426     17428
     17377     17379     17426     17429     17378     17377     17379     17380
     17378     17377     17379     17381     17378     17377     17379     17426
     17379     17426     17429     17430     17379     17426     17429     17431
     17379     17426     17429     17432     17380     17379     17426     17427
     17380     17379     17426     17428     17380     17379     17426     17429
     17381     17379     17426     17427     17381     17379     17426     17428
     17381     17379     17426     17429     17382     17385     17388     17389
     17382     17385     17388     17390     17382     17385     17388     17391
     17383     17382     17385     17386     17383     17382     17385     17387
     17383     17382     17385     17388     17384     17382     17385     17386
     17384     17382     17385     17387     17384     17382     17385     17388
     17385     17388     17391     17392     17385     17388     17391     17393
     17385     17388     17391     17394     17386     17385     17388     17389
     17386     17385     17388     17390     17386     17385     17388     17391
     17387     17385     17388     17389     17387     17385     17388     17390
     17387     17385     17388     17391     17388     17391     17394     17395
     17388     17391     17394     17396     17388     17391     17394     17397
     17389     17388     17391     17392     17389     17388     17391     17393
     17389     17388     17391     17394     17390     17388     17391     17392
     17390     17388     17391     17393     17390     17388     17391     17394
     17391     17394     17397     17398     17391     17394     17397     17399
     17391     17394     17397     17400     17392     17391     17394     17395
     17392     17391     17394     17396     17392     17391     17394     17397
     17393     17391     17394     17395     17393     17391     17394     17396
     17393     17391     17394     17397     17394     17397     17400     17401
     17394     17397     17400     17402     17394     17397     17400     17405
     17395     17394     17397     17398     17395     17394     17397     17399
     17395     17394     17397     17400     17396     17394     17397     17398
     17396     17394     17397     17399     17396     17394     17397     17400
     17397     17400     17402     17403     17397     17400     17402     17404
     17397     17400     17402     17405     17397     17400     17405     17402
     17397     17400     17405     17406     17397     17400     17405     17407
     17398     17397     17400     17401     17398     17397     17400     17402
     17398     17397     17400     17405     17399     17397     17400     17401
     17399     17397     17400     17402     17399     17397     17400     17405
     17400     17402     17405     17406     17400     17402     17405     17407
     17400     17405     17402     17403     17400     17405     17402     17404
     17400     17405     17407     17408     17400     17405     17407     17409
     17400     17405     17407     17410     17401     17400     17402     17403
     17401     17400     17402     17404     17401     17400     17402     17405
     17401     17400     17405     17402     17401     17400     17405     17406
     17401     17400     17405     17407     17402     17400     17405     17406
     17402     17400     17405     17407     17402     17405     17407     17408
     17402     17405     17407     17409     17402     17405     17407     17410
     17403     17402     17400     17405     17403     17402     17405     17406
     17403     17402     17405     17407     17404     17402     17400     17405
     17404     17402     17405     17406     17404     17402     17405     17407
     17405     17407     17410     17411     17405     17407     17410     17412
     17405     17407     17410     17413     17406     17405     17407     17408
     17406     17405     17407     17409     17406     17405     17407     17410
     17407     17410     17413     17414     17407     17410     17413     17415
     17407     17410     17413     17416     17408     17407     17410     17411
     17408     17407     17410     17412     17408     17407     17410     17413
     17409     17407     17410     17411     17409     17407     17410     17412
     17409     17407     17410     17413     17410     17413     17416     17417
     17410     17413     17416     17418     17410     17413     17416     17419
     17411     17410     17413     17414     17411     17410     17413     17415
     17411     17410     17413     17416     17412     17410     17413     17414
     17412     17410     17413     17415     17412     17410     17413     17416
     17413     17416     17419     17420     17413     17416     17419     17421
     17413     17416     17419     17422     17414     17413     17416     17417
     17414     17413     17416     17418     17414     17413     17416     17419
     17415     17413     17416     17417     17415     17413     17416     17418
     17415     17413     17416     17419     17416     17419     17422     17423
     17416     17419     17422     17424     17416     17419     17422     17425
     17417     17416     17419     17420     17417     17416     17419     17421
     17417     17416     17419     17422     17418     17416     17419     17420
     17418     17416     17419     17421     17418     17416     17419     17422
     17420     17419     17422     17423     17420     17419     17422     17424
     17420     17419     17422     17425     17421     17419     17422     17423
     17421     17419     17422     17424     17421     17419     17422     17425
     17426     17429     17432     17433     17426     17429     17432     17434
     17426     17429     17432     17435     17427     17426     17429     17430
     17427     17426     17429     17431     17427     17426     17429     17432
     17428     17426     17429     17430     17428     17426     17429     17431
     17428     17426     17429     17432     17429     17432     17435     17436
     17429     17432     17435     17437     17429     17432     17435     17438
     17430     17429     17432     17433     17430     17429     17432     17434
     17430     17429     17432     17435     17431     17429     17432     17433
     17431     17429     17432     17434     17431     17429     17432     17435
     17432     17435     17438     17439     17432     17435     17438     17440
     17432     17435     17438     17441     17433     17432     17435     17436
     17433     17432     17435     17437     17433     17432     17435     17438
     17434     17432     17435     17436     17434     17432     17435     17437
     17434     17432     17435     17438     17435     17438     17441     17442
     17435     17438     17441     17443     17435     17438     17441     17444
     17436     17435     17438     17439     17436     17435     17438     17440
     17436     17435     17438     17441     17437     17435     17438     17439
     17437     17435     17438     17440     17437     17435     17438     17441
     17438     17441     17444     17445     17438     17441     17444     17446
     17438     17441     17444     17447     17439     17438     17441     17442
     17439     17438     17441     17443     17439     17438     17441     17444
     17440     17438     17441     17442     17440     17438     17441     17443
     17440     17438     17441     17444     17441     17444     17447     17448
     17441     17444     17447     17449     17441     17444     17447     17450
     17442     17441     17444     17445     17442     17441     17444     17446
     17442     17441     17444     17447     17443     17441     17444     17445
     17443     17441     17444     17446     17443     17441     17444     17447
     17444     17447     17450     17451     17444     17447     17450     17452
     17444     17447     17450     17453     17445     17444     17447     17448
     17445     17444     17447     17449     17445     17444     17447     17450
     17446     17444     17447     17448     17446     17444     17447     17449
     17446     17444     17447     17450     17447     17450     17453     17454
     17447     17450     17453     17455     17447     17450     17453     17456
     17448     17447     17450     17451     17448     17447     17450     17452
     17448     17447     17450     17453     17449     17447     17450     17451
     17449     17447     17450     17452     17449     17447     17450     17453
     17450     17453     17456     17457     17450     17453     17456     17458
     17450     17453     17456     17459     17451     17450     17453     17454
     17451     17450     17453     17455     17451     17450     17453     17456
     17452     17450     17453     17454     17452     17450     17453     17455
     17452     17450     17453     17456     17453     17456     17459     17460
     17453     17456     17459     17461     17453     17456     17459     17462
     17454     17453     17456     17457     17454     17453     17456     17458
     17454     17453     17456     17459     17455     17453     17456     17457
     17455     17453     17456     17458     17455     17453     17456     17459
     17456     17459     17462     17463     17456     17459     17462     17464
     17456     17459     17462     17465     17457     17456     17459     17460
     17457     17456     17459     17461     17457     17456     17459     17462
     17458     17456     17459     17460     17458     17456     17459     17461
     17458     17456     17459     17462     17460     17459     17462     17463
     17460     17459     17462     17464     17460     17459     17462     17465
     17461     17459     17462     17463     17461     17459     17462     17464
     17461     17459     17462     17465     17466     17470     17473     17474
     17466     17470     17473     17475     17466     17470     17473     17480
     17467     17466     17470     17471     17467     17466     17470     17472
     17467     17466     17470     17473     17468     17466     17470     17471
     17468     17466     17470     17472     17468     17466     17470     17473
     17469     17466     17470     17471     17469     17466     17470     17472
     17469     17466     17470     17473     17470     17473     17480     17476
     17471     17470     17473     17474     17471     17470     17473     17475
     17471     17470     17473     17480     17472     17470     17473     17474
     17472     17470     17473     17475     17472     17470     17473     17480
     17473     17480     17476     17477     17473     17480     17476     17478
     17473     17480     17476     17479     17474     17473     17480     17476
     17475     17473     17480     17476     17476     17479     17481     17482
     17476     17479     17481     17483     17476     17479     17481     17484
     17477     17476     17479     17481     17478     17476     17479     17481
     17479     17481     17484     17485     17479     17481     17484     17486
     17479     17481     17484     17492     17480     17476     17479     17481
     17481     17484     17486     17487     17481     17484     17492     17493
     17481     17484     17492     17494     17481     17484     17492     17495
     17482     17481     17484     17485     17482     17481     17484     17486
     17482     17481     17484     17492     17483     17481     17484     17485
     17483     17481     17484     17486     17483     17481     17484     17492
     17484     17486     17487     17488     17484     17486     17487     17489
     17484     17492     17495     17496     17485     17484     17486     17487
     17485     17484     17492     17493     17485     17484     17492     17494
     17485     17484     17492     17495     17486     17484     17492     17493
     17486     17484     17492     17494     17486     17484     17492     17495
     17486     17487     17489     17490     17486     17487     17489     17491
     17486     17487     17489     17501     17487     17486     17484     17492
     17487     17489     17501     17502     17487     17489     17501     17503
     17487     17489     17501     17504     17488     17487     17489     17490
     17488     17487     17489     17491     17488     17487     17489     17501
     17489     17501     17504     17505     17489     17501     17504     17506
     17489     17501     17504     17507     17490     17489     17501     17502
     17490     17489     17501     17503     17490     17489     17501     17504
     17491     17489     17501     17502     17491     17489     17501     17503
     17491     17489     17501     17504     17492     17495     17496     17497
     17492     17495     17496     17498     17493     17492     17495     17496
     17494     17492     17495     17496     17495     17496     17498     17499
     17495     17496     17498     17500     17495     17496     17498     17542
     17496     17498     17542     17543     17496     17498     17542     17544
     17496     17498     17542     17545     17497     17496     17498     17499
     17497     17496     17498     17500     17497     17496     17498     17542
     17498     17542     17545     17546     17498     17542     17545     17547
     17498     17542     17545     17548     17499     17498     17542     17543
     17499     17498     17542     17544     17499     17498     17542     17545
     17500     17498     17542     17543     17500     17498     17542     17544
     17500     17498     17542     17545     17501     17504     17507     17508
     17501     17504     17507     17509     17501     17504     17507     17510
     17502     17501     17504     17505     17502     17501     17504     17506
     17502     17501     17504     17507     17503     17501     17504     17505
     17503     17501     17504     17506     17503     17501     17504     17507
     17504     17507     17510     17511     17504     17507     17510     17512
     17504     17507     17510     17513     17505     17504     17507     17508
     17505     17504     17507     17509     17505     17504     17507     17510
     17506     17504     17507     17508     17506     17504     17507     17509
     17506     17504     17507     17510     17507     17510     17513     17514
     17507     17510     17513     17515     17507     17510     17513     17516
     17508     17507     17510     17511     17508     17507     17510     17512
     17508     17507     17510     17513     17509     17507     17510     17511
     17509     17507     17510     17512     17509     17507     17510     17513
     17510     17513     17516     17517     17510     17513     17516     17518
     17510     17513     17516     17519     17511     17510     17513     17514
     17511     17510     17513     17515     17511     17510     17513     17516
     17512     17510     17513     17514     17512     17510     17513     17515
     17512     17510     17513     17516     17513     17516     17519     17520
     17513     17516     17519     17521     17514     17513     17516     17517
     17514     17513     17516     17518     17514     17513     17516     17519
     17515     17513     17516     17517     17515     17513     17516     17518
     17515     17513     17516     17519     17516     17519     17521     17522
     17516     17519     17521     17523     17517     17516     17519     17520
     17517     17516     17519     17521     17518     17516     17519     17520
     17518     17516     17519     17521     17519     17521     17523     17524
     17519     17521     17523     17525     17519     17521     17523     17526
     17520     17519     17521     17522     17520     17519     17521     17523
     17521     17523     17526     17527     17521     17523     17526     17528
     17521     17523     17526     17529     17522     17521     17523     17524
     17522     17521     17523     17525     17522     17521     17523     17526
     17523     17526     17529     17530     17523     17526     17529     17531
     17523     17526     17529     17532     17524     17523     17526     17527
     17524     17523     17526     17528     17524     17523     17526     17529
     17525     17523     17526     17527     17525     17523     17526     17528
     17525     17523     17526     17529     17526     17529     17532     17533
     17526     17529     17532     17534     17526     17529     17532     17535
     17527     17526     17529     17530     17527     17526     17529     17531
     17527     17526     17529     17532     17528     17526     17529     17530
     17528     17526     17529     17531     17528     17526     17529     17532
     17529     17532     17535     17536     17529     17532     17535     17537
     17529     17532     17535     17538     17530     17529     17532     17533
     17530     17529     17532     17534     17530     17529     17532     17535
     17531     17529     17532     17533     17531     17529     17532     17534
     17531     17529     17532     17535     17532     17535     17538     17539
     17532     17535     17538     17540     17532     17535     17538     17541
     17533     17532     17535     17536     17533     17532     17535     17537
     17533     17532     17535     17538     17534     17532     17535     17536
     17534     17532     17535     17537     17534     17532     17535     17538
     17536     17535     17538     17539     17536     17535     17538     17540
     17536     17535     17538     17541     17537     17535     17538     17539
     17537     17535     17538     17540     17537     17535     17538     17541
     17542     17545     17548     17549     17542     17545     17548     17550
     17542     17545     17548     17551     17543     17542     17545     17546
     17543     17542     17545     17547     17543     17542     17545     17548
     17544     17542     17545     17546     17544     17542     17545     17547
     17544     17542     17545     17548     17545     17548     17551     17552
     17545     17548     17551     17553     17545     17548     17551     17554
     17546     17545     17548     17549     17546     17545     17548     17550
     17546     17545     17548     17551     17547     17545     17548     17549
     17547     17545     17548     17550     17547     17545     17548     17551
     17548     17551     17554     17555     17548     17551     17554     17556
     17548     17551     17554     17557     17549     17548     17551     17552
     17549     17548     17551     17553     17549     17548     17551     17554
     17550     17548     17551     17552     17550     17548     17551     17553
     17550     17548     17551     17554     17551     17554     17557     17558
     17551     17554     17557     17559     17551     17554     17557     17560
     17552     17551     17554     17555     17552     17551     17554     17556
     17552     17551     17554     17557     17553     17551     17554     17555
     17553     17551     17554     17556     17553     17551     17554     17557
     17554     17557     17560     17561     17554     17557     17560     17562
     17555     17554     17557     17558     17555     17554     17557     17559
     17555     17554     17557     17560     17556     17554     17557     17558
     17556     17554     17557     17559     17556     17554     17557     17560
     17557     17560     17562     17563     17557     17560     17562     17564
     17558     17557     17560     17561     17558     17557     17560     17562
     17559     17557     17560     17561     17559     17557     17560     17562
     17560     17562     17564     17565     17560     17562     17564     17566
     17560     17562     17564     17567     17561     17560     17562     17563
     17561     17560     17562     17564     17562     17564     17567     17568
     17562     17564     17567     17569     17562     17564     17567     17570
     17563     17562     17564     17565     17563     17562     17564     17566
     17563     17562     17564     17567     17564     17567     17570     17571
     17564     17567     17570     17572     17564     17567     17570     17573
     17565     17564     17567     17568     17565     17564     17567     17569
     17565     17564     17567     17570     17566     17564     17567     17568
     17566     17564     17567     17569     17566     17564     17567     17570
     17567     17570     17573     17574     17567     17570     17573     17575
     17567     17570     17573     17576     17568     17567     17570     17571
     17568     17567     17570     17572     17568     17567     17570     17573
     17569     17567     17570     17571     17569     17567     17570     17572
     17569     17567     17570     17573     17570     17573     17576     17577
     17570     17573     17576     17578     17570     17573     17576     17579
     17571     17570     17573     17574     17571     17570     17573     17575
     17571     17570     17573     17576     17572     17570     17573     17574
     17572     17570     17573     17575     17572     17570     17573     17576
     17573     17576     17579     17580     17573     17576     17579     17581
     17573     17576     17579     17582     17574     17573     17576     17577
     17574     17573     17576     17578     17574     17573     17576     17579
     17575     17573     17576     17577     17575     17573     17576     17578
     17575     17573     17576     17579     17576     17579     17582     17583
     17576     17579     17582     17584     17576     17579     17582     17585
     17577     17576     17579     17580     17577     17576     17579     17581
     17577     17576     17579     17582     17578     17576     17579     17580
     17578     17576     17579     17581     17578     17576     17579     17582
     17579     17582     17585     17586     17579     17582     17585     17587
     17579     17582     17585     17588     17580     17579     17582     17583
     17580     17579     17582     17584     17580     17579     17582     17585
     17581     17579     17582     17583     17581     17579     17582     17584
     17581     17579     17582     17585     17583     17582     17585     17586
     17583     17582     17585     17587     17583     17582     17585     17588
     17584     17582     17585     17586     17584     17582     17585     17587
     17584     17582     17585     17588     17589     17593     17596     17597
     17589     17593     17596     17598     17589     17593     17596     17603
     17590     17589     17593     17594     17590     17589     17593     17595
     17590     17589     17593     17596     17591     17589     17593     17594
     17591     17589     17593     17595     17591     17589     17593     17596
     17592     17589     17593     17594     17592     17589     17593     17595
     17592     17589     17593     17596     17593     17596     17603     17599
     17594     17593     17596     17597     17594     17593     17596     17598
     17594     17593     17596     17603     17595     17593     17596     17597
     17595     17593     17596     17598     17595     17593     17596     17603
     17596     17603     17599     17600     17596     17603     17599     17601
     17596     17603     17599     17602     17597     17596     17603     17599
     17598     17596     17603     17599     17599     17602     17604     17605
     17599     17602     17604     17606     17599     17602     17604     17607
     17600     17599     17602     17604     17601     17599     17602     17604
     17602     17604     17607     17608     17602     17604     17607     17609
     17602     17604     17607     17615     17603     17599     17602     17604
     17604     17607     17609     17610     17604     17607     17615     17616
     17604     17607     17615     17617     17604     17607     17615     17618
     17605     17604     17607     17608     17605     17604     17607     17609
     17605     17604     17607     17615     17606     17604     17607     17608
     17606     17604     17607     17609     17606     17604     17607     17615
     17607     17609     17610     17611     17607     17609     17610     17612
     17607     17615     17618     17619     17608     17607     17609     17610
     17608     17607     17615     17616     17608     17607     17615     17617
     17608     17607     17615     17618     17609     17607     17615     17616
     17609     17607     17615     17617     17609     17607     17615     17618
     17609     17610     17612     17613     17609     17610     17612     17614
     17609     17610     17612     17624     17610     17609     17607     17615
     17610     17612     17624     17625     17610     17612     17624     17626
     17610     17612     17624     17627     17611     17610     17612     17613
     17611     17610     17612     17614     17611     17610     17612     17624
     17612     17624     17627     17628     17612     17624     17627     17629
     17612     17624     17627     17630     17613     17612     17624     17625
     17613     17612     17624     17626     17613     17612     17624     17627
     17614     17612     17624     17625     17614     17612     17624     17626
     17614     17612     17624     17627     17615     17618     17619     17620
     17615     17618     17619     17621     17616     17615     17618     17619
     17617     17615     17618     17619     17618     17619     17621     17622
     17618     17619     17621     17623     17618     17619     17621     17668
     17619     17621     17668     17669     17619     17621     17668     17670
     17619     17621     17668     17671     17620     17619     17621     17622
     17620     17619     17621     17623     17620     17619     17621     17668
     17621     17668     17671     17672     17621     17668     17671     17673
     17621     17668     17671     17674     17622     17621     17668     17669
     17622     17621     17668     17670     17622     17621     17668     17671
     17623     17621     17668     17669     17623     17621     17668     17670
     17623     17621     17668     17671     17624     17627     17630     17631
     17624     17627     17630     17632     17624     17627     17630     17633
     17625     17624     17627     17628     17625     17624     17627     17629
     17625     17624     17627     17630     17626     17624     17627     17628
     17626     17624     17627     17629     17626     17624     17627     17630
     17627     17630     17633     17634     17627     17630     17633     17635
     17627     17630     17633     17636     17628     17627     17630     17631
     17628     17627     17630     17632     17628     17627     17630     17633
     17629     17627     17630     17631     17629     17627     17630     17632
     17629     17627     17630     17633     17630     17633     17636     17637
     17630     17633     17636     17638     17630     17633     17636     17639
     17631     17630     17633     17634     17631     17630     17633     17635
     17631     17630     17633     17636     17632     17630     17633     17634
     17632     17630     17633     17635     17632     17630     17633     17636
     17633     17636     17639     17640     17633     17636     17639     17641
     17633     17636     17639     17642     17634     17633     17636     17637
     17634     17633     17636     17638     17634     17633     17636     17639
     17635     17633     17636     17637     17635     17633     17636     17638
     17635     17633     17636     17639     17636     17639     17642     17643
     17636     17639     17642     17644     17636     17639     17642     17647
     17637     17636     17639     17640     17637     17636     17639     17641
     17637     17636     17639     17642     17638     17636     17639     17640
     17638     17636     17639     17641     17638     17636     17639     17642
     17639     17642     17644     17645     17639     17642     17644     17646
     17639     17642     17644     17647     17639     17642     17647     17644
     17639     17642     17647     17648     17639     17642     17647     17649
     17640     17639     17642     17643     17640     17639     17642     17644
     17640     17639     17642     17647     17641     17639     17642     17643
     17641     17639     17642     17644     17641     17639     17642     17647
     17642     17644     17647     17648     17642     17644     17647     17649
     17642     17647     17644     17645     17642     17647     17644     17646
     17642     17647     17649     17650     17642     17647     17649     17651
     17642     17647     17649     17652     17643     17642     17644     17645
     17643     17642     17644     17646     17643     17642     17644     17647
     17643     17642     17647     17644     17643     17642     17647     17648
     17643     17642     17647     17649     17644     17642     17647     17648
     17644     17642     17647     17649     17644     17647     17649     17650
     17644     17647     17649     17651     17644     17647     17649     17652
     17645     17644     17642     17647     17645     17644     17647     17648
     17645     17644     17647     17649     17646     17644     17642     17647
     17646     17644     17647     17648     17646     17644     17647     17649
     17647     17649     17652     17653     17647     17649     17652     17654
     17647     17649     17652     17655     17648     17647     17649     17650
     17648     17647     17649     17651     17648     17647     17649     17652
     17649     17652     17655     17656     17649     17652     17655     17657
     17649     17652     17655     17658     17650     17649     17652     17653
     17650     17649     17652     17654     17650     17649     17652     17655
     17651     17649     17652     17653     17651     17649     17652     17654
     17651     17649     17652     17655     17652     17655     17658     17659
     17652     17655     17658     17660     17652     17655     17658     17661
     17653     17652     17655     17656     17653     17652     17655     17657
     17653     17652     17655     17658     17654     17652     17655     17656
     17654     17652     17655     17657     17654     17652     17655     17658
     17655     17658     17661     17662     17655     17658     17661     17663
     17655     17658     17661     17664     17656     17655     17658     17659
     17656     17655     17658     17660     17656     17655     17658     17661
     17657     17655     17658     17659     17657     17655     17658     17660
     17657     17655     17658     17661     17658     17661     17664     17665
     17658     17661     17664     17666     17658     17661     17664     17667
     17659     17658     17661     17662     17659     17658     17661     17663
     17659     17658     17661     17664     17660     17658     17661     17662
     17660     17658     17661     17663     17660     17658     17661     17664
     17662     17661     17664     17665     17662     17661     17664     17666
     17662     17661     17664     17667     17663     17661     17664     17665
     17663     17661     17664     17666     17663     17661     17664     17667
     17668     17671     17674     17675     17668     17671     17674     17676
     17668     17671     17674     17677     17669     17668     17671     17672
     17669     17668     17671     17673     17669     17668     17671     17674
     17670     17668     17671     17672     17670     17668     17671     17673
     17670     17668     17671     17674     17671     17674     17677     17678
     17671     17674     17677     17679     17671     17674     17677     17680
     17672     17671     17674     17675     17672     17671     17674     17676
     17672     17671     17674     17677     17673     17671     17674     17675
     17673     17671     17674     17676     17673     17671     17674     17677
     17674     17677     17680     17681     17674     17677     17680     17682
     17674     17677     17680     17683     17675     17674     17677     17678
     17675     17674     17677     17679     17675     17674     17677     17680
     17676     17674     17677     17678     17676     17674     17677     17679
     17676     17674     17677     17680     17677     17680     17683     17684
     17677     17680     17683     17685     17677     17680     17683     17686
     17678     17677     17680     17681     17678     17677     17680     17682
     17678     17677     17680     17683     17679     17677     17680     17681
     17679     17677     17680     17682     17679     17677     17680     17683
     17680     17683     17686     17687     17680     17683     17686     17688
     17680     17683     17686     17689     17681     17680     17683     17684
     17681     17680     17683     17685     17681     17680     17683     17686
     17682     17680     17683     17684     17682     17680     17683     17685
     17682     17680     17683     17686     17683     17686     17689     17690
     17683     17686     17689     17691     17683     17686     17689     17692
     17684     17683     17686     17687     17684     17683     17686     17688
     17684     17683     17686     17689     17685     17683     17686     17687
     17685     17683     17686     17688     17685     17683     17686     17689
     17686     17689     17692     17693     17686     17689     17692     17694
     17686     17689     17692     17695     17687     17686     17689     17690
     17687     17686     17689     17691     17687     17686     17689     17692
     17688     17686     17689     17690     17688     17686     17689     17691
     17688     17686     17689     17692     17689     17692     17695     17696
     17689     17692     17695     17697     17689     17692     17695     17698
     17690     17689     17692     17693     17690     17689     17692     17694
     17690     17689     17692     17695     17691     17689     17692     17693
     17691     17689     17692     17694     17691     17689     17692     17695
     17692     17695     17698     17699     17692     17695     17698     17700
     17692     17695     17698     17701     17693     17692     17695     17696
     17693     17692     17695     17697     17693     17692     17695     17698
     17694     17692     17695     17696     17694     17692     17695     17697
     17694     17692     17695     17698     17695     17698     17701     17702
     17695     17698     17701     17703     17695     17698     17701     17704
     17696     17695     17698     17699     17696     17695     17698     17700
     17696     17695     17698     17701     17697     17695     17698     17699
     17697     17695     17698     17700     17697     17695     17698     17701
     17698     17701     17704     17705     17698     17701     17704     17706
     17698     17701     17704     17707     17699     17698     17701     17702
     17699     17698     17701     17703     17699     17698     17701     17704
     17700     17698     17701     17702     17700     17698     17701     17703
     17700     17698     17701     17704     17701     17704     17707     17708
     17701     17704     17707     17709     17701     17704     17707     17710
     17702     17701     17704     17705     17702     17701     17704     17706
     17702     17701     17704     17707     17703     17701     17704     17705
     17703     17701     17704     17706     17703     17701     17704     17707
     17705     17704     17707     17708     17705     17704     17707     17709
     17705     17704     17707     17710     17706     17704     17707     17708
     17706     17704     17707     17709     17706     17704     17707     17710
     17711     17715     17718     17719     17711     17715     17718     17720
     17711     17715     17718     17725     17712     17711     17715     17716
     17712     17711     17715     17717     17712     17711     17715     17718
     17713     17711     17715     17716     17713     17711     17715     17717
     17713     17711     17715     17718     17714     17711     17715     17716
     17714     17711     17715     17717     17714     17711     17715     17718
     17715     17718     17725     17721     17716     17715     17718     17719
     17716     17715     17718     17720     17716     17715     17718     17725
     17717     17715     17718     17719     17717     17715     17718     17720
     17717     17715     17718     17725     17718     17725     17721     17722
     17718     17725     17721     17723     17718     17725     17721     17724
     17719     17718     17725     17721     17720     17718     17725     17721
     17721     17724     17726     17727     17721     17724     17726     17728
     17721     17724     17726     17729     17722     17721     17724     17726
     17723     17721     17724     17726     17724     17726     17729     17730
     17724     17726     17729     17731     17724     17726     17729     17737
     17725     17721     17724     17726     17726     17729     17731     17732
     17726     17729     17737     17738     17726     17729     17737     17739
     17726     17729     17737     17740     17727     17726     17729     17730
     17727     17726     17729     17731     17727     17726     17729     17737
     17728     17726     17729     17730     17728     17726     17729     17731
     17728     17726     17729     17737     17729     17731     17732     17733
     17729     17731     17732     17734     17729     17737     17740     17741
     17730     17729     17731     17732     17730     17729     17737     17738
     17730     17729     17737     17739     17730     17729     17737     17740
     17731     17729     17737     17738     17731     17729     17737     17739
     17731     17729     17737     17740     17731     17732     17734     17735
     17731     17732     17734     17736     17731     17732     17734     17746
     17732     17731     17729     17737     17732     17734     17746     17747
     17732     17734     17746     17748     17732     17734     17746     17749
     17733     17732     17734     17735     17733     17732     17734     17736
     17733     17732     17734     17746     17734     17746     17749     17750
     17734     17746     17749     17751     17734     17746     17749     17752
     17735     17734     17746     17747     17735     17734     17746     17748
     17735     17734     17746     17749     17736     17734     17746     17747
     17736     17734     17746     17748     17736     17734     17746     17749
     17737     17740     17741     17742     17737     17740     17741     17743
     17738     17737     17740     17741     17739     17737     17740     17741
     17740     17741     17743     17744     17740     17741     17743     17745
     17740     17741     17743     17790     17741     17743     17790     17791
     17741     17743     17790     17792     17741     17743     17790     17793
     17742     17741     17743     17744     17742     17741     17743     17745
     17742     17741     17743     17790     17743     17790     17793     17794
     17743     17790     17793     17795     17743     17790     17793     17796
     17744     17743     17790     17791     17744     17743     17790     17792
     17744     17743     17790     17793     17745     17743     17790     17791
     17745     17743     17790     17792     17745     17743     17790     17793
     17746     17749     17752     17753     17746     17749     17752     17754
     17746     17749     17752     17755     17747     17746     17749     17750
     17747     17746     17749     17751     17747     17746     17749     17752
     17748     17746     17749     17750     17748     17746     17749     17751
     17748     17746     17749     17752     17749     17752     17755     17756
     17749     17752     17755     17757     17749     17752     17755     17758
     17750     17749     17752     17753     17750     17749     17752     17754
     17750     17749     17752     17755     17751     17749     17752     17753
     17751     17749     17752     17754     17751     17749     17752     17755
     17752     17755     17758     17759     17752     17755     17758     17760
     17752     17755     17758     17761     17753     17752     17755     17756
     17753     17752     17755     17757     17753     17752     17755     17758
     17754     17752     17755     17756     17754     17752     17755     17757
     17754     17752     17755     17758     17755     17758     17761     17762
     17755     17758     17761     17763     17755     17758     17761     17764
     17756     17755     17758     17759     17756     17755     17758     17760
     17756     17755     17758     17761     17757     17755     17758     17759
     17757     17755     17758     17760     17757     17755     17758     17761
     17758     17761     17764     17765     17758     17761     17764     17766
     17758     17761     17764     17769     17759     17758     17761     17762
     17759     17758     17761     17763     17759     17758     17761     17764
     17760     17758     17761     17762     17760     17758     17761     17763
     17760     17758     17761     17764     17761     17764     17766     17767
     17761     17764     17766     17768     17761     17764     17766     17769
     17761     17764     17769     17766     17761     17764     17769     17770
     17761     17764     17769     17771     17762     17761     17764     17765
     17762     17761     17764     17766     17762     17761     17764     17769
     17763     17761     17764     17765     17763     17761     17764     17766
     17763     17761     17764     17769     17764     17766     17769     17770
     17764     17766     17769     17771     17764     17769     17766     17767
     17764     17769     17766     17768     17764     17769     17771     17772
     17764     17769     17771     17773     17764     17769     17771     17774
     17765     17764     17766     17767     17765     17764     17766     17768
     17765     17764     17766     17769     17765     17764     17769     17766
     17765     17764     17769     17770     17765     17764     17769     17771
     17766     17764     17769     17770     17766     17764     17769     17771
     17766     17769     17771     17772     17766     17769     17771     17773
     17766     17769     17771     17774     17767     17766     17764     17769
     17767     17766     17769     17770     17767     17766     17769     17771
     17768     17766     17764     17769     17768     17766     17769     17770
     17768     17766     17769     17771     17769     17771     17774     17775
     17769     17771     17774     17776     17769     17771     17774     17777
     17770     17769     17771     17772     17770     17769     17771     17773
     17770     17769     17771     17774     17771     17774     17777     17778
     17771     17774     17777     17779     17771     17774     17777     17780
     17772     17771     17774     17775     17772     17771     17774     17776
     17772     17771     17774     17777     17773     17771     17774     17775
     17773     17771     17774     17776     17773     17771     17774     17777
     17774     17777     17780     17781     17774     17777     17780     17782
     17774     17777     17780     17783     17775     17774     17777     17778
     17775     17774     17777     17779     17775     17774     17777     17780
     17776     17774     17777     17778     17776     17774     17777     17779
     17776     17774     17777     17780     17777     17780     17783     17784
     17777     17780     17783     17785     17777     17780     17783     17786
     17778     17777     17780     17781     17778     17777     17780     17782
     17778     17777     17780     17783     17779     17777     17780     17781
     17779     17777     17780     17782     17779     17777     17780     17783
     17780     17783     17786     17787     17780     17783     17786     17788
     17780     17783     17786     17789     17781     17780     17783     17784
     17781     17780     17783     17785     17781     17780     17783     17786
     17782     17780     17783     17784     17782     17780     17783     17785
     17782     17780     17783     17786     17784     17783     17786     17787
     17784     17783     17786     17788     17784     17783     17786     17789
     17785     17783     17786     17787     17785     17783     17786     17788
     17785     17783     17786     17789     17790     17793     17796     17797
     17790     17793     17796     17798     17790     17793     17796     17799
     17791     17790     17793     17794     17791     17790     17793     17795
     17791     17790     17793     17796     17792     17790     17793     17794
     17792     17790     17793     17795     17792     17790     17793     17796
     17793     17796     17799     17800     17793     17796     17799     17801
     17793     17796     17799     17802     17794     17793     17796     17797
     17794     17793     17796     17798     17794     17793     17796     17799
     17795     17793     17796     17797     17795     17793     17796     17798
     17795     17793     17796     17799     17796     17799     17802     17803
     17796     17799     17802     17804     17796     17799     17802     17805
     17797     17796     17799     17800     17797     17796     17799     17801
     17797     17796     17799     17802     17798     17796     17799     17800
     17798     17796     17799     17801     17798     17796     17799     17802
     17799     17802     17805     17806     17799     17802     17805     17807
     17799     17802     17805     17808     17800     17799     17802     17803
     17800     17799     17802     17804     17800     17799     17802     17805
     17801     17799     17802     17803     17801     17799     17802     17804
     17801     17799     17802     17805     17802     17805     17808     17809
     17802     17805     17808     17810     17802     17805     17808     17811
     17803     17802     17805     17806     17803     17802     17805     17807
     17803     17802     17805     17808     17804     17802     17805     17806
     17804     17802     17805     17807     17804     17802     17805     17808
     17805     17808     17811     17812     17805     17808     17811     17813
     17805     17808     17811     17814     17806     17805     17808     17809
     17806     17805     17808     17810     17806     17805     17808     17811
     17807     17805     17808     17809     17807     17805     17808     17810
     17807     17805     17808     17811     17808     17811     17814     17815
     17808     17811     17814     17816     17808     17811     17814     17817
     17809     17808     17811     17812     17809     17808     17811     17813
     17809     17808     17811     17814     17810     17808     17811     17812
     17810     17808     17811     17813     17810     17808     17811     17814
     17811     17814     17817     17818     17811     17814     17817     17819
     17811     17814     17817     17820     17812     17811     17814     17815
     17812     17811     17814     17816     17812     17811     17814     17817
     17813     17811     17814     17815     17813     17811     17814     17816
     17813     17811     17814     17817     17814     17817     17820     17821
     17814     17817     17820     17822     17814     17817     17820     17823
     17815     17814     17817     17818     17815     17814     17817     17819
     17815     17814     17817     17820     17816     17814     17817     17818
     17816     17814     17817     17819     17816     17814     17817     17820
     17817     17820     17823     17824     17817     17820     17823     17825
     17817     17820     17823     17826     17818     17817     17820     17821
     17818     17817     17820     17822     17818     17817     17820     17823
     17819     17817     17820     17821     17819     17817     17820     17822
     17819     17817     17820     17823     17820     17823     17826     17827
     17820     17823     17826     17828     17820     17823     17826     17829
     17821     17820     17823     17824     17821     17820     17823     17825
     17821     17820     17823     17826     17822     17820     17823     17824
     17822     17820     17823     17825     17822     17820     17823     17826
     17823     17826     17829     17830     17823     17826     17829     17831
     17823     17826     17829     17832     17824     17823     17826     17827
     17824     17823     17826     17828     17824     17823     17826     17829
     17825     17823     17826     17827     17825     17823     17826     17828
     17825     17823     17826     17829     17827     17826     17829     17830
     17827     17826     17829     17831     17827     17826     17829     17832
     17828     17826     17829     17830     17828     17826     17829     17831
     17828     17826     17829     17832     17833     17837     17840     17841
     17833     17837     17840     17842     17833     17837     17840     17847
     17834     17833     17837     17838     17834     17833     17837     17839
     17834     17833     17837     17840     17835     17833     17837     17838
     17835     17833     17837     17839     17835     17833     17837     17840
     17836     17833     17837     17838     17836     17833     17837     17839
     17836     17833     17837     17840     17837     17840     17847     17843
     17838     17837     17840     17841     17838     17837     17840     17842
     17838     17837     17840     17847     17839     17837     17840     17841
     17839     17837     17840     17842     17839     17837     17840     17847
     17840     17847     17843     17844     17840     17847     17843     17845
     17840     17847     17843     17846     17841     17840     17847     17843
     17842     17840     17847     17843     17843     17846     17848     17849
     17843     17846     17848     17850     17843     17846     17848     17851
     17844     17843     17846     17848     17845     17843     17846     17848
     17846     17848     17851     17852     17846     17848     17851     17853
     17846     17848     17851     17859     17847     17843     17846     17848
     17848     17851     17853     17854     17848     17851     17859     17860
     17848     17851     17859     17861     17848     17851     17859     17862
     17849     17848     17851     17852     17849     17848     17851     17853
     17849     17848     17851     17859     17850     17848     17851     17852
     17850     17848     17851     17853     17850     17848     17851     17859
     17851     17853     17854     17855     17851     17853     17854     17856
     17851     17859     17862     17863     17852     17851     17853     17854
     17852     17851     17859     17860     17852     17851     17859     17861
     17852     17851     17859     17862     17853     17851     17859     17860
     17853     17851     17859     17861     17853     17851     17859     17862
     17853     17854     17856     17857     17853     17854     17856     17858
     17853     17854     17856     17868     17854     17853     17851     17859
     17854     17856     17868     17869     17854     17856     17868     17870
     17854     17856     17868     17871     17855     17854     17856     17857
     17855     17854     17856     17858     17855     17854     17856     17868
     17856     17868     17871     17872     17856     17868     17871     17873
     17856     17868     17871     17874     17857     17856     17868     17869
     17857     17856     17868     17870     17857     17856     17868     17871
     17858     17856     17868     17869     17858     17856     17868     17870
     17858     17856     17868     17871     17859     17862     17863     17864
     17859     17862     17863     17865     17860     17859     17862     17863
     17861     17859     17862     17863     17862     17863     17865     17866
     17862     17863     17865     17867     17862     17863     17865     17909
     17863     17865     17909     17910     17863     17865     17909     17911
     17863     17865     17909     17912     17864     17863     17865     17866
     17864     17863     17865     17867     17864     17863     17865     17909
     17865     17909     17912     17913     17865     17909     17912     17914
     17865     17909     17912     17915     17866     17865     17909     17910
     17866     17865     17909     17911     17866     17865     17909     17912
     17867     17865     17909     17910     17867     17865     17909     17911
     17867     17865     17909     17912     17868     17871     17874     17875
     17868     17871     17874     17876     17868     17871     17874     17877
     17869     17868     17871     17872     17869     17868     17871     17873
     17869     17868     17871     17874     17870     17868     17871     17872
     17870     17868     17871     17873     17870     17868     17871     17874
     17871     17874     17877     17878     17871     17874     17877     17879
     17871     17874     17877     17880     17872     17871     17874     17875
     17872     17871     17874     17876     17872     17871     17874     17877
     17873     17871     17874     17875     17873     17871     17874     17876
     17873     17871     17874     17877     17874     17877     17880     17881
     17874     17877     17880     17882     17874     17877     17880     17883
     17875     17874     17877     17878     17875     17874     17877     17879
     17875     17874     17877     17880     17876     17874     17877     17878
     17876     17874     17877     17879     17876     17874     17877     17880
     17877     17880     17883     17884     17877     17880     17883     17885
     17877     17880     17883     17886     17878     17877     17880     17881
     17878     17877     17880     17882     17878     17877     17880     17883
     17879     17877     17880     17881     17879     17877     17880     17882
     17879     17877     17880     17883     17880     17883     17886     17887
     17880     17883     17886     17888     17881     17880     17883     17884
     17881     17880     17883     17885     17881     17880     17883     17886
     17882     17880     17883     17884     17882     17880     17883     17885
     17882     17880     17883     17886     17883     17886     17888     17889
     17883     17886     17888     17890     17884     17883     17886     17887
     17884     17883     17886     17888     17885     17883     17886     17887
     17885     17883     17886     17888     17886     17888     17890     17891
     17886     17888     17890     17892     17886     17888     17890     17893
     17887     17886     17888     17889     17887     17886     17888     17890
     17888     17890     17893     17894     17888     17890     17893     17895
     17888     17890     17893     17896     17889     17888     17890     17891
     17889     17888     17890     17892     17889     17888     17890     17893
     17890     17893     17896     17897     17890     17893     17896     17898
     17890     17893     17896     17899     17891     17890     17893     17894
     17891     17890     17893     17895     17891     17890     17893     17896
     17892     17890     17893     17894     17892     17890     17893     17895
     17892     17890     17893     17896     17893     17896     17899     17900
     17893     17896     17899     17901     17893     17896     17899     17902
     17894     17893     17896     17897     17894     17893     17896     17898
     17894     17893     17896     17899     17895     17893     17896     17897
     17895     17893     17896     17898     17895     17893     17896     17899
     17896     17899     17902     17903     17896     17899     17902     17904
     17896     17899     17902     17905     17897     17896     17899     17900
     17897     17896     17899     17901     17897     17896     17899     17902
     17898     17896     17899     17900     17898     17896     17899     17901
     17898     17896     17899     17902     17899     17902     17905     17906
     17899     17902     17905     17907     17899     17902     17905     17908
     17900     17899     17902     17903     17900     17899     17902     17904
     17900     17899     17902     17905     17901     17899     17902     17903
     17901     17899     17902     17904     17901     17899     17902     17905
     17903     17902     17905     17906     17903     17902     17905     17907
     17903     17902     17905     17908     17904     17902     17905     17906
     17904     17902     17905     17907     17904     17902     17905     17908
     17909     17912     17915     17916     17909     17912     17915     17917
     17909     17912     17915     17918     17910     17909     17912     17913
     17910     17909     17912     17914     17910     17909     17912     17915
     17911     17909     17912     17913     17911     17909     17912     17914
     17911     17909     17912     17915     17912     17915     17918     17919
     17912     17915     17918     17920     17912     17915     17918     17921
     17913     17912     17915     17916     17913     17912     17915     17917
     17913     17912     17915     17918     17914     17912     17915     17916
     17914     17912     17915     17917     17914     17912     17915     17918
     17915     17918     17921     17922     17915     17918     17921     17923
     17915     17918     17921     17924     17916     17915     17918     17919
     17916     17915     17918     17920     17916     17915     17918     17921
     17917     17915     17918     17919     17917     17915     17918     17920
     17917     17915     17918     17921     17918     17921     17924     17925
     17918     17921     17924     17926     17918     17921     17924     17927
     17919     17918     17921     17922     17919     17918     17921     17923
     17919     17918     17921     17924     17920     17918     17921     17922
     17920     17918     17921     17923     17920     17918     17921     17924
     17921     17924     17927     17928     17921     17924     17927     17929
     17922     17921     17924     17925     17922     17921     17924     17926
     17922     17921     17924     17927     17923     17921     17924     17925
     17923     17921     17924     17926     17923     17921     17924     17927
     17924     17927     17929     17930     17924     17927     17929     17931
     17925     17924     17927     17928     17925     17924     17927     17929
     17926     17924     17927     17928     17926     17924     17927     17929
     17927     17929     17931     17932     17927     17929     17931     17933
     17927     17929     17931     17934     17928     17927     17929     17930
     17928     17927     17929     17931     17929     17931     17934     17935
     17929     17931     17934     17936     17929     17931     17934     17937
     17930     17929     17931     17932     17930     17929     17931     17933
     17930     17929     17931     17934     17931     17934     17937     17938
     17931     17934     17937     17939     17931     17934     17937     17940
     17932     17931     17934     17935     17932     17931     17934     17936
     17932     17931     17934     17937     17933     17931     17934     17935
     17933     17931     17934     17936     17933     17931     17934     17937
     17934     17937     17940     17941     17934     17937     17940     17942
     17934     17937     17940     17943     17935     17934     17937     17938
     17935     17934     17937     17939     17935     17934     17937     17940
     17936     17934     17937     17938     17936     17934     17937     17939
     17936     17934     17937     17940     17937     17940     17943     17944
     17937     17940     17943     17945     17937     17940     17943     17946
     17938     17937     17940     17941     17938     17937     17940     17942
     17938     17937     17940     17943     17939     17937     17940     17941
     17939     17937     17940     17942     17939     17937     17940     17943
     17940     17943     17946     17947     17940     17943     17946     17948
     17940     17943     17946     17949     17941     17940     17943     17944
     17941     17940     17943     17945     17941     17940     17943     17946
     17942     17940     17943     17944     17942     17940     17943     17945
     17942     17940     17943     17946     17943     17946     17949     17950
     17943     17946     17949     17951     17943     17946     17949     17952
     17944     17943     17946     17947     17944     17943     17946     17948
     17944     17943     17946     17949     17945     17943     17946     17947
     17945     17943     17946     17948     17945     17943     17946     17949
     17946     17949     17952     17953     17946     17949     17952     17954
     17946     17949     17952     17955     17947     17946     17949     17950
     17947     17946     17949     17951     17947     17946     17949     17952
     17948     17946     17949     17950     17948     17946     17949     17951
     17948     17946     17949     17952     17950     17949     17952     17953
     17950     17949     17952     17954     17950     17949     17952     17955
     17951     17949     17952     17953     17951     17949     17952     17954
     17951     17949     17952     17955     17956     17960     17963     17964
     17956     17960     17963     17965     17956     17960     17963     17970
     17957     17956     17960     17961     17957     17956     17960     17962
     17957     17956     17960     17963     17958     17956     17960     17961
     17958     17956     17960     17962     17958     17956     17960     17963
     17959     17956     17960     17961     17959     17956     17960     17962
     17959     17956     17960     17963     17960     17963     17970     17966
     17961     17960     17963     17964     17961     17960     17963     17965
     17961     17960     17963     17970     17962     17960     17963     17964
     17962     17960     17963     17965     17962     17960     17963     17970
     17963     17970     17966     17967     17963     17970     17966     17968
     17963     17970     17966     17969     17964     17963     17970     17966
     17965     17963     17970     17966     17966     17969     17971     17972
     17966     17969     17971     17973     17966     17969     17971     17974
     17967     17966     17969     17971     17968     17966     17969     17971
     17969     17971     17974     17975     17969     17971     17974     17976
     17969     17971     17974     17982     17970     17966     17969     17971
     17971     17974     17976     17977     17971     17974     17982     17983
     17971     17974     17982     17984     17971     17974     17982     17985
     17972     17971     17974     17975     17972     17971     17974     17976
     17972     17971     17974     17982     17973     17971     17974     17975
     17973     17971     17974     17976     17973     17971     17974     17982
     17974     17976     17977     17978     17974     17976     17977     17979
     17974     17982     17985     17986     17975     17974     17976     17977
     17975     17974     17982     17983     17975     17974     17982     17984
     17975     17974     17982     17985     17976     17974     17982     17983
     17976     17974     17982     17984     17976     17974     17982     17985
     17976     17977     17979     17980     17976     17977     17979     17981
     17976     17977     17979     17991     17977     17976     17974     17982
     17977     17979     17991     17992     17977     17979     17991     17993
     17977     17979     17991     17994     17978     17977     17979     17980
     17978     17977     17979     17981     17978     17977     17979     17991
     17979     17991     17994     17995     17979     17991     17994     17996
     17979     17991     17994     17997     17980     17979     17991     17992
     17980     17979     17991     17993     17980     17979     17991     17994
     17981     17979     17991     17992     17981     17979     17991     17993
     17981     17979     17991     17994     17982     17985     17986     17987
     17982     17985     17986     17988     17983     17982     17985     17986
     17984     17982     17985     17986     17985     17986     17988     17989
     17985     17986     17988     17990     17985     17986     17988     18038
     17986     17988     18038     18039     17986     17988     18038     18040
     17986     17988     18038     18041     17987     17986     17988     17989
     17987     17986     17988     17990     17987     17986     17988     18038
     17988     18038     18041     18042     17988     18038     18041     18043
     17988     18038     18041     18044     17989     17988     18038     18039
     17989     17988     18038     18040     17989     17988     18038     18041
     17990     17988     18038     18039     17990     17988     18038     18040
     17990     17988     18038     18041     17991     17994     17997     17998
     17991     17994     17997     17999     17991     17994     17997     18000
     17992     17991     17994     17995     17992     17991     17994     17996
     17992     17991     17994     17997     17993     17991     17994     17995
     17993     17991     17994     17996     17993     17991     17994     17997
     17994     17997     18000     18001     17994     17997     18000     18002
     17994     17997     18000     18003     17995     17994     17997     17998
     17995     17994     17997     17999     17995     17994     17997     18000
     17996     17994     17997     17998     17996     17994     17997     17999
     17996     17994     17997     18000     17997     18000     18003     18004
     17997     18000     18003     18005     17997     18000     18003     18006
     17998     17997     18000     18001     17998     17997     18000     18002
     17998     17997     18000     18003     17999     17997     18000     18001
     17999     17997     18000     18002     17999     17997     18000     18003
     18000     18003     18006     18007     18000     18003     18006     18008
     18000     18003     18006     18009     18001     18000     18003     18004
     18001     18000     18003     18005     18001     18000     18003     18006
     18002     18000     18003     18004     18002     18000     18003     18005
     18002     18000     18003     18006     18003     18006     18009     18010
     18003     18006     18009     18011     18004     18003     18006     18007
     18004     18003     18006     18008     18004     18003     18006     18009
     18005     18003     18006     18007     18005     18003     18006     18008
     18005     18003     18006     18009     18006     18009     18011     18012
     18006     18009     18011     18013     18007     18006     18009     18010
     18007     18006     18009     18011     18008     18006     18009     18010
     18008     18006     18009     18011     18009     18011     18013     18014
     18009     18011     18013     18015     18009     18011     18013     18016
     18010     18009     18011     18012     18010     18009     18011     18013
     18011     18013     18016     18017     18011     18013     18016     18018
     18011     18013     18016     18019     18012     18011     18013     18014
     18012     18011     18013     18015     18012     18011     18013     18016
     18013     18016     18019     18020     18013     18016     18019     18021
     18013     18016     18019     18022     18014     18013     18016     18017
     18014     18013     18016     18018     18014     18013     18016     18019
     18015     18013     18016     18017     18015     18013     18016     18018
     18015     18013     18016     18019     18016     18019     18022     18023
     18016     18019     18022     18024     18016     18019     18022     18025
     18017     18016     18019     18020     18017     18016     18019     18021
     18017     18016     18019     18022     18018     18016     18019     18020
     18018     18016     18019     18021     18018     18016     18019     18022
     18019     18022     18025     18026     18019     18022     18025     18027
     18019     18022     18025     18028     18020     18019     18022     18023
     18020     18019     18022     18024     18020     18019     18022     18025
     18021     18019     18022     18023     18021     18019     18022     18024
     18021     18019     18022     18025     18022     18025     18028     18029
     18022     18025     18028     18030     18022     18025     18028     18031
     18023     18022     18025     18026     18023     18022     18025     18027
     18023     18022     18025     18028     18024     18022     18025     18026
     18024     18022     18025     18027     18024     18022     18025     18028
     18025     18028     18031     18032     18025     18028     18031     18033
     18025     18028     18031     18034     18026     18025     18028     18029
     18026     18025     18028     18030     18026     18025     18028     18031
     18027     18025     18028     18029     18027     18025     18028     18030
     18027     18025     18028     18031     18028     18031     18034     18035
     18028     18031     18034     18036     18028     18031     18034     18037
     18029     18028     18031     18032     18029     18028     18031     18033
     18029     18028     18031     18034     18030     18028     18031     18032
     18030     18028     18031     18033     18030     18028     18031     18034
     18032     18031     18034     18035     18032     18031     18034     18036
     18032     18031     18034     18037     18033     18031     18034     18035
     18033     18031     18034     18036     18033     18031     18034     18037
     18038     18041     18044     18045     18038     18041     18044     18046
     18038     18041     18044     18047     18039     18038     18041     18042
     18039     18038     18041     18043     18039     18038     18041     18044
     18040     18038     18041     18042     18040     18038     18041     18043
     18040     18038     18041     18044     18041     18044     18047     18048
     18041     18044     18047     18049     18041     18044     18047     18050
     18042     18041     18044     18045     18042     18041     18044     18046
     18042     18041     18044     18047     18043     18041     18044     18045
     18043     18041     18044     18046     18043     18041     18044     18047
     18044     18047     18050     18051     18044     18047     18050     18052
     18044     18047     18050     18053     18045     18044     18047     18048
     18045     18044     18047     18049     18045     18044     18047     18050
     18046     18044     18047     18048     18046     18044     18047     18049
     18046     18044     18047     18050     18047     18050     18053     18054
     18047     18050     18053     18055     18047     18050     18053     18056
     18048     18047     18050     18051     18048     18047     18050     18052
     18048     18047     18050     18053     18049     18047     18050     18051
     18049     18047     18050     18052     18049     18047     18050     18053
     18050     18053     18056     18057     18050     18053     18056     18058
     18050     18053     18056     18059     18051     18050     18053     18054
     18051     18050     18053     18055     18051     18050     18053     18056
     18052     18050     18053     18054     18052     18050     18053     18055
     18052     18050     18053     18056     18053     18056     18059     18060
     18053     18056     18059     18061     18053     18056     18059     18062
     18054     18053     18056     18057     18054     18053     18056     18058
     18054     18053     18056     18059     18055     18053     18056     18057
     18055     18053     18056     18058     18055     18053     18056     18059
     18056     18059     18062     18063     18056     18059     18062     18064
     18056     18059     18062     18065     18057     18056     18059     18060
     18057     18056     18059     18061     18057     18056     18059     18062
     18058     18056     18059     18060     18058     18056     18059     18061
     18058     18056     18059     18062     18059     18062     18065     18066
     18059     18062     18065     18067     18059     18062     18065     18068
     18060     18059     18062     18063     18060     18059     18062     18064
     18060     18059     18062     18065     18061     18059     18062     18063
     18061     18059     18062     18064     18061     18059     18062     18065
     18062     18065     18068     18069     18062     18065     18068     18070
     18062     18065     18068     18071     18063     18062     18065     18066
     18063     18062     18065     18067     18063     18062     18065     18068
     18064     18062     18065     18066     18064     18062     18065     18067
     18064     18062     18065     18068     18065     18068     18071     18072
     18065     18068     18071     18073     18065     18068     18071     18074
     18066     18065     18068     18069     18066     18065     18068     18070
     18066     18065     18068     18071     18067     18065     18068     18069
     18067     18065     18068     18070     18067     18065     18068     18071
     18068     18071     18074     18075     18068     18071     18074     18076
     18068     18071     18074     18077     18069     18068     18071     18072
     18069     18068     18071     18073     18069     18068     18071     18074
     18070     18068     18071     18072     18070     18068     18071     18073
     18070     18068     18071     18074     18071     18074     18077     18078
     18071     18074     18077     18079     18071     18074     18077     18080
     18072     18071     18074     18075     18072     18071     18074     18076
     18072     18071     18074     18077     18073     18071     18074     18075
     18073     18071     18074     18076     18073     18071     18074     18077
     18075     18074     18077     18078     18075     18074     18077     18079
     18075     18074     18077     18080     18076     18074     18077     18078
     18076     18074     18077     18079     18076     18074     18077     18080
     18081     18086     18088     18089     18081     18086     18090     18091
     18081     18086     18090     18092     18081     18086     18090     18097
     18082     18081     18084     18085     18082     18081     18086     18087
     18082     18081     18086     18088     18082     18081     18086     18090
     18083     18081     18084     18085     18083     18081     18086     18087
     18083     18081     18086     18088     18083     18081     18086     18090
     18084     18081     18086     18087     18084     18081     18086     18088
     18084     18081     18086     18090     18085     18084     18081     18086
     18086     18090     18097     18093     18087     18086     18088     18089
     18087     18086     18090     18091     18087     18086     18090     18092
     18087     18086     18090     18097     18088     18086     18090     18091
     18088     18086     18090     18092     18088     18086     18090     18097
     18089     18088     18086     18090     18090     18097     18093     18094
     18090     18097     18093     18095     18090     18097     18093     18096
     18091     18090     18097     18093     18092     18090     18097     18093
     18093     18096     18098     18099     18093     18096     18098     18100
     18093     18096     18098     18101     18094     18093     18096     18098
     18095     18093     18096     18098     18096     18098     18101     18102
     18096     18098     18101     18103     18096     18098     18101     18109
     18097     18093     18096     18098     18098     18101     18103     18104
     18098     18101     18109     18110     18098     18101     18109     18111
     18098     18101     18109     18112     18099     18098     18101     18102
     18099     18098     18101     18103     18099     18098     18101     18109
     18100     18098     18101     18102     18100     18098     18101     18103
     18100     18098     18101     18109     18101     18103     18104     18105
     18101     18103     18104     18106     18101     18109     18112     18113
     18102     18101     18103     18104     18102     18101     18109     18110
     18102     18101     18109     18111     18102     18101     18109     18112
     18103     18101     18109     18110     18103     18101     18109     18111
     18103     18101     18109     18112     18103     18104     18106     18107
     18103     18104     18106     18108     18103     18104     18106     18118
     18104     18103     18101     18109     18104     18106     18118     18119
     18104     18106     18118     18120     18104     18106     18118     18121
     18105     18104     18106     18107     18105     18104     18106     18108
     18105     18104     18106     18118     18106     18118     18121     18122
     18106     18118     18121     18123     18106     18118     18121     18124
     18107     18106     18118     18119     18107     18106     18118     18120
     18107     18106     18118     18121     18108     18106     18118     18119
     18108     18106     18118     18120     18108     18106     18118     18121
     18109     18112     18113     18114     18109     18112     18113     18115
     18110     18109     18112     18113     18111     18109     18112     18113
     18112     18113     18115     18116     18112     18113     18115     18117
     18112     18113     18115     18162     18113     18115     18162     18163
     18113     18115     18162     18164     18113     18115     18162     18165
     18114     18113     18115     18116     18114     18113     18115     18117
     18114     18113     18115     18162     18115     18162     18165     18166
     18115     18162     18165     18167     18115     18162     18165     18168
     18116     18115     18162     18163     18116     18115     18162     18164
     18116     18115     18162     18165     18117     18115     18162     18163
     18117     18115     18162     18164     18117     18115     18162     18165
     18118     18121     18124     18125     18118     18121     18124     18126
     18118     18121     18124     18127     18119     18118     18121     18122
     18119     18118     18121     18123     18119     18118     18121     18124
     18120     18118     18121     18122     18120     18118     18121     18123
     18120     18118     18121     18124     18121     18124     18127     18128
     18121     18124     18127     18129     18121     18124     18127     18130
     18122     18121     18124     18125     18122     18121     18124     18126
     18122     18121     18124     18127     18123     18121     18124     18125
     18123     18121     18124     18126     18123     18121     18124     18127
     18124     18127     18130     18131     18124     18127     18130     18132
     18124     18127     18130     18133     18125     18124     18127     18128
     18125     18124     18127     18129     18125     18124     18127     18130
     18126     18124     18127     18128     18126     18124     18127     18129
     18126     18124     18127     18130     18127     18130     18133     18134
     18127     18130     18133     18135     18127     18130     18133     18136
     18128     18127     18130     18131     18128     18127     18130     18132
     18128     18127     18130     18133     18129     18127     18130     18131
     18129     18127     18130     18132     18129     18127     18130     18133
     18130     18133     18136     18137     18130     18133     18136     18138
     18130     18133     18136     18141     18131     18130     18133     18134
     18131     18130     18133     18135     18131     18130     18133     18136
     18132     18130     18133     18134     18132     18130     18133     18135
     18132     18130     18133     18136     18133     18136     18138     18139
     18133     18136     18138     18140     18133     18136     18138     18141
     18133     18136     18141     18138     18133     18136     18141     18142
     18133     18136     18141     18143     18134     18133     18136     18137
     18134     18133     18136     18138     18134     18133     18136     18141
     18135     18133     18136     18137     18135     18133     18136     18138
     18135     18133     18136     18141     18136     18138     18141     18142
     18136     18138     18141     18143     18136     18141     18138     18139
     18136     18141     18138     18140     18136     18141     18143     18144
     18136     18141     18143     18145     18136     18141     18143     18146
     18137     18136     18138     18139     18137     18136     18138     18140
     18137     18136     18138     18141     18137     18136     18141     18138
     18137     18136     18141     18142     18137     18136     18141     18143
     18138     18136     18141     18142     18138     18136     18141     18143
     18138     18141     18143     18144     18138     18141     18143     18145
     18138     18141     18143     18146     18139     18138     18136     18141
     18139     18138     18141     18142     18139     18138     18141     18143
     18140     18138     18136     18141     18140     18138     18141     18142
     18140     18138     18141     18143     18141     18143     18146     18147
     18141     18143     18146     18148     18141     18143     18146     18149
     18142     18141     18143     18144     18142     18141     18143     18145
     18142     18141     18143     18146     18143     18146     18149     18150
     18143     18146     18149     18151     18143     18146     18149     18152
     18144     18143     18146     18147     18144     18143     18146     18148
     18144     18143     18146     18149     18145     18143     18146     18147
     18145     18143     18146     18148     18145     18143     18146     18149
     18146     18149     18152     18153     18146     18149     18152     18154
     18146     18149     18152     18155     18147     18146     18149     18150
     18147     18146     18149     18151     18147     18146     18149     18152
     18148     18146     18149     18150     18148     18146     18149     18151
     18148     18146     18149     18152     18149     18152     18155     18156
     18149     18152     18155     18157     18149     18152     18155     18158
     18150     18149     18152     18153     18150     18149     18152     18154
     18150     18149     18152     18155     18151     18149     18152     18153
     18151     18149     18152     18154     18151     18149     18152     18155
     18152     18155     18158     18159     18152     18155     18158     18160
     18152     18155     18158     18161     18153     18152     18155     18156
     18153     18152     18155     18157     18153     18152     18155     18158
     18154     18152     18155     18156     18154     18152     18155     18157
     18154     18152     18155     18158     18156     18155     18158     18159
     18156     18155     18158     18160     18156     18155     18158     18161
     18157     18155     18158     18159     18157     18155     18158     18160
     18157     18155     18158     18161     18162     18165     18168     18169
     18162     18165     18168     18170     18162     18165     18168     18171
     18163     18162     18165     18166     18163     18162     18165     18167
     18163     18162     18165     18168     18164     18162     18165     18166
     18164     18162     18165     18167     18164     18162     18165     18168
     18165     18168     18171     18172     18165     18168     18171     18173
     18165     18168     18171     18174     18166     18165     18168     18169
     18166     18165     18168     18170     18166     18165     18168     18171
     18167     18165     18168     18169     18167     18165     18168     18170
     18167     18165     18168     18171     18168     18171     18174     18175
     18168     18171     18174     18176     18168     18171     18174     18177
     18169     18168     18171     18172     18169     18168     18171     18173
     18169     18168     18171     18174     18170     18168     18171     18172
     18170     18168     18171     18173     18170     18168     18171     18174
     18171     18174     18177     18178     18171     18174     18177     18179
     18171     18174     18177     18180     18172     18171     18174     18175
     18172     18171     18174     18176     18172     18171     18174     18177
     18173     18171     18174     18175     18173     18171     18174     18176
     18173     18171     18174     18177     18174     18177     18180     18181
     18174     18177     18180     18182     18174     18177     18180     18183
     18175     18174     18177     18178     18175     18174     18177     18179
     18175     18174     18177     18180     18176     18174     18177     18178
     18176     18174     18177     18179     18176     18174     18177     18180
     18177     18180     18183     18184     18177     18180     18183     18185
     18177     18180     18183     18186     18178     18177     18180     18181
     18178     18177     18180     18182     18178     18177     18180     18183
     18179     18177     18180     18181     18179     18177     18180     18182
     18179     18177     18180     18183     18180     18183     18186     18187
     18180     18183     18186     18188     18180     18183     18186     18189
     18181     18180     18183     18184     18181     18180     18183     18185
     18181     18180     18183     18186     18182     18180     18183     18184
     18182     18180     18183     18185     18182     18180     18183     18186
     18183     18186     18189     18190     18183     18186     18189     18191
     18183     18186     18189     18192     18184     18183     18186     18187
     18184     18183     18186     18188     18184     18183     18186     18189
     18185     18183     18186     18187     18185     18183     18186     18188
     18185     18183     18186     18189     18186     18189     18192     18193
     18186     18189     18192     18194     18186     18189     18192     18195
     18187     18186     18189     18190     18187     18186     18189     18191
     18187     18186     18189     18192     18188     18186     18189     18190
     18188     18186     18189     18191     18188     18186     18189     18192
     18189     18192     18195     18196     18189     18192     18195     18197
     18189     18192     18195     18198     18190     18189     18192     18193
     18190     18189     18192     18194     18190     18189     18192     18195
     18191     18189     18192     18193     18191     18189     18192     18194
     18191     18189     18192     18195     18192     18195     18198     18199
     18192     18195     18198     18200     18192     18195     18198     18201
     18193     18192     18195     18196     18193     18192     18195     18197
     18193     18192     18195     18198     18194     18192     18195     18196
     18194     18192     18195     18197     18194     18192     18195     18198
     18195     18198     18201     18202     18195     18198     18201     18203
     18195     18198     18201     18204     18196     18195     18198     18199
     18196     18195     18198     18200     18196     18195     18198     18201
     18197     18195     18198     18199     18197     18195     18198     18200
     18197     18195     18198     18201     18199     18198     18201     18202
     18199     18198     18201     18203     18199     18198     18201     18204
     18200     18198     18201     18202     18200     18198     18201     18203
     18200     18198     18201     18204     18205     18209     18212     18213
     18205     18209     18212     18214     18205     18209     18212     18219
     18206     18205     18209     18210     18206     18205     18209     18211
     18206     18205     18209     18212     18207     18205     18209     18210
     18207     18205     18209     18211     18207     18205     18209     18212
     18208     18205     18209     18210     18208     18205     18209     18211
     18208     18205     18209     18212     18209     18212     18219     18215
     18210     18209     18212     18213     18210     18209     18212     18214
     18210     18209     18212     18219     18211     18209     18212     18213
     18211     18209     18212     18214     18211     18209     18212     18219
     18212     18219     18215     18216     18212     18219     18215     18217
     18212     18219     18215     18218     18213     18212     18219     18215
     18214     18212     18219     18215     18215     18218     18220     18221
     18215     18218     18220     18222     18215     18218     18220     18223
     18216     18215     18218     18220     18217     18215     18218     18220
     18218     18220     18223     18224     18218     18220     18223     18225
     18218     18220     18223     18231     18219     18215     18218     18220
     18220     18223     18225     18226     18220     18223     18231     18232
     18220     18223     18231     18233     18220     18223     18231     18234
     18221     18220     18223     18224     18221     18220     18223     18225
     18221     18220     18223     18231     18222     18220     18223     18224
     18222     18220     18223     18225     18222     18220     18223     18231
     18223     18225     18226     18227     18223     18225     18226     18228
     18223     18231     18234     18235     18224     18223     18225     18226
     18224     18223     18231     18232     18224     18223     18231     18233
     18224     18223     18231     18234     18225     18223     18231     18232
     18225     18223     18231     18233     18225     18223     18231     18234
     18225     18226     18228     18229     18225     18226     18228     18230
     18225     18226     18228     18240     18226     18225     18223     18231
     18226     18228     18240     18241     18226     18228     18240     18242
     18226     18228     18240     18243     18227     18226     18228     18229
     18227     18226     18228     18230     18227     18226     18228     18240
     18228     18240     18243     18244     18228     18240     18243     18245
     18228     18240     18243     18246     18229     18228     18240     18241
     18229     18228     18240     18242     18229     18228     18240     18243
     18230     18228     18240     18241     18230     18228     18240     18242
     18230     18228     18240     18243     18231     18234     18235     18236
     18231     18234     18235     18237     18232     18231     18234     18235
     18233     18231     18234     18235     18234     18235     18237     18238
     18234     18235     18237     18239     18234     18235     18237     18284
     18235     18237     18284     18285     18235     18237     18284     18286
     18235     18237     18284     18287     18236     18235     18237     18238
     18236     18235     18237     18239     18236     18235     18237     18284
     18237     18284     18287     18288     18237     18284     18287     18289
     18237     18284     18287     18290     18238     18237     18284     18285
     18238     18237     18284     18286     18238     18237     18284     18287
     18239     18237     18284     18285     18239     18237     18284     18286
     18239     18237     18284     18287     18240     18243     18246     18247
     18240     18243     18246     18248     18240     18243     18246     18249
     18241     18240     18243     18244     18241     18240     18243     18245
     18241     18240     18243     18246     18242     18240     18243     18244
     18242     18240     18243     18245     18242     18240     18243     18246
     18243     18246     18249     18250     18243     18246     18249     18251
     18243     18246     18249     18252     18244     18243     18246     18247
     18244     18243     18246     18248     18244     18243     18246     18249
     18245     18243     18246     18247     18245     18243     18246     18248
     18245     18243     18246     18249     18246     18249     18252     18253
     18246     18249     18252     18254     18246     18249     18252     18255
     18247     18246     18249     18250     18247     18246     18249     18251
     18247     18246     18249     18252     18248     18246     18249     18250
     18248     18246     18249     18251     18248     18246     18249     18252
     18249     18252     18255     18256     18249     18252     18255     18257
     18249     18252     18255     18258     18250     18249     18252     18253
     18250     18249     18252     18254     18250     18249     18252     18255
     18251     18249     18252     18253     18251     18249     18252     18254
     18251     18249     18252     18255     18252     18255     18258     18259
     18252     18255     18258     18260     18252     18255     18258     18263
     18253     18252     18255     18256     18253     18252     18255     18257
     18253     18252     18255     18258     18254     18252     18255     18256
     18254     18252     18255     18257     18254     18252     18255     18258
     18255     18258     18260     18261     18255     18258     18260     18262
     18255     18258     18260     18263     18255     18258     18263     18260
     18255     18258     18263     18264     18255     18258     18263     18265
     18256     18255     18258     18259     18256     18255     18258     18260
     18256     18255     18258     18263     18257     18255     18258     18259
     18257     18255     18258     18260     18257     18255     18258     18263
     18258     18260     18263     18264     18258     18260     18263     18265
     18258     18263     18260     18261     18258     18263     18260     18262
     18258     18263     18265     18266     18258     18263     18265     18267
     18258     18263     18265     18268     18259     18258     18260     18261
     18259     18258     18260     18262     18259     18258     18260     18263
     18259     18258     18263     18260     18259     18258     18263     18264
     18259     18258     18263     18265     18260     18258     18263     18264
     18260     18258     18263     18265     18260     18263     18265     18266
     18260     18263     18265     18267     18260     18263     18265     18268
     18261     18260     18258     18263     18261     18260     18263     18264
     18261     18260     18263     18265     18262     18260     18258     18263
     18262     18260     18263     18264     18262     18260     18263     18265
     18263     18265     18268     18269     18263     18265     18268     18270
     18263     18265     18268     18271     18264     18263     18265     18266
     18264     18263     18265     18267     18264     18263     18265     18268
     18265     18268     18271     18272     18265     18268     18271     18273
     18265     18268     18271     18274     18266     18265     18268     18269
     18266     18265     18268     18270     18266     18265     18268     18271
     18267     18265     18268     18269     18267     18265     18268     18270
     18267     18265     18268     18271     18268     18271     18274     18275
     18268     18271     18274     18276     18268     18271     18274     18277
     18269     18268     18271     18272     18269     18268     18271     18273
     18269     18268     18271     18274     18270     18268     18271     18272
     18270     18268     18271     18273     18270     18268     18271     18274
     18271     18274     18277     18278     18271     18274     18277     18279
     18271     18274     18277     18280     18272     18271     18274     18275
     18272     18271     18274     18276     18272     18271     18274     18277
     18273     18271     18274     18275     18273     18271     18274     18276
     18273     18271     18274     18277     18274     18277     18280     18281
     18274     18277     18280     18282     18274     18277     18280     18283
     18275     18274     18277     18278     18275     18274     18277     18279
     18275     18274     18277     18280     18276     18274     18277     18278
     18276     18274     18277     18279     18276     18274     18277     18280
     18278     18277     18280     18281     18278     18277     18280     18282
     18278     18277     18280     18283     18279     18277     18280     18281
     18279     18277     18280     18282     18279     18277     18280     18283
     18284     18287     18290     18291     18284     18287     18290     18292
     18284     18287     18290     18293     18285     18284     18287     18288
     18285     18284     18287     18289     18285     18284     18287     18290
     18286     18284     18287     18288     18286     18284     18287     18289
     18286     18284     18287     18290     18287     18290     18293     18294
     18287     18290     18293     18295     18287     18290     18293     18296
     18288     18287     18290     18291     18288     18287     18290     18292
     18288     18287     18290     18293     18289     18287     18290     18291
     18289     18287     18290     18292     18289     18287     18290     18293
     18290     18293     18296     18297     18290     18293     18296     18298
     18290     18293     18296     18299     18291     18290     18293     18294
     18291     18290     18293     18295     18291     18290     18293     18296
     18292     18290     18293     18294     18292     18290     18293     18295
     18292     18290     18293     18296     18293     18296     18299     18300
     18293     18296     18299     18301     18293     18296     18299     18302
     18294     18293     18296     18297     18294     18293     18296     18298
     18294     18293     18296     18299     18295     18293     18296     18297
     18295     18293     18296     18298     18295     18293     18296     18299
     18296     18299     18302     18303     18296     18299     18302     18304
     18296     18299     18302     18305     18297     18296     18299     18300
     18297     18296     18299     18301     18297     18296     18299     18302
     18298     18296     18299     18300     18298     18296     18299     18301
     18298     18296     18299     18302     18299     18302     18305     18306
     18299     18302     18305     18307     18299     18302     18305     18308
     18300     18299     18302     18303     18300     18299     18302     18304
     18300     18299     18302     18305     18301     18299     18302     18303
     18301     18299     18302     18304     18301     18299     18302     18305
     18302     18305     18308     18309     18302     18305     18308     18310
     18302     18305     18308     18311     18303     18302     18305     18306
     18303     18302     18305     18307     18303     18302     18305     18308
     18304     18302     18305     18306     18304     18302     18305     18307
     18304     18302     18305     18308     18305     18308     18311     18312
     18305     18308     18311     18313     18305     18308     18311     18314
     18306     18305     18308     18309     18306     18305     18308     18310
     18306     18305     18308     18311     18307     18305     18308     18309
     18307     18305     18308     18310     18307     18305     18308     18311
     18308     18311     18314     18315     18308     18311     18314     18316
     18308     18311     18314     18317     18309     18308     18311     18312
     18309     18308     18311     18313     18309     18308     18311     18314
     18310     18308     18311     18312     18310     18308     18311     18313
     18310     18308     18311     18314     18311     18314     18317     18318
     18311     18314     18317     18319     18311     18314     18317     18320
     18312     18311     18314     18315     18312     18311     18314     18316
     18312     18311     18314     18317     18313     18311     18314     18315
     18313     18311     18314     18316     18313     18311     18314     18317
     18314     18317     18320     18321     18314     18317     18320     18322
     18314     18317     18320     18323     18315     18314     18317     18318
     18315     18314     18317     18319     18315     18314     18317     18320
     18316     18314     18317     18318     18316     18314     18317     18319
     18316     18314     18317     18320     18317     18320     18323     18324
     18317     18320     18323     18325     18317     18320     18323     18326
     18318     18317     18320     18321     18318     18317     18320     18322
     18318     18317     18320     18323     18319     18317     18320     18321
     18319     18317     18320     18322     18319     18317     18320     18323
     18321     18320     18323     18324     18321     18320     18323     18325
     18321     18320     18323     18326     18322     18320     18323     18324
     18322     18320     18323     18325     18322     18320     18323     18326
     18327     18331     18334     18335     18327     18331     18334     18336
     18327     18331     18334     18341     18328     18327     18331     18332
     18328     18327     18331     18333     18328     18327     18331     18334
     18329     18327     18331     18332     18329     18327     18331     18333
     18329     18327     18331     18334     18330     18327     18331     18332
     18330     18327     18331     18333     18330     18327     18331     18334
     18331     18334     18341     18337     18332     18331     18334     18335
     18332     18331     18334     18336     18332     18331     18334     18341
     18333     18331     18334     18335     18333     18331     18334     18336
     18333     18331     18334     18341     18334     18341     18337     18338
     18334     18341     18337     18339     18334     18341     18337     18340
     18335     18334     18341     18337     18336     18334     18341     18337
     18337     18340     18342     18343     18337     18340     18342     18344
     18337     18340     18342     18345     18338     18337     18340     18342
     18339     18337     18340     18342     18340     18342     18345     18346
     18340     18342     18345     18347     18340     18342     18345     18353
     18341     18337     18340     18342     18342     18345     18347     18348
     18342     18345     18353     18354     18342     18345     18353     18355
     18342     18345     18353     18356     18343     18342     18345     18346
     18343     18342     18345     18347     18343     18342     18345     18353
     18344     18342     18345     18346     18344     18342     18345     18347
     18344     18342     18345     18353     18345     18347     18348     18349
     18345     18347     18348     18350     18345     18353     18356     18357
     18346     18345     18347     18348     18346     18345     18353     18354
     18346     18345     18353     18355     18346     18345     18353     18356
     18347     18345     18353     18354     18347     18345     18353     18355
     18347     18345     18353     18356     18347     18348     18350     18351
     18347     18348     18350     18352     18347     18348     18350     18362
     18348     18347     18345     18353     18348     18350     18362     18363
     18348     18350     18362     18364     18348     18350     18362     18365
     18349     18348     18350     18351     18349     18348     18350     18352
     18349     18348     18350     18362     18350     18362     18365     18366
     18350     18362     18365     18367     18350     18362     18365     18368
     18351     18350     18362     18363     18351     18350     18362     18364
     18351     18350     18362     18365     18352     18350     18362     18363
     18352     18350     18362     18364     18352     18350     18362     18365
     18353     18356     18357     18358     18353     18356     18357     18359
     18354     18353     18356     18357     18355     18353     18356     18357
     18356     18357     18359     18360     18356     18357     18359     18361
     18356     18357     18359     18406     18357     18359     18406     18407
     18357     18359     18406     18408     18357     18359     18406     18409
     18358     18357     18359     18360     18358     18357     18359     18361
     18358     18357     18359     18406     18359     18406     18409     18410
     18359     18406     18409     18411     18359     18406     18409     18412
     18360     18359     18406     18407     18360     18359     18406     18408
     18360     18359     18406     18409     18361     18359     18406     18407
     18361     18359     18406     18408     18361     18359     18406     18409
     18362     18365     18368     18369     18362     18365     18368     18370
     18362     18365     18368     18371     18363     18362     18365     18366
     18363     18362     18365     18367     18363     18362     18365     18368
     18364     18362     18365     18366     18364     18362     18365     18367
     18364     18362     18365     18368     18365     18368     18371     18372
     18365     18368     18371     18373     18365     18368     18371     18374
     18366     18365     18368     18369     18366     18365     18368     18370
     18366     18365     18368     18371     18367     18365     18368     18369
     18367     18365     18368     18370     18367     18365     18368     18371
     18368     18371     18374     18375     18368     18371     18374     18376
     18368     18371     18374     18377     18369     18368     18371     18372
     18369     18368     18371     18373     18369     18368     18371     18374
     18370     18368     18371     18372     18370     18368     18371     18373
     18370     18368     18371     18374     18371     18374     18377     18378
     18371     18374     18377     18379     18371     18374     18377     18380
     18372     18371     18374     18375     18372     18371     18374     18376
     18372     18371     18374     18377     18373     18371     18374     18375
     18373     18371     18374     18376     18373     18371     18374     18377
     18374     18377     18380     18381     18374     18377     18380     18382
     18374     18377     18380     18385     18375     18374     18377     18378
     18375     18374     18377     18379     18375     18374     18377     18380
     18376     18374     18377     18378     18376     18374     18377     18379
     18376     18374     18377     18380     18377     18380     18382     18383
     18377     18380     18382     18384     18377     18380     18382     18385
     18377     18380     18385     18382     18377     18380     18385     18386
     18377     18380     18385     18387     18378     18377     18380     18381
     18378     18377     18380     18382     18378     18377     18380     18385
     18379     18377     18380     18381     18379     18377     18380     18382
     18379     18377     18380     18385     18380     18382     18385     18386
     18380     18382     18385     18387     18380     18385     18382     18383
     18380     18385     18382     18384     18380     18385     18387     18388
     18380     18385     18387     18389     18380     18385     18387     18390
     18381     18380     18382     18383     18381     18380     18382     18384
     18381     18380     18382     18385     18381     18380     18385     18382
     18381     18380     18385     18386     18381     18380     18385     18387
     18382     18380     18385     18386     18382     18380     18385     18387
     18382     18385     18387     18388     18382     18385     18387     18389
     18382     18385     18387     18390     18383     18382     18380     18385
     18383     18382     18385     18386     18383     18382     18385     18387
     18384     18382     18380     18385     18384     18382     18385     18386
     18384     18382     18385     18387     18385     18387     18390     18391
     18385     18387     18390     18392     18385     18387     18390     18393
     18386     18385     18387     18388     18386     18385     18387     18389
     18386     18385     18387     18390     18387     18390     18393     18394
     18387     18390     18393     18395     18387     18390     18393     18396
     18388     18387     18390     18391     18388     18387     18390     18392
     18388     18387     18390     18393     18389     18387     18390     18391
     18389     18387     18390     18392     18389     18387     18390     18393
     18390     18393     18396     18397     18390     18393     18396     18398
     18390     18393     18396     18399     18391     18390     18393     18394
     18391     18390     18393     18395     18391     18390     18393     18396
     18392     18390     18393     18394     18392     18390     18393     18395
     18392     18390     18393     18396     18393     18396     18399     18400
     18393     18396     18399     18401     18393     18396     18399     18402
     18394     18393     18396     18397     18394     18393     18396     18398
     18394     18393     18396     18399     18395     18393     18396     18397
     18395     18393     18396     18398     18395     18393     18396     18399
     18396     18399     18402     18403     18396     18399     18402     18404
     18396     18399     18402     18405     18397     18396     18399     18400
     18397     18396     18399     18401     18397     18396     18399     18402
     18398     18396     18399     18400     18398     18396     18399     18401
     18398     18396     18399     18402     18400     18399     18402     18403
     18400     18399     18402     18404     18400     18399     18402     18405
     18401     18399     18402     18403     18401     18399     18402     18404
     18401     18399     18402     18405     18406     18409     18412     18413
     18406     18409     18412     18414     18406     18409     18412     18415
     18407     18406     18409     18410     18407     18406     18409     18411
     18407     18406     18409     18412     18408     18406     18409     18410
     18408     18406     18409     18411     18408     18406     18409     18412
     18409     18412     18415     18416     18409     18412     18415     18417
     18409     18412     18415     18418     18410     18409     18412     18413
     18410     18409     18412     18414     18410     18409     18412     18415
     18411     18409     18412     18413     18411     18409     18412     18414
     18411     18409     18412     18415     18412     18415     18418     18419
     18412     18415     18418     18420     18412     18415     18418     18421
     18413     18412     18415     18416     18413     18412     18415     18417
     18413     18412     18415     18418     18414     18412     18415     18416
     18414     18412     18415     18417     18414     18412     18415     18418
     18415     18418     18421     18422     18415     18418     18421     18423
     18415     18418     18421     18424     18416     18415     18418     18419
     18416     18415     18418     18420     18416     18415     18418     18421
     18417     18415     18418     18419     18417     18415     18418     18420
     18417     18415     18418     18421     18418     18421     18424     18425
     18418     18421     18424     18426     18418     18421     18424     18427
     18419     18418     18421     18422     18419     18418     18421     18423
     18419     18418     18421     18424     18420     18418     18421     18422
     18420     18418     18421     18423     18420     18418     18421     18424
     18421     18424     18427     18428     18421     18424     18427     18429
     18421     18424     18427     18430     18422     18421     18424     18425
     18422     18421     18424     18426     18422     18421     18424     18427
     18423     18421     18424     18425     18423     18421     18424     18426
     18423     18421     18424     18427     18424     18427     18430     18431
     18424     18427     18430     18432     18424     18427     18430     18433
     18425     18424     18427     18428     18425     18424     18427     18429
     18425     18424     18427     18430     18426     18424     18427     18428
     18426     18424     18427     18429     18426     18424     18427     18430
     18427     18430     18433     18434     18427     18430     18433     18435
     18427     18430     18433     18436     18428     18427     18430     18431
     18428     18427     18430     18432     18428     18427     18430     18433
     18429     18427     18430     18431     18429     18427     18430     18432
     18429     18427     18430     18433     18430     18433     18436     18437
     18430     18433     18436     18438     18430     18433     18436     18439
     18431     18430     18433     18434     18431     18430     18433     18435
     18431     18430     18433     18436     18432     18430     18433     18434
     18432     18430     18433     18435     18432     18430     18433     18436
     18433     18436     18439     18440     18433     18436     18439     18441
     18433     18436     18439     18442     18434     18433     18436     18437
     18434     18433     18436     18438     18434     18433     18436     18439
     18435     18433     18436     18437     18435     18433     18436     18438
     18435     18433     18436     18439     18436     18439     18442     18443
     18436     18439     18442     18444     18436     18439     18442     18445
     18437     18436     18439     18440     18437     18436     18439     18441
     18437     18436     18439     18442     18438     18436     18439     18440
     18438     18436     18439     18441     18438     18436     18439     18442
     18439     18442     18445     18446     18439     18442     18445     18447
     18439     18442     18445     18448     18440     18439     18442     18443
     18440     18439     18442     18444     18440     18439     18442     18445
     18441     18439     18442     18443     18441     18439     18442     18444
     18441     18439     18442     18445     18443     18442     18445     18446
     18443     18442     18445     18447     18443     18442     18445     18448
     18444     18442     18445     18446     18444     18442     18445     18447
     18444     18442     18445     18448     18449     18453     18456     18457
     18449     18453     18456     18458     18449     18453     18456     18463
     18450     18449     18453     18454     18450     18449     18453     18455
     18450     18449     18453     18456     18451     18449     18453     18454
     18451     18449     18453     18455     18451     18449     18453     18456
     18452     18449     18453     18454     18452     18449     18453     18455
     18452     18449     18453     18456     18453     18456     18463     18459
     18454     18453     18456     18457     18454     18453     18456     18458
     18454     18453     18456     18463     18455     18453     18456     18457
     18455     18453     18456     18458     18455     18453     18456     18463
     18456     18463     18459     18460     18456     18463     18459     18461
     18456     18463     18459     18462     18457     18456     18463     18459
     18458     18456     18463     18459     18459     18462     18464     18465
     18459     18462     18464     18466     18459     18462     18464     18467
     18460     18459     18462     18464     18461     18459     18462     18464
     18462     18464     18467     18468     18462     18464     18467     18469
     18462     18464     18467     18475     18463     18459     18462     18464
     18464     18467     18469     18470     18464     18467     18475     18476
     18464     18467     18475     18477     18464     18467     18475     18478
     18465     18464     18467     18468     18465     18464     18467     18469
     18465     18464     18467     18475     18466     18464     18467     18468
     18466     18464     18467     18469     18466     18464     18467     18475
     18467     18469     18470     18471     18467     18469     18470     18472
     18467     18475     18478     18479     18468     18467     18469     18470
     18468     18467     18475     18476     18468     18467     18475     18477
     18468     18467     18475     18478     18469     18467     18475     18476
     18469     18467     18475     18477     18469     18467     18475     18478
     18469     18470     18472     18473     18469     18470     18472     18474
     18469     18470     18472     18484     18470     18469     18467     18475
     18470     18472     18484     18485     18470     18472     18484     18486
     18470     18472     18484     18487     18471     18470     18472     18473
     18471     18470     18472     18474     18471     18470     18472     18484
     18472     18484     18487     18488     18472     18484     18487     18489
     18472     18484     18487     18490     18473     18472     18484     18485
     18473     18472     18484     18486     18473     18472     18484     18487
     18474     18472     18484     18485     18474     18472     18484     18486
     18474     18472     18484     18487     18475     18478     18479     18480
     18475     18478     18479     18481     18476     18475     18478     18479
     18477     18475     18478     18479     18478     18479     18481     18482
     18478     18479     18481     18483     18478     18479     18481     18528
     18479     18481     18528     18529     18479     18481     18528     18530
     18479     18481     18528     18531     18480     18479     18481     18482
     18480     18479     18481     18483     18480     18479     18481     18528
     18481     18528     18531     18532     18481     18528     18531     18533
     18481     18528     18531     18534     18482     18481     18528     18529
     18482     18481     18528     18530     18482     18481     18528     18531
     18483     18481     18528     18529     18483     18481     18528     18530
     18483     18481     18528     18531     18484     18487     18490     18491
     18484     18487     18490     18492     18484     18487     18490     18493
     18485     18484     18487     18488     18485     18484     18487     18489
     18485     18484     18487     18490     18486     18484     18487     18488
     18486     18484     18487     18489     18486     18484     18487     18490
     18487     18490     18493     18494     18487     18490     18493     18495
     18487     18490     18493     18496     18488     18487     18490     18491
     18488     18487     18490     18492     18488     18487     18490     18493
     18489     18487     18490     18491     18489     18487     18490     18492
     18489     18487     18490     18493     18490     18493     18496     18497
     18490     18493     18496     18498     18490     18493     18496     18499
     18491     18490     18493     18494     18491     18490     18493     18495
     18491     18490     18493     18496     18492     18490     18493     18494
     18492     18490     18493     18495     18492     18490     18493     18496
     18493     18496     18499     18500     18493     18496     18499     18501
     18493     18496     18499     18502     18494     18493     18496     18497
     18494     18493     18496     18498     18494     18493     18496     18499
     18495     18493     18496     18497     18495     18493     18496     18498
     18495     18493     18496     18499     18496     18499     18502     18503
     18496     18499     18502     18504     18496     18499     18502     18507
     18497     18496     18499     18500     18497     18496     18499     18501
     18497     18496     18499     18502     18498     18496     18499     18500
     18498     18496     18499     18501     18498     18496     18499     18502
     18499     18502     18504     18505     18499     18502     18504     18506
     18499     18502     18504     18507     18499     18502     18507     18504
     18499     18502     18507     18508     18499     18502     18507     18509
     18500     18499     18502     18503     18500     18499     18502     18504
     18500     18499     18502     18507     18501     18499     18502     18503
     18501     18499     18502     18504     18501     18499     18502     18507
     18502     18504     18507     18508     18502     18504     18507     18509
     18502     18507     18504     18505     18502     18507     18504     18506
     18502     18507     18509     18510     18502     18507     18509     18511
     18502     18507     18509     18512     18503     18502     18504     18505
     18503     18502     18504     18506     18503     18502     18504     18507
     18503     18502     18507     18504     18503     18502     18507     18508
     18503     18502     18507     18509     18504     18502     18507     18508
     18504     18502     18507     18509     18504     18507     18509     18510
     18504     18507     18509     18511     18504     18507     18509     18512
     18505     18504     18502     18507     18505     18504     18507     18508
     18505     18504     18507     18509     18506     18504     18502     18507
     18506     18504     18507     18508     18506     18504     18507     18509
     18507     18509     18512     18513     18507     18509     18512     18514
     18507     18509     18512     18515     18508     18507     18509     18510
     18508     18507     18509     18511     18508     18507     18509     18512
     18509     18512     18515     18516     18509     18512     18515     18517
     18509     18512     18515     18518     18510     18509     18512     18513
     18510     18509     18512     18514     18510     18509     18512     18515
     18511     18509     18512     18513     18511     18509     18512     18514
     18511     18509     18512     18515     18512     18515     18518     18519
     18512     18515     18518     18520     18512     18515     18518     18521
     18513     18512     18515     18516     18513     18512     18515     18517
     18513     18512     18515     18518     18514     18512     18515     18516
     18514     18512     18515     18517     18514     18512     18515     18518
     18515     18518     18521     18522     18515     18518     18521     18523
     18515     18518     18521     18524     18516     18515     18518     18519
     18516     18515     18518     18520     18516     18515     18518     18521
     18517     18515     18518     18519     18517     18515     18518     18520
     18517     18515     18518     18521     18518     18521     18524     18525
     18518     18521     18524     18526     18518     18521     18524     18527
     18519     18518     18521     18522     18519     18518     18521     18523
     18519     18518     18521     18524     18520     18518     18521     18522
     18520     18518     18521     18523     18520     18518     18521     18524
     18522     18521     18524     18525     18522     18521     18524     18526
     18522     18521     18524     18527     18523     18521     18524     18525
     18523     18521     18524     18526     18523     18521     18524     18527
     18528     18531     18534     18535     18528     18531     18534     18536
     18528     18531     18534     18537     18529     18528     18531     18532
     18529     18528     18531     18533     18529     18528     18531     18534
     18530     18528     18531     18532     18530     18528     18531     18533
     18530     18528     18531     18534     18531     18534     18537     18538
     18531     18534     18537     18539     18531     18534     18537     18540
     18532     18531     18534     18535     18532     18531     18534     18536
     18532     18531     18534     18537     18533     18531     18534     18535
     18533     18531     18534     18536     18533     18531     18534     18537
     18534     18537     18540     18541     18534     18537     18540     18542
     18534     18537     18540     18543     18535     18534     18537     18538
     18535     18534     18537     18539     18535     18534     18537     18540
     18536     18534     18537     18538     18536     18534     18537     18539
     18536     18534     18537     18540     18537     18540     18543     18544
     18537     18540     18543     18545     18537     18540     18543     18546
     18538     18537     18540     18541     18538     18537     18540     18542
     18538     18537     18540     18543     18539     18537     18540     18541
     18539     18537     18540     18542     18539     18537     18540     18543
     18540     18543     18546     18547     18540     18543     18546     18548
     18540     18543     18546     18549     18541     18540     18543     18544
     18541     18540     18543     18545     18541     18540     18543     18546
     18542     18540     18543     18544     18542     18540     18543     18545
     18542     18540     18543     18546     18543     18546     18549     18550
     18543     18546     18549     18551     18543     18546     18549     18552
     18544     18543     18546     18547     18544     18543     18546     18548
     18544     18543     18546     18549     18545     18543     18546     18547
     18545     18543     18546     18548     18545     18543     18546     18549
     18546     18549     18552     18553     18546     18549     18552     18554
     18546     18549     18552     18555     18547     18546     18549     18550
     18547     18546     18549     18551     18547     18546     18549     18552
     18548     18546     18549     18550     18548     18546     18549     18551
     18548     18546     18549     18552     18549     18552     18555     18556
     18549     18552     18555     18557     18549     18552     18555     18558
     18550     18549     18552     18553     18550     18549     18552     18554
     18550     18549     18552     18555     18551     18549     18552     18553
     18551     18549     18552     18554     18551     18549     18552     18555
     18552     18555     18558     18559     18552     18555     18558     18560
     18552     18555     18558     18561     18553     18552     18555     18556
     18553     18552     18555     18557     18553     18552     18555     18558
     18554     18552     18555     18556     18554     18552     18555     18557
     18554     18552     18555     18558     18555     18558     18561     18562
     18555     18558     18561     18563     18555     18558     18561     18564
     18556     18555     18558     18559     18556     18555     18558     18560
     18556     18555     18558     18561     18557     18555     18558     18559
     18557     18555     18558     18560     18557     18555     18558     18561
     18558     18561     18564     18565     18558     18561     18564     18566
     18558     18561     18564     18567     18559     18558     18561     18562
     18559     18558     18561     18563     18559     18558     18561     18564
     18560     18558     18561     18562     18560     18558     18561     18563
     18560     18558     18561     18564     18561     18564     18567     18568
     18561     18564     18567     18569     18561     18564     18567     18570
     18562     18561     18564     18565     18562     18561     18564     18566
     18562     18561     18564     18567     18563     18561     18564     18565
     18563     18561     18564     18566     18563     18561     18564     18567
     18565     18564     18567     18568     18565     18564     18567     18569
     18565     18564     18567     18570     18566     18564     18567     18568
     18566     18564     18567     18569     18566     18564     18567     18570
     18571     18575     18578     18579     18571     18575     18578     18580
     18571     18575     18578     18585     18572     18571     18575     18576
     18572     18571     18575     18577     18572     18571     18575     18578
     18573     18571     18575     18576     18573     18571     18575     18577
     18573     18571     18575     18578     18574     18571     18575     18576
     18574     18571     18575     18577     18574     18571     18575     18578
     18575     18578     18585     18581     18576     18575     18578     18579
     18576     18575     18578     18580     18576     18575     18578     18585
     18577     18575     18578     18579     18577     18575     18578     18580
     18577     18575     18578     18585     18578     18585     18581     18582
     18578     18585     18581     18583     18578     18585     18581     18584
     18579     18578     18585     18581     18580     18578     18585     18581
     18581     18584     18586     18587     18581     18584     18586     18588
     18581     18584     18586     18589     18582     18581     18584     18586
     18583     18581     18584     18586     18584     18586     18589     18590
     18584     18586     18589     18591     18584     18586     18589     18597
     18585     18581     18584     18586     18586     18589     18591     18592
     18586     18589     18597     18598     18586     18589     18597     18599
     18586     18589     18597     18600     18587     18586     18589     18590
     18587     18586     18589     18591     18587     18586     18589     18597
     18588     18586     18589     18590     18588     18586     18589     18591
     18588     18586     18589     18597     18589     18591     18592     18593
     18589     18591     18592     18594     18589     18597     18600     18601
     18590     18589     18591     18592     18590     18589     18597     18598
     18590     18589     18597     18599     18590     18589     18597     18600
     18591     18589     18597     18598     18591     18589     18597     18599
     18591     18589     18597     18600     18591     18592     18594     18595
     18591     18592     18594     18596     18591     18592     18594     18606
     18592     18591     18589     18597     18592     18594     18606     18607
     18592     18594     18606     18608     18592     18594     18606     18609
     18593     18592     18594     18595     18593     18592     18594     18596
     18593     18592     18594     18606     18594     18606     18609     18610
     18594     18606     18609     18611     18594     18606     18609     18612
     18595     18594     18606     18607     18595     18594     18606     18608
     18595     18594     18606     18609     18596     18594     18606     18607
     18596     18594     18606     18608     18596     18594     18606     18609
     18597     18600     18601     18602     18597     18600     18601     18603
     18598     18597     18600     18601     18599     18597     18600     18601
     18600     18601     18603     18604     18600     18601     18603     18605
     18600     18601     18603     18650     18601     18603     18650     18651
     18601     18603     18650     18652     18601     18603     18650     18653
     18602     18601     18603     18604     18602     18601     18603     18605
     18602     18601     18603     18650     18603     18650     18653     18654
     18603     18650     18653     18655     18603     18650     18653     18656
     18604     18603     18650     18651     18604     18603     18650     18652
     18604     18603     18650     18653     18605     18603     18650     18651
     18605     18603     18650     18652     18605     18603     18650     18653
     18606     18609     18612     18613     18606     18609     18612     18614
     18606     18609     18612     18615     18607     18606     18609     18610
     18607     18606     18609     18611     18607     18606     18609     18612
     18608     18606     18609     18610     18608     18606     18609     18611
     18608     18606     18609     18612     18609     18612     18615     18616
     18609     18612     18615     18617     18609     18612     18615     18618
     18610     18609     18612     18613     18610     18609     18612     18614
     18610     18609     18612     18615     18611     18609     18612     18613
     18611     18609     18612     18614     18611     18609     18612     18615
     18612     18615     18618     18619     18612     18615     18618     18620
     18612     18615     18618     18621     18613     18612     18615     18616
     18613     18612     18615     18617     18613     18612     18615     18618
     18614     18612     18615     18616     18614     18612     18615     18617
     18614     18612     18615     18618     18615     18618     18621     18622
     18615     18618     18621     18623     18615     18618     18621     18624
     18616     18615     18618     18619     18616     18615     18618     18620
     18616     18615     18618     18621     18617     18615     18618     18619
     18617     18615     18618     18620     18617     18615     18618     18621
     18618     18621     18624     18625     18618     18621     18624     18626
     18618     18621     18624     18629     18619     18618     18621     18622
     18619     18618     18621     18623     18619     18618     18621     18624
     18620     18618     18621     18622     18620     18618     18621     18623
     18620     18618     18621     18624     18621     18624     18626     18627
     18621     18624     18626     18628     18621     18624     18626     18629
     18621     18624     18629     18626     18621     18624     18629     18630
     18621     18624     18629     18631     18622     18621     18624     18625
     18622     18621     18624     18626     18622     18621     18624     18629
     18623     18621     18624     18625     18623     18621     18624     18626
     18623     18621     18624     18629     18624     18626     18629     18630
     18624     18626     18629     18631     18624     18629     18626     18627
     18624     18629     18626     18628     18624     18629     18631     18632
     18624     18629     18631     18633     18624     18629     18631     18634
     18625     18624     18626     18627     18625     18624     18626     18628
     18625     18624     18626     18629     18625     18624     18629     18626
     18625     18624     18629     18630     18625     18624     18629     18631
     18626     18624     18629     18630     18626     18624     18629     18631
     18626     18629     18631     18632     18626     18629     18631     18633
     18626     18629     18631     18634     18627     18626     18624     18629
     18627     18626     18629     18630     18627     18626     18629     18631
     18628     18626     18624     18629     18628     18626     18629     18630
     18628     18626     18629     18631     18629     18631     18634     18635
     18629     18631     18634     18636     18629     18631     18634     18637
     18630     18629     18631     18632     18630     18629     18631     18633
     18630     18629     18631     18634     18631     18634     18637     18638
     18631     18634     18637     18639     18631     18634     18637     18640
     18632     18631     18634     18635     18632     18631     18634     18636
     18632     18631     18634     18637     18633     18631     18634     18635
     18633     18631     18634     18636     18633     18631     18634     18637
     18634     18637     18640     18641     18634     18637     18640     18642
     18634     18637     18640     18643     18635     18634     18637     18638
     18635     18634     18637     18639     18635     18634     18637     18640
     18636     18634     18637     18638     18636     18634     18637     18639
     18636     18634     18637     18640     18637     18640     18643     18644
     18637     18640     18643     18645     18637     18640     18643     18646
     18638     18637     18640     18641     18638     18637     18640     18642
     18638     18637     18640     18643     18639     18637     18640     18641
     18639     18637     18640     18642     18639     18637     18640     18643
     18640     18643     18646     18647     18640     18643     18646     18648
     18640     18643     18646     18649     18641     18640     18643     18644
     18641     18640     18643     18645     18641     18640     18643     18646
     18642     18640     18643     18644     18642     18640     18643     18645
     18642     18640     18643     18646     18644     18643     18646     18647
     18644     18643     18646     18648     18644     18643     18646     18649
     18645     18643     18646     18647     18645     18643     18646     18648
     18645     18643     18646     18649     18650     18653     18656     18657
     18650     18653     18656     18658     18650     18653     18656     18659
     18651     18650     18653     18654     18651     18650     18653     18655
     18651     18650     18653     18656     18652     18650     18653     18654
     18652     18650     18653     18655     18652     18650     18653     18656
     18653     18656     18659     18660     18653     18656     18659     18661
     18653     18656     18659     18662     18654     18653     18656     18657
     18654     18653     18656     18658     18654     18653     18656     18659
     18655     18653     18656     18657     18655     18653     18656     18658
     18655     18653     18656     18659     18656     18659     18662     18663
     18656     18659     18662     18664     18656     18659     18662     18665
     18657     18656     18659     18660     18657     18656     18659     18661
     18657     18656     18659     18662     18658     18656     18659     18660
     18658     18656     18659     18661     18658     18656     18659     18662
     18659     18662     18665     18666     18659     18662     18665     18667
     18659     18662     18665     18668     18660     18659     18662     18663
     18660     18659     18662     18664     18660     18659     18662     18665
     18661     18659     18662     18663     18661     18659     18662     18664
     18661     18659     18662     18665     18662     18665     18668     18669
     18662     18665     18668     18670     18662     18665     18668     18671
     18663     18662     18665     18666     18663     18662     18665     18667
     18663     18662     18665     18668     18664     18662     18665     18666
     18664     18662     18665     18667     18664     18662     18665     18668
     18665     18668     18671     18672     18665     18668     18671     18673
     18665     18668     18671     18674     18666     18665     18668     18669
     18666     18665     18668     18670     18666     18665     18668     18671
     18667     18665     18668     18669     18667     18665     18668     18670
     18667     18665     18668     18671     18668     18671     18674     18675
     18668     18671     18674     18676     18668     18671     18674     18677
     18669     18668     18671     18672     18669     18668     18671     18673
     18669     18668     18671     18674     18670     18668     18671     18672
     18670     18668     18671     18673     18670     18668     18671     18674
     18671     18674     18677     18678     18671     18674     18677     18679
     18671     18674     18677     18680     18672     18671     18674     18675
     18672     18671     18674     18676     18672     18671     18674     18677
     18673     18671     18674     18675     18673     18671     18674     18676
     18673     18671     18674     18677     18674     18677     18680     18681
     18674     18677     18680     18682     18674     18677     18680     18683
     18675     18674     18677     18678     18675     18674     18677     18679
     18675     18674     18677     18680     18676     18674     18677     18678
     18676     18674     18677     18679     18676     18674     18677     18680
     18677     18680     18683     18684     18677     18680     18683     18685
     18677     18680     18683     18686     18678     18677     18680     18681
     18678     18677     18680     18682     18678     18677     18680     18683
     18679     18677     18680     18681     18679     18677     18680     18682
     18679     18677     18680     18683     18680     18683     18686     18687
     18680     18683     18686     18688     18680     18683     18686     18689
     18681     18680     18683     18684     18681     18680     18683     18685
     18681     18680     18683     18686     18682     18680     18683     18684
     18682     18680     18683     18685     18682     18680     18683     18686
     18683     18686     18689     18690     18683     18686     18689     18691
     18683     18686     18689     18692     18684     18683     18686     18687
     18684     18683     18686     18688     18684     18683     18686     18689
     18685     18683     18686     18687     18685     18683     18686     18688
     18685     18683     18686     18689     18687     18686     18689     18690
     18687     18686     18689     18691     18687     18686     18689     18692
     18688     18686     18689     18690     18688     18686     18689     18691
     18688     18686     18689     18692     18693     18698     18700     18701
     18693     18698     18702     18703     18693     18698     18702     18704
     18693     18698     18702     18709     18694     18693     18696     18697
     18694     18693     18698     18699     18694     18693     18698     18700
     18694     18693     18698     18702     18695     18693     18696     18697
     18695     18693     18698     18699     18695     18693     18698     18700
     18695     18693     18698     18702     18696     18693     18698     18699
     18696     18693     18698     18700     18696     18693     18698     18702
     18697     18696     18693     18698     18698     18702     18709     18705
     18699     18698     18700     18701     18699     18698     18702     18703
     18699     18698     18702     18704     18699     18698     18702     18709
     18700     18698     18702     18703     18700     18698     18702     18704
     18700     18698     18702     18709     18701     18700     18698     18702
     18702     18709     18705     18706     18702     18709     18705     18707
     18702     18709     18705     18708     18703     18702     18709     18705
     18704     18702     18709     18705     18705     18708     18710     18711
     18705     18708     18710     18712     18705     18708     18710     18713
     18706     18705     18708     18710     18707     18705     18708     18710
     18708     18710     18713     18714     18708     18710     18713     18715
     18708     18710     18713     18721     18709     18705     18708     18710
     18710     18713     18715     18716     18710     18713     18721     18722
     18710     18713     18721     18723     18710     18713     18721     18724
     18711     18710     18713     18714     18711     18710     18713     18715
     18711     18710     18713     18721     18712     18710     18713     18714
     18712     18710     18713     18715     18712     18710     18713     18721
     18713     18715     18716     18717     18713     18715     18716     18718
     18713     18721     18724     18725     18714     18713     18715     18716
     18714     18713     18721     18722     18714     18713     18721     18723
     18714     18713     18721     18724     18715     18713     18721     18722
     18715     18713     18721     18723     18715     18713     18721     18724
     18715     18716     18718     18719     18715     18716     18718     18720
     18715     18716     18718     18730     18716     18715     18713     18721
     18716     18718     18730     18731     18716     18718     18730     18732
     18716     18718     18730     18733     18717     18716     18718     18719
     18717     18716     18718     18720     18717     18716     18718     18730
     18718     18730     18733     18734     18718     18730     18733     18735
     18718     18730     18733     18736     18719     18718     18730     18731
     18719     18718     18730     18732     18719     18718     18730     18733
     18720     18718     18730     18731     18720     18718     18730     18732
     18720     18718     18730     18733     18721     18724     18725     18726
     18721     18724     18725     18727     18722     18721     18724     18725
     18723     18721     18724     18725     18724     18725     18727     18728
     18724     18725     18727     18729     18724     18725     18727     18771
     18725     18727     18771     18772     18725     18727     18771     18773
     18725     18727     18771     18774     18726     18725     18727     18728
     18726     18725     18727     18729     18726     18725     18727     18771
     18727     18771     18774     18775     18727     18771     18774     18776
     18727     18771     18774     18777     18728     18727     18771     18772
     18728     18727     18771     18773     18728     18727     18771     18774
     18729     18727     18771     18772     18729     18727     18771     18773
     18729     18727     18771     18774     18730     18733     18736     18737
     18730     18733     18736     18738     18730     18733     18736     18739
     18731     18730     18733     18734     18731     18730     18733     18735
     18731     18730     18733     18736     18732     18730     18733     18734
     18732     18730     18733     18735     18732     18730     18733     18736
     18733     18736     18739     18740     18733     18736     18739     18741
     18733     18736     18739     18742     18734     18733     18736     18737
     18734     18733     18736     18738     18734     18733     18736     18739
     18735     18733     18736     18737     18735     18733     18736     18738
     18735     18733     18736     18739     18736     18739     18742     18743
     18736     18739     18742     18744     18736     18739     18742     18745
     18737     18736     18739     18740     18737     18736     18739     18741
     18737     18736     18739     18742     18738     18736     18739     18740
     18738     18736     18739     18741     18738     18736     18739     18742
     18739     18742     18745     18746     18739     18742     18745     18747
     18739     18742     18745     18748     18740     18739     18742     18743
     18740     18739     18742     18744     18740     18739     18742     18745
     18741     18739     18742     18743     18741     18739     18742     18744
     18741     18739     18742     18745     18742     18745     18748     18749
     18742     18745     18748     18750     18743     18742     18745     18746
     18743     18742     18745     18747     18743     18742     18745     18748
     18744     18742     18745     18746     18744     18742     18745     18747
     18744     18742     18745     18748     18745     18748     18750     18751
     18745     18748     18750     18752     18746     18745     18748     18749
     18746     18745     18748     18750     18747     18745     18748     18749
     18747     18745     18748     18750     18748     18750     18752     18753
     18748     18750     18752     18754     18748     18750     18752     18755
     18749     18748     18750     18751     18749     18748     18750     18752
     18750     18752     18755     18756     18750     18752     18755     18757
     18750     18752     18755     18758     18751     18750     18752     18753
     18751     18750     18752     18754     18751     18750     18752     18755
     18752     18755     18758     18759     18752     18755     18758     18760
     18752     18755     18758     18761     18753     18752     18755     18756
     18753     18752     18755     18757     18753     18752     18755     18758
     18754     18752     18755     18756     18754     18752     18755     18757
     18754     18752     18755     18758     18755     18758     18761     18762
     18755     18758     18761     18763     18755     18758     18761     18764
     18756     18755     18758     18759     18756     18755     18758     18760
     18756     18755     18758     18761     18757     18755     18758     18759
     18757     18755     18758     18760     18757     18755     18758     18761
     18758     18761     18764     18765     18758     18761     18764     18766
     18758     18761     18764     18767     18759     18758     18761     18762
     18759     18758     18761     18763     18759     18758     18761     18764
     18760     18758     18761     18762     18760     18758     18761     18763
     18760     18758     18761     18764     18761     18764     18767     18768
     18761     18764     18767     18769     18761     18764     18767     18770
     18762     18761     18764     18765     18762     18761     18764     18766
     18762     18761     18764     18767     18763     18761     18764     18765
     18763     18761     18764     18766     18763     18761     18764     18767
     18765     18764     18767     18768     18765     18764     18767     18769
     18765     18764     18767     18770     18766     18764     18767     18768
     18766     18764     18767     18769     18766     18764     18767     18770
     18771     18774     18777     18778     18771     18774     18777     18779
     18771     18774     18777     18780     18772     18771     18774     18775
     18772     18771     18774     18776     18772     18771     18774     18777
     18773     18771     18774     18775     18773     18771     18774     18776
     18773     18771     18774     18777     18774     18777     18780     18781
     18774     18777     18780     18782     18774     18777     18780     18783
     18775     18774     18777     18778     18775     18774     18777     18779
     18775     18774     18777     18780     18776     18774     18777     18778
     18776     18774     18777     18779     18776     18774     18777     18780
     18777     18780     18783     18784     18777     18780     18783     18785
     18777     18780     18783     18786     18778     18777     18780     18781
     18778     18777     18780     18782     18778     18777     18780     18783
     18779     18777     18780     18781     18779     18777     18780     18782
     18779     18777     18780     18783     18780     18783     18786     18787
     18780     18783     18786     18788     18780     18783     18786     18789
     18781     18780     18783     18784     18781     18780     18783     18785
     18781     18780     18783     18786     18782     18780     18783     18784
     18782     18780     18783     18785     18782     18780     18783     18786
     18783     18786     18789     18790     18783     18786     18789     18791
     18783     18786     18789     18792     18784     18783     18786     18787
     18784     18783     18786     18788     18784     18783     18786     18789
     18785     18783     18786     18787     18785     18783     18786     18788
     18785     18783     18786     18789     18786     18789     18792     18793
     18786     18789     18792     18794     18786     18789     18792     18795
     18787     18786     18789     18790     18787     18786     18789     18791
     18787     18786     18789     18792     18788     18786     18789     18790
     18788     18786     18789     18791     18788     18786     18789     18792
     18789     18792     18795     18796     18789     18792     18795     18797
     18789     18792     18795     18798     18790     18789     18792     18793
     18790     18789     18792     18794     18790     18789     18792     18795
     18791     18789     18792     18793     18791     18789     18792     18794
     18791     18789     18792     18795     18792     18795     18798     18799
     18792     18795     18798     18800     18792     18795     18798     18801
     18793     18792     18795     18796     18793     18792     18795     18797
     18793     18792     18795     18798     18794     18792     18795     18796
     18794     18792     18795     18797     18794     18792     18795     18798
     18795     18798     18801     18802     18795     18798     18801     18803
     18795     18798     18801     18804     18796     18795     18798     18799
     18796     18795     18798     18800     18796     18795     18798     18801
     18797     18795     18798     18799     18797     18795     18798     18800
     18797     18795     18798     18801     18798     18801     18804     18805
     18798     18801     18804     18806     18798     18801     18804     18807
     18799     18798     18801     18802     18799     18798     18801     18803
     18799     18798     18801     18804     18800     18798     18801     18802
     18800     18798     18801     18803     18800     18798     18801     18804
     18801     18804     18807     18808     18801     18804     18807     18809
     18801     18804     18807     18810     18802     18801     18804     18805
     18802     18801     18804     18806     18802     18801     18804     18807
     18803     18801     18804     18805     18803     18801     18804     18806
     18803     18801     18804     18807     18804     18807     18810     18811
     18804     18807     18810     18812     18804     18807     18810     18813
     18805     18804     18807     18808     18805     18804     18807     18809
     18805     18804     18807     18810     18806     18804     18807     18808
     18806     18804     18807     18809     18806     18804     18807     18810
     18808     18807     18810     18811     18808     18807     18810     18812
     18808     18807     18810     18813     18809     18807     18810     18811
     18809     18807     18810     18812     18809     18807     18810     18813
     18814     18818     18821     18822     18814     18818     18821     18823
     18814     18818     18821     18828     18815     18814     18818     18819
     18815     18814     18818     18820     18815     18814     18818     18821
     18816     18814     18818     18819     18816     18814     18818     18820
     18816     18814     18818     18821     18817     18814     18818     18819
     18817     18814     18818     18820     18817     18814     18818     18821
     18818     18821     18828     18824     18819     18818     18821     18822
     18819     18818     18821     18823     18819     18818     18821     18828
     18820     18818     18821     18822     18820     18818     18821     18823
     18820     18818     18821     18828     18821     18828     18824     18825
     18821     18828     18824     18826     18821     18828     18824     18827
     18822     18821     18828     18824     18823     18821     18828     18824
     18824     18827     18829     18830     18824     18827     18829     18831
     18824     18827     18829     18832     18825     18824     18827     18829
     18826     18824     18827     18829     18827     18829     18832     18833
     18827     18829     18832     18834     18827     18829     18832     18840
     18828     18824     18827     18829     18829     18832     18834     18835
     18829     18832     18840     18841     18829     18832     18840     18842
     18829     18832     18840     18843     18830     18829     18832     18833
     18830     18829     18832     18834     18830     18829     18832     18840
     18831     18829     18832     18833     18831     18829     18832     18834
     18831     18829     18832     18840     18832     18834     18835     18836
     18832     18834     18835     18837     18832     18840     18843     18844
     18833     18832     18834     18835     18833     18832     18840     18841
     18833     18832     18840     18842     18833     18832     18840     18843
     18834     18832     18840     18841     18834     18832     18840     18842
     18834     18832     18840     18843     18834     18835     18837     18838
     18834     18835     18837     18839     18834     18835     18837     18849
     18835     18834     18832     18840     18835     18837     18849     18850
     18835     18837     18849     18851     18835     18837     18849     18852
     18836     18835     18837     18838     18836     18835     18837     18839
     18836     18835     18837     18849     18837     18849     18852     18853
     18837     18849     18852     18854     18837     18849     18852     18855
     18838     18837     18849     18850     18838     18837     18849     18851
     18838     18837     18849     18852     18839     18837     18849     18850
     18839     18837     18849     18851     18839     18837     18849     18852
     18840     18843     18844     18845     18840     18843     18844     18846
     18841     18840     18843     18844     18842     18840     18843     18844
     18843     18844     18846     18847     18843     18844     18846     18848
     18843     18844     18846     18890     18844     18846     18890     18891
     18844     18846     18890     18892     18844     18846     18890     18893
     18845     18844     18846     18847     18845     18844     18846     18848
     18845     18844     18846     18890     18846     18890     18893     18894
     18846     18890     18893     18895     18846     18890     18893     18896
     18847     18846     18890     18891     18847     18846     18890     18892
     18847     18846     18890     18893     18848     18846     18890     18891
     18848     18846     18890     18892     18848     18846     18890     18893
     18849     18852     18855     18856     18849     18852     18855     18857
     18849     18852     18855     18858     18850     18849     18852     18853
     18850     18849     18852     18854     18850     18849     18852     18855
     18851     18849     18852     18853     18851     18849     18852     18854
     18851     18849     18852     18855     18852     18855     18858     18859
     18852     18855     18858     18860     18852     18855     18858     18861
     18853     18852     18855     18856     18853     18852     18855     18857
     18853     18852     18855     18858     18854     18852     18855     18856
     18854     18852     18855     18857     18854     18852     18855     18858
     18855     18858     18861     18862     18855     18858     18861     18863
     18855     18858     18861     18864     18856     18855     18858     18859
     18856     18855     18858     18860     18856     18855     18858     18861
     18857     18855     18858     18859     18857     18855     18858     18860
     18857     18855     18858     18861     18858     18861     18864     18865
     18858     18861     18864     18866     18858     18861     18864     18867
     18859     18858     18861     18862     18859     18858     18861     18863
     18859     18858     18861     18864     18860     18858     18861     18862
     18860     18858     18861     18863     18860     18858     18861     18864
     18861     18864     18867     18868     18861     18864     18867     18869
     18862     18861     18864     18865     18862     18861     18864     18866
     18862     18861     18864     18867     18863     18861     18864     18865
     18863     18861     18864     18866     18863     18861     18864     18867
     18864     18867     18869     18870     18864     18867     18869     18871
     18865     18864     18867     18868     18865     18864     18867     18869
     18866     18864     18867     18868     18866     18864     18867     18869
     18867     18869     18871     18872     18867     18869     18871     18873
     18867     18869     18871     18874     18868     18867     18869     18870
     18868     18867     18869     18871     18869     18871     18874     18875
     18869     18871     18874     18876     18869     18871     18874     18877
     18870     18869     18871     18872     18870     18869     18871     18873
     18870     18869     18871     18874     18871     18874     18877     18878
     18871     18874     18877     18879     18871     18874     18877     18880
     18872     18871     18874     18875     18872     18871     18874     18876
     18872     18871     18874     18877     18873     18871     18874     18875
     18873     18871     18874     18876     18873     18871     18874     18877
     18874     18877     18880     18881     18874     18877     18880     18882
     18874     18877     18880     18883     18875     18874     18877     18878
     18875     18874     18877     18879     18875     18874     18877     18880
     18876     18874     18877     18878     18876     18874     18877     18879
     18876     18874     18877     18880     18877     18880     18883     18884
     18877     18880     18883     18885     18877     18880     18883     18886
     18878     18877     18880     18881     18878     18877     18880     18882
     18878     18877     18880     18883     18879     18877     18880     18881
     18879     18877     18880     18882     18879     18877     18880     18883
     18880     18883     18886     18887     18880     18883     18886     18888
     18880     18883     18886     18889     18881     18880     18883     18884
     18881     18880     18883     18885     18881     18880     18883     18886
     18882     18880     18883     18884     18882     18880     18883     18885
     18882     18880     18883     18886     18884     18883     18886     18887
     18884     18883     18886     18888     18884     18883     18886     18889
     18885     18883     18886     18887     18885     18883     18886     18888
     18885     18883     18886     18889     18890     18893     18896     18897
     18890     18893     18896     18898     18890     18893     18896     18899
     18891     18890     18893     18894     18891     18890     18893     18895
     18891     18890     18893     18896     18892     18890     18893     18894
     18892     18890     18893     18895     18892     18890     18893     18896
     18893     18896     18899     18900     18893     18896     18899     18901
     18893     18896     18899     18902     18894     18893     18896     18897
     18894     18893     18896     18898     18894     18893     18896     18899
     18895     18893     18896     18897     18895     18893     18896     18898
     18895     18893     18896     18899     18896     18899     18902     18903
     18896     18899     18902     18904     18896     18899     18902     18905
     18897     18896     18899     18900     18897     18896     18899     18901
     18897     18896     18899     18902     18898     18896     18899     18900
     18898     18896     18899     18901     18898     18896     18899     18902
     18899     18902     18905     18906     18899     18902     18905     18907
     18899     18902     18905     18908     18900     18899     18902     18903
     18900     18899     18902     18904     18900     18899     18902     18905
     18901     18899     18902     18903     18901     18899     18902     18904
     18901     18899     18902     18905     18902     18905     18908     18909
     18902     18905     18908     18910     18903     18902     18905     18906
     18903     18902     18905     18907     18903     18902     18905     18908
     18904     18902     18905     18906     18904     18902     18905     18907
     18904     18902     18905     18908     18905     18908     18910     18911
     18905     18908     18910     18912     18906     18905     18908     18909
     18906     18905     18908     18910     18907     18905     18908     18909
     18907     18905     18908     18910     18908     18910     18912     18913
     18908     18910     18912     18914     18908     18910     18912     18915
     18909     18908     18910     18911     18909     18908     18910     18912
     18910     18912     18915     18916     18910     18912     18915     18917
     18910     18912     18915     18918     18911     18910     18912     18913
     18911     18910     18912     18914     18911     18910     18912     18915
     18912     18915     18918     18919     18912     18915     18918     18920
     18912     18915     18918     18921     18913     18912     18915     18916
     18913     18912     18915     18917     18913     18912     18915     18918
     18914     18912     18915     18916     18914     18912     18915     18917
     18914     18912     18915     18918     18915     18918     18921     18922
     18915     18918     18921     18923     18915     18918     18921     18924
     18916     18915     18918     18919     18916     18915     18918     18920
     18916     18915     18918     18921     18917     18915     18918     18919
     18917     18915     18918     18920     18917     18915     18918     18921
     18918     18921     18924     18925     18918     18921     18924     18926
     18918     18921     18924     18927     18919     18918     18921     18922
     18919     18918     18921     18923     18919     18918     18921     18924
     18920     18918     18921     18922     18920     18918     18921     18923
     18920     18918     18921     18924     18921     18924     18927     18928
     18921     18924     18927     18929     18921     18924     18927     18930
     18922     18921     18924     18925     18922     18921     18924     18926
     18922     18921     18924     18927     18923     18921     18924     18925
     18923     18921     18924     18926     18923     18921     18924     18927
     18924     18927     18930     18931     18924     18927     18930     18932
     18924     18927     18930     18933     18925     18924     18927     18928
     18925     18924     18927     18929     18925     18924     18927     18930
     18926     18924     18927     18928     18926     18924     18927     18929
     18926     18924     18927     18930     18927     18930     18933     18934
     18927     18930     18933     18935     18927     18930     18933     18936
     18928     18927     18930     18931     18928     18927     18930     18932
     18928     18927     18930     18933     18929     18927     18930     18931
     18929     18927     18930     18932     18929     18927     18930     18933
     18931     18930     18933     18934     18931     18930     18933     18935
     18931     18930     18933     18936     18932     18930     18933     18934
     18932     18930     18933     18935     18932     18930     18933     18936
     18937     18942     18944     18945     18937     18942     18946     18947
     18937     18942     18946     18948     18937     18942     18946     18953
     18938     18937     18940     18941     18938     18937     18942     18943
     18938     18937     18942     18944     18938     18937     18942     18946
     18939     18937     18940     18941     18939     18937     18942     18943
     18939     18937     18942     18944     18939     18937     18942     18946
     18940     18937     18942     18943     18940     18937     18942     18944
     18940     18937     18942     18946     18941     18940     18937     18942
     18942     18946     18953     18949     18943     18942     18944     18945
     18943     18942     18946     18947     18943     18942     18946     18948
     18943     18942     18946     18953     18944     18942     18946     18947
     18944     18942     18946     18948     18944     18942     18946     18953
     18945     18944     18942     18946     18946     18953     18949     18950
     18946     18953     18949     18951     18946     18953     18949     18952
     18947     18946     18953     18949     18948     18946     18953     18949
     18949     18952     18954     18955     18949     18952     18954     18956
     18949     18952     18954     18957     18950     18949     18952     18954
     18951     18949     18952     18954     18952     18954     18957     18958
     18952     18954     18957     18959     18952     18954     18957     18965
     18953     18949     18952     18954     18954     18957     18959     18960
     18954     18957     18965     18966     18954     18957     18965     18967
     18954     18957     18965     18968     18955     18954     18957     18958
     18955     18954     18957     18959     18955     18954     18957     18965
     18956     18954     18957     18958     18956     18954     18957     18959
     18956     18954     18957     18965     18957     18959     18960     18961
     18957     18959     18960     18962     18957     18965     18968     18969
     18958     18957     18959     18960     18958     18957     18965     18966
     18958     18957     18965     18967     18958     18957     18965     18968
     18959     18957     18965     18966     18959     18957     18965     18967
     18959     18957     18965     18968     18959     18960     18962     18963
     18959     18960     18962     18964     18959     18960     18962     18974
     18960     18959     18957     18965     18960     18962     18974     18975
     18960     18962     18974     18976     18960     18962     18974     18977
     18961     18960     18962     18963     18961     18960     18962     18964
     18961     18960     18962     18974     18962     18974     18977     18978
     18962     18974     18977     18979     18962     18974     18977     18980
     18963     18962     18974     18975     18963     18962     18974     18976
     18963     18962     18974     18977     18964     18962     18974     18975
     18964     18962     18974     18976     18964     18962     18974     18977
     18965     18968     18969     18970     18965     18968     18969     18971
     18966     18965     18968     18969     18967     18965     18968     18969
     18968     18969     18971     18972     18968     18969     18971     18973
     18968     18969     18971     19015     18969     18971     19015     19016
     18969     18971     19015     19017     18969     18971     19015     19018
     18970     18969     18971     18972     18970     18969     18971     18973
     18970     18969     18971     19015     18971     19015     19018     19019
     18971     19015     19018     19020     18971     19015     19018     19021
     18972     18971     19015     19016     18972     18971     19015     19017
     18972     18971     19015     19018     18973     18971     19015     19016
     18973     18971     19015     19017     18973     18971     19015     19018
     18974     18977     18980     18981     18974     18977     18980     18982
     18974     18977     18980     18983     18975     18974     18977     18978
     18975     18974     18977     18979     18975     18974     18977     18980
     18976     18974     18977     18978     18976     18974     18977     18979
     18976     18974     18977     18980     18977     18980     18983     18984
     18977     18980     18983     18985     18977     18980     18983     18986
     18978     18977     18980     18981     18978     18977     18980     18982
     18978     18977     18980     18983     18979     18977     18980     18981
     18979     18977     18980     18982     18979     18977     18980     18983
     18980     18983     18986     18987     18980     18983     18986     18988
     18980     18983     18986     18989     18981     18980     18983     18984
     18981     18980     18983     18985     18981     18980     18983     18986
     18982     18980     18983     18984     18982     18980     18983     18985
     18982     18980     18983     18986     18983     18986     18989     18990
     18983     18986     18989     18991     18983     18986     18989     18992
     18984     18983     18986     18987     18984     18983     18986     18988
     18984     18983     18986     18989     18985     18983     18986     18987
     18985     18983     18986     18988     18985     18983     18986     18989
     18986     18989     18992     18993     18986     18989     18992     18994
     18987     18986     18989     18990     18987     18986     18989     18991
     18987     18986     18989     18992     18988     18986     18989     18990
     18988     18986     18989     18991     18988     18986     18989     18992
     18989     18992     18994     18995     18989     18992     18994     18996
     18990     18989     18992     18993     18990     18989     18992     18994
     18991     18989     18992     18993     18991     18989     18992     18994
     18992     18994     18996     18997     18992     18994     18996     18998
     18992     18994     18996     18999     18993     18992     18994     18995
     18993     18992     18994     18996     18994     18996     18999     19000
     18994     18996     18999     19001     18994     18996     18999     19002
     18995     18994     18996     18997     18995     18994     18996     18998
     18995     18994     18996     18999     18996     18999     19002     19003
     18996     18999     19002     19004     18996     18999     19002     19005
     18997     18996     18999     19000     18997     18996     18999     19001
     18997     18996     18999     19002     18998     18996     18999     19000
     18998     18996     18999     19001     18998     18996     18999     19002
     18999     19002     19005     19006     18999     19002     19005     19007
     18999     19002     19005     19008     19000     18999     19002     19003
     19000     18999     19002     19004     19000     18999     19002     19005
     19001     18999     19002     19003     19001     18999     19002     19004
     19001     18999     19002     19005     19002     19005     19008     19009
     19002     19005     19008     19010     19002     19005     19008     19011
     19003     19002     19005     19006     19003     19002     19005     19007
     19003     19002     19005     19008     19004     19002     19005     19006
     19004     19002     19005     19007     19004     19002     19005     19008
     19005     19008     19011     19012     19005     19008     19011     19013
     19005     19008     19011     19014     19006     19005     19008     19009
     19006     19005     19008     19010     19006     19005     19008     19011
     19007     19005     19008     19009     19007     19005     19008     19010
     19007     19005     19008     19011     19009     19008     19011     19012
     19009     19008     19011     19013     19009     19008     19011     19014
     19010     19008     19011     19012     19010     19008     19011     19013
     19010     19008     19011     19014     19015     19018     19021     19022
     19015     19018     19021     19023     19015     19018     19021     19024
     19016     19015     19018     19019     19016     19015     19018     19020
     19016     19015     19018     19021     19017     19015     19018     19019
     19017     19015     19018     19020     19017     19015     19018     19021
     19018     19021     19024     19025     19018     19021     19024     19026
     19018     19021     19024     19027     19019     19018     19021     19022
     19019     19018     19021     19023     19019     19018     19021     19024
     19020     19018     19021     19022     19020     19018     19021     19023
     19020     19018     19021     19024     19021     19024     19027     19028
     19021     19024     19027     19029     19021     19024     19027     19030
     19022     19021     19024     19025     19022     19021     19024     19026
     19022     19021     19024     19027     19023     19021     19024     19025
     19023     19021     19024     19026     19023     19021     19024     19027
     19024     19027     19030     19031     19024     19027     19030     19032
     19024     19027     19030     19033     19025     19024     19027     19028
     19025     19024     19027     19029     19025     19024     19027     19030
     19026     19024     19027     19028     19026     19024     19027     19029
     19026     19024     19027     19030     19027     19030     19033     19034
     19027     19030     19033     19035     19027     19030     19033     19036
     19028     19027     19030     19031     19028     19027     19030     19032
     19028     19027     19030     19033     19029     19027     19030     19031
     19029     19027     19030     19032     19029     19027     19030     19033
     19030     19033     19036     19037     19030     19033     19036     19038
     19030     19033     19036     19039     19031     19030     19033     19034
     19031     19030     19033     19035     19031     19030     19033     19036
     19032     19030     19033     19034     19032     19030     19033     19035
     19032     19030     19033     19036     19033     19036     19039     19040
     19033     19036     19039     19041     19033     19036     19039     19042
     19034     19033     19036     19037     19034     19033     19036     19038
     19034     19033     19036     19039     19035     19033     19036     19037
     19035     19033     19036     19038     19035     19033     19036     19039
     19036     19039     19042     19043     19036     19039     19042     19044
     19036     19039     19042     19045     19037     19036     19039     19040
     19037     19036     19039     19041     19037     19036     19039     19042
     19038     19036     19039     19040     19038     19036     19039     19041
     19038     19036     19039     19042     19039     19042     19045     19046
     19039     19042     19045     19047     19039     19042     19045     19048
     19040     19039     19042     19043     19040     19039     19042     19044
     19040     19039     19042     19045     19041     19039     19042     19043
     19041     19039     19042     19044     19041     19039     19042     19045
     19042     19045     19048     19049     19042     19045     19048     19050
     19042     19045     19048     19051     19043     19042     19045     19046
     19043     19042     19045     19047     19043     19042     19045     19048
     19044     19042     19045     19046     19044     19042     19045     19047
     19044     19042     19045     19048     19045     19048     19051     19052
     19045     19048     19051     19053     19045     19048     19051     19054
     19046     19045     19048     19049     19046     19045     19048     19050
     19046     19045     19048     19051     19047     19045     19048     19049
     19047     19045     19048     19050     19047     19045     19048     19051
     19048     19051     19054     19055     19048     19051     19054     19056
     19048     19051     19054     19057     19049     19048     19051     19052
     19049     19048     19051     19053     19049     19048     19051     19054
     19050     19048     19051     19052     19050     19048     19051     19053
     19050     19048     19051     19054     19052     19051     19054     19055
     19052     19051     19054     19056     19052     19051     19054     19057
     19053     19051     19054     19055     19053     19051     19054     19056
     19053     19051     19054     19057     19058     19062     19065     19066
     19058     19062     19065     19067     19058     19062     19065     19072
     19059     19058     19062     19063     19059     19058     19062     19064
     19059     19058     19062     19065     19060     19058     19062     19063
     19060     19058     19062     19064     19060     19058     19062     19065
     19061     19058     19062     19063     19061     19058     19062     19064
     19061     19058     19062     19065     19062     19065     19072     19068
     19063     19062     19065     19066     19063     19062     19065     19067
     19063     19062     19065     19072     19064     19062     19065     19066
     19064     19062     19065     19067     19064     19062     19065     19072
     19065     19072     19068     19069     19065     19072     19068     19070
     19065     19072     19068     19071     19066     19065     19072     19068
     19067     19065     19072     19068     19068     19071     19073     19074
     19068     19071     19073     19075     19068     19071     19073     19076
     19069     19068     19071     19073     19070     19068     19071     19073
     19071     19073     19076     19077     19071     19073     19076     19078
     19071     19073     19076     19084     19072     19068     19071     19073
     19073     19076     19078     19079     19073     19076     19084     19085
     19073     19076     19084     19086     19073     19076     19084     19087
     19074     19073     19076     19077     19074     19073     19076     19078
     19074     19073     19076     19084     19075     19073     19076     19077
     19075     19073     19076     19078     19075     19073     19076     19084
     19076     19078     19079     19080     19076     19078     19079     19081
     19076     19084     19087     19088     19077     19076     19078     19079
     19077     19076     19084     19085     19077     19076     19084     19086
     19077     19076     19084     19087     19078     19076     19084     19085
     19078     19076     19084     19086     19078     19076     19084     19087
     19078     19079     19081     19082     19078     19079     19081     19083
     19078     19079     19081     19093     19079     19078     19076     19084
     19079     19081     19093     19094     19079     19081     19093     19095
     19079     19081     19093     19096     19080     19079     19081     19082
     19080     19079     19081     19083     19080     19079     19081     19093
     19081     19093     19096     19097     19081     19093     19096     19098
     19081     19093     19096     19099     19082     19081     19093     19094
     19082     19081     19093     19095     19082     19081     19093     19096
     19083     19081     19093     19094     19083     19081     19093     19095
     19083     19081     19093     19096     19084     19087     19088     19089
     19084     19087     19088     19090     19085     19084     19087     19088
     19086     19084     19087     19088     19087     19088     19090     19091
     19087     19088     19090     19092     19087     19088     19090     19137
     19088     19090     19137     19138     19088     19090     19137     19139
     19088     19090     19137     19140     19089     19088     19090     19091
     19089     19088     19090     19092     19089     19088     19090     19137
     19090     19137     19140     19141     19090     19137     19140     19142
     19090     19137     19140     19143     19091     19090     19137     19138
     19091     19090     19137     19139     19091     19090     19137     19140
     19092     19090     19137     19138     19092     19090     19137     19139
     19092     19090     19137     19140     19093     19096     19099     19100
     19093     19096     19099     19101     19093     19096     19099     19102
     19094     19093     19096     19097     19094     19093     19096     19098
     19094     19093     19096     19099     19095     19093     19096     19097
     19095     19093     19096     19098     19095     19093     19096     19099
     19096     19099     19102     19103     19096     19099     19102     19104
     19096     19099     19102     19105     19097     19096     19099     19100
     19097     19096     19099     19101     19097     19096     19099     19102
     19098     19096     19099     19100     19098     19096     19099     19101
     19098     19096     19099     19102     19099     19102     19105     19106
     19099     19102     19105     19107     19099     19102     19105     19108
     19100     19099     19102     19103     19100     19099     19102     19104
     19100     19099     19102     19105     19101     19099     19102     19103
     19101     19099     19102     19104     19101     19099     19102     19105
     19102     19105     19108     19109     19102     19105     19108     19110
     19102     19105     19108     19111     19103     19102     19105     19106
     19103     19102     19105     19107     19103     19102     19105     19108
     19104     19102     19105     19106     19104     19102     19105     19107
     19104     19102     19105     19108     19105     19108     19111     19112
     19105     19108     19111     19113     19105     19108     19111     19116
     19106     19105     19108     19109     19106     19105     19108     19110
     19106     19105     19108     19111     19107     19105     19108     19109
     19107     19105     19108     19110     19107     19105     19108     19111
     19108     19111     19113     19114     19108     19111     19113     19115
     19108     19111     19113     19116     19108     19111     19116     19113
     19108     19111     19116     19117     19108     19111     19116     19118
     19109     19108     19111     19112     19109     19108     19111     19113
     19109     19108     19111     19116     19110     19108     19111     19112
     19110     19108     19111     19113     19110     19108     19111     19116
     19111     19113     19116     19117     19111     19113     19116     19118
     19111     19116     19113     19114     19111     19116     19113     19115
     19111     19116     19118     19119     19111     19116     19118     19120
     19111     19116     19118     19121     19112     19111     19113     19114
     19112     19111     19113     19115     19112     19111     19113     19116
     19112     19111     19116     19113     19112     19111     19116     19117
     19112     19111     19116     19118     19113     19111     19116     19117
     19113     19111     19116     19118     19113     19116     19118     19119
     19113     19116     19118     19120     19113     19116     19118     19121
     19114     19113     19111     19116     19114     19113     19116     19117
     19114     19113     19116     19118     19115     19113     19111     19116
     19115     19113     19116     19117     19115     19113     19116     19118
     19116     19118     19121     19122     19116     19118     19121     19123
     19116     19118     19121     19124     19117     19116     19118     19119
     19117     19116     19118     19120     19117     19116     19118     19121
     19118     19121     19124     19125     19118     19121     19124     19126
     19118     19121     19124     19127     19119     19118     19121     19122
     19119     19118     19121     19123     19119     19118     19121     19124
     19120     19118     19121     19122     19120     19118     19121     19123
     19120     19118     19121     19124     19121     19124     19127     19128
     19121     19124     19127     19129     19121     19124     19127     19130
     19122     19121     19124     19125     19122     19121     19124     19126
     19122     19121     19124     19127     19123     19121     19124     19125
     19123     19121     19124     19126     19123     19121     19124     19127
     19124     19127     19130     19131     19124     19127     19130     19132
     19124     19127     19130     19133     19125     19124     19127     19128
     19125     19124     19127     19129     19125     19124     19127     19130
     19126     19124     19127     19128     19126     19124     19127     19129
     19126     19124     19127     19130     19127     19130     19133     19134
     19127     19130     19133     19135     19127     19130     19133     19136
     19128     19127     19130     19131     19128     19127     19130     19132
     19128     19127     19130     19133     19129     19127     19130     19131
     19129     19127     19130     19132     19129     19127     19130     19133
     19131     19130     19133     19134     19131     19130     19133     19135
     19131     19130     19133     19136     19132     19130     19133     19134
     19132     19130     19133     19135     19132     19130     19133     19136
     19137     19140     19143     19144     19137     19140     19143     19145
     19137     19140     19143     19146     19138     19137     19140     19141
     19138     19137     19140     19142     19138     19137     19140     19143
     19139     19137     19140     19141     19139     19137     19140     19142
     19139     19137     19140     19143     19140     19143     19146     19147
     19140     19143     19146     19148     19140     19143     19146     19149
     19141     19140     19143     19144     19141     19140     19143     19145
     19141     19140     19143     19146     19142     19140     19143     19144
     19142     19140     19143     19145     19142     19140     19143     19146
     19143     19146     19149     19150     19143     19146     19149     19151
     19143     19146     19149     19152     19144     19143     19146     19147
     19144     19143     19146     19148     19144     19143     19146     19149
     19145     19143     19146     19147     19145     19143     19146     19148
     19145     19143     19146     19149     19146     19149     19152     19153
     19146     19149     19152     19154     19146     19149     19152     19155
     19147     19146     19149     19150     19147     19146     19149     19151
     19147     19146     19149     19152     19148     19146     19149     19150
     19148     19146     19149     19151     19148     19146     19149     19152
     19149     19152     19155     19156     19149     19152     19155     19157
     19149     19152     19155     19158     19150     19149     19152     19153
     19150     19149     19152     19154     19150     19149     19152     19155
     19151     19149     19152     19153     19151     19149     19152     19154
     19151     19149     19152     19155     19152     19155     19158     19159
     19152     19155     19158     19160     19152     19155     19158     19161
     19153     19152     19155     19156     19153     19152     19155     19157
     19153     19152     19155     19158     19154     19152     19155     19156
     19154     19152     19155     19157     19154     19152     19155     19158
     19155     19158     19161     19162     19155     19158     19161     19163
     19155     19158     19161     19164     19156     19155     19158     19159
     19156     19155     19158     19160     19156     19155     19158     19161
     19157     19155     19158     19159     19157     19155     19158     19160
     19157     19155     19158     19161     19158     19161     19164     19165
     19158     19161     19164     19166     19158     19161     19164     19167
     19159     19158     19161     19162     19159     19158     19161     19163
     19159     19158     19161     19164     19160     19158     19161     19162
     19160     19158     19161     19163     19160     19158     19161     19164
     19161     19164     19167     19168     19161     19164     19167     19169
     19161     19164     19167     19170     19162     19161     19164     19165
     19162     19161     19164     19166     19162     19161     19164     19167
     19163     19161     19164     19165     19163     19161     19164     19166
     19163     19161     19164     19167     19164     19167     19170     19171
     19164     19167     19170     19172     19164     19167     19170     19173
     19165     19164     19167     19168     19165     19164     19167     19169
     19165     19164     19167     19170     19166     19164     19167     19168
     19166     19164     19167     19169     19166     19164     19167     19170
     19167     19170     19173     19174     19167     19170     19173     19175
     19167     19170     19173     19176     19168     19167     19170     19171
     19168     19167     19170     19172     19168     19167     19170     19173
     19169     19167     19170     19171     19169     19167     19170     19172
     19169     19167     19170     19173     19170     19173     19176     19177
     19170     19173     19176     19178     19170     19173     19176     19179
     19171     19170     19173     19174     19171     19170     19173     19175
     19171     19170     19173     19176     19172     19170     19173     19174
     19172     19170     19173     19175     19172     19170     19173     19176
     19174     19173     19176     19177     19174     19173     19176     19178
     19174     19173     19176     19179     19175     19173     19176     19177
     19175     19173     19176     19178     19175     19173     19176     19179
     19180     19184     19187     19188     19180     19184     19187     19189
     19180     19184     19187     19194     19181     19180     19184     19185
     19181     19180     19184     19186     19181     19180     19184     19187
     19182     19180     19184     19185     19182     19180     19184     19186
     19182     19180     19184     19187     19183     19180     19184     19185
     19183     19180     19184     19186     19183     19180     19184     19187
     19184     19187     19194     19190     19185     19184     19187     19188
     19185     19184     19187     19189     19185     19184     19187     19194
     19186     19184     19187     19188     19186     19184     19187     19189
     19186     19184     19187     19194     19187     19194     19190     19191
     19187     19194     19190     19192     19187     19194     19190     19193
     19188     19187     19194     19190     19189     19187     19194     19190
     19190     19193     19195     19196     19190     19193     19195     19197
     19190     19193     19195     19198     19191     19190     19193     19195
     19192     19190     19193     19195     19193     19195     19198     19199
     19193     19195     19198     19200     19193     19195     19198     19206
     19194     19190     19193     19195     19195     19198     19200     19201
     19195     19198     19206     19207     19195     19198     19206     19208
     19195     19198     19206     19209     19196     19195     19198     19199
     19196     19195     19198     19200     19196     19195     19198     19206
     19197     19195     19198     19199     19197     19195     19198     19200
     19197     19195     19198     19206     19198     19200     19201     19202
     19198     19200     19201     19203     19198     19206     19209     19210
     19199     19198     19200     19201     19199     19198     19206     19207
     19199     19198     19206     19208     19199     19198     19206     19209
     19200     19198     19206     19207     19200     19198     19206     19208
     19200     19198     19206     19209     19200     19201     19203     19204
     19200     19201     19203     19205     19200     19201     19203     19215
     19201     19200     19198     19206     19201     19203     19215     19216
     19201     19203     19215     19217     19201     19203     19215     19218
     19202     19201     19203     19204     19202     19201     19203     19205
     19202     19201     19203     19215     19203     19215     19218     19219
     19203     19215     19218     19220     19203     19215     19218     19221
     19204     19203     19215     19216     19204     19203     19215     19217
     19204     19203     19215     19218     19205     19203     19215     19216
     19205     19203     19215     19217     19205     19203     19215     19218
     19206     19209     19210     19211     19206     19209     19210     19212
     19207     19206     19209     19210     19208     19206     19209     19210
     19209     19210     19212     19213     19209     19210     19212     19214
     19209     19210     19212     19256     19210     19212     19256     19257
     19210     19212     19256     19258     19210     19212     19256     19259
     19211     19210     19212     19213     19211     19210     19212     19214
     19211     19210     19212     19256     19212     19256     19259     19260
     19212     19256     19259     19261     19212     19256     19259     19262
     19213     19212     19256     19257     19213     19212     19256     19258
     19213     19212     19256     19259     19214     19212     19256     19257
     19214     19212     19256     19258     19214     19212     19256     19259
     19215     19218     19221     19222     19215     19218     19221     19223
     19215     19218     19221     19224     19216     19215     19218     19219
     19216     19215     19218     19220     19216     19215     19218     19221
     19217     19215     19218     19219     19217     19215     19218     19220
     19217     19215     19218     19221     19218     19221     19224     19225
     19218     19221     19224     19226     19218     19221     19224     19227
     19219     19218     19221     19222     19219     19218     19221     19223
     19219     19218     19221     19224     19220     19218     19221     19222
     19220     19218     19221     19223     19220     19218     19221     19224
     19221     19224     19227     19228     19221     19224     19227     19229
     19221     19224     19227     19230     19222     19221     19224     19225
     19222     19221     19224     19226     19222     19221     19224     19227
     19223     19221     19224     19225     19223     19221     19224     19226
     19223     19221     19224     19227     19224     19227     19230     19231
     19224     19227     19230     19232     19224     19227     19230     19233
     19225     19224     19227     19228     19225     19224     19227     19229
     19225     19224     19227     19230     19226     19224     19227     19228
     19226     19224     19227     19229     19226     19224     19227     19230
     19227     19230     19233     19234     19227     19230     19233     19235
     19228     19227     19230     19231     19228     19227     19230     19232
     19228     19227     19230     19233     19229     19227     19230     19231
     19229     19227     19230     19232     19229     19227     19230     19233
     19230     19233     19235     19236     19230     19233     19235     19237
     19231     19230     19233     19234     19231     19230     19233     19235
     19232     19230     19233     19234     19232     19230     19233     19235
     19233     19235     19237     19238     19233     19235     19237     19239
     19233     19235     19237     19240     19234     19233     19235     19236
     19234     19233     19235     19237     19235     19237     19240     19241
     19235     19237     19240     19242     19235     19237     19240     19243
     19236     19235     19237     19238     19236     19235     19237     19239
     19236     19235     19237     19240     19237     19240     19243     19244
     19237     19240     19243     19245     19237     19240     19243     19246
     19238     19237     19240     19241     19238     19237     19240     19242
     19238     19237     19240     19243     19239     19237     19240     19241
     19239     19237     19240     19242     19239     19237     19240     19243
     19240     19243     19246     19247     19240     19243     19246     19248
     19240     19243     19246     19249     19241     19240     19243     19244
     19241     19240     19243     19245     19241     19240     19243     19246
     19242     19240     19243     19244     19242     19240     19243     19245
     19242     19240     19243     19246     19243     19246     19249     19250
     19243     19246     19249     19251     19243     19246     19249     19252
     19244     19243     19246     19247     19244     19243     19246     19248
     19244     19243     19246     19249     19245     19243     19246     19247
     19245     19243     19246     19248     19245     19243     19246     19249
     19246     19249     19252     19253     19246     19249     19252     19254
     19246     19249     19252     19255     19247     19246     19249     19250
     19247     19246     19249     19251     19247     19246     19249     19252
     19248     19246     19249     19250     19248     19246     19249     19251
     19248     19246     19249     19252     19250     19249     19252     19253
     19250     19249     19252     19254     19250     19249     19252     19255
     19251     19249     19252     19253     19251     19249     19252     19254
     19251     19249     19252     19255     19256     19259     19262     19263
     19256     19259     19262     19264     19256     19259     19262     19265
     19257     19256     19259     19260     19257     19256     19259     19261
     19257     19256     19259     19262     19258     19256     19259     19260
     19258     19256     19259     19261     19258     19256     19259     19262
     19259     19262     19265     19266     19259     19262     19265     19267
     19259     19262     19265     19268     19260     19259     19262     19263
     19260     19259     19262     19264     19260     19259     19262     19265
     19261     19259     19262     19263     19261     19259     19262     19264
     19261     19259     19262     19265     19262     19265     19268     19269
     19262     19265     19268     19270     19262     19265     19268     19271
     19263     19262     19265     19266     19263     19262     19265     19267
     19263     19262     19265     19268     19264     19262     19265     19266
     19264     19262     19265     19267     19264     19262     19265     19268
     19265     19268     19271     19272     19265     19268     19271     19273
     19265     19268     19271     19274     19266     19265     19268     19269
     19266     19265     19268     19270     19266     19265     19268     19271
     19267     19265     19268     19269     19267     19265     19268     19270
     19267     19265     19268     19271     19268     19271     19274     19275
     19268     19271     19274     19276     19269     19268     19271     19272
     19269     19268     19271     19273     19269     19268     19271     19274
     19270     19268     19271     19272     19270     19268     19271     19273
     19270     19268     19271     19274     19271     19274     19276     19277
     19271     19274     19276     19278     19272     19271     19274     19275
     19272     19271     19274     19276     19273     19271     19274     19275
     19273     19271     19274     19276     19274     19276     19278     19279
     19274     19276     19278     19280     19274     19276     19278     19281
     19275     19274     19276     19277     19275     19274     19276     19278
     19276     19278     19281     19282     19276     19278     19281     19283
     19276     19278     19281     19284     19277     19276     19278     19279
     19277     19276     19278     19280     19277     19276     19278     19281
     19278     19281     19284     19285     19278     19281     19284     19286
     19278     19281     19284     19287     19279     19278     19281     19282
     19279     19278     19281     19283     19279     19278     19281     19284
     19280     19278     19281     19282     19280     19278     19281     19283
     19280     19278     19281     19284     19281     19284     19287     19288
     19281     19284     19287     19289     19281     19284     19287     19290
     19282     19281     19284     19285     19282     19281     19284     19286
     19282     19281     19284     19287     19283     19281     19284     19285
     19283     19281     19284     19286     19283     19281     19284     19287
     19284     19287     19290     19291     19284     19287     19290     19292
     19284     19287     19290     19293     19285     19284     19287     19288
     19285     19284     19287     19289     19285     19284     19287     19290
     19286     19284     19287     19288     19286     19284     19287     19289
     19286     19284     19287     19290     19287     19290     19293     19294
     19287     19290     19293     19295     19287     19290     19293     19296
     19288     19287     19290     19291     19288     19287     19290     19292
     19288     19287     19290     19293     19289     19287     19290     19291
     19289     19287     19290     19292     19289     19287     19290     19293
     19290     19293     19296     19297     19290     19293     19296     19298
     19290     19293     19296     19299     19291     19290     19293     19294
     19291     19290     19293     19295     19291     19290     19293     19296
     19292     19290     19293     19294     19292     19290     19293     19295
     19292     19290     19293     19296     19293     19296     19299     19300
     19293     19296     19299     19301     19293     19296     19299     19302
     19294     19293     19296     19297     19294     19293     19296     19298
     19294     19293     19296     19299     19295     19293     19296     19297
     19295     19293     19296     19298     19295     19293     19296     19299
     19297     19296     19299     19300     19297     19296     19299     19301
     19297     19296     19299     19302     19298     19296     19299     19300
     19298     19296     19299     19301     19298     19296     19299     19302
     19303     19307     19310     19311     19303     19307     19310     19312
     19303     19307     19310     19317     19304     19303     19307     19308
     19304     19303     19307     19309     19304     19303     19307     19310
     19305     19303     19307     19308     19305     19303     19307     19309
     19305     19303     19307     19310     19306     19303     19307     19308
     19306     19303     19307     19309     19306     19303     19307     19310
     19307     19310     19317     19313     19308     19307     19310     19311
     19308     19307     19310     19312     19308     19307     19310     19317
     19309     19307     19310     19311     19309     19307     19310     19312
     19309     19307     19310     19317     19310     19317     19313     19314
     19310     19317     19313     19315     19310     19317     19313     19316
     19311     19310     19317     19313     19312     19310     19317     19313
     19313     19316     19318     19319     19313     19316     19318     19320
     19313     19316     19318     19321     19314     19313     19316     19318
     19315     19313     19316     19318     19316     19318     19321     19322
     19316     19318     19321     19323     19316     19318     19321     19329
     19317     19313     19316     19318     19318     19321     19323     19324
     19318     19321     19329     19330     19318     19321     19329     19331
     19318     19321     19329     19332     19319     19318     19321     19322
     19319     19318     19321     19323     19319     19318     19321     19329
     19320     19318     19321     19322     19320     19318     19321     19323
     19320     19318     19321     19329     19321     19323     19324     19325
     19321     19323     19324     19326     19321     19329     19332     19333
     19322     19321     19323     19324     19322     19321     19329     19330
     19322     19321     19329     19331     19322     19321     19329     19332
     19323     19321     19329     19330     19323     19321     19329     19331
     19323     19321     19329     19332     19323     19324     19326     19327
     19323     19324     19326     19328     19323     19324     19326     19338
     19324     19323     19321     19329     19324     19326     19338     19339
     19324     19326     19338     19340     19324     19326     19338     19341
     19325     19324     19326     19327     19325     19324     19326     19328
     19325     19324     19326     19338     19326     19338     19341     19342
     19326     19338     19341     19343     19326     19338     19341     19344
     19327     19326     19338     19339     19327     19326     19338     19340
     19327     19326     19338     19341     19328     19326     19338     19339
     19328     19326     19338     19340     19328     19326     19338     19341
     19329     19332     19333     19334     19329     19332     19333     19335
     19330     19329     19332     19333     19331     19329     19332     19333
     19332     19333     19335     19336     19332     19333     19335     19337
     19332     19333     19335     19382     19333     19335     19382     19383
     19333     19335     19382     19384     19333     19335     19382     19385
     19334     19333     19335     19336     19334     19333     19335     19337
     19334     19333     19335     19382     19335     19382     19385     19386
     19335     19382     19385     19387     19335     19382     19385     19388
     19336     19335     19382     19383     19336     19335     19382     19384
     19336     19335     19382     19385     19337     19335     19382     19383
     19337     19335     19382     19384     19337     19335     19382     19385
     19338     19341     19344     19345     19338     19341     19344     19346
     19338     19341     19344     19347     19339     19338     19341     19342
     19339     19338     19341     19343     19339     19338     19341     19344
     19340     19338     19341     19342     19340     19338     19341     19343
     19340     19338     19341     19344     19341     19344     19347     19348
     19341     19344     19347     19349     19341     19344     19347     19350
     19342     19341     19344     19345     19342     19341     19344     19346
     19342     19341     19344     19347     19343     19341     19344     19345
     19343     19341     19344     19346     19343     19341     19344     19347
     19344     19347     19350     19351     19344     19347     19350     19352
     19344     19347     19350     19353     19345     19344     19347     19348
     19345     19344     19347     19349     19345     19344     19347     19350
     19346     19344     19347     19348     19346     19344     19347     19349
     19346     19344     19347     19350     19347     19350     19353     19354
     19347     19350     19353     19355     19347     19350     19353     19356
     19348     19347     19350     19351     19348     19347     19350     19352
     19348     19347     19350     19353     19349     19347     19350     19351
     19349     19347     19350     19352     19349     19347     19350     19353
     19350     19353     19356     19357     19350     19353     19356     19358
     19350     19353     19356     19361     19351     19350     19353     19354
     19351     19350     19353     19355     19351     19350     19353     19356
     19352     19350     19353     19354     19352     19350     19353     19355
     19352     19350     19353     19356     19353     19356     19358     19359
     19353     19356     19358     19360     19353     19356     19358     19361
     19353     19356     19361     19358     19353     19356     19361     19362
     19353     19356     19361     19363     19354     19353     19356     19357
     19354     19353     19356     19358     19354     19353     19356     19361
     19355     19353     19356     19357     19355     19353     19356     19358
     19355     19353     19356     19361     19356     19358     19361     19362
     19356     19358     19361     19363     19356     19361     19358     19359
     19356     19361     19358     19360     19356     19361     19363     19364
     19356     19361     19363     19365     19356     19361     19363     19366
     19357     19356     19358     19359     19357     19356     19358     19360
     19357     19356     19358     19361     19357     19356     19361     19358
     19357     19356     19361     19362     19357     19356     19361     19363
     19358     19356     19361     19362     19358     19356     19361     19363
     19358     19361     19363     19364     19358     19361     19363     19365
     19358     19361     19363     19366     19359     19358     19356     19361
     19359     19358     19361     19362     19359     19358     19361     19363
     19360     19358     19356     19361     19360     19358     19361     19362
     19360     19358     19361     19363     19361     19363     19366     19367
     19361     19363     19366     19368     19361     19363     19366     19369
     19362     19361     19363     19364     19362     19361     19363     19365
     19362     19361     19363     19366     19363     19366     19369     19370
     19363     19366     19369     19371     19363     19366     19369     19372
     19364     19363     19366     19367     19364     19363     19366     19368
     19364     19363     19366     19369     19365     19363     19366     19367
     19365     19363     19366     19368     19365     19363     19366     19369
     19366     19369     19372     19373     19366     19369     19372     19374
     19366     19369     19372     19375     19367     19366     19369     19370
     19367     19366     19369     19371     19367     19366     19369     19372
     19368     19366     19369     19370     19368     19366     19369     19371
     19368     19366     19369     19372     19369     19372     19375     19376
     19369     19372     19375     19377     19369     19372     19375     19378
     19370     19369     19372     19373     19370     19369     19372     19374
     19370     19369     19372     19375     19371     19369     19372     19373
     19371     19369     19372     19374     19371     19369     19372     19375
     19372     19375     19378     19379     19372     19375     19378     19380
     19372     19375     19378     19381     19373     19372     19375     19376
     19373     19372     19375     19377     19373     19372     19375     19378
     19374     19372     19375     19376     19374     19372     19375     19377
     19374     19372     19375     19378     19376     19375     19378     19379
     19376     19375     19378     19380     19376     19375     19378     19381
     19377     19375     19378     19379     19377     19375     19378     19380
     19377     19375     19378     19381     19382     19385     19388     19389
     19382     19385     19388     19390     19382     19385     19388     19391
     19383     19382     19385     19386     19383     19382     19385     19387
     19383     19382     19385     19388     19384     19382     19385     19386
     19384     19382     19385     19387     19384     19382     19385     19388
     19385     19388     19391     19392     19385     19388     19391     19393
     19385     19388     19391     19394     19386     19385     19388     19389
     19386     19385     19388     19390     19386     19385     19388     19391
     19387     19385     19388     19389     19387     19385     19388     19390
     19387     19385     19388     19391     19388     19391     19394     19395
     19388     19391     19394     19396     19388     19391     19394     19397
     19389     19388     19391     19392     19389     19388     19391     19393
     19389     19388     19391     19394     19390     19388     19391     19392
     19390     19388     19391     19393     19390     19388     19391     19394
     19391     19394     19397     19398     19391     19394     19397     19399
     19391     19394     19397     19400     19392     19391     19394     19395
     19392     19391     19394     19396     19392     19391     19394     19397
     19393     19391     19394     19395     19393     19391     19394     19396
     19393     19391     19394     19397     19394     19397     19400     19401
     19394     19397     19400     19402     19394     19397     19400     19403
     19395     19394     19397     19398     19395     19394     19397     19399
     19395     19394     19397     19400     19396     19394     19397     19398
     19396     19394     19397     19399     19396     19394     19397     19400
     19397     19400     19403     19404     19397     19400     19403     19405
     19397     19400     19403     19406     19398     19397     19400     19401
     19398     19397     19400     19402     19398     19397     19400     19403
     19399     19397     19400     19401     19399     19397     19400     19402
     19399     19397     19400     19403     19400     19403     19406     19407
     19400     19403     19406     19408     19400     19403     19406     19409
     19401     19400     19403     19404     19401     19400     19403     19405
     19401     19400     19403     19406     19402     19400     19403     19404
     19402     19400     19403     19405     19402     19400     19403     19406
     19403     19406     19409     19410     19403     19406     19409     19411
     19403     19406     19409     19412     19404     19403     19406     19407
     19404     19403     19406     19408     19404     19403     19406     19409
     19405     19403     19406     19407     19405     19403     19406     19408
     19405     19403     19406     19409     19406     19409     19412     19413
     19406     19409     19412     19414     19406     19409     19412     19415
     19407     19406     19409     19410     19407     19406     19409     19411
     19407     19406     19409     19412     19408     19406     19409     19410
     19408     19406     19409     19411     19408     19406     19409     19412
     19409     19412     19415     19416     19409     19412     19415     19417
     19409     19412     19415     19418     19410     19409     19412     19413
     19410     19409     19412     19414     19410     19409     19412     19415
     19411     19409     19412     19413     19411     19409     19412     19414
     19411     19409     19412     19415     19412     19415     19418     19419
     19412     19415     19418     19420     19412     19415     19418     19421
     19413     19412     19415     19416     19413     19412     19415     19417
     19413     19412     19415     19418     19414     19412     19415     19416
     19414     19412     19415     19417     19414     19412     19415     19418
     19416     19415     19418     19419     19416     19415     19418     19420
     19416     19415     19418     19421     19417     19415     19418     19419
     19417     19415     19418     19420     19417     19415     19418     19421
     19422     19426     19429     19430     19422     19426     19429     19431
     19422     19426     19429     19436     19423     19422     19426     19427
     19423     19422     19426     19428     19423     19422     19426     19429
     19424     19422     19426     19427     19424     19422     19426     19428
     19424     19422     19426     19429     19425     19422     19426     19427
     19425     19422     19426     19428     19425     19422     19426     19429
     19426     19429     19436     19432     19427     19426     19429     19430
     19427     19426     19429     19431     19427     19426     19429     19436
     19428     19426     19429     19430     19428     19426     19429     19431
     19428     19426     19429     19436     19429     19436     19432     19433
     19429     19436     19432     19434     19429     19436     19432     19435
     19430     19429     19436     19432     19431     19429     19436     19432
     19432     19435     19437     19438     19432     19435     19437     19439
     19432     19435     19437     19440     19433     19432     19435     19437
     19434     19432     19435     19437     19435     19437     19440     19441
     19435     19437     19440     19442     19435     19437     19440     19448
     19436     19432     19435     19437     19437     19440     19442     19443
     19437     19440     19448     19449     19437     19440     19448     19450
     19437     19440     19448     19451     19438     19437     19440     19441
     19438     19437     19440     19442     19438     19437     19440     19448
     19439     19437     19440     19441     19439     19437     19440     19442
     19439     19437     19440     19448     19440     19442     19443     19444
     19440     19442     19443     19445     19440     19448     19451     19452
     19441     19440     19442     19443     19441     19440     19448     19449
     19441     19440     19448     19450     19441     19440     19448     19451
     19442     19440     19448     19449     19442     19440     19448     19450
     19442     19440     19448     19451     19442     19443     19445     19446
     19442     19443     19445     19447     19442     19443     19445     19457
     19443     19442     19440     19448     19443     19445     19457     19458
     19443     19445     19457     19459     19443     19445     19457     19460
     19444     19443     19445     19446     19444     19443     19445     19447
     19444     19443     19445     19457     19445     19457     19460     19461
     19445     19457     19460     19462     19445     19457     19460     19463
     19446     19445     19457     19458     19446     19445     19457     19459
     19446     19445     19457     19460     19447     19445     19457     19458
     19447     19445     19457     19459     19447     19445     19457     19460
     19448     19451     19452     19453     19448     19451     19452     19454
     19449     19448     19451     19452     19450     19448     19451     19452
     19451     19452     19454     19455     19451     19452     19454     19456
     19451     19452     19454     19501     19452     19454     19501     19502
     19452     19454     19501     19503     19452     19454     19501     19504
     19453     19452     19454     19455     19453     19452     19454     19456
     19453     19452     19454     19501     19454     19501     19504     19505
     19454     19501     19504     19506     19454     19501     19504     19507
     19455     19454     19501     19502     19455     19454     19501     19503
     19455     19454     19501     19504     19456     19454     19501     19502
     19456     19454     19501     19503     19456     19454     19501     19504
     19457     19460     19463     19464     19457     19460     19463     19465
     19457     19460     19463     19466     19458     19457     19460     19461
     19458     19457     19460     19462     19458     19457     19460     19463
     19459     19457     19460     19461     19459     19457     19460     19462
     19459     19457     19460     19463     19460     19463     19466     19467
     19460     19463     19466     19468     19460     19463     19466     19469
     19461     19460     19463     19464     19461     19460     19463     19465
     19461     19460     19463     19466     19462     19460     19463     19464
     19462     19460     19463     19465     19462     19460     19463     19466
     19463     19466     19469     19470     19463     19466     19469     19471
     19463     19466     19469     19472     19464     19463     19466     19467
     19464     19463     19466     19468     19464     19463     19466     19469
     19465     19463     19466     19467     19465     19463     19466     19468
     19465     19463     19466     19469     19466     19469     19472     19473
     19466     19469     19472     19474     19466     19469     19472     19475
     19467     19466     19469     19470     19467     19466     19469     19471
     19467     19466     19469     19472     19468     19466     19469     19470
     19468     19466     19469     19471     19468     19466     19469     19472
     19469     19472     19475     19476     19469     19472     19475     19477
     19469     19472     19475     19480     19470     19469     19472     19473
     19470     19469     19472     19474     19470     19469     19472     19475
     19471     19469     19472     19473     19471     19469     19472     19474
     19471     19469     19472     19475     19472     19475     19477     19478
     19472     19475     19477     19479     19472     19475     19477     19480
     19472     19475     19480     19477     19472     19475     19480     19481
     19472     19475     19480     19482     19473     19472     19475     19476
     19473     19472     19475     19477     19473     19472     19475     19480
     19474     19472     19475     19476     19474     19472     19475     19477
     19474     19472     19475     19480     19475     19477     19480     19481
     19475     19477     19480     19482     19475     19480     19477     19478
     19475     19480     19477     19479     19475     19480     19482     19483
     19475     19480     19482     19484     19475     19480     19482     19485
     19476     19475     19477     19478     19476     19475     19477     19479
     19476     19475     19477     19480     19476     19475     19480     19477
     19476     19475     19480     19481     19476     19475     19480     19482
     19477     19475     19480     19481     19477     19475     19480     19482
     19477     19480     19482     19483     19477     19480     19482     19484
     19477     19480     19482     19485     19478     19477     19475     19480
     19478     19477     19480     19481     19478     19477     19480     19482
     19479     19477     19475     19480     19479     19477     19480     19481
     19479     19477     19480     19482     19480     19482     19485     19486
     19480     19482     19485     19487     19480     19482     19485     19488
     19481     19480     19482     19483     19481     19480     19482     19484
     19481     19480     19482     19485     19482     19485     19488     19489
     19482     19485     19488     19490     19482     19485     19488     19491
     19483     19482     19485     19486     19483     19482     19485     19487
     19483     19482     19485     19488     19484     19482     19485     19486
     19484     19482     19485     19487     19484     19482     19485     19488
     19485     19488     19491     19492     19485     19488     19491     19493
     19485     19488     19491     19494     19486     19485     19488     19489
     19486     19485     19488     19490     19486     19485     19488     19491
     19487     19485     19488     19489     19487     19485     19488     19490
     19487     19485     19488     19491     19488     19491     19494     19495
     19488     19491     19494     19496     19488     19491     19494     19497
     19489     19488     19491     19492     19489     19488     19491     19493
     19489     19488     19491     19494     19490     19488     19491     19492
     19490     19488     19491     19493     19490     19488     19491     19494
     19491     19494     19497     19498     19491     19494     19497     19499
     19491     19494     19497     19500     19492     19491     19494     19495
     19492     19491     19494     19496     19492     19491     19494     19497
     19493     19491     19494     19495     19493     19491     19494     19496
     19493     19491     19494     19497     19495     19494     19497     19498
     19495     19494     19497     19499     19495     19494     19497     19500
     19496     19494     19497     19498     19496     19494     19497     19499
     19496     19494     19497     19500     19501     19504     19507     19508
     19501     19504     19507     19509     19501     19504     19507     19510
     19502     19501     19504     19505     19502     19501     19504     19506
     19502     19501     19504     19507     19503     19501     19504     19505
     19503     19501     19504     19506     19503     19501     19504     19507
     19504     19507     19510     19511     19504     19507     19510     19512
     19504     19507     19510     19513     19505     19504     19507     19508
     19505     19504     19507     19509     19505     19504     19507     19510
     19506     19504     19507     19508     19506     19504     19507     19509
     19506     19504     19507     19510     19507     19510     19513     19514
     19507     19510     19513     19515     19507     19510     19513     19516
     19508     19507     19510     19511     19508     19507     19510     19512
     19508     19507     19510     19513     19509     19507     19510     19511
     19509     19507     19510     19512     19509     19507     19510     19513
     19510     19513     19516     19517     19510     19513     19516     19518
     19510     19513     19516     19519     19511     19510     19513     19514
     19511     19510     19513     19515     19511     19510     19513     19516
     19512     19510     19513     19514     19512     19510     19513     19515
     19512     19510     19513     19516     19513     19516     19519     19520
     19513     19516     19519     19521     19513     19516     19519     19522
     19514     19513     19516     19517     19514     19513     19516     19518
     19514     19513     19516     19519     19515     19513     19516     19517
     19515     19513     19516     19518     19515     19513     19516     19519
     19516     19519     19522     19523     19516     19519     19522     19524
     19516     19519     19522     19525     19517     19516     19519     19520
     19517     19516     19519     19521     19517     19516     19519     19522
     19518     19516     19519     19520     19518     19516     19519     19521
     19518     19516     19519     19522     19519     19522     19525     19526
     19519     19522     19525     19527     19519     19522     19525     19528
     19520     19519     19522     19523     19520     19519     19522     19524
     19520     19519     19522     19525     19521     19519     19522     19523
     19521     19519     19522     19524     19521     19519     19522     19525
     19522     19525     19528     19529     19522     19525     19528     19530
     19522     19525     19528     19531     19523     19522     19525     19526
     19523     19522     19525     19527     19523     19522     19525     19528
     19524     19522     19525     19526     19524     19522     19525     19527
     19524     19522     19525     19528     19525     19528     19531     19532
     19525     19528     19531     19533     19525     19528     19531     19534
     19526     19525     19528     19529     19526     19525     19528     19530
     19526     19525     19528     19531     19527     19525     19528     19529
     19527     19525     19528     19530     19527     19525     19528     19531
     19528     19531     19534     19535     19528     19531     19534     19536
     19528     19531     19534     19537     19529     19528     19531     19532
     19529     19528     19531     19533     19529     19528     19531     19534
     19530     19528     19531     19532     19530     19528     19531     19533
     19530     19528     19531     19534     19531     19534     19537     19538
     19531     19534     19537     19539     19531     19534     19537     19540
     19532     19531     19534     19535     19532     19531     19534     19536
     19532     19531     19534     19537     19533     19531     19534     19535
     19533     19531     19534     19536     19533     19531     19534     19537
     19534     19537     19540     19541     19534     19537     19540     19542
     19534     19537     19540     19543     19535     19534     19537     19538
     19535     19534     19537     19539     19535     19534     19537     19540
     19536     19534     19537     19538     19536     19534     19537     19539
     19536     19534     19537     19540     19538     19537     19540     19541
     19538     19537     19540     19542     19538     19537     19540     19543
     19539     19537     19540     19541     19539     19537     19540     19542
     19539     19537     19540     19543     19544     19548     19551     19552
     19544     19548     19551     19553     19544     19548     19551     19558
     19545     19544     19548     19549     19545     19544     19548     19550
     19545     19544     19548     19551     19546     19544     19548     19549
     19546     19544     19548     19550     19546     19544     19548     19551
     19547     19544     19548     19549     19547     19544     19548     19550
     19547     19544     19548     19551     19548     19551     19558     19554
     19549     19548     19551     19552     19549     19548     19551     19553
     19549     19548     19551     19558     19550     19548     19551     19552
     19550     19548     19551     19553     19550     19548     19551     19558
     19551     19558     19554     19555     19551     19558     19554     19556
     19551     19558     19554     19557     19552     19551     19558     19554
     19553     19551     19558     19554     19554     19557     19559     19560
     19554     19557     19559     19561     19554     19557     19559     19562
     19555     19554     19557     19559     19556     19554     19557     19559
     19557     19559     19562     19563     19557     19559     19562     19564
     19557     19559     19562     19570     19558     19554     19557     19559
     19559     19562     19564     19565     19559     19562     19570     19571
     19559     19562     19570     19572     19559     19562     19570     19573
     19560     19559     19562     19563     19560     19559     19562     19564
     19560     19559     19562     19570     19561     19559     19562     19563
     19561     19559     19562     19564     19561     19559     19562     19570
     19562     19564     19565     19566     19562     19564     19565     19567
     19562     19570     19573     19574     19563     19562     19564     19565
     19563     19562     19570     19571     19563     19562     19570     19572
     19563     19562     19570     19573     19564     19562     19570     19571
     19564     19562     19570     19572     19564     19562     19570     19573
     19564     19565     19567     19568     19564     19565     19567     19569
     19564     19565     19567     19579     19565     19564     19562     19570
     19565     19567     19579     19580     19565     19567     19579     19581
     19565     19567     19579     19582     19566     19565     19567     19568
     19566     19565     19567     19569     19566     19565     19567     19579
     19567     19579     19582     19583     19567     19579     19582     19584
     19567     19579     19582     19585     19568     19567     19579     19580
     19568     19567     19579     19581     19568     19567     19579     19582
     19569     19567     19579     19580     19569     19567     19579     19581
     19569     19567     19579     19582     19570     19573     19574     19575
     19570     19573     19574     19576     19571     19570     19573     19574
     19572     19570     19573     19574     19573     19574     19576     19577
     19573     19574     19576     19578     19573     19574     19576     19623
     19574     19576     19623     19624     19574     19576     19623     19625
     19574     19576     19623     19626     19575     19574     19576     19577
     19575     19574     19576     19578     19575     19574     19576     19623
     19576     19623     19626     19627     19576     19623     19626     19628
     19576     19623     19626     19629     19577     19576     19623     19624
     19577     19576     19623     19625     19577     19576     19623     19626
     19578     19576     19623     19624     19578     19576     19623     19625
     19578     19576     19623     19626     19579     19582     19585     19586
     19579     19582     19585     19587     19579     19582     19585     19588
     19580     19579     19582     19583     19580     19579     19582     19584
     19580     19579     19582     19585     19581     19579     19582     19583
     19581     19579     19582     19584     19581     19579     19582     19585
     19582     19585     19588     19589     19582     19585     19588     19590
     19582     19585     19588     19591     19583     19582     19585     19586
     19583     19582     19585     19587     19583     19582     19585     19588
     19584     19582     19585     19586     19584     19582     19585     19587
     19584     19582     19585     19588     19585     19588     19591     19592
     19585     19588     19591     19593     19585     19588     19591     19594
     19586     19585     19588     19589     19586     19585     19588     19590
     19586     19585     19588     19591     19587     19585     19588     19589
     19587     19585     19588     19590     19587     19585     19588     19591
     19588     19591     19594     19595     19588     19591     19594     19596
     19588     19591     19594     19597     19589     19588     19591     19592
     19589     19588     19591     19593     19589     19588     19591     19594
     19590     19588     19591     19592     19590     19588     19591     19593
     19590     19588     19591     19594     19591     19594     19597     19598
     19591     19594     19597     19599     19591     19594     19597     19602
     19592     19591     19594     19595     19592     19591     19594     19596
     19592     19591     19594     19597     19593     19591     19594     19595
     19593     19591     19594     19596     19593     19591     19594     19597
     19594     19597     19599     19600     19594     19597     19599     19601
     19594     19597     19599     19602     19594     19597     19602     19599
     19594     19597     19602     19603     19594     19597     19602     19604
     19595     19594     19597     19598     19595     19594     19597     19599
     19595     19594     19597     19602     19596     19594     19597     19598
     19596     19594     19597     19599     19596     19594     19597     19602
     19597     19599     19602     19603     19597     19599     19602     19604
     19597     19602     19599     19600     19597     19602     19599     19601
     19597     19602     19604     19605     19597     19602     19604     19606
     19597     19602     19604     19607     19598     19597     19599     19600
     19598     19597     19599     19601     19598     19597     19599     19602
     19598     19597     19602     19599     19598     19597     19602     19603
     19598     19597     19602     19604     19599     19597     19602     19603
     19599     19597     19602     19604     19599     19602     19604     19605
     19599     19602     19604     19606     19599     19602     19604     19607
     19600     19599     19597     19602     19600     19599     19602     19603
     19600     19599     19602     19604     19601     19599     19597     19602
     19601     19599     19602     19603     19601     19599     19602     19604
     19602     19604     19607     19608     19602     19604     19607     19609
     19602     19604     19607     19610     19603     19602     19604     19605
     19603     19602     19604     19606     19603     19602     19604     19607
     19604     19607     19610     19611     19604     19607     19610     19612
     19604     19607     19610     19613     19605     19604     19607     19608
     19605     19604     19607     19609     19605     19604     19607     19610
     19606     19604     19607     19608     19606     19604     19607     19609
     19606     19604     19607     19610     19607     19610     19613     19614
     19607     19610     19613     19615     19607     19610     19613     19616
     19608     19607     19610     19611     19608     19607     19610     19612
     19608     19607     19610     19613     19609     19607     19610     19611
     19609     19607     19610     19612     19609     19607     19610     19613
     19610     19613     19616     19617     19610     19613     19616     19618
     19610     19613     19616     19619     19611     19610     19613     19614
     19611     19610     19613     19615     19611     19610     19613     19616
     19612     19610     19613     19614     19612     19610     19613     19615
     19612     19610     19613     19616     19613     19616     19619     19620
     19613     19616     19619     19621     19613     19616     19619     19622
     19614     19613     19616     19617     19614     19613     19616     19618
     19614     19613     19616     19619     19615     19613     19616     19617
     19615     19613     19616     19618     19615     19613     19616     19619
     19617     19616     19619     19620     19617     19616     19619     19621
     19617     19616     19619     19622     19618     19616     19619     19620
     19618     19616     19619     19621     19618     19616     19619     19622
     19623     19626     19629     19630     19623     19626     19629     19631
     19623     19626     19629     19632     19624     19623     19626     19627
     19624     19623     19626     19628     19624     19623     19626     19629
     19625     19623     19626     19627     19625     19623     19626     19628
     19625     19623     19626     19629     19626     19629     19632     19633
     19626     19629     19632     19634     19626     19629     19632     19635
     19627     19626     19629     19630     19627     19626     19629     19631
     19627     19626     19629     19632     19628     19626     19629     19630
     19628     19626     19629     19631     19628     19626     19629     19632
     19629     19632     19635     19636     19629     19632     19635     19637
     19629     19632     19635     19638     19630     19629     19632     19633
     19630     19629     19632     19634     19630     19629     19632     19635
     19631     19629     19632     19633     19631     19629     19632     19634
     19631     19629     19632     19635     19632     19635     19638     19639
     19632     19635     19638     19640     19632     19635     19638     19641
     19633     19632     19635     19636     19633     19632     19635     19637
     19633     19632     19635     19638     19634     19632     19635     19636
     19634     19632     19635     19637     19634     19632     19635     19638
     19635     19638     19641     19642     19635     19638     19641     19643
     19635     19638     19641     19644     19636     19635     19638     19639
     19636     19635     19638     19640     19636     19635     19638     19641
     19637     19635     19638     19639     19637     19635     19638     19640
     19637     19635     19638     19641     19638     19641     19644     19645
     19638     19641     19644     19646     19638     19641     19644     19647
     19639     19638     19641     19642     19639     19638     19641     19643
     19639     19638     19641     19644     19640     19638     19641     19642
     19640     19638     19641     19643     19640     19638     19641     19644
     19641     19644     19647     19648     19641     19644     19647     19649
     19641     19644     19647     19650     19642     19641     19644     19645
     19642     19641     19644     19646     19642     19641     19644     19647
     19643     19641     19644     19645     19643     19641     19644     19646
     19643     19641     19644     19647     19644     19647     19650     19651
     19644     19647     19650     19652     19644     19647     19650     19653
     19645     19644     19647     19648     19645     19644     19647     19649
     19645     19644     19647     19650     19646     19644     19647     19648
     19646     19644     19647     19649     19646     19644     19647     19650
     19647     19650     19653     19654     19647     19650     19653     19655
     19647     19650     19653     19656     19648     19647     19650     19651
     19648     19647     19650     19652     19648     19647     19650     19653
     19649     19647     19650     19651     19649     19647     19650     19652
     19649     19647     19650     19653     19650     19653     19656     19657
     19650     19653     19656     19658     19650     19653     19656     19659
     19651     19650     19653     19654     19651     19650     19653     19655
     19651     19650     19653     19656     19652     19650     19653     19654
     19652     19650     19653     19655     19652     19650     19653     19656
     19653     19656     19659     19660     19653     19656     19659     19661
     19653     19656     19659     19662     19654     19653     19656     19657
     19654     19653     19656     19658     19654     19653     19656     19659
     19655     19653     19656     19657     19655     19653     19656     19658
     19655     19653     19656     19659     19656     19659     19662     19663
     19656     19659     19662     19664     19656     19659     19662     19665
     19657     19656     19659     19660     19657     19656     19659     19661
     19657     19656     19659     19662     19658     19656     19659     19660
     19658     19656     19659     19661     19658     19656     19659     19662
     19660     19659     19662     19663     19660     19659     19662     19664
     19660     19659     19662     19665     19661     19659     19662     19663
     19661     19659     19662     19664     19661     19659     19662     19665
     19666     19670     19673     19674     19666     19670     19673     19675
     19666     19670     19673     19680     19667     19666     19670     19671
     19667     19666     19670     19672     19667     19666     19670     19673
     19668     19666     19670     19671     19668     19666     19670     19672
     19668     19666     19670     19673     19669     19666     19670     19671
     19669     19666     19670     19672     19669     19666     19670     19673
     19670     19673     19680     19676     19671     19670     19673     19674
     19671     19670     19673     19675     19671     19670     19673     19680
     19672     19670     19673     19674     19672     19670     19673     19675
     19672     19670     19673     19680     19673     19680     19676     19677
     19673     19680     19676     19678     19673     19680     19676     19679
     19674     19673     19680     19676     19675     19673     19680     19676
     19676     19679     19681     19682     19676     19679     19681     19683
     19676     19679     19681     19684     19677     19676     19679     19681
     19678     19676     19679     19681     19679     19681     19684     19685
     19679     19681     19684     19686     19679     19681     19684     19692
     19680     19676     19679     19681     19681     19684     19686     19687
     19681     19684     19692     19693     19681     19684     19692     19694
     19681     19684     19692     19695     19682     19681     19684     19685
     19682     19681     19684     19686     19682     19681     19684     19692
     19683     19681     19684     19685     19683     19681     19684     19686
     19683     19681     19684     19692     19684     19686     19687     19688
     19684     19686     19687     19689     19684     19692     19695     19696
     19685     19684     19686     19687     19685     19684     19692     19693
     19685     19684     19692     19694     19685     19684     19692     19695
     19686     19684     19692     19693     19686     19684     19692     19694
     19686     19684     19692     19695     19686     19687     19689     19690
     19686     19687     19689     19691     19686     19687     19689     19701
     19687     19686     19684     19692     19687     19689     19701     19702
     19687     19689     19701     19703     19687     19689     19701     19704
     19688     19687     19689     19690     19688     19687     19689     19691
     19688     19687     19689     19701     19689     19701     19704     19705
     19689     19701     19704     19706     19689     19701     19704     19707
     19690     19689     19701     19702     19690     19689     19701     19703
     19690     19689     19701     19704     19691     19689     19701     19702
     19691     19689     19701     19703     19691     19689     19701     19704
     19692     19695     19696     19697     19692     19695     19696     19698
     19693     19692     19695     19696     19694     19692     19695     19696
     19695     19696     19698     19699     19695     19696     19698     19700
     19695     19696     19698     19745     19696     19698     19745     19746
     19696     19698     19745     19747     19696     19698     19745     19748
     19697     19696     19698     19699     19697     19696     19698     19700
     19697     19696     19698     19745     19698     19745     19748     19749
     19698     19745     19748     19750     19698     19745     19748     19751
     19699     19698     19745     19746     19699     19698     19745     19747
     19699     19698     19745     19748     19700     19698     19745     19746
     19700     19698     19745     19747     19700     19698     19745     19748
     19701     19704     19707     19708     19701     19704     19707     19709
     19701     19704     19707     19710     19702     19701     19704     19705
     19702     19701     19704     19706     19702     19701     19704     19707
     19703     19701     19704     19705     19703     19701     19704     19706
     19703     19701     19704     19707     19704     19707     19710     19711
     19704     19707     19710     19712     19704     19707     19710     19713
     19705     19704     19707     19708     19705     19704     19707     19709
     19705     19704     19707     19710     19706     19704     19707     19708
     19706     19704     19707     19709     19706     19704     19707     19710
     19707     19710     19713     19714     19707     19710     19713     19715
     19707     19710     19713     19716     19708     19707     19710     19711
     19708     19707     19710     19712     19708     19707     19710     19713
     19709     19707     19710     19711     19709     19707     19710     19712
     19709     19707     19710     19713     19710     19713     19716     19717
     19710     19713     19716     19718     19710     19713     19716     19719
     19711     19710     19713     19714     19711     19710     19713     19715
     19711     19710     19713     19716     19712     19710     19713     19714
     19712     19710     19713     19715     19712     19710     19713     19716
     19713     19716     19719     19720     19713     19716     19719     19721
     19713     19716     19719     19724     19714     19713     19716     19717
     19714     19713     19716     19718     19714     19713     19716     19719
     19715     19713     19716     19717     19715     19713     19716     19718
     19715     19713     19716     19719     19716     19719     19721     19722
     19716     19719     19721     19723     19716     19719     19721     19724
     19716     19719     19724     19721     19716     19719     19724     19725
     19716     19719     19724     19726     19717     19716     19719     19720
     19717     19716     19719     19721     19717     19716     19719     19724
     19718     19716     19719     19720     19718     19716     19719     19721
     19718     19716     19719     19724     19719     19721     19724     19725
     19719     19721     19724     19726     19719     19724     19721     19722
     19719     19724     19721     19723     19719     19724     19726     19727
     19719     19724     19726     19728     19719     19724     19726     19729
     19720     19719     19721     19722     19720     19719     19721     19723
     19720     19719     19721     19724     19720     19719     19724     19721
     19720     19719     19724     19725     19720     19719     19724     19726
     19721     19719     19724     19725     19721     19719     19724     19726
     19721     19724     19726     19727     19721     19724     19726     19728
     19721     19724     19726     19729     19722     19721     19719     19724
     19722     19721     19724     19725     19722     19721     19724     19726
     19723     19721     19719     19724     19723     19721     19724     19725
     19723     19721     19724     19726     19724     19726     19729     19730
     19724     19726     19729     19731     19724     19726     19729     19732
     19725     19724     19726     19727     19725     19724     19726     19728
     19725     19724     19726     19729     19726     19729     19732     19733
     19726     19729     19732     19734     19726     19729     19732     19735
     19727     19726     19729     19730     19727     19726     19729     19731
     19727     19726     19729     19732     19728     19726     19729     19730
     19728     19726     19729     19731     19728     19726     19729     19732
     19729     19732     19735     19736     19729     19732     19735     19737
     19729     19732     19735     19738     19730     19729     19732     19733
     19730     19729     19732     19734     19730     19729     19732     19735
     19731     19729     19732     19733     19731     19729     19732     19734
     19731     19729     19732     19735     19732     19735     19738     19739
     19732     19735     19738     19740     19732     19735     19738     19741
     19733     19732     19735     19736     19733     19732     19735     19737
     19733     19732     19735     19738     19734     19732     19735     19736
     19734     19732     19735     19737     19734     19732     19735     19738
     19735     19738     19741     19742     19735     19738     19741     19743
     19735     19738     19741     19744     19736     19735     19738     19739
     19736     19735     19738     19740     19736     19735     19738     19741
     19737     19735     19738     19739     19737     19735     19738     19740
     19737     19735     19738     19741     19739     19738     19741     19742
     19739     19738     19741     19743     19739     19738     19741     19744
     19740     19738     19741     19742     19740     19738     19741     19743
     19740     19738     19741     19744     19745     19748     19751     19752
     19745     19748     19751     19753     19745     19748     19751     19754
     19746     19745     19748     19749     19746     19745     19748     19750
     19746     19745     19748     19751     19747     19745     19748     19749
     19747     19745     19748     19750     19747     19745     19748     19751
     19748     19751     19754     19755     19748     19751     19754     19756
     19748     19751     19754     19757     19749     19748     19751     19752
     19749     19748     19751     19753     19749     19748     19751     19754
     19750     19748     19751     19752     19750     19748     19751     19753
     19750     19748     19751     19754     19751     19754     19757     19758
     19751     19754     19757     19759     19751     19754     19757     19760
     19752     19751     19754     19755     19752     19751     19754     19756
     19752     19751     19754     19757     19753     19751     19754     19755
     19753     19751     19754     19756     19753     19751     19754     19757
     19754     19757     19760     19761     19754     19757     19760     19762
     19754     19757     19760     19763     19755     19754     19757     19758
     19755     19754     19757     19759     19755     19754     19757     19760
     19756     19754     19757     19758     19756     19754     19757     19759
     19756     19754     19757     19760     19757     19760     19763     19764
     19757     19760     19763     19765     19757     19760     19763     19766
     19758     19757     19760     19761     19758     19757     19760     19762
     19758     19757     19760     19763     19759     19757     19760     19761
     19759     19757     19760     19762     19759     19757     19760     19763
     19760     19763     19766     19767     19760     19763     19766     19768
     19760     19763     19766     19769     19761     19760     19763     19764
     19761     19760     19763     19765     19761     19760     19763     19766
     19762     19760     19763     19764     19762     19760     19763     19765
     19762     19760     19763     19766     19763     19766     19769     19770
     19763     19766     19769     19771     19763     19766     19769     19772
     19764     19763     19766     19767     19764     19763     19766     19768
     19764     19763     19766     19769     19765     19763     19766     19767
     19765     19763     19766     19768     19765     19763     19766     19769
     19766     19769     19772     19773     19766     19769     19772     19774
     19766     19769     19772     19775     19767     19766     19769     19770
     19767     19766     19769     19771     19767     19766     19769     19772
     19768     19766     19769     19770     19768     19766     19769     19771
     19768     19766     19769     19772     19769     19772     19775     19776
     19769     19772     19775     19777     19769     19772     19775     19778
     19770     19769     19772     19773     19770     19769     19772     19774
     19770     19769     19772     19775     19771     19769     19772     19773
     19771     19769     19772     19774     19771     19769     19772     19775
     19772     19775     19778     19779     19772     19775     19778     19780
     19772     19775     19778     19781     19773     19772     19775     19776
     19773     19772     19775     19777     19773     19772     19775     19778
     19774     19772     19775     19776     19774     19772     19775     19777
     19774     19772     19775     19778     19775     19778     19781     19782
     19775     19778     19781     19783     19775     19778     19781     19784
     19776     19775     19778     19779     19776     19775     19778     19780
     19776     19775     19778     19781     19777     19775     19778     19779
     19777     19775     19778     19780     19777     19775     19778     19781
     19779     19778     19781     19782     19779     19778     19781     19783
     19779     19778     19781     19784     19780     19778     19781     19782
     19780     19778     19781     19783     19780     19778     19781     19784
     19785     19789     19792     19793     19785     19789     19792     19794
     19785     19789     19792     19799     19786     19785     19789     19790
     19786     19785     19789     19791     19786     19785     19789     19792
     19787     19785     19789     19790     19787     19785     19789     19791
     19787     19785     19789     19792     19788     19785     19789     19790
     19788     19785     19789     19791     19788     19785     19789     19792
     19789     19792     19799     19795     19790     19789     19792     19793
     19790     19789     19792     19794     19790     19789     19792     19799
     19791     19789     19792     19793     19791     19789     19792     19794
     19791     19789     19792     19799     19792     19799     19795     19796
     19792     19799     19795     19797     19792     19799     19795     19798
     19793     19792     19799     19795     19794     19792     19799     19795
     19795     19798     19800     19801     19795     19798     19800     19802
     19795     19798     19800     19803     19796     19795     19798     19800
     19797     19795     19798     19800     19798     19800     19803     19804
     19798     19800     19803     19805     19798     19800     19803     19811
     19799     19795     19798     19800     19800     19803     19805     19806
     19800     19803     19811     19812     19800     19803     19811     19813
     19800     19803     19811     19814     19801     19800     19803     19804
     19801     19800     19803     19805     19801     19800     19803     19811
     19802     19800     19803     19804     19802     19800     19803     19805
     19802     19800     19803     19811     19803     19805     19806     19807
     19803     19805     19806     19808     19803     19811     19814     19815
     19804     19803     19805     19806     19804     19803     19811     19812
     19804     19803     19811     19813     19804     19803     19811     19814
     19805     19803     19811     19812     19805     19803     19811     19813
     19805     19803     19811     19814     19805     19806     19808     19809
     19805     19806     19808     19810     19805     19806     19808     19820
     19806     19805     19803     19811     19806     19808     19820     19821
     19806     19808     19820     19822     19806     19808     19820     19823
     19807     19806     19808     19809     19807     19806     19808     19810
     19807     19806     19808     19820     19808     19820     19823     19824
     19808     19820     19823     19825     19808     19820     19823     19826
     19809     19808     19820     19821     19809     19808     19820     19822
     19809     19808     19820     19823     19810     19808     19820     19821
     19810     19808     19820     19822     19810     19808     19820     19823
     19811     19814     19815     19816     19811     19814     19815     19817
     19812     19811     19814     19815     19813     19811     19814     19815
     19814     19815     19817     19818     19814     19815     19817     19819
     19814     19815     19817     19864     19815     19817     19864     19865
     19815     19817     19864     19866     19815     19817     19864     19867
     19816     19815     19817     19818     19816     19815     19817     19819
     19816     19815     19817     19864     19817     19864     19867     19868
     19817     19864     19867     19869     19817     19864     19867     19870
     19818     19817     19864     19865     19818     19817     19864     19866
     19818     19817     19864     19867     19819     19817     19864     19865
     19819     19817     19864     19866     19819     19817     19864     19867
     19820     19823     19826     19827     19820     19823     19826     19828
     19820     19823     19826     19829     19821     19820     19823     19824
     19821     19820     19823     19825     19821     19820     19823     19826
     19822     19820     19823     19824     19822     19820     19823     19825
     19822     19820     19823     19826     19823     19826     19829     19830
     19823     19826     19829     19831     19823     19826     19829     19832
     19824     19823     19826     19827     19824     19823     19826     19828
     19824     19823     19826     19829     19825     19823     19826     19827
     19825     19823     19826     19828     19825     19823     19826     19829
     19826     19829     19832     19833     19826     19829     19832     19834
     19826     19829     19832     19835     19827     19826     19829     19830
     19827     19826     19829     19831     19827     19826     19829     19832
     19828     19826     19829     19830     19828     19826     19829     19831
     19828     19826     19829     19832     19829     19832     19835     19836
     19829     19832     19835     19837     19829     19832     19835     19838
     19830     19829     19832     19833     19830     19829     19832     19834
     19830     19829     19832     19835     19831     19829     19832     19833
     19831     19829     19832     19834     19831     19829     19832     19835
     19832     19835     19838     19839     19832     19835     19838     19840
     19832     19835     19838     19843     19833     19832     19835     19836
     19833     19832     19835     19837     19833     19832     19835     19838
     19834     19832     19835     19836     19834     19832     19835     19837
     19834     19832     19835     19838     19835     19838     19840     19841
     19835     19838     19840     19842     19835     19838     19840     19843
     19835     19838     19843     19840     19835     19838     19843     19844
     19835     19838     19843     19845     19836     19835     19838     19839
     19836     19835     19838     19840     19836     19835     19838     19843
     19837     19835     19838     19839     19837     19835     19838     19840
     19837     19835     19838     19843     19838     19840     19843     19844
     19838     19840     19843     19845     19838     19843     19840     19841
     19838     19843     19840     19842     19838     19843     19845     19846
     19838     19843     19845     19847     19838     19843     19845     19848
     19839     19838     19840     19841     19839     19838     19840     19842
     19839     19838     19840     19843     19839     19838     19843     19840
     19839     19838     19843     19844     19839     19838     19843     19845
     19840     19838     19843     19844     19840     19838     19843     19845
     19840     19843     19845     19846     19840     19843     19845     19847
     19840     19843     19845     19848     19841     19840     19838     19843
     19841     19840     19843     19844     19841     19840     19843     19845
     19842     19840     19838     19843     19842     19840     19843     19844
     19842     19840     19843     19845     19843     19845     19848     19849
     19843     19845     19848     19850     19843     19845     19848     19851
     19844     19843     19845     19846     19844     19843     19845     19847
     19844     19843     19845     19848     19845     19848     19851     19852
     19845     19848     19851     19853     19845     19848     19851     19854
     19846     19845     19848     19849     19846     19845     19848     19850
     19846     19845     19848     19851     19847     19845     19848     19849
     19847     19845     19848     19850     19847     19845     19848     19851
     19848     19851     19854     19855     19848     19851     19854     19856
     19848     19851     19854     19857     19849     19848     19851     19852
     19849     19848     19851     19853     19849     19848     19851     19854
     19850     19848     19851     19852     19850     19848     19851     19853
     19850     19848     19851     19854     19851     19854     19857     19858
     19851     19854     19857     19859     19851     19854     19857     19860
     19852     19851     19854     19855     19852     19851     19854     19856
     19852     19851     19854     19857     19853     19851     19854     19855
     19853     19851     19854     19856     19853     19851     19854     19857
     19854     19857     19860     19861     19854     19857     19860     19862
     19854     19857     19860     19863     19855     19854     19857     19858
     19855     19854     19857     19859     19855     19854     19857     19860
     19856     19854     19857     19858     19856     19854     19857     19859
     19856     19854     19857     19860     19858     19857     19860     19861
     19858     19857     19860     19862     19858     19857     19860     19863
     19859     19857     19860     19861     19859     19857     19860     19862
     19859     19857     19860     19863     19864     19867     19870     19871
     19864     19867     19870     19872     19864     19867     19870     19873
     19865     19864     19867     19868     19865     19864     19867     19869
     19865     19864     19867     19870     19866     19864     19867     19868
     19866     19864     19867     19869     19866     19864     19867     19870
     19867     19870     19873     19874     19867     19870     19873     19875
     19867     19870     19873     19876     19868     19867     19870     19871
     19868     19867     19870     19872     19868     19867     19870     19873
     19869     19867     19870     19871     19869     19867     19870     19872
     19869     19867     19870     19873     19870     19873     19876     19877
     19870     19873     19876     19878     19870     19873     19876     19879
     19871     19870     19873     19874     19871     19870     19873     19875
     19871     19870     19873     19876     19872     19870     19873     19874
     19872     19870     19873     19875     19872     19870     19873     19876
     19873     19876     19879     19880     19873     19876     19879     19881
     19873     19876     19879     19882     19874     19873     19876     19877
     19874     19873     19876     19878     19874     19873     19876     19879
     19875     19873     19876     19877     19875     19873     19876     19878
     19875     19873     19876     19879     19876     19879     19882     19883
     19876     19879     19882     19884     19876     19879     19882     19885
     19877     19876     19879     19880     19877     19876     19879     19881
     19877     19876     19879     19882     19878     19876     19879     19880
     19878     19876     19879     19881     19878     19876     19879     19882
     19879     19882     19885     19886     19879     19882     19885     19887
     19879     19882     19885     19888     19880     19879     19882     19883
     19880     19879     19882     19884     19880     19879     19882     19885
     19881     19879     19882     19883     19881     19879     19882     19884
     19881     19879     19882     19885     19882     19885     19888     19889
     19882     19885     19888     19890     19882     19885     19888     19891
     19883     19882     19885     19886     19883     19882     19885     19887
     19883     19882     19885     19888     19884     19882     19885     19886
     19884     19882     19885     19887     19884     19882     19885     19888
     19885     19888     19891     19892     19885     19888     19891     19893
     19885     19888     19891     19894     19886     19885     19888     19889
     19886     19885     19888     19890     19886     19885     19888     19891
     19887     19885     19888     19889     19887     19885     19888     19890
     19887     19885     19888     19891     19888     19891     19894     19895
     19888     19891     19894     19896     19888     19891     19894     19897
     19889     19888     19891     19892     19889     19888     19891     19893
     19889     19888     19891     19894     19890     19888     19891     19892
     19890     19888     19891     19893     19890     19888     19891     19894
     19891     19894     19897     19898     19891     19894     19897     19899
     19891     19894     19897     19900     19892     19891     19894     19895
     19892     19891     19894     19896     19892     19891     19894     19897
     19893     19891     19894     19895     19893     19891     19894     19896
     19893     19891     19894     19897     19894     19897     19900     19901
     19894     19897     19900     19902     19894     19897     19900     19903
     19895     19894     19897     19898     19895     19894     19897     19899
     19895     19894     19897     19900     19896     19894     19897     19898
     19896     19894     19897     19899     19896     19894     19897     19900
     19897     19900     19903     19904     19897     19900     19903     19905
     19897     19900     19903     19906     19898     19897     19900     19901
     19898     19897     19900     19902     19898     19897     19900     19903
     19899     19897     19900     19901     19899     19897     19900     19902
     19899     19897     19900     19903     19901     19900     19903     19904
     19901     19900     19903     19905     19901     19900     19903     19906
     19902     19900     19903     19904     19902     19900     19903     19905
     19902     19900     19903     19906     19907     19911     19914     19915
     19907     19911     19914     19916     19907     19911     19914     19921
     19908     19907     19911     19912     19908     19907     19911     19913
     19908     19907     19911     19914     19909     19907     19911     19912
     19909     19907     19911     19913     19909     19907     19911     19914
     19910     19907     19911     19912     19910     19907     19911     19913
     19910     19907     19911     19914     19911     19914     19921     19917
     19912     19911     19914     19915     19912     19911     19914     19916
     19912     19911     19914     19921     19913     19911     19914     19915
     19913     19911     19914     19916     19913     19911     19914     19921
     19914     19921     19917     19918     19914     19921     19917     19919
     19914     19921     19917     19920     19915     19914     19921     19917
     19916     19914     19921     19917     19917     19920     19922     19923
     19917     19920     19922     19924     19917     19920     19922     19925
     19918     19917     19920     19922     19919     19917     19920     19922
     19920     19922     19925     19926     19920     19922     19925     19927
     19920     19922     19925     19933     19921     19917     19920     19922
     19922     19925     19927     19928     19922     19925     19933     19934
     19922     19925     19933     19935     19922     19925     19933     19936
     19923     19922     19925     19926     19923     19922     19925     19927
     19923     19922     19925     19933     19924     19922     19925     19926
     19924     19922     19925     19927     19924     19922     19925     19933
     19925     19927     19928     19929     19925     19927     19928     19930
     19925     19933     19936     19937     19926     19925     19927     19928
     19926     19925     19933     19934     19926     19925     19933     19935
     19926     19925     19933     19936     19927     19925     19933     19934
     19927     19925     19933     19935     19927     19925     19933     19936
     19927     19928     19930     19931     19927     19928     19930     19932
     19927     19928     19930     19942     19928     19927     19925     19933
     19928     19930     19942     19943     19928     19930     19942     19944
     19928     19930     19942     19945     19929     19928     19930     19931
     19929     19928     19930     19932     19929     19928     19930     19942
     19930     19942     19945     19946     19930     19942     19945     19947
     19930     19942     19945     19948     19931     19930     19942     19943
     19931     19930     19942     19944     19931     19930     19942     19945
     19932     19930     19942     19943     19932     19930     19942     19944
     19932     19930     19942     19945     19933     19936     19937     19938
     19933     19936     19937     19939     19934     19933     19936     19937
     19935     19933     19936     19937     19936     19937     19939     19940
     19936     19937     19939     19941     19936     19937     19939     19989
     19937     19939     19989     19990     19937     19939     19989     19991
     19937     19939     19989     19992     19938     19937     19939     19940
     19938     19937     19939     19941     19938     19937     19939     19989
     19939     19989     19992     19993     19939     19989     19992     19994
     19939     19989     19992     19995     19940     19939     19989     19990
     19940     19939     19989     19991     19940     19939     19989     19992
     19941     19939     19989     19990     19941     19939     19989     19991
     19941     19939     19989     19992     19942     19945     19948     19949
     19942     19945     19948     19950     19942     19945     19948     19951
     19943     19942     19945     19946     19943     19942     19945     19947
     19943     19942     19945     19948     19944     19942     19945     19946
     19944     19942     19945     19947     19944     19942     19945     19948
     19945     19948     19951     19952     19945     19948     19951     19953
     19945     19948     19951     19954     19946     19945     19948     19949
     19946     19945     19948     19950     19946     19945     19948     19951
     19947     19945     19948     19949     19947     19945     19948     19950
     19947     19945     19948     19951     19948     19951     19954     19955
     19948     19951     19954     19956     19948     19951     19954     19957
     19949     19948     19951     19952     19949     19948     19951     19953
     19949     19948     19951     19954     19950     19948     19951     19952
     19950     19948     19951     19953     19950     19948     19951     19954
     19951     19954     19957     19958     19951     19954     19957     19959
     19951     19954     19957     19960     19952     19951     19954     19955
     19952     19951     19954     19956     19952     19951     19954     19957
     19953     19951     19954     19955     19953     19951     19954     19956
     19953     19951     19954     19957     19954     19957     19960     19961
     19954     19957     19960     19962     19955     19954     19957     19958
     19955     19954     19957     19959     19955     19954     19957     19960
     19956     19954     19957     19958     19956     19954     19957     19959
     19956     19954     19957     19960     19957     19960     19962     19963
     19957     19960     19962     19964     19958     19957     19960     19961
     19958     19957     19960     19962     19959     19957     19960     19961
     19959     19957     19960     19962     19960     19962     19964     19965
     19960     19962     19964     19966     19960     19962     19964     19967
     19961     19960     19962     19963     19961     19960     19962     19964
     19962     19964     19967     19968     19962     19964     19967     19969
     19962     19964     19967     19970     19963     19962     19964     19965
     19963     19962     19964     19966     19963     19962     19964     19967
     19964     19967     19970     19971     19964     19967     19970     19972
     19964     19967     19970     19973     19965     19964     19967     19968
     19965     19964     19967     19969     19965     19964     19967     19970
     19966     19964     19967     19968     19966     19964     19967     19969
     19966     19964     19967     19970     19967     19970     19973     19974
     19967     19970     19973     19975     19967     19970     19973     19976
     19968     19967     19970     19971     19968     19967     19970     19972
     19968     19967     19970     19973     19969     19967     19970     19971
     19969     19967     19970     19972     19969     19967     19970     19973
     19970     19973     19976     19977     19970     19973     19976     19978
     19970     19973     19976     19979     19971     19970     19973     19974
     19971     19970     19973     19975     19971     19970     19973     19976
     19972     19970     19973     19974     19972     19970     19973     19975
     19972     19970     19973     19976     19973     19976     19979     19980
     19973     19976     19979     19981     19973     19976     19979     19982
     19974     19973     19976     19977     19974     19973     19976     19978
     19974     19973     19976     19979     19975     19973     19976     19977
     19975     19973     19976     19978     19975     19973     19976     19979
     19976     19979     19982     19983     19976     19979     19982     19984
     19976     19979     19982     19985     19977     19976     19979     19980
     19977     19976     19979     19981     19977     19976     19979     19982
     19978     19976     19979     19980     19978     19976     19979     19981
     19978     19976     19979     19982     19979     19982     19985     19986
     19979     19982     19985     19987     19979     19982     19985     19988
     19980     19979     19982     19983     19980     19979     19982     19984
     19980     19979     19982     19985     19981     19979     19982     19983
     19981     19979     19982     19984     19981     19979     19982     19985
     19983     19982     19985     19986     19983     19982     19985     19987
     19983     19982     19985     19988     19984     19982     19985     19986
     19984     19982     19985     19987     19984     19982     19985     19988
     19989     19992     19995     19996     19989     19992     19995     19997
     19989     19992     19995     19998     19990     19989     19992     19993
     19990     19989     19992     19994     19990     19989     19992     19995
     19991     19989     19992     19993     19991     19989     19992     19994
     19991     19989     19992     19995     19992     19995     19998     19999
     19992     19995     19998     20000     19992     19995     19998     20001
     19993     19992     19995     19996     19993     19992     19995     19997
     19993     19992     19995     19998     19994     19992     19995     19996
     19994     19992     19995     19997     19994     19992     19995     19998
     19995     19998     20001     20002     19995     19998     20001     20003
     19995     19998     20001     20004     19996     19995     19998     19999
     19996     19995     19998     20000     19996     19995     19998     20001
     19997     19995     19998     19999     19997     19995     19998     20000
     19997     19995     19998     20001     19998     20001     20004     20005
     19998     20001     20004     20006     19998     20001     20004     20007
     19999     19998     20001     20002     19999     19998     20001     20003
     19999     19998     20001     20004     20000     19998     20001     20002
     20000     19998     20001     20003     20000     19998     20001     20004
     20001     20004     20007     20008     20001     20004     20007     20009
     20001     20004     20007     20010     20002     20001     20004     20005
     20002     20001     20004     20006     20002     20001     20004     20007
     20003     20001     20004     20005     20003     20001     20004     20006
     20003     20001     20004     20007     20004     20007     20010     20011
     20004     20007     20010     20012     20004     20007     20010     20013
     20005     20004     20007     20008     20005     20004     20007     20009
     20005     20004     20007     20010     20006     20004     20007     20008
     20006     20004     20007     20009     20006     20004     20007     20010
     20007     20010     20013     20014     20007     20010     20013     20015
     20007     20010     20013     20016     20008     20007     20010     20011
     20008     20007     20010     20012     20008     20007     20010     20013
     20009     20007     20010     20011     20009     20007     20010     20012
     20009     20007     20010     20013     20010     20013     20016     20017
     20010     20013     20016     20018     20010     20013     20016     20019
     20011     20010     20013     20014     20011     20010     20013     20015
     20011     20010     20013     20016     20012     20010     20013     20014
     20012     20010     20013     20015     20012     20010     20013     20016
     20013     20016     20019     20020     20013     20016     20019     20021
     20013     20016     20019     20022     20014     20013     20016     20017
     20014     20013     20016     20018     20014     20013     20016     20019
     20015     20013     20016     20017     20015     20013     20016     20018
     20015     20013     20016     20019     20016     20019     20022     20023
     20016     20019     20022     20024     20016     20019     20022     20025
     20017     20016     20019     20020     20017     20016     20019     20021
     20017     20016     20019     20022     20018     20016     20019     20020
     20018     20016     20019     20021     20018     20016     20019     20022
     20019     20022     20025     20026     20019     20022     20025     20027
     20019     20022     20025     20028     20020     20019     20022     20023
     20020     20019     20022     20024     20020     20019     20022     20025
     20021     20019     20022     20023     20021     20019     20022     20024
     20021     20019     20022     20025     20022     20025     20028     20029
     20022     20025     20028     20030     20022     20025     20028     20031
     20023     20022     20025     20026     20023     20022     20025     20027
     20023     20022     20025     20028     20024     20022     20025     20026
     20024     20022     20025     20027     20024     20022     20025     20028
     20026     20025     20028     20029     20026     20025     20028     20030
     20026     20025     20028     20031     20027     20025     20028     20029
     20027     20025     20028     20030     20027     20025     20028     20031
     20032     20037     20039     20040     20032     20037     20041     20042
     20032     20037     20041     20043     20032     20037     20041     20048
     20033     20032     20035     20036     20033     20032     20037     20038
     20033     20032     20037     20039     20033     20032     20037     20041
     20034     20032     20035     20036     20034     20032     20037     20038
     20034     20032     20037     20039     20034     20032     20037     20041
     20035     20032     20037     20038     20035     20032     20037     20039
     20035     20032     20037     20041     20036     20035     20032     20037
     20037     20041     20048     20044     20038     20037     20039     20040
     20038     20037     20041     20042     20038     20037     20041     20043
     20038     20037     20041     20048     20039     20037     20041     20042
     20039     20037     20041     20043     20039     20037     20041     20048
     20040     20039     20037     20041     20041     20048     20044     20045
     20041     20048     20044     20046     20041     20048     20044     20047
     20042     20041     20048     20044     20043     20041     20048     20044
     20044     20047     20049     20050     20044     20047     20049     20051
     20044     20047     20049     20052     20045     20044     20047     20049
     20046     20044     20047     20049     20047     20049     20052     20053
     20047     20049     20052     20054     20047     20049     20052     20060
     20048     20044     20047     20049     20049     20052     20054     20055
     20049     20052     20060     20061     20049     20052     20060     20062
     20049     20052     20060     20063     20050     20049     20052     20053
     20050     20049     20052     20054     20050     20049     20052     20060
     20051     20049     20052     20053     20051     20049     20052     20054
     20051     20049     20052     20060     20052     20054     20055     20056
     20052     20054     20055     20057     20052     20060     20063     20064
     20053     20052     20054     20055     20053     20052     20060     20061
     20053     20052     20060     20062     20053     20052     20060     20063
     20054     20052     20060     20061     20054     20052     20060     20062
     20054     20052     20060     20063     20054     20055     20057     20058
     20054     20055     20057     20059     20054     20055     20057     20069
     20055     20054     20052     20060     20055     20057     20069     20070
     20055     20057     20069     20071     20055     20057     20069     20072
     20056     20055     20057     20058     20056     20055     20057     20059
     20056     20055     20057     20069     20057     20069     20072     20073
     20057     20069     20072     20074     20057     20069     20072     20075
     20058     20057     20069     20070     20058     20057     20069     20071
     20058     20057     20069     20072     20059     20057     20069     20070
     20059     20057     20069     20071     20059     20057     20069     20072
     20060     20063     20064     20065     20060     20063     20064     20066
     20061     20060     20063     20064     20062     20060     20063     20064
     20063     20064     20066     20067     20063     20064     20066     20068
     20063     20064     20066     20113     20064     20066     20113     20114
     20064     20066     20113     20115     20064     20066     20113     20116
     20065     20064     20066     20067     20065     20064     20066     20068
     20065     20064     20066     20113     20066     20113     20116     20117
     20066     20113     20116     20118     20066     20113     20116     20119
     20067     20066     20113     20114     20067     20066     20113     20115
     20067     20066     20113     20116     20068     20066     20113     20114
     20068     20066     20113     20115     20068     20066     20113     20116
     20069     20072     20075     20076     20069     20072     20075     20077
     20069     20072     20075     20078     20070     20069     20072     20073
     20070     20069     20072     20074     20070     20069     20072     20075
     20071     20069     20072     20073     20071     20069     20072     20074
     20071     20069     20072     20075     20072     20075     20078     20079
     20072     20075     20078     20080     20072     20075     20078     20081
     20073     20072     20075     20076     20073     20072     20075     20077
     20073     20072     20075     20078     20074     20072     20075     20076
     20074     20072     20075     20077     20074     20072     20075     20078
     20075     20078     20081     20082     20075     20078     20081     20083
     20075     20078     20081     20084     20076     20075     20078     20079
     20076     20075     20078     20080     20076     20075     20078     20081
     20077     20075     20078     20079     20077     20075     20078     20080
     20077     20075     20078     20081     20078     20081     20084     20085
     20078     20081     20084     20086     20078     20081     20084     20087
     20079     20078     20081     20082     20079     20078     20081     20083
     20079     20078     20081     20084     20080     20078     20081     20082
     20080     20078     20081     20083     20080     20078     20081     20084
     20081     20084     20087     20088     20081     20084     20087     20089
     20081     20084     20087     20092     20082     20081     20084     20085
     20082     20081     20084     20086     20082     20081     20084     20087
     20083     20081     20084     20085     20083     20081     20084     20086
     20083     20081     20084     20087     20084     20087     20089     20090
     20084     20087     20089     20091     20084     20087     20089     20092
     20084     20087     20092     20089     20084     20087     20092     20093
     20084     20087     20092     20094     20085     20084     20087     20088
     20085     20084     20087     20089     20085     20084     20087     20092
     20086     20084     20087     20088     20086     20084     20087     20089
     20086     20084     20087     20092     20087     20089     20092     20093
     20087     20089     20092     20094     20087     20092     20089     20090
     20087     20092     20089     20091     20087     20092     20094     20095
     20087     20092     20094     20096     20087     20092     20094     20097
     20088     20087     20089     20090     20088     20087     20089     20091
     20088     20087     20089     20092     20088     20087     20092     20089
     20088     20087     20092     20093     20088     20087     20092     20094
     20089     20087     20092     20093     20089     20087     20092     20094
     20089     20092     20094     20095     20089     20092     20094     20096
     20089     20092     20094     20097     20090     20089     20087     20092
     20090     20089     20092     20093     20090     20089     20092     20094
     20091     20089     20087     20092     20091     20089     20092     20093
     20091     20089     20092     20094     20092     20094     20097     20098
     20092     20094     20097     20099     20092     20094     20097     20100
     20093     20092     20094     20095     20093     20092     20094     20096
     20093     20092     20094     20097     20094     20097     20100     20101
     20094     20097     20100     20102     20094     20097     20100     20103
     20095     20094     20097     20098     20095     20094     20097     20099
     20095     20094     20097     20100     20096     20094     20097     20098
     20096     20094     20097     20099     20096     20094     20097     20100
     20097     20100     20103     20104     20097     20100     20103     20105
     20097     20100     20103     20106     20098     20097     20100     20101
     20098     20097     20100     20102     20098     20097     20100     20103
     20099     20097     20100     20101     20099     20097     20100     20102
     20099     20097     20100     20103     20100     20103     20106     20107
     20100     20103     20106     20108     20100     20103     20106     20109
     20101     20100     20103     20104     20101     20100     20103     20105
     20101     20100     20103     20106     20102     20100     20103     20104
     20102     20100     20103     20105     20102     20100     20103     20106
     20103     20106     20109     20110     20103     20106     20109     20111
     20103     20106     20109     20112     20104     20103     20106     20107
     20104     20103     20106     20108     20104     20103     20106     20109
     20105     20103     20106     20107     20105     20103     20106     20108
     20105     20103     20106     20109     20107     20106     20109     20110
     20107     20106     20109     20111     20107     20106     20109     20112
     20108     20106     20109     20110     20108     20106     20109     20111
     20108     20106     20109     20112     20113     20116     20119     20120
     20113     20116     20119     20121     20113     20116     20119     20122
     20114     20113     20116     20117     20114     20113     20116     20118
     20114     20113     20116     20119     20115     20113     20116     20117
     20115     20113     20116     20118     20115     20113     20116     20119
     20116     20119     20122     20123     20116     20119     20122     20124
     20116     20119     20122     20125     20117     20116     20119     20120
     20117     20116     20119     20121     20117     20116     20119     20122
     20118     20116     20119     20120     20118     20116     20119     20121
     20118     20116     20119     20122     20119     20122     20125     20126
     20119     20122     20125     20127     20119     20122     20125     20128
     20120     20119     20122     20123     20120     20119     20122     20124
     20120     20119     20122     20125     20121     20119     20122     20123
     20121     20119     20122     20124     20121     20119     20122     20125
     20122     20125     20128     20129     20122     20125     20128     20130
     20122     20125     20128     20131     20123     20122     20125     20126
     20123     20122     20125     20127     20123     20122     20125     20128
     20124     20122     20125     20126     20124     20122     20125     20127
     20124     20122     20125     20128     20125     20128     20131     20132
     20125     20128     20131     20133     20125     20128     20131     20134
     20126     20125     20128     20129     20126     20125     20128     20130
     20126     20125     20128     20131     20127     20125     20128     20129
     20127     20125     20128     20130     20127     20125     20128     20131
     20128     20131     20134     20135     20128     20131     20134     20136
     20128     20131     20134     20137     20129     20128     20131     20132
     20129     20128     20131     20133     20129     20128     20131     20134
     20130     20128     20131     20132     20130     20128     20131     20133
     20130     20128     20131     20134     20131     20134     20137     20138
     20131     20134     20137     20139     20131     20134     20137     20140
     20132     20131     20134     20135     20132     20131     20134     20136
     20132     20131     20134     20137     20133     20131     20134     20135
     20133     20131     20134     20136     20133     20131     20134     20137
     20134     20137     20140     20141     20134     20137     20140     20142
     20134     20137     20140     20143     20135     20134     20137     20138
     20135     20134     20137     20139     20135     20134     20137     20140
     20136     20134     20137     20138     20136     20134     20137     20139
     20136     20134     20137     20140     20137     20140     20143     20144
     20137     20140     20143     20145     20137     20140     20143     20146
     20138     20137     20140     20141     20138     20137     20140     20142
     20138     20137     20140     20143     20139     20137     20140     20141
     20139     20137     20140     20142     20139     20137     20140     20143
     20140     20143     20146     20147     20140     20143     20146     20148
     20140     20143     20146     20149     20141     20140     20143     20144
     20141     20140     20143     20145     20141     20140     20143     20146
     20142     20140     20143     20144     20142     20140     20143     20145
     20142     20140     20143     20146     20143     20146     20149     20150
     20143     20146     20149     20151     20143     20146     20149     20152
     20144     20143     20146     20147     20144     20143     20146     20148
     20144     20143     20146     20149     20145     20143     20146     20147
     20145     20143     20146     20148     20145     20143     20146     20149
     20146     20149     20152     20153     20146     20149     20152     20154
     20146     20149     20152     20155     20147     20146     20149     20150
     20147     20146     20149     20151     20147     20146     20149     20152
     20148     20146     20149     20150     20148     20146     20149     20151
     20148     20146     20149     20152     20150     20149     20152     20153
     20150     20149     20152     20154     20150     20149     20152     20155
     20151     20149     20152     20153     20151     20149     20152     20154
     20151     20149     20152     20155     20156     20160     20163     20164
     20156     20160     20163     20165     20156     20160     20163     20170
     20157     20156     20160     20161     20157     20156     20160     20162
     20157     20156     20160     20163     20158     20156     20160     20161
     20158     20156     20160     20162     20158     20156     20160     20163
     20159     20156     20160     20161     20159     20156     20160     20162
     20159     20156     20160     20163     20160     20163     20170     20166
     20161     20160     20163     20164     20161     20160     20163     20165
     20161     20160     20163     20170     20162     20160     20163     20164
     20162     20160     20163     20165     20162     20160     20163     20170
     20163     20170     20166     20167     20163     20170     20166     20168
     20163     20170     20166     20169     20164     20163     20170     20166
     20165     20163     20170     20166     20166     20169     20171     20172
     20166     20169     20171     20173     20166     20169     20171     20174
     20167     20166     20169     20171     20168     20166     20169     20171
     20169     20171     20174     20175     20169     20171     20174     20176
     20169     20171     20174     20182     20170     20166     20169     20171
     20171     20174     20176     20177     20171     20174     20182     20183
     20171     20174     20182     20184     20171     20174     20182     20185
     20172     20171     20174     20175     20172     20171     20174     20176
     20172     20171     20174     20182     20173     20171     20174     20175
     20173     20171     20174     20176     20173     20171     20174     20182
     20174     20176     20177     20178     20174     20176     20177     20179
     20174     20182     20185     20186     20175     20174     20176     20177
     20175     20174     20182     20183     20175     20174     20182     20184
     20175     20174     20182     20185     20176     20174     20182     20183
     20176     20174     20182     20184     20176     20174     20182     20185
     20176     20177     20179     20180     20176     20177     20179     20181
     20176     20177     20179     20191     20177     20176     20174     20182
     20177     20179     20191     20192     20177     20179     20191     20193
     20177     20179     20191     20194     20178     20177     20179     20180
     20178     20177     20179     20181     20178     20177     20179     20191
     20179     20191     20194     20195     20179     20191     20194     20196
     20179     20191     20194     20197     20180     20179     20191     20192
     20180     20179     20191     20193     20180     20179     20191     20194
     20181     20179     20191     20192     20181     20179     20191     20193
     20181     20179     20191     20194     20182     20185     20186     20187
     20182     20185     20186     20188     20183     20182     20185     20186
     20184     20182     20185     20186     20185     20186     20188     20189
     20185     20186     20188     20190     20185     20186     20188     20235
     20186     20188     20235     20236     20186     20188     20235     20237
     20186     20188     20235     20238     20187     20186     20188     20189
     20187     20186     20188     20190     20187     20186     20188     20235
     20188     20235     20238     20239     20188     20235     20238     20240
     20188     20235     20238     20241     20189     20188     20235     20236
     20189     20188     20235     20237     20189     20188     20235     20238
     20190     20188     20235     20236     20190     20188     20235     20237
     20190     20188     20235     20238     20191     20194     20197     20198
     20191     20194     20197     20199     20191     20194     20197     20200
     20192     20191     20194     20195     20192     20191     20194     20196
     20192     20191     20194     20197     20193     20191     20194     20195
     20193     20191     20194     20196     20193     20191     20194     20197
     20194     20197     20200     20201     20194     20197     20200     20202
     20194     20197     20200     20203     20195     20194     20197     20198
     20195     20194     20197     20199     20195     20194     20197     20200
     20196     20194     20197     20198     20196     20194     20197     20199
     20196     20194     20197     20200     20197     20200     20203     20204
     20197     20200     20203     20205     20197     20200     20203     20206
     20198     20197     20200     20201     20198     20197     20200     20202
     20198     20197     20200     20203     20199     20197     20200     20201
     20199     20197     20200     20202     20199     20197     20200     20203
     20200     20203     20206     20207     20200     20203     20206     20208
     20200     20203     20206     20209     20201     20200     20203     20204
     20201     20200     20203     20205     20201     20200     20203     20206
     20202     20200     20203     20204     20202     20200     20203     20205
     20202     20200     20203     20206     20203     20206     20209     20210
     20203     20206     20209     20211     20203     20206     20209     20214
     20204     20203     20206     20207     20204     20203     20206     20208
     20204     20203     20206     20209     20205     20203     20206     20207
     20205     20203     20206     20208     20205     20203     20206     20209
     20206     20209     20211     20212     20206     20209     20211     20213
     20206     20209     20211     20214     20206     20209     20214     20211
     20206     20209     20214     20215     20206     20209     20214     20216
     20207     20206     20209     20210     20207     20206     20209     20211
     20207     20206     20209     20214     20208     20206     20209     20210
     20208     20206     20209     20211     20208     20206     20209     20214
     20209     20211     20214     20215     20209     20211     20214     20216
     20209     20214     20211     20212     20209     20214     20211     20213
     20209     20214     20216     20217     20209     20214     20216     20218
     20209     20214     20216     20219     20210     20209     20211     20212
     20210     20209     20211     20213     20210     20209     20211     20214
     20210     20209     20214     20211     20210     20209     20214     20215
     20210     20209     20214     20216     20211     20209     20214     20215
     20211     20209     20214     20216     20211     20214     20216     20217
     20211     20214     20216     20218     20211     20214     20216     20219
     20212     20211     20209     20214     20212     20211     20214     20215
     20212     20211     20214     20216     20213     20211     20209     20214
     20213     20211     20214     20215     20213     20211     20214     20216
     20214     20216     20219     20220     20214     20216     20219     20221
     20214     20216     20219     20222     20215     20214     20216     20217
     20215     20214     20216     20218     20215     20214     20216     20219
     20216     20219     20222     20223     20216     20219     20222     20224
     20216     20219     20222     20225     20217     20216     20219     20220
     20217     20216     20219     20221     20217     20216     20219     20222
     20218     20216     20219     20220     20218     20216     20219     20221
     20218     20216     20219     20222     20219     20222     20225     20226
     20219     20222     20225     20227     20219     20222     20225     20228
     20220     20219     20222     20223     20220     20219     20222     20224
     20220     20219     20222     20225     20221     20219     20222     20223
     20221     20219     20222     20224     20221     20219     20222     20225
     20222     20225     20228     20229     20222     20225     20228     20230
     20222     20225     20228     20231     20223     20222     20225     20226
     20223     20222     20225     20227     20223     20222     20225     20228
     20224     20222     20225     20226     20224     20222     20225     20227
     20224     20222     20225     20228     20225     20228     20231     20232
     20225     20228     20231     20233     20225     20228     20231     20234
     20226     20225     20228     20229     20226     20225     20228     20230
     20226     20225     20228     20231     20227     20225     20228     20229
     20227     20225     20228     20230     20227     20225     20228     20231
     20229     20228     20231     20232     20229     20228     20231     20233
     20229     20228     20231     20234     20230     20228     20231     20232
     20230     20228     20231     20233     20230     20228     20231     20234
     20235     20238     20241     20242     20235     20238     20241     20243
     20235     20238     20241     20244     20236     20235     20238     20239
     20236     20235     20238     20240     20236     20235     20238     20241
     20237     20235     20238     20239     20237     20235     20238     20240
     20237     20235     20238     20241     20238     20241     20244     20245
     20238     20241     20244     20246     20238     20241     20244     20247
     20239     20238     20241     20242     20239     20238     20241     20243
     20239     20238     20241     20244     20240     20238     20241     20242
     20240     20238     20241     20243     20240     20238     20241     20244
     20241     20244     20247     20248     20241     20244     20247     20249
     20241     20244     20247     20250     20242     20241     20244     20245
     20242     20241     20244     20246     20242     20241     20244     20247
     20243     20241     20244     20245     20243     20241     20244     20246
     20243     20241     20244     20247     20244     20247     20250     20251
     20244     20247     20250     20252     20244     20247     20250     20253
     20245     20244     20247     20248     20245     20244     20247     20249
     20245     20244     20247     20250     20246     20244     20247     20248
     20246     20244     20247     20249     20246     20244     20247     20250
     20247     20250     20253     20254     20247     20250     20253     20255
     20247     20250     20253     20256     20248     20247     20250     20251
     20248     20247     20250     20252     20248     20247     20250     20253
     20249     20247     20250     20251     20249     20247     20250     20252
     20249     20247     20250     20253     20250     20253     20256     20257
     20250     20253     20256     20258     20250     20253     20256     20259
     20251     20250     20253     20254     20251     20250     20253     20255
     20251     20250     20253     20256     20252     20250     20253     20254
     20252     20250     20253     20255     20252     20250     20253     20256
     20253     20256     20259     20260     20253     20256     20259     20261
     20253     20256     20259     20262     20254     20253     20256     20257
     20254     20253     20256     20258     20254     20253     20256     20259
     20255     20253     20256     20257     20255     20253     20256     20258
     20255     20253     20256     20259     20256     20259     20262     20263
     20256     20259     20262     20264     20256     20259     20262     20265
     20257     20256     20259     20260     20257     20256     20259     20261
     20257     20256     20259     20262     20258     20256     20259     20260
     20258     20256     20259     20261     20258     20256     20259     20262
     20259     20262     20265     20266     20259     20262     20265     20267
     20259     20262     20265     20268     20260     20259     20262     20263
     20260     20259     20262     20264     20260     20259     20262     20265
     20261     20259     20262     20263     20261     20259     20262     20264
     20261     20259     20262     20265     20262     20265     20268     20269
     20262     20265     20268     20270     20262     20265     20268     20271
     20263     20262     20265     20266     20263     20262     20265     20267
     20263     20262     20265     20268     20264     20262     20265     20266
     20264     20262     20265     20267     20264     20262     20265     20268
     20265     20268     20271     20272     20265     20268     20271     20273
     20265     20268     20271     20274     20266     20265     20268     20269
     20266     20265     20268     20270     20266     20265     20268     20271
     20267     20265     20268     20269     20267     20265     20268     20270
     20267     20265     20268     20271     20269     20268     20271     20272
     20269     20268     20271     20273     20269     20268     20271     20274
     20270     20268     20271     20272     20270     20268     20271     20273
     20270     20268     20271     20274     20275     20279     20282     20283
     20275     20279     20282     20284     20275     20279     20282     20289
     20276     20275     20279     20280     20276     20275     20279     20281
     20276     20275     20279     20282     20277     20275     20279     20280
     20277     20275     20279     20281     20277     20275     20279     20282
     20278     20275     20279     20280     20278     20275     20279     20281
     20278     20275     20279     20282     20279     20282     20289     20285
     20280     20279     20282     20283     20280     20279     20282     20284
     20280     20279     20282     20289     20281     20279     20282     20283
     20281     20279     20282     20284     20281     20279     20282     20289
     20282     20289     20285     20286     20282     20289     20285     20287
     20282     20289     20285     20288     20283     20282     20289     20285
     20284     20282     20289     20285     20285     20288     20290     20291
     20285     20288     20290     20292     20285     20288     20290     20293
     20286     20285     20288     20290     20287     20285     20288     20290
     20288     20290     20293     20294     20288     20290     20293     20295
     20288     20290     20293     20301     20289     20285     20288     20290
     20290     20293     20295     20296     20290     20293     20301     20302
     20290     20293     20301     20303     20290     20293     20301     20304
     20291     20290     20293     20294     20291     20290     20293     20295
     20291     20290     20293     20301     20292     20290     20293     20294
     20292     20290     20293     20295     20292     20290     20293     20301
     20293     20295     20296     20297     20293     20295     20296     20298
     20293     20301     20304     20305     20294     20293     20295     20296
     20294     20293     20301     20302     20294     20293     20301     20303
     20294     20293     20301     20304     20295     20293     20301     20302
     20295     20293     20301     20303     20295     20293     20301     20304
     20295     20296     20298     20299     20295     20296     20298     20300
     20295     20296     20298     20310     20296     20295     20293     20301
     20296     20298     20310     20311     20296     20298     20310     20312
     20296     20298     20310     20313     20297     20296     20298     20299
     20297     20296     20298     20300     20297     20296     20298     20310
     20298     20310     20313     20314     20298     20310     20313     20315
     20298     20310     20313     20316     20299     20298     20310     20311
     20299     20298     20310     20312     20299     20298     20310     20313
     20300     20298     20310     20311     20300     20298     20310     20312
     20300     20298     20310     20313     20301     20304     20305     20306
     20301     20304     20305     20307     20302     20301     20304     20305
     20303     20301     20304     20305     20304     20305     20307     20308
     20304     20305     20307     20309     20304     20305     20307     20354
     20305     20307     20354     20355     20305     20307     20354     20356
     20305     20307     20354     20357     20306     20305     20307     20308
     20306     20305     20307     20309     20306     20305     20307     20354
     20307     20354     20357     20358     20307     20354     20357     20359
     20307     20354     20357     20360     20308     20307     20354     20355
     20308     20307     20354     20356     20308     20307     20354     20357
     20309     20307     20354     20355     20309     20307     20354     20356
     20309     20307     20354     20357     20310     20313     20316     20317
     20310     20313     20316     20318     20310     20313     20316     20319
     20311     20310     20313     20314     20311     20310     20313     20315
     20311     20310     20313     20316     20312     20310     20313     20314
     20312     20310     20313     20315     20312     20310     20313     20316
     20313     20316     20319     20320     20313     20316     20319     20321
     20313     20316     20319     20322     20314     20313     20316     20317
     20314     20313     20316     20318     20314     20313     20316     20319
     20315     20313     20316     20317     20315     20313     20316     20318
     20315     20313     20316     20319     20316     20319     20322     20323
     20316     20319     20322     20324     20316     20319     20322     20325
     20317     20316     20319     20320     20317     20316     20319     20321
     20317     20316     20319     20322     20318     20316     20319     20320
     20318     20316     20319     20321     20318     20316     20319     20322
     20319     20322     20325     20326     20319     20322     20325     20327
     20319     20322     20325     20328     20320     20319     20322     20323
     20320     20319     20322     20324     20320     20319     20322     20325
     20321     20319     20322     20323     20321     20319     20322     20324
     20321     20319     20322     20325     20322     20325     20328     20329
     20322     20325     20328     20330     20322     20325     20328     20333
     20323     20322     20325     20326     20323     20322     20325     20327
     20323     20322     20325     20328     20324     20322     20325     20326
     20324     20322     20325     20327     20324     20322     20325     20328
     20325     20328     20330     20331     20325     20328     20330     20332
     20325     20328     20330     20333     20325     20328     20333     20330
     20325     20328     20333     20334     20325     20328     20333     20335
     20326     20325     20328     20329     20326     20325     20328     20330
     20326     20325     20328     20333     20327     20325     20328     20329
     20327     20325     20328     20330     20327     20325     20328     20333
     20328     20330     20333     20334     20328     20330     20333     20335
     20328     20333     20330     20331     20328     20333     20330     20332
     20328     20333     20335     20336     20328     20333     20335     20337
     20328     20333     20335     20338     20329     20328     20330     20331
     20329     20328     20330     20332     20329     20328     20330     20333
     20329     20328     20333     20330     20329     20328     20333     20334
     20329     20328     20333     20335     20330     20328     20333     20334
     20330     20328     20333     20335     20330     20333     20335     20336
     20330     20333     20335     20337     20330     20333     20335     20338
     20331     20330     20328     20333     20331     20330     20333     20334
     20331     20330     20333     20335     20332     20330     20328     20333
     20332     20330     20333     20334     20332     20330     20333     20335
     20333     20335     20338     20339     20333     20335     20338     20340
     20333     20335     20338     20341     20334     20333     20335     20336
     20334     20333     20335     20337     20334     20333     20335     20338
     20335     20338     20341     20342     20335     20338     20341     20343
     20335     20338     20341     20344     20336     20335     20338     20339
     20336     20335     20338     20340     20336     20335     20338     20341
     20337     20335     20338     20339     20337     20335     20338     20340
     20337     20335     20338     20341     20338     20341     20344     20345
     20338     20341     20344     20346     20338     20341     20344     20347
     20339     20338     20341     20342     20339     20338     20341     20343
     20339     20338     20341     20344     20340     20338     20341     20342
     20340     20338     20341     20343     20340     20338     20341     20344
     20341     20344     20347     20348     20341     20344     20347     20349
     20341     20344     20347     20350     20342     20341     20344     20345
     20342     20341     20344     20346     20342     20341     20344     20347
     20343     20341     20344     20345     20343     20341     20344     20346
     20343     20341     20344     20347     20344     20347     20350     20351
     20344     20347     20350     20352     20344     20347     20350     20353
     20345     20344     20347     20348     20345     20344     20347     20349
     20345     20344     20347     20350     20346     20344     20347     20348
     20346     20344     20347     20349     20346     20344     20347     20350
     20348     20347     20350     20351     20348     20347     20350     20352
     20348     20347     20350     20353     20349     20347     20350     20351
     20349     20347     20350     20352     20349     20347     20350     20353
     20354     20357     20360     20361     20354     20357     20360     20362
     20354     20357     20360     20363     20355     20354     20357     20358
     20355     20354     20357     20359     20355     20354     20357     20360
     20356     20354     20357     20358     20356     20354     20357     20359
     20356     20354     20357     20360     20357     20360     20363     20364
     20357     20360     20363     20365     20357     20360     20363     20366
     20358     20357     20360     20361     20358     20357     20360     20362
     20358     20357     20360     20363     20359     20357     20360     20361
     20359     20357     20360     20362     20359     20357     20360     20363
     20360     20363     20366     20367     20360     20363     20366     20368
     20360     20363     20366     20369     20361     20360     20363     20364
     20361     20360     20363     20365     20361     20360     20363     20366
     20362     20360     20363     20364     20362     20360     20363     20365
     20362     20360     20363     20366     20363     20366     20369     20370
     20363     20366     20369     20371     20363     20366     20369     20372
     20364     20363     20366     20367     20364     20363     20366     20368
     20364     20363     20366     20369     20365     20363     20366     20367
     20365     20363     20366     20368     20365     20363     20366     20369
     20366     20369     20372     20373     20366     20369     20372     20374
     20366     20369     20372     20375     20367     20366     20369     20370
     20367     20366     20369     20371     20367     20366     20369     20372
     20368     20366     20369     20370     20368     20366     20369     20371
     20368     20366     20369     20372     20369     20372     20375     20376
     20369     20372     20375     20377     20369     20372     20375     20378
     20370     20369     20372     20373     20370     20369     20372     20374
     20370     20369     20372     20375     20371     20369     20372     20373
     20371     20369     20372     20374     20371     20369     20372     20375
     20372     20375     20378     20379     20372     20375     20378     20380
     20372     20375     20378     20381     20373     20372     20375     20376
     20373     20372     20375     20377     20373     20372     20375     20378
     20374     20372     20375     20376     20374     20372     20375     20377
     20374     20372     20375     20378     20375     20378     20381     20382
     20375     20378     20381     20383     20375     20378     20381     20384
     20376     20375     20378     20379     20376     20375     20378     20380
     20376     20375     20378     20381     20377     20375     20378     20379
     20377     20375     20378     20380     20377     20375     20378     20381
     20378     20381     20384     20385     20378     20381     20384     20386
     20378     20381     20384     20387     20379     20378     20381     20382
     20379     20378     20381     20383     20379     20378     20381     20384
     20380     20378     20381     20382     20380     20378     20381     20383
     20380     20378     20381     20384     20381     20384     20387     20388
     20381     20384     20387     20389     20381     20384     20387     20390
     20382     20381     20384     20385     20382     20381     20384     20386
     20382     20381     20384     20387     20383     20381     20384     20385
     20383     20381     20384     20386     20383     20381     20384     20387
     20384     20387     20390     20391     20384     20387     20390     20392
     20384     20387     20390     20393     20385     20384     20387     20388
     20385     20384     20387     20389     20385     20384     20387     20390
     20386     20384     20387     20388     20386     20384     20387     20389
     20386     20384     20387     20390     20387     20390     20393     20394
     20387     20390     20393     20395     20387     20390     20393     20396
     20388     20387     20390     20391     20388     20387     20390     20392
     20388     20387     20390     20393     20389     20387     20390     20391
     20389     20387     20390     20392     20389     20387     20390     20393
     20391     20390     20393     20394     20391     20390     20393     20395
     20391     20390     20393     20396     20392     20390     20393     20394
     20392     20390     20393     20395     20392     20390     20393     20396
     20397     20401     20404     20405     20397     20401     20404     20406
     20397     20401     20404     20411     20398     20397     20401     20402
     20398     20397     20401     20403     20398     20397     20401     20404
     20399     20397     20401     20402     20399     20397     20401     20403
     20399     20397     20401     20404     20400     20397     20401     20402
     20400     20397     20401     20403     20400     20397     20401     20404
     20401     20404     20411     20407     20402     20401     20404     20405
     20402     20401     20404     20406     20402     20401     20404     20411
     20403     20401     20404     20405     20403     20401     20404     20406
     20403     20401     20404     20411     20404     20411     20407     20408
     20404     20411     20407     20409     20404     20411     20407     20410
     20405     20404     20411     20407     20406     20404     20411     20407
     20407     20410     20412     20413     20407     20410     20412     20414
     20407     20410     20412     20415     20408     20407     20410     20412
     20409     20407     20410     20412     20410     20412     20415     20416
     20410     20412     20415     20417     20410     20412     20415     20423
     20411     20407     20410     20412     20412     20415     20417     20418
     20412     20415     20423     20424     20412     20415     20423     20425
     20412     20415     20423     20426     20413     20412     20415     20416
     20413     20412     20415     20417     20413     20412     20415     20423
     20414     20412     20415     20416     20414     20412     20415     20417
     20414     20412     20415     20423     20415     20417     20418     20419
     20415     20417     20418     20420     20415     20423     20426     20427
     20416     20415     20417     20418     20416     20415     20423     20424
     20416     20415     20423     20425     20416     20415     20423     20426
     20417     20415     20423     20424     20417     20415     20423     20425
     20417     20415     20423     20426     20417     20418     20420     20421
     20417     20418     20420     20422     20417     20418     20420     20432
     20418     20417     20415     20423     20418     20420     20432     20433
     20418     20420     20432     20434     20418     20420     20432     20435
     20419     20418     20420     20421     20419     20418     20420     20422
     20419     20418     20420     20432     20420     20432     20435     20436
     20420     20432     20435     20437     20420     20432     20435     20438
     20421     20420     20432     20433     20421     20420     20432     20434
     20421     20420     20432     20435     20422     20420     20432     20433
     20422     20420     20432     20434     20422     20420     20432     20435
     20423     20426     20427     20428     20423     20426     20427     20429
     20424     20423     20426     20427     20425     20423     20426     20427
     20426     20427     20429     20430     20426     20427     20429     20431
     20426     20427     20429     20476     20427     20429     20476     20477
     20427     20429     20476     20478     20427     20429     20476     20479
     20428     20427     20429     20430     20428     20427     20429     20431
     20428     20427     20429     20476     20429     20476     20479     20480
     20429     20476     20479     20481     20429     20476     20479     20482
     20430     20429     20476     20477     20430     20429     20476     20478
     20430     20429     20476     20479     20431     20429     20476     20477
     20431     20429     20476     20478     20431     20429     20476     20479
     20432     20435     20438     20439     20432     20435     20438     20440
     20432     20435     20438     20441     20433     20432     20435     20436
     20433     20432     20435     20437     20433     20432     20435     20438
     20434     20432     20435     20436     20434     20432     20435     20437
     20434     20432     20435     20438     20435     20438     20441     20442
     20435     20438     20441     20443     20435     20438     20441     20444
     20436     20435     20438     20439     20436     20435     20438     20440
     20436     20435     20438     20441     20437     20435     20438     20439
     20437     20435     20438     20440     20437     20435     20438     20441
     20438     20441     20444     20445     20438     20441     20444     20446
     20438     20441     20444     20447     20439     20438     20441     20442
     20439     20438     20441     20443     20439     20438     20441     20444
     20440     20438     20441     20442     20440     20438     20441     20443
     20440     20438     20441     20444     20441     20444     20447     20448
     20441     20444     20447     20449     20441     20444     20447     20450
     20442     20441     20444     20445     20442     20441     20444     20446
     20442     20441     20444     20447     20443     20441     20444     20445
     20443     20441     20444     20446     20443     20441     20444     20447
     20444     20447     20450     20451     20444     20447     20450     20452
     20444     20447     20450     20455     20445     20444     20447     20448
     20445     20444     20447     20449     20445     20444     20447     20450
     20446     20444     20447     20448     20446     20444     20447     20449
     20446     20444     20447     20450     20447     20450     20452     20453
     20447     20450     20452     20454     20447     20450     20452     20455
     20447     20450     20455     20452     20447     20450     20455     20456
     20447     20450     20455     20457     20448     20447     20450     20451
     20448     20447     20450     20452     20448     20447     20450     20455
     20449     20447     20450     20451     20449     20447     20450     20452
     20449     20447     20450     20455     20450     20452     20455     20456
     20450     20452     20455     20457     20450     20455     20452     20453
     20450     20455     20452     20454     20450     20455     20457     20458
     20450     20455     20457     20459     20450     20455     20457     20460
     20451     20450     20452     20453     20451     20450     20452     20454
     20451     20450     20452     20455     20451     20450     20455     20452
     20451     20450     20455     20456     20451     20450     20455     20457
     20452     20450     20455     20456     20452     20450     20455     20457
     20452     20455     20457     20458     20452     20455     20457     20459
     20452     20455     20457     20460     20453     20452     20450     20455
     20453     20452     20455     20456     20453     20452     20455     20457
     20454     20452     20450     20455     20454     20452     20455     20456
     20454     20452     20455     20457     20455     20457     20460     20461
     20455     20457     20460     20462     20455     20457     20460     20463
     20456     20455     20457     20458     20456     20455     20457     20459
     20456     20455     20457     20460     20457     20460     20463     20464
     20457     20460     20463     20465     20457     20460     20463     20466
     20458     20457     20460     20461     20458     20457     20460     20462
     20458     20457     20460     20463     20459     20457     20460     20461
     20459     20457     20460     20462     20459     20457     20460     20463
     20460     20463     20466     20467     20460     20463     20466     20468
     20460     20463     20466     20469     20461     20460     20463     20464
     20461     20460     20463     20465     20461     20460     20463     20466
     20462     20460     20463     20464     20462     20460     20463     20465
     20462     20460     20463     20466     20463     20466     20469     20470
     20463     20466     20469     20471     20463     20466     20469     20472
     20464     20463     20466     20467     20464     20463     20466     20468
     20464     20463     20466     20469     20465     20463     20466     20467
     20465     20463     20466     20468     20465     20463     20466     20469
     20466     20469     20472     20473     20466     20469     20472     20474
     20466     20469     20472     20475     20467     20466     20469     20470
     20467     20466     20469     20471     20467     20466     20469     20472
     20468     20466     20469     20470     20468     20466     20469     20471
     20468     20466     20469     20472     20470     20469     20472     20473
     20470     20469     20472     20474     20470     20469     20472     20475
     20471     20469     20472     20473     20471     20469     20472     20474
     20471     20469     20472     20475     20476     20479     20482     20483
     20476     20479     20482     20484     20476     20479     20482     20485
     20477     20476     20479     20480     20477     20476     20479     20481
     20477     20476     20479     20482     20478     20476     20479     20480
     20478     20476     20479     20481     20478     20476     20479     20482
     20479     20482     20485     20486     20479     20482     20485     20487
     20479     20482     20485     20488     20480     20479     20482     20483
     20480     20479     20482     20484     20480     20479     20482     20485
     20481     20479     20482     20483     20481     20479     20482     20484
     20481     20479     20482     20485     20482     20485     20488     20489
     20482     20485     20488     20490     20482     20485     20488     20491
     20483     20482     20485     20486     20483     20482     20485     20487
     20483     20482     20485     20488     20484     20482     20485     20486
     20484     20482     20485     20487     20484     20482     20485     20488
     20485     20488     20491     20492     20485     20488     20491     20493
     20485     20488     20491     20494     20486     20485     20488     20489
     20486     20485     20488     20490     20486     20485     20488     20491
     20487     20485     20488     20489     20487     20485     20488     20490
     20487     20485     20488     20491     20488     20491     20494     20495
     20488     20491     20494     20496     20488     20491     20494     20497
     20489     20488     20491     20492     20489     20488     20491     20493
     20489     20488     20491     20494     20490     20488     20491     20492
     20490     20488     20491     20493     20490     20488     20491     20494
     20491     20494     20497     20498     20491     20494     20497     20499
     20491     20494     20497     20500     20492     20491     20494     20495
     20492     20491     20494     20496     20492     20491     20494     20497
     20493     20491     20494     20495     20493     20491     20494     20496
     20493     20491     20494     20497     20494     20497     20500     20501
     20494     20497     20500     20502     20494     20497     20500     20503
     20495     20494     20497     20498     20495     20494     20497     20499
     20495     20494     20497     20500     20496     20494     20497     20498
     20496     20494     20497     20499     20496     20494     20497     20500
     20497     20500     20503     20504     20497     20500     20503     20505
     20497     20500     20503     20506     20498     20497     20500     20501
     20498     20497     20500     20502     20498     20497     20500     20503
     20499     20497     20500     20501     20499     20497     20500     20502
     20499     20497     20500     20503     20500     20503     20506     20507
     20500     20503     20506     20508     20500     20503     20506     20509
     20501     20500     20503     20504     20501     20500     20503     20505
     20501     20500     20503     20506     20502     20500     20503     20504
     20502     20500     20503     20505     20502     20500     20503     20506
     20503     20506     20509     20510     20503     20506     20509     20511
     20503     20506     20509     20512     20504     20503     20506     20507
     20504     20503     20506     20508     20504     20503     20506     20509
     20505     20503     20506     20507     20505     20503     20506     20508
     20505     20503     20506     20509     20506     20509     20512     20513
     20506     20509     20512     20514     20506     20509     20512     20515
     20507     20506     20509     20510     20507     20506     20509     20511
     20507     20506     20509     20512     20508     20506     20509     20510
     20508     20506     20509     20511     20508     20506     20509     20512
     20509     20512     20515     20516     20509     20512     20515     20517
     20509     20512     20515     20518     20510     20509     20512     20513
     20510     20509     20512     20514     20510     20509     20512     20515
     20511     20509     20512     20513     20511     20509     20512     20514
     20511     20509     20512     20515     20513     20512     20515     20516
     20513     20512     20515     20517     20513     20512     20515     20518
     20514     20512     20515     20516     20514     20512     20515     20517
     20514     20512     20515     20518     20519     20523     20526     20527
     20519     20523     20526     20528     20519     20523     20526     20533
     20520     20519     20523     20524     20520     20519     20523     20525
     20520     20519     20523     20526     20521     20519     20523     20524
     20521     20519     20523     20525     20521     20519     20523     20526
     20522     20519     20523     20524     20522     20519     20523     20525
     20522     20519     20523     20526     20523     20526     20533     20529
     20524     20523     20526     20527     20524     20523     20526     20528
     20524     20523     20526     20533     20525     20523     20526     20527
     20525     20523     20526     20528     20525     20523     20526     20533
     20526     20533     20529     20530     20526     20533     20529     20531
     20526     20533     20529     20532     20527     20526     20533     20529
     20528     20526     20533     20529     20529     20532     20534     20535
     20529     20532     20534     20536     20529     20532     20534     20537
     20530     20529     20532     20534     20531     20529     20532     20534
     20532     20534     20537     20538     20532     20534     20537     20539
     20532     20534     20537     20545     20533     20529     20532     20534
     20534     20537     20539     20540     20534     20537     20545     20546
     20534     20537     20545     20547     20534     20537     20545     20548
     20535     20534     20537     20538     20535     20534     20537     20539
     20535     20534     20537     20545     20536     20534     20537     20538
     20536     20534     20537     20539     20536     20534     20537     20545
     20537     20539     20540     20541     20537     20539     20540     20542
     20537     20545     20548     20549     20538     20537     20539     20540
     20538     20537     20545     20546     20538     20537     20545     20547
     20538     20537     20545     20548     20539     20537     20545     20546
     20539     20537     20545     20547     20539     20537     20545     20548
     20539     20540     20542     20543     20539     20540     20542     20544
     20539     20540     20542     20554     20540     20539     20537     20545
     20540     20542     20554     20555     20540     20542     20554     20556
     20540     20542     20554     20557     20541     20540     20542     20543
     20541     20540     20542     20544     20541     20540     20542     20554
     20542     20554     20557     20558     20542     20554     20557     20559
     20542     20554     20557     20560     20543     20542     20554     20555
     20543     20542     20554     20556     20543     20542     20554     20557
     20544     20542     20554     20555     20544     20542     20554     20556
     20544     20542     20554     20557     20545     20548     20549     20550
     20545     20548     20549     20551     20546     20545     20548     20549
     20547     20545     20548     20549     20548     20549     20551     20552
     20548     20549     20551     20553     20548     20549     20551     20598
     20549     20551     20598     20599     20549     20551     20598     20600
     20549     20551     20598     20601     20550     20549     20551     20552
     20550     20549     20551     20553     20550     20549     20551     20598
     20551     20598     20601     20602     20551     20598     20601     20603
     20551     20598     20601     20604     20552     20551     20598     20599
     20552     20551     20598     20600     20552     20551     20598     20601
     20553     20551     20598     20599     20553     20551     20598     20600
     20553     20551     20598     20601     20554     20557     20560     20561
     20554     20557     20560     20562     20554     20557     20560     20563
     20555     20554     20557     20558     20555     20554     20557     20559
     20555     20554     20557     20560     20556     20554     20557     20558
     20556     20554     20557     20559     20556     20554     20557     20560
     20557     20560     20563     20564     20557     20560     20563     20565
     20557     20560     20563     20566     20558     20557     20560     20561
     20558     20557     20560     20562     20558     20557     20560     20563
     20559     20557     20560     20561     20559     20557     20560     20562
     20559     20557     20560     20563     20560     20563     20566     20567
     20560     20563     20566     20568     20560     20563     20566     20569
     20561     20560     20563     20564     20561     20560     20563     20565
     20561     20560     20563     20566     20562     20560     20563     20564
     20562     20560     20563     20565     20562     20560     20563     20566
     20563     20566     20569     20570     20563     20566     20569     20571
     20563     20566     20569     20572     20564     20563     20566     20567
     20564     20563     20566     20568     20564     20563     20566     20569
     20565     20563     20566     20567     20565     20563     20566     20568
     20565     20563     20566     20569     20566     20569     20572     20573
     20566     20569     20572     20574     20566     20569     20572     20577
     20567     20566     20569     20570     20567     20566     20569     20571
     20567     20566     20569     20572     20568     20566     20569     20570
     20568     20566     20569     20571     20568     20566     20569     20572
     20569     20572     20574     20575     20569     20572     20574     20576
     20569     20572     20574     20577     20569     20572     20577     20574
     20569     20572     20577     20578     20569     20572     20577     20579
     20570     20569     20572     20573     20570     20569     20572     20574
     20570     20569     20572     20577     20571     20569     20572     20573
     20571     20569     20572     20574     20571     20569     20572     20577
     20572     20574     20577     20578     20572     20574     20577     20579
     20572     20577     20574     20575     20572     20577     20574     20576
     20572     20577     20579     20580     20572     20577     20579     20581
     20572     20577     20579     20582     20573     20572     20574     20575
     20573     20572     20574     20576     20573     20572     20574     20577
     20573     20572     20577     20574     20573     20572     20577     20578
     20573     20572     20577     20579     20574     20572     20577     20578
     20574     20572     20577     20579     20574     20577     20579     20580
     20574     20577     20579     20581     20574     20577     20579     20582
     20575     20574     20572     20577     20575     20574     20577     20578
     20575     20574     20577     20579     20576     20574     20572     20577
     20576     20574     20577     20578     20576     20574     20577     20579
     20577     20579     20582     20583     20577     20579     20582     20584
     20577     20579     20582     20585     20578     20577     20579     20580
     20578     20577     20579     20581     20578     20577     20579     20582
     20579     20582     20585     20586     20579     20582     20585     20587
     20579     20582     20585     20588     20580     20579     20582     20583
     20580     20579     20582     20584     20580     20579     20582     20585
     20581     20579     20582     20583     20581     20579     20582     20584
     20581     20579     20582     20585     20582     20585     20588     20589
     20582     20585     20588     20590     20582     20585     20588     20591
     20583     20582     20585     20586     20583     20582     20585     20587
     20583     20582     20585     20588     20584     20582     20585     20586
     20584     20582     20585     20587     20584     20582     20585     20588
     20585     20588     20591     20592     20585     20588     20591     20593
     20585     20588     20591     20594     20586     20585     20588     20589
     20586     20585     20588     20590     20586     20585     20588     20591
     20587     20585     20588     20589     20587     20585     20588     20590
     20587     20585     20588     20591     20588     20591     20594     20595
     20588     20591     20594     20596     20588     20591     20594     20597
     20589     20588     20591     20592     20589     20588     20591     20593
     20589     20588     20591     20594     20590     20588     20591     20592
     20590     20588     20591     20593     20590     20588     20591     20594
     20592     20591     20594     20595     20592     20591     20594     20596
     20592     20591     20594     20597     20593     20591     20594     20595
     20593     20591     20594     20596     20593     20591     20594     20597
     20598     20601     20604     20605     20598     20601     20604     20606
     20598     20601     20604     20607     20599     20598     20601     20602
     20599     20598     20601     20603     20599     20598     20601     20604
     20600     20598     20601     20602     20600     20598     20601     20603
     20600     20598     20601     20604     20601     20604     20607     20608
     20601     20604     20607     20609     20601     20604     20607     20610
     20602     20601     20604     20605     20602     20601     20604     20606
     20602     20601     20604     20607     20603     20601     20604     20605
     20603     20601     20604     20606     20603     20601     20604     20607
     20604     20607     20610     20611     20604     20607     20610     20612
     20604     20607     20610     20613     20605     20604     20607     20608
     20605     20604     20607     20609     20605     20604     20607     20610
     20606     20604     20607     20608     20606     20604     20607     20609
     20606     20604     20607     20610     20607     20610     20613     20614
     20607     20610     20613     20615     20607     20610     20613     20616
     20608     20607     20610     20611     20608     20607     20610     20612
     20608     20607     20610     20613     20609     20607     20610     20611
     20609     20607     20610     20612     20609     20607     20610     20613
     20610     20613     20616     20617     20610     20613     20616     20618
     20610     20613     20616     20619     20611     20610     20613     20614
     20611     20610     20613     20615     20611     20610     20613     20616
     20612     20610     20613     20614     20612     20610     20613     20615
     20612     20610     20613     20616     20613     20616     20619     20620
     20613     20616     20619     20621     20613     20616     20619     20622
     20614     20613     20616     20617     20614     20613     20616     20618
     20614     20613     20616     20619     20615     20613     20616     20617
     20615     20613     20616     20618     20615     20613     20616     20619
     20616     20619     20622     20623     20616     20619     20622     20624
     20616     20619     20622     20625     20617     20616     20619     20620
     20617     20616     20619     20621     20617     20616     20619     20622
     20618     20616     20619     20620     20618     20616     20619     20621
     20618     20616     20619     20622     20619     20622     20625     20626
     20619     20622     20625     20627     20619     20622     20625     20628
     20620     20619     20622     20623     20620     20619     20622     20624
     20620     20619     20622     20625     20621     20619     20622     20623
     20621     20619     20622     20624     20621     20619     20622     20625
     20622     20625     20628     20629     20622     20625     20628     20630
     20622     20625     20628     20631     20623     20622     20625     20626
     20623     20622     20625     20627     20623     20622     20625     20628
     20624     20622     20625     20626     20624     20622     20625     20627
     20624     20622     20625     20628     20625     20628     20631     20632
     20625     20628     20631     20633     20625     20628     20631     20634
     20626     20625     20628     20629     20626     20625     20628     20630
     20626     20625     20628     20631     20627     20625     20628     20629
     20627     20625     20628     20630     20627     20625     20628     20631
     20628     20631     20634     20635     20628     20631     20634     20636
     20628     20631     20634     20637     20629     20628     20631     20632
     20629     20628     20631     20633     20629     20628     20631     20634
     20630     20628     20631     20632     20630     20628     20631     20633
     20630     20628     20631     20634     20631     20634     20637     20638
     20631     20634     20637     20639     20631     20634     20637     20640
     20632     20631     20634     20635     20632     20631     20634     20636
     20632     20631     20634     20637     20633     20631     20634     20635
     20633     20631     20634     20636     20633     20631     20634     20637
     20635     20634     20637     20638     20635     20634     20637     20639
     20635     20634     20637     20640     20636     20634     20637     20638
     20636     20634     20637     20639     20636     20634     20637     20640
     20641     20645     20648     20649     20641     20645     20648     20650
     20641     20645     20648     20655     20642     20641     20645     20646
     20642     20641     20645     20647     20642     20641     20645     20648
     20643     20641     20645     20646     20643     20641     20645     20647
     20643     20641     20645     20648     20644     20641     20645     20646
     20644     20641     20645     20647     20644     20641     20645     20648
     20645     20648     20655     20651     20646     20645     20648     20649
     20646     20645     20648     20650     20646     20645     20648     20655
     20647     20645     20648     20649     20647     20645     20648     20650
     20647     20645     20648     20655     20648     20655     20651     20652
     20648     20655     20651     20653     20648     20655     20651     20654
     20649     20648     20655     20651     20650     20648     20655     20651
     20651     20654     20656     20657     20651     20654     20656     20658
     20651     20654     20656     20659     20652     20651     20654     20656
     20653     20651     20654     20656     20654     20656     20659     20660
     20654     20656     20659     20661     20654     20656     20659     20667
     20655     20651     20654     20656     20656     20659     20661     20662
     20656     20659     20667     20668     20656     20659     20667     20669
     20656     20659     20667     20670     20657     20656     20659     20660
     20657     20656     20659     20661     20657     20656     20659     20667
     20658     20656     20659     20660     20658     20656     20659     20661
     20658     20656     20659     20667     20659     20661     20662     20663
     20659     20661     20662     20664     20659     20667     20670     20671
     20660     20659     20661     20662     20660     20659     20667     20668
     20660     20659     20667     20669     20660     20659     20667     20670
     20661     20659     20667     20668     20661     20659     20667     20669
     20661     20659     20667     20670     20661     20662     20664     20665
     20661     20662     20664     20666     20661     20662     20664     20676
     20662     20661     20659     20667     20662     20664     20676     20677
     20662     20664     20676     20678     20662     20664     20676     20679
     20663     20662     20664     20665     20663     20662     20664     20666
     20663     20662     20664     20676     20664     20676     20679     20680
     20664     20676     20679     20681     20664     20676     20679     20682
     20665     20664     20676     20677     20665     20664     20676     20678
     20665     20664     20676     20679     20666     20664     20676     20677
     20666     20664     20676     20678     20666     20664     20676     20679
     20667     20670     20671     20672     20667     20670     20671     20673
     20668     20667     20670     20671     20669     20667     20670     20671
     20670     20671     20673     20674     20670     20671     20673     20675
     20670     20671     20673     20720     20671     20673     20720     20721
     20671     20673     20720     20722     20671     20673     20720     20723
     20672     20671     20673     20674     20672     20671     20673     20675
     20672     20671     20673     20720     20673     20720     20723     20724
     20673     20720     20723     20725     20673     20720     20723     20726
     20674     20673     20720     20721     20674     20673     20720     20722
     20674     20673     20720     20723     20675     20673     20720     20721
     20675     20673     20720     20722     20675     20673     20720     20723
     20676     20679     20682     20683     20676     20679     20682     20684
     20676     20679     20682     20685     20677     20676     20679     20680
     20677     20676     20679     20681     20677     20676     20679     20682
     20678     20676     20679     20680     20678     20676     20679     20681
     20678     20676     20679     20682     20679     20682     20685     20686
     20679     20682     20685     20687     20679     20682     20685     20688
     20680     20679     20682     20683     20680     20679     20682     20684
     20680     20679     20682     20685     20681     20679     20682     20683
     20681     20679     20682     20684     20681     20679     20682     20685
     20682     20685     20688     20689     20682     20685     20688     20690
     20682     20685     20688     20691     20683     20682     20685     20686
     20683     20682     20685     20687     20683     20682     20685     20688
     20684     20682     20685     20686     20684     20682     20685     20687
     20684     20682     20685     20688     20685     20688     20691     20692
     20685     20688     20691     20693     20685     20688     20691     20694
     20686     20685     20688     20689     20686     20685     20688     20690
     20686     20685     20688     20691     20687     20685     20688     20689
     20687     20685     20688     20690     20687     20685     20688     20691
     20688     20691     20694     20695     20688     20691     20694     20696
     20688     20691     20694     20699     20689     20688     20691     20692
     20689     20688     20691     20693     20689     20688     20691     20694
     20690     20688     20691     20692     20690     20688     20691     20693
     20690     20688     20691     20694     20691     20694     20696     20697
     20691     20694     20696     20698     20691     20694     20696     20699
     20691     20694     20699     20696     20691     20694     20699     20700
     20691     20694     20699     20701     20692     20691     20694     20695
     20692     20691     20694     20696     20692     20691     20694     20699
     20693     20691     20694     20695     20693     20691     20694     20696
     20693     20691     20694     20699     20694     20696     20699     20700
     20694     20696     20699     20701     20694     20699     20696     20697
     20694     20699     20696     20698     20694     20699     20701     20702
     20694     20699     20701     20703     20694     20699     20701     20704
     20695     20694     20696     20697     20695     20694     20696     20698
     20695     20694     20696     20699     20695     20694     20699     20696
     20695     20694     20699     20700     20695     20694     20699     20701
     20696     20694     20699     20700     20696     20694     20699     20701
     20696     20699     20701     20702     20696     20699     20701     20703
     20696     20699     20701     20704     20697     20696     20694     20699
     20697     20696     20699     20700     20697     20696     20699     20701
     20698     20696     20694     20699     20698     20696     20699     20700
     20698     20696     20699     20701     20699     20701     20704     20705
     20699     20701     20704     20706     20699     20701     20704     20707
     20700     20699     20701     20702     20700     20699     20701     20703
     20700     20699     20701     20704     20701     20704     20707     20708
     20701     20704     20707     20709     20701     20704     20707     20710
     20702     20701     20704     20705     20702     20701     20704     20706
     20702     20701     20704     20707     20703     20701     20704     20705
     20703     20701     20704     20706     20703     20701     20704     20707
     20704     20707     20710     20711     20704     20707     20710     20712
     20704     20707     20710     20713     20705     20704     20707     20708
     20705     20704     20707     20709     20705     20704     20707     20710
     20706     20704     20707     20708     20706     20704     20707     20709
     20706     20704     20707     20710     20707     20710     20713     20714
     20707     20710     20713     20715     20707     20710     20713     20716
     20708     20707     20710     20711     20708     20707     20710     20712
     20708     20707     20710     20713     20709     20707     20710     20711
     20709     20707     20710     20712     20709     20707     20710     20713
     20710     20713     20716     20717     20710     20713     20716     20718
     20710     20713     20716     20719     20711     20710     20713     20714
     20711     20710     20713     20715     20711     20710     20713     20716
     20712     20710     20713     20714     20712     20710     20713     20715
     20712     20710     20713     20716     20714     20713     20716     20717
     20714     20713     20716     20718     20714     20713     20716     20719
     20715     20713     20716     20717     20715     20713     20716     20718
     20715     20713     20716     20719     20720     20723     20726     20727
     20720     20723     20726     20728     20720     20723     20726     20729
     20721     20720     20723     20724     20721     20720     20723     20725
     20721     20720     20723     20726     20722     20720     20723     20724
     20722     20720     20723     20725     20722     20720     20723     20726
     20723     20726     20729     20730     20723     20726     20729     20731
     20723     20726     20729     20732     20724     20723     20726     20727
     20724     20723     20726     20728     20724     20723     20726     20729
     20725     20723     20726     20727     20725     20723     20726     20728
     20725     20723     20726     20729     20726     20729     20732     20733
     20726     20729     20732     20734     20726     20729     20732     20735
     20727     20726     20729     20730     20727     20726     20729     20731
     20727     20726     20729     20732     20728     20726     20729     20730
     20728     20726     20729     20731     20728     20726     20729     20732
     20729     20732     20735     20736     20729     20732     20735     20737
     20729     20732     20735     20738     20730     20729     20732     20733
     20730     20729     20732     20734     20730     20729     20732     20735
     20731     20729     20732     20733     20731     20729     20732     20734
     20731     20729     20732     20735     20732     20735     20738     20739
     20732     20735     20738     20740     20732     20735     20738     20741
     20733     20732     20735     20736     20733     20732     20735     20737
     20733     20732     20735     20738     20734     20732     20735     20736
     20734     20732     20735     20737     20734     20732     20735     20738
     20735     20738     20741     20742     20735     20738     20741     20743
     20735     20738     20741     20744     20736     20735     20738     20739
     20736     20735     20738     20740     20736     20735     20738     20741
     20737     20735     20738     20739     20737     20735     20738     20740
     20737     20735     20738     20741     20738     20741     20744     20745
     20738     20741     20744     20746     20738     20741     20744     20747
     20739     20738     20741     20742     20739     20738     20741     20743
     20739     20738     20741     20744     20740     20738     20741     20742
     20740     20738     20741     20743     20740     20738     20741     20744
     20741     20744     20747     20748     20741     20744     20747     20749
     20741     20744     20747     20750     20742     20741     20744     20745
     20742     20741     20744     20746     20742     20741     20744     20747
     20743     20741     20744     20745     20743     20741     20744     20746
     20743     20741     20744     20747     20744     20747     20750     20751
     20744     20747     20750     20752     20744     20747     20750     20753
     20745     20744     20747     20748     20745     20744     20747     20749
     20745     20744     20747     20750     20746     20744     20747     20748
     20746     20744     20747     20749     20746     20744     20747     20750
     20747     20750     20753     20754     20747     20750     20753     20755
     20747     20750     20753     20756     20748     20747     20750     20751
     20748     20747     20750     20752     20748     20747     20750     20753
     20749     20747     20750     20751     20749     20747     20750     20752
     20749     20747     20750     20753     20750     20753     20756     20757
     20750     20753     20756     20758     20750     20753     20756     20759
     20751     20750     20753     20754     20751     20750     20753     20755
     20751     20750     20753     20756     20752     20750     20753     20754
     20752     20750     20753     20755     20752     20750     20753     20756
     20753     20756     20759     20760     20753     20756     20759     20761
     20753     20756     20759     20762     20754     20753     20756     20757
     20754     20753     20756     20758     20754     20753     20756     20759
     20755     20753     20756     20757     20755     20753     20756     20758
     20755     20753     20756     20759     20757     20756     20759     20760
     20757     20756     20759     20761     20757     20756     20759     20762
     20758     20756     20759     20760     20758     20756     20759     20761
     20758     20756     20759     20762     20763     20767     20770     20771
     20763     20767     20770     20772     20763     20767     20770     20777
     20764     20763     20767     20768     20764     20763     20767     20769
     20764     20763     20767     20770     20765     20763     20767     20768
     20765     20763     20767     20769     20765     20763     20767     20770
     20766     20763     20767     20768     20766     20763     20767     20769
     20766     20763     20767     20770     20767     20770     20777     20773
     20768     20767     20770     20771     20768     20767     20770     20772
     20768     20767     20770     20777     20769     20767     20770     20771
     20769     20767     20770     20772     20769     20767     20770     20777
     20770     20777     20773     20774     20770     20777     20773     20775
     20770     20777     20773     20776     20771     20770     20777     20773
     20772     20770     20777     20773     20773     20776     20778     20779
     20773     20776     20778     20780     20773     20776     20778     20781
     20774     20773     20776     20778     20775     20773     20776     20778
     20776     20778     20781     20782     20776     20778     20781     20783
     20776     20778     20781     20789     20777     20773     20776     20778
     20778     20781     20783     20784     20778     20781     20789     20790
     20778     20781     20789     20791     20778     20781     20789     20792
     20779     20778     20781     20782     20779     20778     20781     20783
     20779     20778     20781     20789     20780     20778     20781     20782
     20780     20778     20781     20783     20780     20778     20781     20789
     20781     20783     20784     20785     20781     20783     20784     20786
     20781     20789     20792     20793     20782     20781     20783     20784
     20782     20781     20789     20790     20782     20781     20789     20791
     20782     20781     20789     20792     20783     20781     20789     20790
     20783     20781     20789     20791     20783     20781     20789     20792
     20783     20784     20786     20787     20783     20784     20786     20788
     20783     20784     20786     20798     20784     20783     20781     20789
     20784     20786     20798     20799     20784     20786     20798     20800
     20784     20786     20798     20801     20785     20784     20786     20787
     20785     20784     20786     20788     20785     20784     20786     20798
     20786     20798     20801     20802     20786     20798     20801     20803
     20786     20798     20801     20804     20787     20786     20798     20799
     20787     20786     20798     20800     20787     20786     20798     20801
     20788     20786     20798     20799     20788     20786     20798     20800
     20788     20786     20798     20801     20789     20792     20793     20794
     20789     20792     20793     20795     20790     20789     20792     20793
     20791     20789     20792     20793     20792     20793     20795     20796
     20792     20793     20795     20797     20792     20793     20795     20842
     20793     20795     20842     20843     20793     20795     20842     20844
     20793     20795     20842     20845     20794     20793     20795     20796
     20794     20793     20795     20797     20794     20793     20795     20842
     20795     20842     20845     20846     20795     20842     20845     20847
     20795     20842     20845     20848     20796     20795     20842     20843
     20796     20795     20842     20844     20796     20795     20842     20845
     20797     20795     20842     20843     20797     20795     20842     20844
     20797     20795     20842     20845     20798     20801     20804     20805
     20798     20801     20804     20806     20798     20801     20804     20807
     20799     20798     20801     20802     20799     20798     20801     20803
     20799     20798     20801     20804     20800     20798     20801     20802
     20800     20798     20801     20803     20800     20798     20801     20804
     20801     20804     20807     20808     20801     20804     20807     20809
     20801     20804     20807     20810     20802     20801     20804     20805
     20802     20801     20804     20806     20802     20801     20804     20807
     20803     20801     20804     20805     20803     20801     20804     20806
     20803     20801     20804     20807     20804     20807     20810     20811
     20804     20807     20810     20812     20804     20807     20810     20813
     20805     20804     20807     20808     20805     20804     20807     20809
     20805     20804     20807     20810     20806     20804     20807     20808
     20806     20804     20807     20809     20806     20804     20807     20810
     20807     20810     20813     20814     20807     20810     20813     20815
     20807     20810     20813     20816     20808     20807     20810     20811
     20808     20807     20810     20812     20808     20807     20810     20813
     20809     20807     20810     20811     20809     20807     20810     20812
     20809     20807     20810     20813     20810     20813     20816     20817
     20810     20813     20816     20818     20810     20813     20816     20821
     20811     20810     20813     20814     20811     20810     20813     20815
     20811     20810     20813     20816     20812     20810     20813     20814
     20812     20810     20813     20815     20812     20810     20813     20816
     20813     20816     20818     20819     20813     20816     20818     20820
     20813     20816     20818     20821     20813     20816     20821     20818
     20813     20816     20821     20822     20813     20816     20821     20823
     20814     20813     20816     20817     20814     20813     20816     20818
     20814     20813     20816     20821     20815     20813     20816     20817
     20815     20813     20816     20818     20815     20813     20816     20821
     20816     20818     20821     20822     20816     20818     20821     20823
     20816     20821     20818     20819     20816     20821     20818     20820
     20816     20821     20823     20824     20816     20821     20823     20825
     20816     20821     20823     20826     20817     20816     20818     20819
     20817     20816     20818     20820     20817     20816     20818     20821
     20817     20816     20821     20818     20817     20816     20821     20822
     20817     20816     20821     20823     20818     20816     20821     20822
     20818     20816     20821     20823     20818     20821     20823     20824
     20818     20821     20823     20825     20818     20821     20823     20826
     20819     20818     20816     20821     20819     20818     20821     20822
     20819     20818     20821     20823     20820     20818     20816     20821
     20820     20818     20821     20822     20820     20818     20821     20823
     20821     20823     20826     20827     20821     20823     20826     20828
     20821     20823     20826     20829     20822     20821     20823     20824
     20822     20821     20823     20825     20822     20821     20823     20826
     20823     20826     20829     20830     20823     20826     20829     20831
     20823     20826     20829     20832     20824     20823     20826     20827
     20824     20823     20826     20828     20824     20823     20826     20829
     20825     20823     20826     20827     20825     20823     20826     20828
     20825     20823     20826     20829     20826     20829     20832     20833
     20826     20829     20832     20834     20826     20829     20832     20835
     20827     20826     20829     20830     20827     20826     20829     20831
     20827     20826     20829     20832     20828     20826     20829     20830
     20828     20826     20829     20831     20828     20826     20829     20832
     20829     20832     20835     20836     20829     20832     20835     20837
     20829     20832     20835     20838     20830     20829     20832     20833
     20830     20829     20832     20834     20830     20829     20832     20835
     20831     20829     20832     20833     20831     20829     20832     20834
     20831     20829     20832     20835     20832     20835     20838     20839
     20832     20835     20838     20840     20832     20835     20838     20841
     20833     20832     20835     20836     20833     20832     20835     20837
     20833     20832     20835     20838     20834     20832     20835     20836
     20834     20832     20835     20837     20834     20832     20835     20838
     20836     20835     20838     20839     20836     20835     20838     20840
     20836     20835     20838     20841     20837     20835     20838     20839
     20837     20835     20838     20840     20837     20835     20838     20841
     20842     20845     20848     20849     20842     20845     20848     20850
     20842     20845     20848     20851     20843     20842     20845     20846
     20843     20842     20845     20847     20843     20842     20845     20848
     20844     20842     20845     20846     20844     20842     20845     20847
     20844     20842     20845     20848     20845     20848     20851     20852
     20845     20848     20851     20853     20845     20848     20851     20854
     20846     20845     20848     20849     20846     20845     20848     20850
     20846     20845     20848     20851     20847     20845     20848     20849
     20847     20845     20848     20850     20847     20845     20848     20851
     20848     20851     20854     20855     20848     20851     20854     20856
     20848     20851     20854     20857     20849     20848     20851     20852
     20849     20848     20851     20853     20849     20848     20851     20854
     20850     20848     20851     20852     20850     20848     20851     20853
     20850     20848     20851     20854     20851     20854     20857     20858
     20851     20854     20857     20859     20851     20854     20857     20860
     20852     20851     20854     20855     20852     20851     20854     20856
     20852     20851     20854     20857     20853     20851     20854     20855
     20853     20851     20854     20856     20853     20851     20854     20857
     20854     20857     20860     20861     20854     20857     20860     20862
     20854     20857     20860     20863     20855     20854     20857     20858
     20855     20854     20857     20859     20855     20854     20857     20860
     20856     20854     20857     20858     20856     20854     20857     20859
     20856     20854     20857     20860     20857     20860     20863     20864
     20857     20860     20863     20865     20857     20860     20863     20866
     20858     20857     20860     20861     20858     20857     20860     20862
     20858     20857     20860     20863     20859     20857     20860     20861
     20859     20857     20860     20862     20859     20857     20860     20863
     20860     20863     20866     20867     20860     20863     20866     20868
     20860     20863     20866     20869     20861     20860     20863     20864
     20861     20860     20863     20865     20861     20860     20863     20866
     20862     20860     20863     20864     20862     20860     20863     20865
     20862     20860     20863     20866     20863     20866     20869     20870
     20863     20866     20869     20871     20863     20866     20869     20872
     20864     20863     20866     20867     20864     20863     20866     20868
     20864     20863     20866     20869     20865     20863     20866     20867
     20865     20863     20866     20868     20865     20863     20866     20869
     20866     20869     20872     20873     20866     20869     20872     20874
     20866     20869     20872     20875     20867     20866     20869     20870
     20867     20866     20869     20871     20867     20866     20869     20872
     20868     20866     20869     20870     20868     20866     20869     20871
     20868     20866     20869     20872     20869     20872     20875     20876
     20869     20872     20875     20877     20869     20872     20875     20878
     20870     20869     20872     20873     20870     20869     20872     20874
     20870     20869     20872     20875     20871     20869     20872     20873
     20871     20869     20872     20874     20871     20869     20872     20875
     20872     20875     20878     20879     20872     20875     20878     20880
     20872     20875     20878     20881     20873     20872     20875     20876
     20873     20872     20875     20877     20873     20872     20875     20878
     20874     20872     20875     20876     20874     20872     20875     20877
     20874     20872     20875     20878     20875     20878     20881     20882
     20875     20878     20881     20883     20875     20878     20881     20884
     20876     20875     20878     20879     20876     20875     20878     20880
     20876     20875     20878     20881     20877     20875     20878     20879
     20877     20875     20878     20880     20877     20875     20878     20881
     20879     20878     20881     20882     20879     20878     20881     20883
     20879     20878     20881     20884     20880     20878     20881     20882
     20880     20878     20881     20883     20880     20878     20881     20884
     20885     20890     20892     20893     20885     20890     20894     20895
     20885     20890     20894     20896     20885     20890     20894     20901
     20886     20885     20888     20889     20886     20885     20890     20891
     20886     20885     20890     20892     20886     20885     20890     20894
     20887     20885     20888     20889     20887     20885     20890     20891
     20887     20885     20890     20892     20887     20885     20890     20894
     20888     20885     20890     20891     20888     20885     20890     20892
     20888     20885     20890     20894     20889     20888     20885     20890
     20890     20894     20901     20897     20891     20890     20892     20893
     20891     20890     20894     20895     20891     20890     20894     20896
     20891     20890     20894     20901     20892     20890     20894     20895
     20892     20890     20894     20896     20892     20890     20894     20901
     20893     20892     20890     20894     20894     20901     20897     20898
     20894     20901     20897     20899     20894     20901     20897     20900
     20895     20894     20901     20897     20896     20894     20901     20897
     20897     20900     20902     20903     20897     20900     20902     20904
     20897     20900     20902     20905     20898     20897     20900     20902
     20899     20897     20900     20902     20900     20902     20905     20906
     20900     20902     20905     20907     20900     20902     20905     20913
     20901     20897     20900     20902     20902     20905     20907     20908
     20902     20905     20913     20914     20902     20905     20913     20915
     20902     20905     20913     20916     20903     20902     20905     20906
     20903     20902     20905     20907     20903     20902     20905     20913
     20904     20902     20905     20906     20904     20902     20905     20907
     20904     20902     20905     20913     20905     20907     20908     20909
     20905     20907     20908     20910     20905     20913     20916     20917
     20906     20905     20907     20908     20906     20905     20913     20914
     20906     20905     20913     20915     20906     20905     20913     20916
     20907     20905     20913     20914     20907     20905     20913     20915
     20907     20905     20913     20916     20907     20908     20910     20911
     20907     20908     20910     20912     20907     20908     20910     20922
     20908     20907     20905     20913     20908     20910     20922     20923
     20908     20910     20922     20924     20908     20910     20922     20925
     20909     20908     20910     20911     20909     20908     20910     20912
     20909     20908     20910     20922     20910     20922     20925     20926
     20910     20922     20925     20927     20910     20922     20925     20928
     20911     20910     20922     20923     20911     20910     20922     20924
     20911     20910     20922     20925     20912     20910     20922     20923
     20912     20910     20922     20924     20912     20910     20922     20925
     20913     20916     20917     20918     20913     20916     20917     20919
     20914     20913     20916     20917     20915     20913     20916     20917
     20916     20917     20919     20920     20916     20917     20919     20921
     20916     20917     20919     20966     20917     20919     20966     20967
     20917     20919     20966     20968     20917     20919     20966     20969
     20918     20917     20919     20920     20918     20917     20919     20921
     20918     20917     20919     20966     20919     20966     20969     20970
     20919     20966     20969     20971     20919     20966     20969     20972
     20920     20919     20966     20967     20920     20919     20966     20968
     20920     20919     20966     20969     20921     20919     20966     20967
     20921     20919     20966     20968     20921     20919     20966     20969
     20922     20925     20928     20929     20922     20925     20928     20930
     20922     20925     20928     20931     20923     20922     20925     20926
     20923     20922     20925     20927     20923     20922     20925     20928
     20924     20922     20925     20926     20924     20922     20925     20927
     20924     20922     20925     20928     20925     20928     20931     20932
     20925     20928     20931     20933     20925     20928     20931     20934
     20926     20925     20928     20929     20926     20925     20928     20930
     20926     20925     20928     20931     20927     20925     20928     20929
     20927     20925     20928     20930     20927     20925     20928     20931
     20928     20931     20934     20935     20928     20931     20934     20936
     20928     20931     20934     20937     20929     20928     20931     20932
     20929     20928     20931     20933     20929     20928     20931     20934
     20930     20928     20931     20932     20930     20928     20931     20933
     20930     20928     20931     20934     20931     20934     20937     20938
     20931     20934     20937     20939     20931     20934     20937     20940
     20932     20931     20934     20935     20932     20931     20934     20936
     20932     20931     20934     20937     20933     20931     20934     20935
     20933     20931     20934     20936     20933     20931     20934     20937
     20934     20937     20940     20941     20934     20937     20940     20942
     20934     20937     20940     20945     20935     20934     20937     20938
     20935     20934     20937     20939     20935     20934     20937     20940
     20936     20934     20937     20938     20936     20934     20937     20939
     20936     20934     20937     20940     20937     20940     20942     20943
     20937     20940     20942     20944     20937     20940     20942     20945
     20937     20940     20945     20942     20937     20940     20945     20946
     20937     20940     20945     20947     20938     20937     20940     20941
     20938     20937     20940     20942     20938     20937     20940     20945
     20939     20937     20940     20941     20939     20937     20940     20942
     20939     20937     20940     20945     20940     20942     20945     20946
     20940     20942     20945     20947     20940     20945     20942     20943
     20940     20945     20942     20944     20940     20945     20947     20948
     20940     20945     20947     20949     20940     20945     20947     20950
     20941     20940     20942     20943     20941     20940     20942     20944
     20941     20940     20942     20945     20941     20940     20945     20942
     20941     20940     20945     20946     20941     20940     20945     20947
     20942     20940     20945     20946     20942     20940     20945     20947
     20942     20945     20947     20948     20942     20945     20947     20949
     20942     20945     20947     20950     20943     20942     20940     20945
     20943     20942     20945     20946     20943     20942     20945     20947
     20944     20942     20940     20945     20944     20942     20945     20946
     20944     20942     20945     20947     20945     20947     20950     20951
     20945     20947     20950     20952     20945     20947     20950     20953
     20946     20945     20947     20948     20946     20945     20947     20949
     20946     20945     20947     20950     20947     20950     20953     20954
     20947     20950     20953     20955     20947     20950     20953     20956
     20948     20947     20950     20951     20948     20947     20950     20952
     20948     20947     20950     20953     20949     20947     20950     20951
     20949     20947     20950     20952     20949     20947     20950     20953
     20950     20953     20956     20957     20950     20953     20956     20958
     20950     20953     20956     20959     20951     20950     20953     20954
     20951     20950     20953     20955     20951     20950     20953     20956
     20952     20950     20953     20954     20952     20950     20953     20955
     20952     20950     20953     20956     20953     20956     20959     20960
     20953     20956     20959     20961     20953     20956     20959     20962
     20954     20953     20956     20957     20954     20953     20956     20958
     20954     20953     20956     20959     20955     20953     20956     20957
     20955     20953     20956     20958     20955     20953     20956     20959
     20956     20959     20962     20963     20956     20959     20962     20964
     20956     20959     20962     20965     20957     20956     20959     20960
     20957     20956     20959     20961     20957     20956     20959     20962
     20958     20956     20959     20960     20958     20956     20959     20961
     20958     20956     20959     20962     20960     20959     20962     20963
     20960     20959     20962     20964     20960     20959     20962     20965
     20961     20959     20962     20963     20961     20959     20962     20964
     20961     20959     20962     20965     20966     20969     20972     20973
     20966     20969     20972     20974     20966     20969     20972     20975
     20967     20966     20969     20970     20967     20966     20969     20971
     20967     20966     20969     20972     20968     20966     20969     20970
     20968     20966     20969     20971     20968     20966     20969     20972
     20969     20972     20975     20976     20969     20972     20975     20977
     20969     20972     20975     20978     20970     20969     20972     20973
     20970     20969     20972     20974     20970     20969     20972     20975
     20971     20969     20972     20973     20971     20969     20972     20974
     20971     20969     20972     20975     20972     20975     20978     20979
     20972     20975     20978     20980     20972     20975     20978     20981
     20973     20972     20975     20976     20973     20972     20975     20977
     20973     20972     20975     20978     20974     20972     20975     20976
     20974     20972     20975     20977     20974     20972     20975     20978
     20975     20978     20981     20982     20975     20978     20981     20983
     20975     20978     20981     20984     20976     20975     20978     20979
     20976     20975     20978     20980     20976     20975     20978     20981
     20977     20975     20978     20979     20977     20975     20978     20980
     20977     20975     20978     20981     20978     20981     20984     20985
     20978     20981     20984     20986     20978     20981     20984     20987
     20979     20978     20981     20982     20979     20978     20981     20983
     20979     20978     20981     20984     20980     20978     20981     20982
     20980     20978     20981     20983     20980     20978     20981     20984
     20981     20984     20987     20988     20981     20984     20987     20989
     20981     20984     20987     20990     20982     20981     20984     20985
     20982     20981     20984     20986     20982     20981     20984     20987
     20983     20981     20984     20985     20983     20981     20984     20986
     20983     20981     20984     20987     20984     20987     20990     20991
     20984     20987     20990     20992     20984     20987     20990     20993
     20985     20984     20987     20988     20985     20984     20987     20989
     20985     20984     20987     20990     20986     20984     20987     20988
     20986     20984     20987     20989     20986     20984     20987     20990
     20987     20990     20993     20994     20987     20990     20993     20995
     20987     20990     20993     20996     20988     20987     20990     20991
     20988     20987     20990     20992     20988     20987     20990     20993
     20989     20987     20990     20991     20989     20987     20990     20992
     20989     20987     20990     20993     20990     20993     20996     20997
     20990     20993     20996     20998     20990     20993     20996     20999
     20991     20990     20993     20994     20991     20990     20993     20995
     20991     20990     20993     20996     20992     20990     20993     20994
     20992     20990     20993     20995     20992     20990     20993     20996
     20993     20996     20999     21000     20993     20996     20999     21001
     20993     20996     20999     21002     20994     20993     20996     20997
     20994     20993     20996     20998     20994     20993     20996     20999
     20995     20993     20996     20997     20995     20993     20996     20998
     20995     20993     20996     20999     20996     20999     21002     21003
     20996     20999     21002     21004     20996     20999     21002     21005
     20997     20996     20999     21000     20997     20996     20999     21001
     20997     20996     20999     21002     20998     20996     20999     21000
     20998     20996     20999     21001     20998     20996     20999     21002
     20999     21002     21005     21006     20999     21002     21005     21007
     20999     21002     21005     21008     21000     20999     21002     21003
     21000     20999     21002     21004     21000     20999     21002     21005
     21001     20999     21002     21003     21001     20999     21002     21004
     21001     20999     21002     21005     21003     21002     21005     21006
     21003     21002     21005     21007     21003     21002     21005     21008
     21004     21002     21005     21006     21004     21002     21005     21007
     21004     21002     21005     21008     21009     21013     21016     21017
     21009     21013     21016     21018     21009     21013     21016     21023
     21010     21009     21013     21014     21010     21009     21013     21015
     21010     21009     21013     21016     21011     21009     21013     21014
     21011     21009     21013     21015     21011     21009     21013     21016
     21012     21009     21013     21014     21012     21009     21013     21015
     21012     21009     21013     21016     21013     21016     21023     21019
     21014     21013     21016     21017     21014     21013     21016     21018
     21014     21013     21016     21023     21015     21013     21016     21017
     21015     21013     21016     21018     21015     21013     21016     21023
     21016     21023     21019     21020     21016     21023     21019     21021
     21016     21023     21019     21022     21017     21016     21023     21019
     21018     21016     21023     21019     21019     21022     21024     21025
     21019     21022     21024     21026     21019     21022     21024     21027
     21020     21019     21022     21024     21021     21019     21022     21024
     21022     21024     21027     21028     21022     21024     21027     21029
     21022     21024     21027     21035     21023     21019     21022     21024
     21024     21027     21029     21030     21024     21027     21035     21036
     21024     21027     21035     21037     21024     21027     21035     21038
     21025     21024     21027     21028     21025     21024     21027     21029
     21025     21024     21027     21035     21026     21024     21027     21028
     21026     21024     21027     21029     21026     21024     21027     21035
     21027     21029     21030     21031     21027     21029     21030     21032
     21027     21035     21038     21039     21028     21027     21029     21030
     21028     21027     21035     21036     21028     21027     21035     21037
     21028     21027     21035     21038     21029     21027     21035     21036
     21029     21027     21035     21037     21029     21027     21035     21038
     21029     21030     21032     21033     21029     21030     21032     21034
     21029     21030     21032     21044     21030     21029     21027     21035
     21030     21032     21044     21045     21030     21032     21044     21046
     21030     21032     21044     21047     21031     21030     21032     21033
     21031     21030     21032     21034     21031     21030     21032     21044
     21032     21044     21047     21048     21032     21044     21047     21049
     21032     21044     21047     21050     21033     21032     21044     21045
     21033     21032     21044     21046     21033     21032     21044     21047
     21034     21032     21044     21045     21034     21032     21044     21046
     21034     21032     21044     21047     21035     21038     21039     21040
     21035     21038     21039     21041     21036     21035     21038     21039
     21037     21035     21038     21039     21038     21039     21041     21042
     21038     21039     21041     21043     21038     21039     21041     21091
     21039     21041     21091     21092     21039     21041     21091     21093
     21039     21041     21091     21094     21040     21039     21041     21042
     21040     21039     21041     21043     21040     21039     21041     21091
     21041     21091     21094     21095     21041     21091     21094     21096
     21041     21091     21094     21097     21042     21041     21091     21092
     21042     21041     21091     21093     21042     21041     21091     21094
     21043     21041     21091     21092     21043     21041     21091     21093
     21043     21041     21091     21094     21044     21047     21050     21051
     21044     21047     21050     21052     21044     21047     21050     21053
     21045     21044     21047     21048     21045     21044     21047     21049
     21045     21044     21047     21050     21046     21044     21047     21048
     21046     21044     21047     21049     21046     21044     21047     21050
     21047     21050     21053     21054     21047     21050     21053     21055
     21047     21050     21053     21056     21048     21047     21050     21051
     21048     21047     21050     21052     21048     21047     21050     21053
     21049     21047     21050     21051     21049     21047     21050     21052
     21049     21047     21050     21053     21050     21053     21056     21057
     21050     21053     21056     21058     21050     21053     21056     21059
     21051     21050     21053     21054     21051     21050     21053     21055
     21051     21050     21053     21056     21052     21050     21053     21054
     21052     21050     21053     21055     21052     21050     21053     21056
     21053     21056     21059     21060     21053     21056     21059     21061
     21053     21056     21059     21062     21054     21053     21056     21057
     21054     21053     21056     21058     21054     21053     21056     21059
     21055     21053     21056     21057     21055     21053     21056     21058
     21055     21053     21056     21059     21056     21059     21062     21063
     21056     21059     21062     21064     21057     21056     21059     21060
     21057     21056     21059     21061     21057     21056     21059     21062
     21058     21056     21059     21060     21058     21056     21059     21061
     21058     21056     21059     21062     21059     21062     21064     21065
     21059     21062     21064     21066     21060     21059     21062     21063
     21060     21059     21062     21064     21061     21059     21062     21063
     21061     21059     21062     21064     21062     21064     21066     21067
     21062     21064     21066     21068     21062     21064     21066     21069
     21063     21062     21064     21065     21063     21062     21064     21066
     21064     21066     21069     21070     21064     21066     21069     21071
     21064     21066     21069     21072     21065     21064     21066     21067
     21065     21064     21066     21068     21065     21064     21066     21069
     21066     21069     21072     21073     21066     21069     21072     21074
     21066     21069     21072     21075     21067     21066     21069     21070
     21067     21066     21069     21071     21067     21066     21069     21072
     21068     21066     21069     21070     21068     21066     21069     21071
     21068     21066     21069     21072     21069     21072     21075     21076
     21069     21072     21075     21077     21069     21072     21075     21078
     21070     21069     21072     21073     21070     21069     21072     21074
     21070     21069     21072     21075     21071     21069     21072     21073
     21071     21069     21072     21074     21071     21069     21072     21075
     21072     21075     21078     21079     21072     21075     21078     21080
     21072     21075     21078     21081     21073     21072     21075     21076
     21073     21072     21075     21077     21073     21072     21075     21078
     21074     21072     21075     21076     21074     21072     21075     21077
     21074     21072     21075     21078     21075     21078     21081     21082
     21075     21078     21081     21083     21075     21078     21081     21084
     21076     21075     21078     21079     21076     21075     21078     21080
     21076     21075     21078     21081     21077     21075     21078     21079
     21077     21075     21078     21080     21077     21075     21078     21081
     21078     21081     21084     21085     21078     21081     21084     21086
     21078     21081     21084     21087     21079     21078     21081     21082
     21079     21078     21081     21083     21079     21078     21081     21084
     21080     21078     21081     21082     21080     21078     21081     21083
     21080     21078     21081     21084     21081     21084     21087     21088
     21081     21084     21087     21089     21081     21084     21087     21090
     21082     21081     21084     21085     21082     21081     21084     21086
     21082     21081     21084     21087     21083     21081     21084     21085
     21083     21081     21084     21086     21083     21081     21084     21087
     21085     21084     21087     21088     21085     21084     21087     21089
     21085     21084     21087     21090     21086     21084     21087     21088
     21086     21084     21087     21089     21086     21084     21087     21090
     21091     21094     21097     21098     21091     21094     21097     21099
     21091     21094     21097     21100     21092     21091     21094     21095
     21092     21091     21094     21096     21092     21091     21094     21097
     21093     21091     21094     21095     21093     21091     21094     21096
     21093     21091     21094     21097     21094     21097     21100     21101
     21094     21097     21100     21102     21094     21097     21100     21103
     21095     21094     21097     21098     21095     21094     21097     21099
     21095     21094     21097     21100     21096     21094     21097     21098
     21096     21094     21097     21099     21096     21094     21097     21100
     21097     21100     21103     21104     21097     21100     21103     21105
     21097     21100     21103     21106     21098     21097     21100     21101
     21098     21097     21100     21102     21098     21097     21100     21103
     21099     21097     21100     21101     21099     21097     21100     21102
     21099     21097     21100     21103     21100     21103     21106     21107
     21100     21103     21106     21108     21100     21103     21106     21109
     21101     21100     21103     21104     21101     21100     21103     21105
     21101     21100     21103     21106     21102     21100     21103     21104
     21102     21100     21103     21105     21102     21100     21103     21106
     21103     21106     21109     21110     21103     21106     21109     21111
     21103     21106     21109     21112     21104     21103     21106     21107
     21104     21103     21106     21108     21104     21103     21106     21109
     21105     21103     21106     21107     21105     21103     21106     21108
     21105     21103     21106     21109     21106     21109     21112     21113
     21106     21109     21112     21114     21106     21109     21112     21115
     21107     21106     21109     21110     21107     21106     21109     21111
     21107     21106     21109     21112     21108     21106     21109     21110
     21108     21106     21109     21111     21108     21106     21109     21112
     21109     21112     21115     21116     21109     21112     21115     21117
     21109     21112     21115     21118     21110     21109     21112     21113
     21110     21109     21112     21114     21110     21109     21112     21115
     21111     21109     21112     21113     21111     21109     21112     21114
     21111     21109     21112     21115     21112     21115     21118     21119
     21112     21115     21118     21120     21112     21115     21118     21121
     21113     21112     21115     21116     21113     21112     21115     21117
     21113     21112     21115     21118     21114     21112     21115     21116
     21114     21112     21115     21117     21114     21112     21115     21118
     21115     21118     21121     21122     21115     21118     21121     21123
     21115     21118     21121     21124     21116     21115     21118     21119
     21116     21115     21118     21120     21116     21115     21118     21121
     21117     21115     21118     21119     21117     21115     21118     21120
     21117     21115     21118     21121     21118     21121     21124     21125
     21118     21121     21124     21126     21118     21121     21124     21127
     21119     21118     21121     21122     21119     21118     21121     21123
     21119     21118     21121     21124     21120     21118     21121     21122
     21120     21118     21121     21123     21120     21118     21121     21124
     21121     21124     21127     21128     21121     21124     21127     21129
     21121     21124     21127     21130     21122     21121     21124     21125
     21122     21121     21124     21126     21122     21121     21124     21127
     21123     21121     21124     21125     21123     21121     21124     21126
     21123     21121     21124     21127     21124     21127     21130     21131
     21124     21127     21130     21132     21124     21127     21130     21133
     21125     21124     21127     21128     21125     21124     21127     21129
     21125     21124     21127     21130     21126     21124     21127     21128
     21126     21124     21127     21129     21126     21124     21127     21130
     21128     21127     21130     21131     21128     21127     21130     21132
     21128     21127     21130     21133     21129     21127     21130     21131
     21129     21127     21130     21132     21129     21127     21130     21133
     21134     21138     21141     21142     21134     21138     21141     21143
     21134     21138     21141     21148     21135     21134     21138     21139
     21135     21134     21138     21140     21135     21134     21138     21141
     21136     21134     21138     21139     21136     21134     21138     21140
     21136     21134     21138     21141     21137     21134     21138     21139
     21137     21134     21138     21140     21137     21134     21138     21141
     21138     21141     21148     21144     21139     21138     21141     21142
     21139     21138     21141     21143     21139     21138     21141     21148
     21140     21138     21141     21142     21140     21138     21141     21143
     21140     21138     21141     21148     21141     21148     21144     21145
     21141     21148     21144     21146     21141     21148     21144     21147
     21142     21141     21148     21144     21143     21141     21148     21144
     21144     21147     21149     21150     21144     21147     21149     21151
     21144     21147     21149     21152     21145     21144     21147     21149
     21146     21144     21147     21149     21147     21149     21152     21153
     21147     21149     21152     21154     21147     21149     21152     21160
     21148     21144     21147     21149     21149     21152     21154     21155
     21149     21152     21160     21161     21149     21152     21160     21162
     21149     21152     21160     21163     21150     21149     21152     21153
     21150     21149     21152     21154     21150     21149     21152     21160
     21151     21149     21152     21153     21151     21149     21152     21154
     21151     21149     21152     21160     21152     21154     21155     21156
     21152     21154     21155     21157     21152     21160     21163     21164
     21153     21152     21154     21155     21153     21152     21160     21161
     21153     21152     21160     21162     21153     21152     21160     21163
     21154     21152     21160     21161     21154     21152     21160     21162
     21154     21152     21160     21163     21154     21155     21157     21158
     21154     21155     21157     21159     21154     21155     21157     21169
     21155     21154     21152     21160     21155     21157     21169     21170
     21155     21157     21169     21171     21155     21157     21169     21172
     21156     21155     21157     21158     21156     21155     21157     21159
     21156     21155     21157     21169     21157     21169     21172     21173
     21157     21169     21172     21174     21157     21169     21172     21175
     21158     21157     21169     21170     21158     21157     21169     21171
     21158     21157     21169     21172     21159     21157     21169     21170
     21159     21157     21169     21171     21159     21157     21169     21172
     21160     21163     21164     21165     21160     21163     21164     21166
     21161     21160     21163     21164     21162     21160     21163     21164
     21163     21164     21166     21167     21163     21164     21166     21168
     21163     21164     21166     21213     21164     21166     21213     21214
     21164     21166     21213     21215     21164     21166     21213     21216
     21165     21164     21166     21167     21165     21164     21166     21168
     21165     21164     21166     21213     21166     21213     21216     21217
     21166     21213     21216     21218     21166     21213     21216     21219
     21167     21166     21213     21214     21167     21166     21213     21215
     21167     21166     21213     21216     21168     21166     21213     21214
     21168     21166     21213     21215     21168     21166     21213     21216
     21169     21172     21175     21176     21169     21172     21175     21177
     21169     21172     21175     21178     21170     21169     21172     21173
     21170     21169     21172     21174     21170     21169     21172     21175
     21171     21169     21172     21173     21171     21169     21172     21174
     21171     21169     21172     21175     21172     21175     21178     21179
     21172     21175     21178     21180     21172     21175     21178     21181
     21173     21172     21175     21176     21173     21172     21175     21177
     21173     21172     21175     21178     21174     21172     21175     21176
     21174     21172     21175     21177     21174     21172     21175     21178
     21175     21178     21181     21182     21175     21178     21181     21183
     21175     21178     21181     21184     21176     21175     21178     21179
     21176     21175     21178     21180     21176     21175     21178     21181
     21177     21175     21178     21179     21177     21175     21178     21180
     21177     21175     21178     21181     21178     21181     21184     21185
     21178     21181     21184     21186     21178     21181     21184     21187
     21179     21178     21181     21182     21179     21178     21181     21183
     21179     21178     21181     21184     21180     21178     21181     21182
     21180     21178     21181     21183     21180     21178     21181     21184
     21181     21184     21187     21188     21181     21184     21187     21189
     21181     21184     21187     21192     21182     21181     21184     21185
     21182     21181     21184     21186     21182     21181     21184     21187
     21183     21181     21184     21185     21183     21181     21184     21186
     21183     21181     21184     21187     21184     21187     21189     21190
     21184     21187     21189     21191     21184     21187     21189     21192
     21184     21187     21192     21189     21184     21187     21192     21193
     21184     21187     21192     21194     21185     21184     21187     21188
     21185     21184     21187     21189     21185     21184     21187     21192
     21186     21184     21187     21188     21186     21184     21187     21189
     21186     21184     21187     21192     21187     21189     21192     21193
     21187     21189     21192     21194     21187     21192     21189     21190
     21187     21192     21189     21191     21187     21192     21194     21195
     21187     21192     21194     21196     21187     21192     21194     21197
     21188     21187     21189     21190     21188     21187     21189     21191
     21188     21187     21189     21192     21188     21187     21192     21189
     21188     21187     21192     21193     21188     21187     21192     21194
     21189     21187     21192     21193     21189     21187     21192     21194
     21189     21192     21194     21195     21189     21192     21194     21196
     21189     21192     21194     21197     21190     21189     21187     21192
     21190     21189     21192     21193     21190     21189     21192     21194
     21191     21189     21187     21192     21191     21189     21192     21193
     21191     21189     21192     21194     21192     21194     21197     21198
     21192     21194     21197     21199     21192     21194     21197     21200
     21193     21192     21194     21195     21193     21192     21194     21196
     21193     21192     21194     21197     21194     21197     21200     21201
     21194     21197     21200     21202     21194     21197     21200     21203
     21195     21194     21197     21198     21195     21194     21197     21199
     21195     21194     21197     21200     21196     21194     21197     21198
     21196     21194     21197     21199     21196     21194     21197     21200
     21197     21200     21203     21204     21197     21200     21203     21205
     21197     21200     21203     21206     21198     21197     21200     21201
     21198     21197     21200     21202     21198     21197     21200     21203
     21199     21197     21200     21201     21199     21197     21200     21202
     21199     21197     21200     21203     21200     21203     21206     21207
     21200     21203     21206     21208     21200     21203     21206     21209
     21201     21200     21203     21204     21201     21200     21203     21205
     21201     21200     21203     21206     21202     21200     21203     21204
     21202     21200     21203     21205     21202     21200     21203     21206
     21203     21206     21209     21210     21203     21206     21209     21211
     21203     21206     21209     21212     21204     21203     21206     21207
     21204     21203     21206     21208     21204     21203     21206     21209
     21205     21203     21206     21207     21205     21203     21206     21208
     21205     21203     21206     21209     21207     21206     21209     21210
     21207     21206     21209     21211     21207     21206     21209     21212
     21208     21206     21209     21210     21208     21206     21209     21211
     21208     21206     21209     21212     21213     21216     21219     21220
     21213     21216     21219     21221     21213     21216     21219     21222
     21214     21213     21216     21217     21214     21213     21216     21218
     21214     21213     21216     21219     21215     21213     21216     21217
     21215     21213     21216     21218     21215     21213     21216     21219
     21216     21219     21222     21223     21216     21219     21222     21224
     21216     21219     21222     21225     21217     21216     21219     21220
     21217     21216     21219     21221     21217     21216     21219     21222
     21218     21216     21219     21220     21218     21216     21219     21221
     21218     21216     21219     21222     21219     21222     21225     21226
     21219     21222     21225     21227     21219     21222     21225     21228
     21220     21219     21222     21223     21220     21219     21222     21224
     21220     21219     21222     21225     21221     21219     21222     21223
     21221     21219     21222     21224     21221     21219     21222     21225
     21222     21225     21228     21229     21222     21225     21228     21230
     21222     21225     21228     21231     21223     21222     21225     21226
     21223     21222     21225     21227     21223     21222     21225     21228
     21224     21222     21225     21226     21224     21222     21225     21227
     21224     21222     21225     21228     21225     21228     21231     21232
     21225     21228     21231     21233     21225     21228     21231     21234
     21226     21225     21228     21229     21226     21225     21228     21230
     21226     21225     21228     21231     21227     21225     21228     21229
     21227     21225     21228     21230     21227     21225     21228     21231
     21228     21231     21234     21235     21228     21231     21234     21236
     21228     21231     21234     21237     21229     21228     21231     21232
     21229     21228     21231     21233     21229     21228     21231     21234
     21230     21228     21231     21232     21230     21228     21231     21233
     21230     21228     21231     21234     21231     21234     21237     21238
     21231     21234     21237     21239     21231     21234     21237     21240
     21232     21231     21234     21235     21232     21231     21234     21236
     21232     21231     21234     21237     21233     21231     21234     21235
     21233     21231     21234     21236     21233     21231     21234     21237
     21234     21237     21240     21241     21234     21237     21240     21242
     21234     21237     21240     21243     21235     21234     21237     21238
     21235     21234     21237     21239     21235     21234     21237     21240
     21236     21234     21237     21238     21236     21234     21237     21239
     21236     21234     21237     21240     21237     21240     21243     21244
     21237     21240     21243     21245     21237     21240     21243     21246
     21238     21237     21240     21241     21238     21237     21240     21242
     21238     21237     21240     21243     21239     21237     21240     21241
     21239     21237     21240     21242     21239     21237     21240     21243
     21240     21243     21246     21247     21240     21243     21246     21248
     21240     21243     21246     21249     21241     21240     21243     21244
     21241     21240     21243     21245     21241     21240     21243     21246
     21242     21240     21243     21244     21242     21240     21243     21245
     21242     21240     21243     21246     21243     21246     21249     21250
     21243     21246     21249     21251     21243     21246     21249     21252
     21244     21243     21246     21247     21244     21243     21246     21248
     21244     21243     21246     21249     21245     21243     21246     21247
     21245     21243     21246     21248     21245     21243     21246     21249
     21246     21249     21252     21253     21246     21249     21252     21254
     21246     21249     21252     21255     21247     21246     21249     21250
     21247     21246     21249     21251     21247     21246     21249     21252
     21248     21246     21249     21250     21248     21246     21249     21251
     21248     21246     21249     21252     21250     21249     21252     21253
     21250     21249     21252     21254     21250     21249     21252     21255
     21251     21249     21252     21253     21251     21249     21252     21254
     21251     21249     21252     21255     21256     21261     21263     21264
     21256     21261     21265     21266     21256     21261     21265     21267
     21256     21261     21265     21272     21257     21256     21259     21260
     21257     21256     21261     21262     21257     21256     21261     21263
     21257     21256     21261     21265     21258     21256     21259     21260
     21258     21256     21261     21262     21258     21256     21261     21263
     21258     21256     21261     21265     21259     21256     21261     21262
     21259     21256     21261     21263     21259     21256     21261     21265
     21260     21259     21256     21261     21261     21265     21272     21268
     21262     21261     21263     21264     21262     21261     21265     21266
     21262     21261     21265     21267     21262     21261     21265     21272
     21263     21261     21265     21266     21263     21261     21265     21267
     21263     21261     21265     21272     21264     21263     21261     21265
     21265     21272     21268     21269     21265     21272     21268     21270
     21265     21272     21268     21271     21266     21265     21272     21268
     21267     21265     21272     21268     21268     21271     21273     21274
     21268     21271     21273     21275     21268     21271     21273     21276
     21269     21268     21271     21273     21270     21268     21271     21273
     21271     21273     21276     21277     21271     21273     21276     21278
     21271     21273     21276     21284     21272     21268     21271     21273
     21273     21276     21278     21279     21273     21276     21284     21285
     21273     21276     21284     21286     21273     21276     21284     21287
     21274     21273     21276     21277     21274     21273     21276     21278
     21274     21273     21276     21284     21275     21273     21276     21277
     21275     21273     21276     21278     21275     21273     21276     21284
     21276     21278     21279     21280     21276     21278     21279     21281
     21276     21284     21287     21288     21277     21276     21278     21279
     21277     21276     21284     21285     21277     21276     21284     21286
     21277     21276     21284     21287     21278     21276     21284     21285
     21278     21276     21284     21286     21278     21276     21284     21287
     21278     21279     21281     21282     21278     21279     21281     21283
     21278     21279     21281     21293     21279     21278     21276     21284
     21279     21281     21293     21294     21279     21281     21293     21295
     21279     21281     21293     21296     21280     21279     21281     21282
     21280     21279     21281     21283     21280     21279     21281     21293
     21281     21293     21296     21297     21281     21293     21296     21298
     21281     21293     21296     21299     21282     21281     21293     21294
     21282     21281     21293     21295     21282     21281     21293     21296
     21283     21281     21293     21294     21283     21281     21293     21295
     21283     21281     21293     21296     21284     21287     21288     21289
     21284     21287     21288     21290     21285     21284     21287     21288
     21286     21284     21287     21288     21287     21288     21290     21291
     21287     21288     21290     21292     21287     21288     21290     21337
     21288     21290     21337     21338     21288     21290     21337     21339
     21288     21290     21337     21340     21289     21288     21290     21291
     21289     21288     21290     21292     21289     21288     21290     21337
     21290     21337     21340     21341     21290     21337     21340     21342
     21290     21337     21340     21343     21291     21290     21337     21338
     21291     21290     21337     21339     21291     21290     21337     21340
     21292     21290     21337     21338     21292     21290     21337     21339
     21292     21290     21337     21340     21293     21296     21299     21300
     21293     21296     21299     21301     21293     21296     21299     21302
     21294     21293     21296     21297     21294     21293     21296     21298
     21294     21293     21296     21299     21295     21293     21296     21297
     21295     21293     21296     21298     21295     21293     21296     21299
     21296     21299     21302     21303     21296     21299     21302     21304
     21296     21299     21302     21305     21297     21296     21299     21300
     21297     21296     21299     21301     21297     21296     21299     21302
     21298     21296     21299     21300     21298     21296     21299     21301
     21298     21296     21299     21302     21299     21302     21305     21306
     21299     21302     21305     21307     21299     21302     21305     21308
     21300     21299     21302     21303     21300     21299     21302     21304
     21300     21299     21302     21305     21301     21299     21302     21303
     21301     21299     21302     21304     21301     21299     21302     21305
     21302     21305     21308     21309     21302     21305     21308     21310
     21302     21305     21308     21311     21303     21302     21305     21306
     21303     21302     21305     21307     21303     21302     21305     21308
     21304     21302     21305     21306     21304     21302     21305     21307
     21304     21302     21305     21308     21305     21308     21311     21312
     21305     21308     21311     21313     21305     21308     21311     21316
     21306     21305     21308     21309     21306     21305     21308     21310
     21306     21305     21308     21311     21307     21305     21308     21309
     21307     21305     21308     21310     21307     21305     21308     21311
     21308     21311     21313     21314     21308     21311     21313     21315
     21308     21311     21313     21316     21308     21311     21316     21313
     21308     21311     21316     21317     21308     21311     21316     21318
     21309     21308     21311     21312     21309     21308     21311     21313
     21309     21308     21311     21316     21310     21308     21311     21312
     21310     21308     21311     21313     21310     21308     21311     21316
     21311     21313     21316     21317     21311     21313     21316     21318
     21311     21316     21313     21314     21311     21316     21313     21315
     21311     21316     21318     21319     21311     21316     21318     21320
     21311     21316     21318     21321     21312     21311     21313     21314
     21312     21311     21313     21315     21312     21311     21313     21316
     21312     21311     21316     21313     21312     21311     21316     21317
     21312     21311     21316     21318     21313     21311     21316     21317
     21313     21311     21316     21318     21313     21316     21318     21319
     21313     21316     21318     21320     21313     21316     21318     21321
     21314     21313     21311     21316     21314     21313     21316     21317
     21314     21313     21316     21318     21315     21313     21311     21316
     21315     21313     21316     21317     21315     21313     21316     21318
     21316     21318     21321     21322     21316     21318     21321     21323
     21316     21318     21321     21324     21317     21316     21318     21319
     21317     21316     21318     21320     21317     21316     21318     21321
     21318     21321     21324     21325     21318     21321     21324     21326
     21318     21321     21324     21327     21319     21318     21321     21322
     21319     21318     21321     21323     21319     21318     21321     21324
     21320     21318     21321     21322     21320     21318     21321     21323
     21320     21318     21321     21324     21321     21324     21327     21328
     21321     21324     21327     21329     21321     21324     21327     21330
     21322     21321     21324     21325     21322     21321     21324     21326
     21322     21321     21324     21327     21323     21321     21324     21325
     21323     21321     21324     21326     21323     21321     21324     21327
     21324     21327     21330     21331     21324     21327     21330     21332
     21324     21327     21330     21333     21325     21324     21327     21328
     21325     21324     21327     21329     21325     21324     21327     21330
     21326     21324     21327     21328     21326     21324     21327     21329
     21326     21324     21327     21330     21327     21330     21333     21334
     21327     21330     21333     21335     21327     21330     21333     21336
     21328     21327     21330     21331     21328     21327     21330     21332
     21328     21327     21330     21333     21329     21327     21330     21331
     21329     21327     21330     21332     21329     21327     21330     21333
     21331     21330     21333     21334     21331     21330     21333     21335
     21331     21330     21333     21336     21332     21330     21333     21334
     21332     21330     21333     21335     21332     21330     21333     21336
     21337     21340     21343     21344     21337     21340     21343     21345
     21337     21340     21343     21346     21338     21337     21340     21341
     21338     21337     21340     21342     21338     21337     21340     21343
     21339     21337     21340     21341     21339     21337     21340     21342
     21339     21337     21340     21343     21340     21343     21346     21347
     21340     21343     21346     21348     21340     21343     21346     21349
     21341     21340     21343     21344     21341     21340     21343     21345
     21341     21340     21343     21346     21342     21340     21343     21344
     21342     21340     21343     21345     21342     21340     21343     21346
     21343     21346     21349     21350     21343     21346     21349     21351
     21343     21346     21349     21352     21344     21343     21346     21347
     21344     21343     21346     21348     21344     21343     21346     21349
     21345     21343     21346     21347     21345     21343     21346     21348
     21345     21343     21346     21349     21346     21349     21352     21353
     21346     21349     21352     21354     21346     21349     21352     21355
     21347     21346     21349     21350     21347     21346     21349     21351
     21347     21346     21349     21352     21348     21346     21349     21350
     21348     21346     21349     21351     21348     21346     21349     21352
     21349     21352     21355     21356     21349     21352     21355     21357
     21349     21352     21355     21358     21350     21349     21352     21353
     21350     21349     21352     21354     21350     21349     21352     21355
     21351     21349     21352     21353     21351     21349     21352     21354
     21351     21349     21352     21355     21352     21355     21358     21359
     21352     21355     21358     21360     21352     21355     21358     21361
     21353     21352     21355     21356     21353     21352     21355     21357
     21353     21352     21355     21358     21354     21352     21355     21356
     21354     21352     21355     21357     21354     21352     21355     21358
     21355     21358     21361     21362     21355     21358     21361     21363
     21355     21358     21361     21364     21356     21355     21358     21359
     21356     21355     21358     21360     21356     21355     21358     21361
     21357     21355     21358     21359     21357     21355     21358     21360
     21357     21355     21358     21361     21358     21361     21364     21365
     21358     21361     21364     21366     21358     21361     21364     21367
     21359     21358     21361     21362     21359     21358     21361     21363
     21359     21358     21361     21364     21360     21358     21361     21362
     21360     21358     21361     21363     21360     21358     21361     21364
     21361     21364     21367     21368     21361     21364     21367     21369
     21361     21364     21367     21370     21362     21361     21364     21365
     21362     21361     21364     21366     21362     21361     21364     21367
     21363     21361     21364     21365     21363     21361     21364     21366
     21363     21361     21364     21367     21364     21367     21370     21371
     21364     21367     21370     21372     21364     21367     21370     21373
     21365     21364     21367     21368     21365     21364     21367     21369
     21365     21364     21367     21370     21366     21364     21367     21368
     21366     21364     21367     21369     21366     21364     21367     21370
     21367     21370     21373     21374     21367     21370     21373     21375
     21367     21370     21373     21376     21368     21367     21370     21371
     21368     21367     21370     21372     21368     21367     21370     21373
     21369     21367     21370     21371     21369     21367     21370     21372
     21369     21367     21370     21373     21370     21373     21376     21377
     21370     21373     21376     21378     21370     21373     21376     21379
     21371     21370     21373     21374     21371     21370     21373     21375
     21371     21370     21373     21376     21372     21370     21373     21374
     21372     21370     21373     21375     21372     21370     21373     21376
     21374     21373     21376     21377     21374     21373     21376     21378
     21374     21373     21376     21379     21375     21373     21376     21377
     21375     21373     21376     21378     21375     21373     21376     21379
     21380     21384     21387     21388     21380     21384     21387     21389
     21380     21384     21387     21394     21381     21380     21384     21385
     21381     21380     21384     21386     21381     21380     21384     21387
     21382     21380     21384     21385     21382     21380     21384     21386
     21382     21380     21384     21387     21383     21380     21384     21385
     21383     21380     21384     21386     21383     21380     21384     21387
     21384     21387     21394     21390     21385     21384     21387     21388
     21385     21384     21387     21389     21385     21384     21387     21394
     21386     21384     21387     21388     21386     21384     21387     21389
     21386     21384     21387     21394     21387     21394     21390     21391
     21387     21394     21390     21392     21387     21394     21390     21393
     21388     21387     21394     21390     21389     21387     21394     21390
     21390     21393     21395     21396     21390     21393     21395     21397
     21390     21393     21395     21398     21391     21390     21393     21395
     21392     21390     21393     21395     21393     21395     21398     21399
     21393     21395     21398     21400     21393     21395     21398     21406
     21394     21390     21393     21395     21395     21398     21400     21401
     21395     21398     21406     21407     21395     21398     21406     21408
     21395     21398     21406     21409     21396     21395     21398     21399
     21396     21395     21398     21400     21396     21395     21398     21406
     21397     21395     21398     21399     21397     21395     21398     21400
     21397     21395     21398     21406     21398     21400     21401     21402
     21398     21400     21401     21403     21398     21406     21409     21410
     21399     21398     21400     21401     21399     21398     21406     21407
     21399     21398     21406     21408     21399     21398     21406     21409
     21400     21398     21406     21407     21400     21398     21406     21408
     21400     21398     21406     21409     21400     21401     21403     21404
     21400     21401     21403     21405     21400     21401     21403     21415
     21401     21400     21398     21406     21401     21403     21415     21416
     21401     21403     21415     21417     21401     21403     21415     21418
     21402     21401     21403     21404     21402     21401     21403     21405
     21402     21401     21403     21415     21403     21415     21418     21419
     21403     21415     21418     21420     21403     21415     21418     21421
     21404     21403     21415     21416     21404     21403     21415     21417
     21404     21403     21415     21418     21405     21403     21415     21416
     21405     21403     21415     21417     21405     21403     21415     21418
     21406     21409     21410     21411     21406     21409     21410     21412
     21407     21406     21409     21410     21408     21406     21409     21410
     21409     21410     21412     21413     21409     21410     21412     21414
     21409     21410     21412     21459     21410     21412     21459     21460
     21410     21412     21459     21461     21410     21412     21459     21462
     21411     21410     21412     21413     21411     21410     21412     21414
     21411     21410     21412     21459     21412     21459     21462     21463
     21412     21459     21462     21464     21412     21459     21462     21465
     21413     21412     21459     21460     21413     21412     21459     21461
     21413     21412     21459     21462     21414     21412     21459     21460
     21414     21412     21459     21461     21414     21412     21459     21462
     21415     21418     21421     21422     21415     21418     21421     21423
     21415     21418     21421     21424     21416     21415     21418     21419
     21416     21415     21418     21420     21416     21415     21418     21421
     21417     21415     21418     21419     21417     21415     21418     21420
     21417     21415     21418     21421     21418     21421     21424     21425
     21418     21421     21424     21426     21418     21421     21424     21427
     21419     21418     21421     21422     21419     21418     21421     21423
     21419     21418     21421     21424     21420     21418     21421     21422
     21420     21418     21421     21423     21420     21418     21421     21424
     21421     21424     21427     21428     21421     21424     21427     21429
     21421     21424     21427     21430     21422     21421     21424     21425
     21422     21421     21424     21426     21422     21421     21424     21427
     21423     21421     21424     21425     21423     21421     21424     21426
     21423     21421     21424     21427     21424     21427     21430     21431
     21424     21427     21430     21432     21424     21427     21430     21433
     21425     21424     21427     21428     21425     21424     21427     21429
     21425     21424     21427     21430     21426     21424     21427     21428
     21426     21424     21427     21429     21426     21424     21427     21430
     21427     21430     21433     21434     21427     21430     21433     21435
     21427     21430     21433     21438     21428     21427     21430     21431
     21428     21427     21430     21432     21428     21427     21430     21433
     21429     21427     21430     21431     21429     21427     21430     21432
     21429     21427     21430     21433     21430     21433     21435     21436
     21430     21433     21435     21437     21430     21433     21435     21438
     21430     21433     21438     21435     21430     21433     21438     21439
     21430     21433     21438     21440     21431     21430     21433     21434
     21431     21430     21433     21435     21431     21430     21433     21438
     21432     21430     21433     21434     21432     21430     21433     21435
     21432     21430     21433     21438     21433     21435     21438     21439
     21433     21435     21438     21440     21433     21438     21435     21436
     21433     21438     21435     21437     21433     21438     21440     21441
     21433     21438     21440     21442     21433     21438     21440     21443
     21434     21433     21435     21436     21434     21433     21435     21437
     21434     21433     21435     21438     21434     21433     21438     21435
     21434     21433     21438     21439     21434     21433     21438     21440
     21435     21433     21438     21439     21435     21433     21438     21440
     21435     21438     21440     21441     21435     21438     21440     21442
     21435     21438     21440     21443     21436     21435     21433     21438
     21436     21435     21438     21439     21436     21435     21438     21440
     21437     21435     21433     21438     21437     21435     21438     21439
     21437     21435     21438     21440     21438     21440     21443     21444
     21438     21440     21443     21445     21438     21440     21443     21446
     21439     21438     21440     21441     21439     21438     21440     21442
     21439     21438     21440     21443     21440     21443     21446     21447
     21440     21443     21446     21448     21440     21443     21446     21449
     21441     21440     21443     21444     21441     21440     21443     21445
     21441     21440     21443     21446     21442     21440     21443     21444
     21442     21440     21443     21445     21442     21440     21443     21446
     21443     21446     21449     21450     21443     21446     21449     21451
     21443     21446     21449     21452     21444     21443     21446     21447
     21444     21443     21446     21448     21444     21443     21446     21449
     21445     21443     21446     21447     21445     21443     21446     21448
     21445     21443     21446     21449     21446     21449     21452     21453
     21446     21449     21452     21454     21446     21449     21452     21455
     21447     21446     21449     21450     21447     21446     21449     21451
     21447     21446     21449     21452     21448     21446     21449     21450
     21448     21446     21449     21451     21448     21446     21449     21452
     21449     21452     21455     21456     21449     21452     21455     21457
     21449     21452     21455     21458     21450     21449     21452     21453
     21450     21449     21452     21454     21450     21449     21452     21455
     21451     21449     21452     21453     21451     21449     21452     21454
     21451     21449     21452     21455     21453     21452     21455     21456
     21453     21452     21455     21457     21453     21452     21455     21458
     21454     21452     21455     21456     21454     21452     21455     21457
     21454     21452     21455     21458     21459     21462     21465     21466
     21459     21462     21465     21467     21459     21462     21465     21468
     21460     21459     21462     21463     21460     21459     21462     21464
     21460     21459     21462     21465     21461     21459     21462     21463
     21461     21459     21462     21464     21461     21459     21462     21465
     21462     21465     21468     21469     21462     21465     21468     21470
     21462     21465     21468     21471     21463     21462     21465     21466
     21463     21462     21465     21467     21463     21462     21465     21468
     21464     21462     21465     21466     21464     21462     21465     21467
     21464     21462     21465     21468     21465     21468     21471     21472
     21465     21468     21471     21473     21465     21468     21471     21474
     21466     21465     21468     21469     21466     21465     21468     21470
     21466     21465     21468     21471     21467     21465     21468     21469
     21467     21465     21468     21470     21467     21465     21468     21471
     21468     21471     21474     21475     21468     21471     21474     21476
     21468     21471     21474     21477     21469     21468     21471     21472
     21469     21468     21471     21473     21469     21468     21471     21474
     21470     21468     21471     21472     21470     21468     21471     21473
     21470     21468     21471     21474     21471     21474     21477     21478
     21471     21474     21477     21479     21471     21474     21477     21480
     21472     21471     21474     21475     21472     21471     21474     21476
     21472     21471     21474     21477     21473     21471     21474     21475
     21473     21471     21474     21476     21473     21471     21474     21477
     21474     21477     21480     21481     21474     21477     21480     21482
     21474     21477     21480     21483     21475     21474     21477     21478
     21475     21474     21477     21479     21475     21474     21477     21480
     21476     21474     21477     21478     21476     21474     21477     21479
     21476     21474     21477     21480     21477     21480     21483     21484
     21477     21480     21483     21485     21477     21480     21483     21486
     21478     21477     21480     21481     21478     21477     21480     21482
     21478     21477     21480     21483     21479     21477     21480     21481
     21479     21477     21480     21482     21479     21477     21480     21483
     21480     21483     21486     21487     21480     21483     21486     21488
     21480     21483     21486     21489     21481     21480     21483     21484
     21481     21480     21483     21485     21481     21480     21483     21486
     21482     21480     21483     21484     21482     21480     21483     21485
     21482     21480     21483     21486     21483     21486     21489     21490
     21483     21486     21489     21491     21483     21486     21489     21492
     21484     21483     21486     21487     21484     21483     21486     21488
     21484     21483     21486     21489     21485     21483     21486     21487
     21485     21483     21486     21488     21485     21483     21486     21489
     21486     21489     21492     21493     21486     21489     21492     21494
     21486     21489     21492     21495     21487     21486     21489     21490
     21487     21486     21489     21491     21487     21486     21489     21492
     21488     21486     21489     21490     21488     21486     21489     21491
     21488     21486     21489     21492     21489     21492     21495     21496
     21489     21492     21495     21497     21489     21492     21495     21498
     21490     21489     21492     21493     21490     21489     21492     21494
     21490     21489     21492     21495     21491     21489     21492     21493
     21491     21489     21492     21494     21491     21489     21492     21495
     21492     21495     21498     21499     21492     21495     21498     21500
     21492     21495     21498     21501     21493     21492     21495     21496
     21493     21492     21495     21497     21493     21492     21495     21498
     21494     21492     21495     21496     21494     21492     21495     21497
     21494     21492     21495     21498     21496     21495     21498     21499
     21496     21495     21498     21500     21496     21495     21498     21501
     21497     21495     21498     21499     21497     21495     21498     21500
     21497     21495     21498     21501     21502     21506     21509     21510
     21502     21506     21509     21511     21502     21506     21509     21516
     21503     21502     21506     21507     21503     21502     21506     21508
     21503     21502     21506     21509     21504     21502     21506     21507
     21504     21502     21506     21508     21504     21502     21506     21509
     21505     21502     21506     21507     21505     21502     21506     21508
     21505     21502     21506     21509     21506     21509     21516     21512
     21507     21506     21509     21510     21507     21506     21509     21511
     21507     21506     21509     21516     21508     21506     21509     21510
     21508     21506     21509     21511     21508     21506     21509     21516
     21509     21516     21512     21513     21509     21516     21512     21514
     21509     21516     21512     21515     21510     21509     21516     21512
     21511     21509     21516     21512     21512     21515     21517     21518
     21512     21515     21517     21519     21512     21515     21517     21520
     21513     21512     21515     21517     21514     21512     21515     21517
     21515     21517     21520     21521     21515     21517     21520     21522
     21515     21517     21520     21528     21516     21512     21515     21517
     21517     21520     21522     21523     21517     21520     21528     21529
     21517     21520     21528     21530     21517     21520     21528     21531
     21518     21517     21520     21521     21518     21517     21520     21522
     21518     21517     21520     21528     21519     21517     21520     21521
     21519     21517     21520     21522     21519     21517     21520     21528
     21520     21522     21523     21524     21520     21522     21523     21525
     21520     21528     21531     21532     21521     21520     21522     21523
     21521     21520     21528     21529     21521     21520     21528     21530
     21521     21520     21528     21531     21522     21520     21528     21529
     21522     21520     21528     21530     21522     21520     21528     21531
     21522     21523     21525     21526     21522     21523     21525     21527
     21522     21523     21525     21537     21523     21522     21520     21528
     21523     21525     21537     21538     21523     21525     21537     21539
     21523     21525     21537     21540     21524     21523     21525     21526
     21524     21523     21525     21527     21524     21523     21525     21537
     21525     21537     21540     21541     21525     21537     21540     21542
     21525     21537     21540     21543     21526     21525     21537     21538
     21526     21525     21537     21539     21526     21525     21537     21540
     21527     21525     21537     21538     21527     21525     21537     21539
     21527     21525     21537     21540     21528     21531     21532     21533
     21528     21531     21532     21534     21529     21528     21531     21532
     21530     21528     21531     21532     21531     21532     21534     21535
     21531     21532     21534     21536     21531     21532     21534     21581
     21532     21534     21581     21582     21532     21534     21581     21583
     21532     21534     21581     21584     21533     21532     21534     21535
     21533     21532     21534     21536     21533     21532     21534     21581
     21534     21581     21584     21585     21534     21581     21584     21586
     21534     21581     21584     21587     21535     21534     21581     21582
     21535     21534     21581     21583     21535     21534     21581     21584
     21536     21534     21581     21582     21536     21534     21581     21583
     21536     21534     21581     21584     21537     21540     21543     21544
     21537     21540     21543     21545     21537     21540     21543     21546
     21538     21537     21540     21541     21538     21537     21540     21542
     21538     21537     21540     21543     21539     21537     21540     21541
     21539     21537     21540     21542     21539     21537     21540     21543
     21540     21543     21546     21547     21540     21543     21546     21548
     21540     21543     21546     21549     21541     21540     21543     21544
     21541     21540     21543     21545     21541     21540     21543     21546
     21542     21540     21543     21544     21542     21540     21543     21545
     21542     21540     21543     21546     21543     21546     21549     21550
     21543     21546     21549     21551     21543     21546     21549     21552
     21544     21543     21546     21547     21544     21543     21546     21548
     21544     21543     21546     21549     21545     21543     21546     21547
     21545     21543     21546     21548     21545     21543     21546     21549
     21546     21549     21552     21553     21546     21549     21552     21554
     21546     21549     21552     21555     21547     21546     21549     21550
     21547     21546     21549     21551     21547     21546     21549     21552
     21548     21546     21549     21550     21548     21546     21549     21551
     21548     21546     21549     21552     21549     21552     21555     21556
     21549     21552     21555     21557     21549     21552     21555     21560
     21550     21549     21552     21553     21550     21549     21552     21554
     21550     21549     21552     21555     21551     21549     21552     21553
     21551     21549     21552     21554     21551     21549     21552     21555
     21552     21555     21557     21558     21552     21555     21557     21559
     21552     21555     21557     21560     21552     21555     21560     21557
     21552     21555     21560     21561     21552     21555     21560     21562
     21553     21552     21555     21556     21553     21552     21555     21557
     21553     21552     21555     21560     21554     21552     21555     21556
     21554     21552     21555     21557     21554     21552     21555     21560
     21555     21557     21560     21561     21555     21557     21560     21562
     21555     21560     21557     21558     21555     21560     21557     21559
     21555     21560     21562     21563     21555     21560     21562     21564
     21555     21560     21562     21565     21556     21555     21557     21558
     21556     21555     21557     21559     21556     21555     21557     21560
     21556     21555     21560     21557     21556     21555     21560     21561
     21556     21555     21560     21562     21557     21555     21560     21561
     21557     21555     21560     21562     21557     21560     21562     21563
     21557     21560     21562     21564     21557     21560     21562     21565
     21558     21557     21555     21560     21558     21557     21560     21561
     21558     21557     21560     21562     21559     21557     21555     21560
     21559     21557     21560     21561     21559     21557     21560     21562
     21560     21562     21565     21566     21560     21562     21565     21567
     21560     21562     21565     21568     21561     21560     21562     21563
     21561     21560     21562     21564     21561     21560     21562     21565
     21562     21565     21568     21569     21562     21565     21568     21570
     21562     21565     21568     21571     21563     21562     21565     21566
     21563     21562     21565     21567     21563     21562     21565     21568
     21564     21562     21565     21566     21564     21562     21565     21567
     21564     21562     21565     21568     21565     21568     21571     21572
     21565     21568     21571     21573     21565     21568     21571     21574
     21566     21565     21568     21569     21566     21565     21568     21570
     21566     21565     21568     21571     21567     21565     21568     21569
     21567     21565     21568     21570     21567     21565     21568     21571
     21568     21571     21574     21575     21568     21571     21574     21576
     21568     21571     21574     21577     21569     21568     21571     21572
     21569     21568     21571     21573     21569     21568     21571     21574
     21570     21568     21571     21572     21570     21568     21571     21573
     21570     21568     21571     21574     21571     21574     21577     21578
     21571     21574     21577     21579     21571     21574     21577     21580
     21572     21571     21574     21575     21572     21571     21574     21576
     21572     21571     21574     21577     21573     21571     21574     21575
     21573     21571     21574     21576     21573     21571     21574     21577
     21575     21574     21577     21578     21575     21574     21577     21579
     21575     21574     21577     21580     21576     21574     21577     21578
     21576     21574     21577     21579     21576     21574     21577     21580
     21581     21584     21587     21588     21581     21584     21587     21589
     21581     21584     21587     21590     21582     21581     21584     21585
     21582     21581     21584     21586     21582     21581     21584     21587
     21583     21581     21584     21585     21583     21581     21584     21586
     21583     21581     21584     21587     21584     21587     21590     21591
     21584     21587     21590     21592     21584     21587     21590     21593
     21585     21584     21587     21588     21585     21584     21587     21589
     21585     21584     21587     21590     21586     21584     21587     21588
     21586     21584     21587     21589     21586     21584     21587     21590
     21587     21590     21593     21594     21587     21590     21593     21595
     21587     21590     21593     21596     21588     21587     21590     21591
     21588     21587     21590     21592     21588     21587     21590     21593
     21589     21587     21590     21591     21589     21587     21590     21592
     21589     21587     21590     21593     21590     21593     21596     21597
     21590     21593     21596     21598     21590     21593     21596     21599
     21591     21590     21593     21594     21591     21590     21593     21595
     21591     21590     21593     21596     21592     21590     21593     21594
     21592     21590     21593     21595     21592     21590     21593     21596
     21593     21596     21599     21600     21593     21596     21599     21601
     21593     21596     21599     21602     21594     21593     21596     21597
     21594     21593     21596     21598     21594     21593     21596     21599
     21595     21593     21596     21597     21595     21593     21596     21598
     21595     21593     21596     21599     21596     21599     21602     21603
     21596     21599     21602     21604     21596     21599     21602     21605
     21597     21596     21599     21600     21597     21596     21599     21601
     21597     21596     21599     21602     21598     21596     21599     21600
     21598     21596     21599     21601     21598     21596     21599     21602
     21599     21602     21605     21606     21599     21602     21605     21607
     21599     21602     21605     21608     21600     21599     21602     21603
     21600     21599     21602     21604     21600     21599     21602     21605
     21601     21599     21602     21603     21601     21599     21602     21604
     21601     21599     21602     21605     21602     21605     21608     21609
     21602     21605     21608     21610     21602     21605     21608     21611
     21603     21602     21605     21606     21603     21602     21605     21607
     21603     21602     21605     21608     21604     21602     21605     21606
     21604     21602     21605     21607     21604     21602     21605     21608
     21605     21608     21611     21612     21605     21608     21611     21613
     21605     21608     21611     21614     21606     21605     21608     21609
     21606     21605     21608     21610     21606     21605     21608     21611
     21607     21605     21608     21609     21607     21605     21608     21610
     21607     21605     21608     21611     21608     21611     21614     21615
     21608     21611     21614     21616     21608     21611     21614     21617
     21609     21608     21611     21612     21609     21608     21611     21613
     21609     21608     21611     21614     21610     21608     21611     21612
     21610     21608     21611     21613     21610     21608     21611     21614
     21611     21614     21617     21618     21611     21614     21617     21619
     21611     21614     21617     21620     21612     21611     21614     21615
     21612     21611     21614     21616     21612     21611     21614     21617
     21613     21611     21614     21615     21613     21611     21614     21616
     21613     21611     21614     21617     21614     21617     21620     21621
     21614     21617     21620     21622     21614     21617     21620     21623
     21615     21614     21617     21618     21615     21614     21617     21619
     21615     21614     21617     21620     21616     21614     21617     21618
     21616     21614     21617     21619     21616     21614     21617     21620
     21618     21617     21620     21621     21618     21617     21620     21622
     21618     21617     21620     21623     21619     21617     21620     21621
     21619     21617     21620     21622     21619     21617     21620     21623
     21624     21628     21631     21632     21624     21628     21631     21633
     21624     21628     21631     21638     21625     21624     21628     21629
     21625     21624     21628     21630     21625     21624     21628     21631
     21626     21624     21628     21629     21626     21624     21628     21630
     21626     21624     21628     21631     21627     21624     21628     21629
     21627     21624     21628     21630     21627     21624     21628     21631
     21628     21631     21638     21634     21629     21628     21631     21632
     21629     21628     21631     21633     21629     21628     21631     21638
     21630     21628     21631     21632     21630     21628     21631     21633
     21630     21628     21631     21638     21631     21638     21634     21635
     21631     21638     21634     21636     21631     21638     21634     21637
     21632     21631     21638     21634     21633     21631     21638     21634
     21634     21637     21639     21640     21634     21637     21639     21641
     21634     21637     21639     21642     21635     21634     21637     21639
     21636     21634     21637     21639     21637     21639     21642     21643
     21637     21639     21642     21644     21637     21639     21642     21650
     21638     21634     21637     21639     21639     21642     21644     21645
     21639     21642     21650     21651     21639     21642     21650     21652
     21639     21642     21650     21653     21640     21639     21642     21643
     21640     21639     21642     21644     21640     21639     21642     21650
     21641     21639     21642     21643     21641     21639     21642     21644
     21641     21639     21642     21650     21642     21644     21645     21646
     21642     21644     21645     21647     21642     21650     21653     21654
     21643     21642     21644     21645     21643     21642     21650     21651
     21643     21642     21650     21652     21643     21642     21650     21653
     21644     21642     21650     21651     21644     21642     21650     21652
     21644     21642     21650     21653     21644     21645     21647     21648
     21644     21645     21647     21649     21644     21645     21647     21659
     21645     21644     21642     21650     21645     21647     21659     21660
     21645     21647     21659     21661     21645     21647     21659     21662
     21646     21645     21647     21648     21646     21645     21647     21649
     21646     21645     21647     21659     21647     21659     21662     21663
     21647     21659     21662     21664     21647     21659     21662     21665
     21648     21647     21659     21660     21648     21647     21659     21661
     21648     21647     21659     21662     21649     21647     21659     21660
     21649     21647     21659     21661     21649     21647     21659     21662
     21650     21653     21654     21655     21650     21653     21654     21656
     21651     21650     21653     21654     21652     21650     21653     21654
     21653     21654     21656     21657     21653     21654     21656     21658
     21653     21654     21656     21703     21654     21656     21703     21704
     21654     21656     21703     21705     21654     21656     21703     21706
     21655     21654     21656     21657     21655     21654     21656     21658
     21655     21654     21656     21703     21656     21703     21706     21707
     21656     21703     21706     21708     21656     21703     21706     21709
     21657     21656     21703     21704     21657     21656     21703     21705
     21657     21656     21703     21706     21658     21656     21703     21704
     21658     21656     21703     21705     21658     21656     21703     21706
     21659     21662     21665     21666     21659     21662     21665     21667
     21659     21662     21665     21668     21660     21659     21662     21663
     21660     21659     21662     21664     21660     21659     21662     21665
     21661     21659     21662     21663     21661     21659     21662     21664
     21661     21659     21662     21665     21662     21665     21668     21669
     21662     21665     21668     21670     21662     21665     21668     21671
     21663     21662     21665     21666     21663     21662     21665     21667
     21663     21662     21665     21668     21664     21662     21665     21666
     21664     21662     21665     21667     21664     21662     21665     21668
     21665     21668     21671     21672     21665     21668     21671     21673
     21665     21668     21671     21674     21666     21665     21668     21669
     21666     21665     21668     21670     21666     21665     21668     21671
     21667     21665     21668     21669     21667     21665     21668     21670
     21667     21665     21668     21671     21668     21671     21674     21675
     21668     21671     21674     21676     21668     21671     21674     21677
     21669     21668     21671     21672     21669     21668     21671     21673
     21669     21668     21671     21674     21670     21668     21671     21672
     21670     21668     21671     21673     21670     21668     21671     21674
     21671     21674     21677     21678     21671     21674     21677     21679
     21671     21674     21677     21682     21672     21671     21674     21675
     21672     21671     21674     21676     21672     21671     21674     21677
     21673     21671     21674     21675     21673     21671     21674     21676
     21673     21671     21674     21677     21674     21677     21679     21680
     21674     21677     21679     21681     21674     21677     21679     21682
     21674     21677     21682     21679     21674     21677     21682     21683
     21674     21677     21682     21684     21675     21674     21677     21678
     21675     21674     21677     21679     21675     21674     21677     21682
     21676     21674     21677     21678     21676     21674     21677     21679
     21676     21674     21677     21682     21677     21679     21682     21683
     21677     21679     21682     21684     21677     21682     21679     21680
     21677     21682     21679     21681     21677     21682     21684     21685
     21677     21682     21684     21686     21677     21682     21684     21687
     21678     21677     21679     21680     21678     21677     21679     21681
     21678     21677     21679     21682     21678     21677     21682     21679
     21678     21677     21682     21683     21678     21677     21682     21684
     21679     21677     21682     21683     21679     21677     21682     21684
     21679     21682     21684     21685     21679     21682     21684     21686
     21679     21682     21684     21687     21680     21679     21677     21682
     21680     21679     21682     21683     21680     21679     21682     21684
     21681     21679     21677     21682     21681     21679     21682     21683
     21681     21679     21682     21684     21682     21684     21687     21688
     21682     21684     21687     21689     21682     21684     21687     21690
     21683     21682     21684     21685     21683     21682     21684     21686
     21683     21682     21684     21687     21684     21687     21690     21691
     21684     21687     21690     21692     21684     21687     21690     21693
     21685     21684     21687     21688     21685     21684     21687     21689
     21685     21684     21687     21690     21686     21684     21687     21688
     21686     21684     21687     21689     21686     21684     21687     21690
     21687     21690     21693     21694     21687     21690     21693     21695
     21687     21690     21693     21696     21688     21687     21690     21691
     21688     21687     21690     21692     21688     21687     21690     21693
     21689     21687     21690     21691     21689     21687     21690     21692
     21689     21687     21690     21693     21690     21693     21696     21697
     21690     21693     21696     21698     21690     21693     21696     21699
     21691     21690     21693     21694     21691     21690     21693     21695
     21691     21690     21693     21696     21692     21690     21693     21694
     21692     21690     21693     21695     21692     21690     21693     21696
     21693     21696     21699     21700     21693     21696     21699     21701
     21693     21696     21699     21702     21694     21693     21696     21697
     21694     21693     21696     21698     21694     21693     21696     21699
     21695     21693     21696     21697     21695     21693     21696     21698
     21695     21693     21696     21699     21697     21696     21699     21700
     21697     21696     21699     21701     21697     21696     21699     21702
     21698     21696     21699     21700     21698     21696     21699     21701
     21698     21696     21699     21702     21703     21706     21709     21710
     21703     21706     21709     21711     21703     21706     21709     21712
     21704     21703     21706     21707     21704     21703     21706     21708
     21704     21703     21706     21709     21705     21703     21706     21707
     21705     21703     21706     21708     21705     21703     21706     21709
     21706     21709     21712     21713     21706     21709     21712     21714
     21706     21709     21712     21715     21707     21706     21709     21710
     21707     21706     21709     21711     21707     21706     21709     21712
     21708     21706     21709     21710     21708     21706     21709     21711
     21708     21706     21709     21712     21709     21712     21715     21716
     21709     21712     21715     21717     21709     21712     21715     21718
     21710     21709     21712     21713     21710     21709     21712     21714
     21710     21709     21712     21715     21711     21709     21712     21713
     21711     21709     21712     21714     21711     21709     21712     21715
     21712     21715     21718     21719     21712     21715     21718     21720
     21712     21715     21718     21721     21713     21712     21715     21716
     21713     21712     21715     21717     21713     21712     21715     21718
     21714     21712     21715     21716     21714     21712     21715     21717
     21714     21712     21715     21718     21715     21718     21721     21722
     21715     21718     21721     21723     21715     21718     21721     21724
     21716     21715     21718     21719     21716     21715     21718     21720
     21716     21715     21718     21721     21717     21715     21718     21719
     21717     21715     21718     21720     21717     21715     21718     21721
     21718     21721     21724     21725     21718     21721     21724     21726
     21718     21721     21724     21727     21719     21718     21721     21722
     21719     21718     21721     21723     21719     21718     21721     21724
     21720     21718     21721     21722     21720     21718     21721     21723
     21720     21718     21721     21724     21721     21724     21727     21728
     21721     21724     21727     21729     21721     21724     21727     21730
     21722     21721     21724     21725     21722     21721     21724     21726
     21722     21721     21724     21727     21723     21721     21724     21725
     21723     21721     21724     21726     21723     21721     21724     21727
     21724     21727     21730     21731     21724     21727     21730     21732
     21724     21727     21730     21733     21725     21724     21727     21728
     21725     21724     21727     21729     21725     21724     21727     21730
     21726     21724     21727     21728     21726     21724     21727     21729
     21726     21724     21727     21730     21727     21730     21733     21734
     21727     21730     21733     21735     21727     21730     21733     21736
     21728     21727     21730     21731     21728     21727     21730     21732
     21728     21727     21730     21733     21729     21727     21730     21731
     21729     21727     21730     21732     21729     21727     21730     21733
     21730     21733     21736     21737     21730     21733     21736     21738
     21730     21733     21736     21739     21731     21730     21733     21734
     21731     21730     21733     21735     21731     21730     21733     21736
     21732     21730     21733     21734     21732     21730     21733     21735
     21732     21730     21733     21736     21733     21736     21739     21740
     21733     21736     21739     21741     21733     21736     21739     21742
     21734     21733     21736     21737     21734     21733     21736     21738
     21734     21733     21736     21739     21735     21733     21736     21737
     21735     21733     21736     21738     21735     21733     21736     21739
     21736     21739     21742     21743     21736     21739     21742     21744
     21736     21739     21742     21745     21737     21736     21739     21740
     21737     21736     21739     21741     21737     21736     21739     21742
     21738     21736     21739     21740     21738     21736     21739     21741
     21738     21736     21739     21742     21740     21739     21742     21743
     21740     21739     21742     21744     21740     21739     21742     21745
     21741     21739     21742     21743     21741     21739     21742     21744
     21741     21739     21742     21745     21746     21751     21753     21754
     21746     21751     21755     21756     21746     21751     21755     21757
     21746     21751     21755     21762     21747     21746     21749     21750
     21747     21746     21751     21752     21747     21746     21751     21753
     21747     21746     21751     21755     21748     21746     21749     21750
     21748     21746     21751     21752     21748     21746     21751     21753
     21748     21746     21751     21755     21749     21746     21751     21752
     21749     21746     21751     21753     21749     21746     21751     21755
     21750     21749     21746     21751     21751     21755     21762     21758
     21752     21751     21753     21754     21752     21751     21755     21756
     21752     21751     21755     21757     21752     21751     21755     21762
     21753     21751     21755     21756     21753     21751     21755     21757
     21753     21751     21755     21762     21754     21753     21751     21755
     21755     21762     21758     21759     21755     21762     21758     21760
     21755     21762     21758     21761     21756     21755     21762     21758
     21757     21755     21762     21758     21758     21761     21763     21764
     21758     21761     21763     21765     21758     21761     21763     21766
     21759     21758     21761     21763     21760     21758     21761     21763
     21761     21763     21766     21767     21761     21763     21766     21768
     21761     21763     21766     21774     21762     21758     21761     21763
     21763     21766     21768     21769     21763     21766     21774     21775
     21763     21766     21774     21776     21763     21766     21774     21777
     21764     21763     21766     21767     21764     21763     21766     21768
     21764     21763     21766     21774     21765     21763     21766     21767
     21765     21763     21766     21768     21765     21763     21766     21774
     21766     21768     21769     21770     21766     21768     21769     21771
     21766     21774     21777     21778     21767     21766     21768     21769
     21767     21766     21774     21775     21767     21766     21774     21776
     21767     21766     21774     21777     21768     21766     21774     21775
     21768     21766     21774     21776     21768     21766     21774     21777
     21768     21769     21771     21772     21768     21769     21771     21773
     21768     21769     21771     21783     21769     21768     21766     21774
     21769     21771     21783     21784     21769     21771     21783     21785
     21769     21771     21783     21786     21770     21769     21771     21772
     21770     21769     21771     21773     21770     21769     21771     21783
     21771     21783     21786     21787     21771     21783     21786     21788
     21771     21783     21786     21789     21772     21771     21783     21784
     21772     21771     21783     21785     21772     21771     21783     21786
     21773     21771     21783     21784     21773     21771     21783     21785
     21773     21771     21783     21786     21774     21777     21778     21779
     21774     21777     21778     21780     21775     21774     21777     21778
     21776     21774     21777     21778     21777     21778     21780     21781
     21777     21778     21780     21782     21777     21778     21780     21827
     21778     21780     21827     21828     21778     21780     21827     21829
     21778     21780     21827     21830     21779     21778     21780     21781
     21779     21778     21780     21782     21779     21778     21780     21827
     21780     21827     21830     21831     21780     21827     21830     21832
     21780     21827     21830     21833     21781     21780     21827     21828
     21781     21780     21827     21829     21781     21780     21827     21830
     21782     21780     21827     21828     21782     21780     21827     21829
     21782     21780     21827     21830     21783     21786     21789     21790
     21783     21786     21789     21791     21783     21786     21789     21792
     21784     21783     21786     21787     21784     21783     21786     21788
     21784     21783     21786     21789     21785     21783     21786     21787
     21785     21783     21786     21788     21785     21783     21786     21789
     21786     21789     21792     21793     21786     21789     21792     21794
     21786     21789     21792     21795     21787     21786     21789     21790
     21787     21786     21789     21791     21787     21786     21789     21792
     21788     21786     21789     21790     21788     21786     21789     21791
     21788     21786     21789     21792     21789     21792     21795     21796
     21789     21792     21795     21797     21789     21792     21795     21798
     21790     21789     21792     21793     21790     21789     21792     21794
     21790     21789     21792     21795     21791     21789     21792     21793
     21791     21789     21792     21794     21791     21789     21792     21795
     21792     21795     21798     21799     21792     21795     21798     21800
     21792     21795     21798     21801     21793     21792     21795     21796
     21793     21792     21795     21797     21793     21792     21795     21798
     21794     21792     21795     21796     21794     21792     21795     21797
     21794     21792     21795     21798     21795     21798     21801     21802
     21795     21798     21801     21803     21795     21798     21801     21806
     21796     21795     21798     21799     21796     21795     21798     21800
     21796     21795     21798     21801     21797     21795     21798     21799
     21797     21795     21798     21800     21797     21795     21798     21801
     21798     21801     21803     21804     21798     21801     21803     21805
     21798     21801     21803     21806     21798     21801     21806     21803
     21798     21801     21806     21807     21798     21801     21806     21808
     21799     21798     21801     21802     21799     21798     21801     21803
     21799     21798     21801     21806     21800     21798     21801     21802
     21800     21798     21801     21803     21800     21798     21801     21806
     21801     21803     21806     21807     21801     21803     21806     21808
     21801     21806     21803     21804     21801     21806     21803     21805
     21801     21806     21808     21809     21801     21806     21808     21810
     21801     21806     21808     21811     21802     21801     21803     21804
     21802     21801     21803     21805     21802     21801     21803     21806
     21802     21801     21806     21803     21802     21801     21806     21807
     21802     21801     21806     21808     21803     21801     21806     21807
     21803     21801     21806     21808     21803     21806     21808     21809
     21803     21806     21808     21810     21803     21806     21808     21811
     21804     21803     21801     21806     21804     21803     21806     21807
     21804     21803     21806     21808     21805     21803     21801     21806
     21805     21803     21806     21807     21805     21803     21806     21808
     21806     21808     21811     21812     21806     21808     21811     21813
     21806     21808     21811     21814     21807     21806     21808     21809
     21807     21806     21808     21810     21807     21806     21808     21811
     21808     21811     21814     21815     21808     21811     21814     21816
     21808     21811     21814     21817     21809     21808     21811     21812
     21809     21808     21811     21813     21809     21808     21811     21814
     21810     21808     21811     21812     21810     21808     21811     21813
     21810     21808     21811     21814     21811     21814     21817     21818
     21811     21814     21817     21819     21811     21814     21817     21820
     21812     21811     21814     21815     21812     21811     21814     21816
     21812     21811     21814     21817     21813     21811     21814     21815
     21813     21811     21814     21816     21813     21811     21814     21817
     21814     21817     21820     21821     21814     21817     21820     21822
     21814     21817     21820     21823     21815     21814     21817     21818
     21815     21814     21817     21819     21815     21814     21817     21820
     21816     21814     21817     21818     21816     21814     21817     21819
     21816     21814     21817     21820     21817     21820     21823     21824
     21817     21820     21823     21825     21817     21820     21823     21826
     21818     21817     21820     21821     21818     21817     21820     21822
     21818     21817     21820     21823     21819     21817     21820     21821
     21819     21817     21820     21822     21819     21817     21820     21823
     21821     21820     21823     21824     21821     21820     21823     21825
     21821     21820     21823     21826     21822     21820     21823     21824
     21822     21820     21823     21825     21822     21820     21823     21826
     21827     21830     21833     21834     21827     21830     21833     21835
     21827     21830     21833     21836     21828     21827     21830     21831
     21828     21827     21830     21832     21828     21827     21830     21833
     21829     21827     21830     21831     21829     21827     21830     21832
     21829     21827     21830     21833     21830     21833     21836     21837
     21830     21833     21836     21838     21830     21833     21836     21839
     21831     21830     21833     21834     21831     21830     21833     21835
     21831     21830     21833     21836     21832     21830     21833     21834
     21832     21830     21833     21835     21832     21830     21833     21836
     21833     21836     21839     21840     21833     21836     21839     21841
     21833     21836     21839     21842     21834     21833     21836     21837
     21834     21833     21836     21838     21834     21833     21836     21839
     21835     21833     21836     21837     21835     21833     21836     21838
     21835     21833     21836     21839     21836     21839     21842     21843
     21836     21839     21842     21844     21836     21839     21842     21845
     21837     21836     21839     21840     21837     21836     21839     21841
     21837     21836     21839     21842     21838     21836     21839     21840
     21838     21836     21839     21841     21838     21836     21839     21842
     21839     21842     21845     21846     21839     21842     21845     21847
     21839     21842     21845     21848     21840     21839     21842     21843
     21840     21839     21842     21844     21840     21839     21842     21845
     21841     21839     21842     21843     21841     21839     21842     21844
     21841     21839     21842     21845     21842     21845     21848     21849
     21842     21845     21848     21850     21842     21845     21848     21851
     21843     21842     21845     21846     21843     21842     21845     21847
     21843     21842     21845     21848     21844     21842     21845     21846
     21844     21842     21845     21847     21844     21842     21845     21848
     21845     21848     21851     21852     21845     21848     21851     21853
     21845     21848     21851     21854     21846     21845     21848     21849
     21846     21845     21848     21850     21846     21845     21848     21851
     21847     21845     21848     21849     21847     21845     21848     21850
     21847     21845     21848     21851     21848     21851     21854     21855
     21848     21851     21854     21856     21848     21851     21854     21857
     21849     21848     21851     21852     21849     21848     21851     21853
     21849     21848     21851     21854     21850     21848     21851     21852
     21850     21848     21851     21853     21850     21848     21851     21854
     21851     21854     21857     21858     21851     21854     21857     21859
     21851     21854     21857     21860     21852     21851     21854     21855
     21852     21851     21854     21856     21852     21851     21854     21857
     21853     21851     21854     21855     21853     21851     21854     21856
     21853     21851     21854     21857     21854     21857     21860     21861
     21854     21857     21860     21862     21854     21857     21860     21863
     21855     21854     21857     21858     21855     21854     21857     21859
     21855     21854     21857     21860     21856     21854     21857     21858
     21856     21854     21857     21859     21856     21854     21857     21860
     21857     21860     21863     21864     21857     21860     21863     21865
     21857     21860     21863     21866     21858     21857     21860     21861
     21858     21857     21860     21862     21858     21857     21860     21863
     21859     21857     21860     21861     21859     21857     21860     21862
     21859     21857     21860     21863     21860     21863     21866     21867
     21860     21863     21866     21868     21860     21863     21866     21869
     21861     21860     21863     21864     21861     21860     21863     21865
     21861     21860     21863     21866     21862     21860     21863     21864
     21862     21860     21863     21865     21862     21860     21863     21866
     21864     21863     21866     21867     21864     21863     21866     21868
     21864     21863     21866     21869     21865     21863     21866     21867
     21865     21863     21866     21868     21865     21863     21866     21869
     21870     21874     21877     21878     21870     21874     21877     21879
     21870     21874     21877     21884     21871     21870     21874     21875
     21871     21870     21874     21876     21871     21870     21874     21877
     21872     21870     21874     21875     21872     21870     21874     21876
     21872     21870     21874     21877     21873     21870     21874     21875
     21873     21870     21874     21876     21873     21870     21874     21877
     21874     21877     21884     21880     21875     21874     21877     21878
     21875     21874     21877     21879     21875     21874     21877     21884
     21876     21874     21877     21878     21876     21874     21877     21879
     21876     21874     21877     21884     21877     21884     21880     21881
     21877     21884     21880     21882     21877     21884     21880     21883
     21878     21877     21884     21880     21879     21877     21884     21880
     21880     21883     21885     21886     21880     21883     21885     21887
     21880     21883     21885     21888     21881     21880     21883     21885
     21882     21880     21883     21885     21883     21885     21888     21889
     21883     21885     21888     21890     21883     21885     21888     21896
     21884     21880     21883     21885     21885     21888     21890     21891
     21885     21888     21896     21897     21885     21888     21896     21898
     21885     21888     21896     21899     21886     21885     21888     21889
     21886     21885     21888     21890     21886     21885     21888     21896
     21887     21885     21888     21889     21887     21885     21888     21890
     21887     21885     21888     21896     21888     21890     21891     21892
     21888     21890     21891     21893     21888     21896     21899     21900
     21889     21888     21890     21891     21889     21888     21896     21897
     21889     21888     21896     21898     21889     21888     21896     21899
     21890     21888     21896     21897     21890     21888     21896     21898
     21890     21888     21896     21899     21890     21891     21893     21894
     21890     21891     21893     21895     21890     21891     21893     21905
     21891     21890     21888     21896     21891     21893     21905     21906
     21891     21893     21905     21907     21891     21893     21905     21908
     21892     21891     21893     21894     21892     21891     21893     21895
     21892     21891     21893     21905     21893     21905     21908     21909
     21893     21905     21908     21910     21893     21905     21908     21911
     21894     21893     21905     21906     21894     21893     21905     21907
     21894     21893     21905     21908     21895     21893     21905     21906
     21895     21893     21905     21907     21895     21893     21905     21908
     21896     21899     21900     21901     21896     21899     21900     21902
     21897     21896     21899     21900     21898     21896     21899     21900
     21899     21900     21902     21903     21899     21900     21902     21904
     21899     21900     21902     21949     21900     21902     21949     21950
     21900     21902     21949     21951     21900     21902     21949     21952
     21901     21900     21902     21903     21901     21900     21902     21904
     21901     21900     21902     21949     21902     21949     21952     21953
     21902     21949     21952     21954     21902     21949     21952     21955
     21903     21902     21949     21950     21903     21902     21949     21951
     21903     21902     21949     21952     21904     21902     21949     21950
     21904     21902     21949     21951     21904     21902     21949     21952
     21905     21908     21911     21912     21905     21908     21911     21913
     21905     21908     21911     21914     21906     21905     21908     21909
     21906     21905     21908     21910     21906     21905     21908     21911
     21907     21905     21908     21909     21907     21905     21908     21910
     21907     21905     21908     21911     21908     21911     21914     21915
     21908     21911     21914     21916     21908     21911     21914     21917
     21909     21908     21911     21912     21909     21908     21911     21913
     21909     21908     21911     21914     21910     21908     21911     21912
     21910     21908     21911     21913     21910     21908     21911     21914
     21911     21914     21917     21918     21911     21914     21917     21919
     21911     21914     21917     21920     21912     21911     21914     21915
     21912     21911     21914     21916     21912     21911     21914     21917
     21913     21911     21914     21915     21913     21911     21914     21916
     21913     21911     21914     21917     21914     21917     21920     21921
     21914     21917     21920     21922     21914     21917     21920     21923
     21915     21914     21917     21918     21915     21914     21917     21919
     21915     21914     21917     21920     21916     21914     21917     21918
     21916     21914     21917     21919     21916     21914     21917     21920
     21917     21920     21923     21924     21917     21920     21923     21925
     21917     21920     21923     21928     21918     21917     21920     21921
     21918     21917     21920     21922     21918     21917     21920     21923
     21919     21917     21920     21921     21919     21917     21920     21922
     21919     21917     21920     21923     21920     21923     21925     21926
     21920     21923     21925     21927     21920     21923     21925     21928
     21920     21923     21928     21925     21920     21923     21928     21929
     21920     21923     21928     21930     21921     21920     21923     21924
     21921     21920     21923     21925     21921     21920     21923     21928
     21922     21920     21923     21924     21922     21920     21923     21925
     21922     21920     21923     21928     21923     21925     21928     21929
     21923     21925     21928     21930     21923     21928     21925     21926
     21923     21928     21925     21927     21923     21928     21930     21931
     21923     21928     21930     21932     21923     21928     21930     21933
     21924     21923     21925     21926     21924     21923     21925     21927
     21924     21923     21925     21928     21924     21923     21928     21925
     21924     21923     21928     21929     21924     21923     21928     21930
     21925     21923     21928     21929     21925     21923     21928     21930
     21925     21928     21930     21931     21925     21928     21930     21932
     21925     21928     21930     21933     21926     21925     21923     21928
     21926     21925     21928     21929     21926     21925     21928     21930
     21927     21925     21923     21928     21927     21925     21928     21929
     21927     21925     21928     21930     21928     21930     21933     21934
     21928     21930     21933     21935     21928     21930     21933     21936
     21929     21928     21930     21931     21929     21928     21930     21932
     21929     21928     21930     21933     21930     21933     21936     21937
     21930     21933     21936     21938     21930     21933     21936     21939
     21931     21930     21933     21934     21931     21930     21933     21935
     21931     21930     21933     21936     21932     21930     21933     21934
     21932     21930     21933     21935     21932     21930     21933     21936
     21933     21936     21939     21940     21933     21936     21939     21941
     21933     21936     21939     21942     21934     21933     21936     21937
     21934     21933     21936     21938     21934     21933     21936     21939
     21935     21933     21936     21937     21935     21933     21936     21938
     21935     21933     21936     21939     21936     21939     21942     21943
     21936     21939     21942     21944     21936     21939     21942     21945
     21937     21936     21939     21940     21937     21936     21939     21941
     21937     21936     21939     21942     21938     21936     21939     21940
     21938     21936     21939     21941     21938     21936     21939     21942
     21939     21942     21945     21946     21939     21942     21945     21947
     21939     21942     21945     21948     21940     21939     21942     21943
     21940     21939     21942     21944     21940     21939     21942     21945
     21941     21939     21942     21943     21941     21939     21942     21944
     21941     21939     21942     21945     21943     21942     21945     21946
     21943     21942     21945     21947     21943     21942     21945     21948
     21944     21942     21945     21946     21944     21942     21945     21947
     21944     21942     21945     21948     21949     21952     21955     21956
     21949     21952     21955     21957     21949     21952     21955     21958
     21950     21949     21952     21953     21950     21949     21952     21954
     21950     21949     21952     21955     21951     21949     21952     21953
     21951     21949     21952     21954     21951     21949     21952     21955
     21952     21955     21958     21959     21952     21955     21958     21960
     21952     21955     21958     21961     21953     21952     21955     21956
     21953     21952     21955     21957     21953     21952     21955     21958
     21954     21952     21955     21956     21954     21952     21955     21957
     21954     21952     21955     21958     21955     21958     21961     21962
     21955     21958     21961     21963     21955     21958     21961     21964
     21956     21955     21958     21959     21956     21955     21958     21960
     21956     21955     21958     21961     21957     21955     21958     21959
     21957     21955     21958     21960     21957     21955     21958     21961
     21958     21961     21964     21965     21958     21961     21964     21966
     21958     21961     21964     21967     21959     21958     21961     21962
     21959     21958     21961     21963     21959     21958     21961     21964
     21960     21958     21961     21962     21960     21958     21961     21963
     21960     21958     21961     21964     21961     21964     21967     21968
     21961     21964     21967     21969     21961     21964     21967     21970
     21962     21961     21964     21965     21962     21961     21964     21966
     21962     21961     21964     21967     21963     21961     21964     21965
     21963     21961     21964     21966     21963     21961     21964     21967
     21964     21967     21970     21971     21964     21967     21970     21972
     21964     21967     21970     21973     21965     21964     21967     21968
     21965     21964     21967     21969     21965     21964     21967     21970
     21966     21964     21967     21968     21966     21964     21967     21969
     21966     21964     21967     21970     21967     21970     21973     21974
     21967     21970     21973     21975     21967     21970     21973     21976
     21968     21967     21970     21971     21968     21967     21970     21972
     21968     21967     21970     21973     21969     21967     21970     21971
     21969     21967     21970     21972     21969     21967     21970     21973
     21970     21973     21976     21977     21970     21973     21976     21978
     21970     21973     21976     21979     21971     21970     21973     21974
     21971     21970     21973     21975     21971     21970     21973     21976
     21972     21970     21973     21974     21972     21970     21973     21975
     21972     21970     21973     21976     21973     21976     21979     21980
     21973     21976     21979     21981     21973     21976     21979     21982
     21974     21973     21976     21977     21974     21973     21976     21978
     21974     21973     21976     21979     21975     21973     21976     21977
     21975     21973     21976     21978     21975     21973     21976     21979
     21976     21979     21982     21983     21976     21979     21982     21984
     21976     21979     21982     21985     21977     21976     21979     21980
     21977     21976     21979     21981     21977     21976     21979     21982
     21978     21976     21979     21980     21978     21976     21979     21981
     21978     21976     21979     21982     21979     21982     21985     21986
     21979     21982     21985     21987     21979     21982     21985     21988
     21980     21979     21982     21983     21980     21979     21982     21984
     21980     21979     21982     21985     21981     21979     21982     21983
     21981     21979     21982     21984     21981     21979     21982     21985
     21983     21982     21985     21986     21983     21982     21985     21987
     21983     21982     21985     21988     21984     21982     21985     21986
     21984     21982     21985     21987     21984     21982     21985     21988
     21989     21993     21996     21997     21989     21993     21996     21998
     21989     21993     21996     22003     21990     21989     21993     21994
     21990     21989     21993     21995     21990     21989     21993     21996
     21991     21989     21993     21994     21991     21989     21993     21995
     21991     21989     21993     21996     21992     21989     21993     21994
     21992     21989     21993     21995     21992     21989     21993     21996
     21993     21996     22003     21999     21994     21993     21996     21997
     21994     21993     21996     21998     21994     21993     21996     22003
     21995     21993     21996     21997     21995     21993     21996     21998
     21995     21993     21996     22003     21996     22003     21999     22000
     21996     22003     21999     22001     21996     22003     21999     22002
     21997     21996     22003     21999     21998     21996     22003     21999
     21999     22002     22004     22005     21999     22002     22004     22006
     21999     22002     22004     22007     22000     21999     22002     22004
     22001     21999     22002     22004     22002     22004     22007     22008
     22002     22004     22007     22009     22002     22004     22007     22015
     22003     21999     22002     22004     22004     22007     22009     22010
     22004     22007     22015     22016     22004     22007     22015     22017
     22004     22007     22015     22018     22005     22004     22007     22008
     22005     22004     22007     22009     22005     22004     22007     22015
     22006     22004     22007     22008     22006     22004     22007     22009
     22006     22004     22007     22015     22007     22009     22010     22011
     22007     22009     22010     22012     22007     22015     22018     22019
     22008     22007     22009     22010     22008     22007     22015     22016
     22008     22007     22015     22017     22008     22007     22015     22018
     22009     22007     22015     22016     22009     22007     22015     22017
     22009     22007     22015     22018     22009     22010     22012     22013
     22009     22010     22012     22014     22009     22010     22012     22024
     22010     22009     22007     22015     22010     22012     22024     22025
     22010     22012     22024     22026     22010     22012     22024     22027
     22011     22010     22012     22013     22011     22010     22012     22014
     22011     22010     22012     22024     22012     22024     22027     22028
     22012     22024     22027     22029     22012     22024     22027     22030
     22013     22012     22024     22025     22013     22012     22024     22026
     22013     22012     22024     22027     22014     22012     22024     22025
     22014     22012     22024     22026     22014     22012     22024     22027
     22015     22018     22019     22020     22015     22018     22019     22021
     22016     22015     22018     22019     22017     22015     22018     22019
     22018     22019     22021     22022     22018     22019     22021     22023
     22018     22019     22021     22068     22019     22021     22068     22069
     22019     22021     22068     22070     22019     22021     22068     22071
     22020     22019     22021     22022     22020     22019     22021     22023
     22020     22019     22021     22068     22021     22068     22071     22072
     22021     22068     22071     22073     22021     22068     22071     22074
     22022     22021     22068     22069     22022     22021     22068     22070
     22022     22021     22068     22071     22023     22021     22068     22069
     22023     22021     22068     22070     22023     22021     22068     22071
     22024     22027     22030     22031     22024     22027     22030     22032
     22024     22027     22030     22033     22025     22024     22027     22028
     22025     22024     22027     22029     22025     22024     22027     22030
     22026     22024     22027     22028     22026     22024     22027     22029
     22026     22024     22027     22030     22027     22030     22033     22034
     22027     22030     22033     22035     22027     22030     22033     22036
     22028     22027     22030     22031     22028     22027     22030     22032
     22028     22027     22030     22033     22029     22027     22030     22031
     22029     22027     22030     22032     22029     22027     22030     22033
     22030     22033     22036     22037     22030     22033     22036     22038
     22030     22033     22036     22039     22031     22030     22033     22034
     22031     22030     22033     22035     22031     22030     22033     22036
     22032     22030     22033     22034     22032     22030     22033     22035
     22032     22030     22033     22036     22033     22036     22039     22040
     22033     22036     22039     22041     22033     22036     22039     22042
     22034     22033     22036     22037     22034     22033     22036     22038
     22034     22033     22036     22039     22035     22033     22036     22037
     22035     22033     22036     22038     22035     22033     22036     22039
     22036     22039     22042     22043     22036     22039     22042     22044
     22036     22039     22042     22047     22037     22036     22039     22040
     22037     22036     22039     22041     22037     22036     22039     22042
     22038     22036     22039     22040     22038     22036     22039     22041
     22038     22036     22039     22042     22039     22042     22044     22045
     22039     22042     22044     22046     22039     22042     22044     22047
     22039     22042     22047     22044     22039     22042     22047     22048
     22039     22042     22047     22049     22040     22039     22042     22043
     22040     22039     22042     22044     22040     22039     22042     22047
     22041     22039     22042     22043     22041     22039     22042     22044
     22041     22039     22042     22047     22042     22044     22047     22048
     22042     22044     22047     22049     22042     22047     22044     22045
     22042     22047     22044     22046     22042     22047     22049     22050
     22042     22047     22049     22051     22042     22047     22049     22052
     22043     22042     22044     22045     22043     22042     22044     22046
     22043     22042     22044     22047     22043     22042     22047     22044
     22043     22042     22047     22048     22043     22042     22047     22049
     22044     22042     22047     22048     22044     22042     22047     22049
     22044     22047     22049     22050     22044     22047     22049     22051
     22044     22047     22049     22052     22045     22044     22042     22047
     22045     22044     22047     22048     22045     22044     22047     22049
     22046     22044     22042     22047     22046     22044     22047     22048
     22046     22044     22047     22049     22047     22049     22052     22053
     22047     22049     22052     22054     22047     22049     22052     22055
     22048     22047     22049     22050     22048     22047     22049     22051
     22048     22047     22049     22052     22049     22052     22055     22056
     22049     22052     22055     22057     22049     22052     22055     22058
     22050     22049     22052     22053     22050     22049     22052     22054
     22050     22049     22052     22055     22051     22049     22052     22053
     22051     22049     22052     22054     22051     22049     22052     22055
     22052     22055     22058     22059     22052     22055     22058     22060
     22052     22055     22058     22061     22053     22052     22055     22056
     22053     22052     22055     22057     22053     22052     22055     22058
     22054     22052     22055     22056     22054     22052     22055     22057
     22054     22052     22055     22058     22055     22058     22061     22062
     22055     22058     22061     22063     22055     22058     22061     22064
     22056     22055     22058     22059     22056     22055     22058     22060
     22056     22055     22058     22061     22057     22055     22058     22059
     22057     22055     22058     22060     22057     22055     22058     22061
     22058     22061     22064     22065     22058     22061     22064     22066
     22058     22061     22064     22067     22059     22058     22061     22062
     22059     22058     22061     22063     22059     22058     22061     22064
     22060     22058     22061     22062     22060     22058     22061     22063
     22060     22058     22061     22064     22062     22061     22064     22065
     22062     22061     22064     22066     22062     22061     22064     22067
     22063     22061     22064     22065     22063     22061     22064     22066
     22063     22061     22064     22067     22068     22071     22074     22075
     22068     22071     22074     22076     22068     22071     22074     22077
     22069     22068     22071     22072     22069     22068     22071     22073
     22069     22068     22071     22074     22070     22068     22071     22072
     22070     22068     22071     22073     22070     22068     22071     22074
     22071     22074     22077     22078     22071     22074     22077     22079
     22071     22074     22077     22080     22072     22071     22074     22075
     22072     22071     22074     22076     22072     22071     22074     22077
     22073     22071     22074     22075     22073     22071     22074     22076
     22073     22071     22074     22077     22074     22077     22080     22081
     22074     22077     22080     22082     22074     22077     22080     22083
     22075     22074     22077     22078     22075     22074     22077     22079
     22075     22074     22077     22080     22076     22074     22077     22078
     22076     22074     22077     22079     22076     22074     22077     22080
     22077     22080     22083     22084     22077     22080     22083     22085
     22077     22080     22083     22086     22078     22077     22080     22081
     22078     22077     22080     22082     22078     22077     22080     22083
     22079     22077     22080     22081     22079     22077     22080     22082
     22079     22077     22080     22083     22080     22083     22086     22087
     22080     22083     22086     22088     22080     22083     22086     22089
     22081     22080     22083     22084     22081     22080     22083     22085
     22081     22080     22083     22086     22082     22080     22083     22084
     22082     22080     22083     22085     22082     22080     22083     22086
     22083     22086     22089     22090     22083     22086     22089     22091
     22083     22086     22089     22092     22084     22083     22086     22087
     22084     22083     22086     22088     22084     22083     22086     22089
     22085     22083     22086     22087     22085     22083     22086     22088
     22085     22083     22086     22089     22086     22089     22092     22093
     22086     22089     22092     22094     22086     22089     22092     22095
     22087     22086     22089     22090     22087     22086     22089     22091
     22087     22086     22089     22092     22088     22086     22089     22090
     22088     22086     22089     22091     22088     22086     22089     22092
     22089     22092     22095     22096     22089     22092     22095     22097
     22089     22092     22095     22098     22090     22089     22092     22093
     22090     22089     22092     22094     22090     22089     22092     22095
     22091     22089     22092     22093     22091     22089     22092     22094
     22091     22089     22092     22095     22092     22095     22098     22099
     22092     22095     22098     22100     22092     22095     22098     22101
     22093     22092     22095     22096     22093     22092     22095     22097
     22093     22092     22095     22098     22094     22092     22095     22096
     22094     22092     22095     22097     22094     22092     22095     22098
     22095     22098     22101     22102     22095     22098     22101     22103
     22095     22098     22101     22104     22096     22095     22098     22099
     22096     22095     22098     22100     22096     22095     22098     22101
     22097     22095     22098     22099     22097     22095     22098     22100
     22097     22095     22098     22101     22098     22101     22104     22105
     22098     22101     22104     22106     22098     22101     22104     22107
     22099     22098     22101     22102     22099     22098     22101     22103
     22099     22098     22101     22104     22100     22098     22101     22102
     22100     22098     22101     22103     22100     22098     22101     22104
     22101     22104     22107     22108     22101     22104     22107     22109
     22101     22104     22107     22110     22102     22101     22104     22105
     22102     22101     22104     22106     22102     22101     22104     22107
     22103     22101     22104     22105     22103     22101     22104     22106
     22103     22101     22104     22107     22105     22104     22107     22108
     22105     22104     22107     22109     22105     22104     22107     22110
     22106     22104     22107     22108     22106     22104     22107     22109
     22106     22104     22107     22110     22111     22115     22118     22119
     22111     22115     22118     22120     22111     22115     22118     22125
     22112     22111     22115     22116     22112     22111     22115     22117
     22112     22111     22115     22118     22113     22111     22115     22116
     22113     22111     22115     22117     22113     22111     22115     22118
     22114     22111     22115     22116     22114     22111     22115     22117
     22114     22111     22115     22118     22115     22118     22125     22121
     22116     22115     22118     22119     22116     22115     22118     22120
     22116     22115     22118     22125     22117     22115     22118     22119
     22117     22115     22118     22120     22117     22115     22118     22125
     22118     22125     22121     22122     22118     22125     22121     22123
     22118     22125     22121     22124     22119     22118     22125     22121
     22120     22118     22125     22121     22121     22124     22126     22127
     22121     22124     22126     22128     22121     22124     22126     22129
     22122     22121     22124     22126     22123     22121     22124     22126
     22124     22126     22129     22130     22124     22126     22129     22131
     22124     22126     22129     22137     22125     22121     22124     22126
     22126     22129     22131     22132     22126     22129     22137     22138
     22126     22129     22137     22139     22126     22129     22137     22140
     22127     22126     22129     22130     22127     22126     22129     22131
     22127     22126     22129     22137     22128     22126     22129     22130
     22128     22126     22129     22131     22128     22126     22129     22137
     22129     22131     22132     22133     22129     22131     22132     22134
     22129     22137     22140     22141     22130     22129     22131     22132
     22130     22129     22137     22138     22130     22129     22137     22139
     22130     22129     22137     22140     22131     22129     22137     22138
     22131     22129     22137     22139     22131     22129     22137     22140
     22131     22132     22134     22135     22131     22132     22134     22136
     22131     22132     22134     22146     22132     22131     22129     22137
     22132     22134     22146     22147     22132     22134     22146     22148
     22132     22134     22146     22149     22133     22132     22134     22135
     22133     22132     22134     22136     22133     22132     22134     22146
     22134     22146     22149     22150     22134     22146     22149     22151
     22134     22146     22149     22152     22135     22134     22146     22147
     22135     22134     22146     22148     22135     22134     22146     22149
     22136     22134     22146     22147     22136     22134     22146     22148
     22136     22134     22146     22149     22137     22140     22141     22142
     22137     22140     22141     22143     22138     22137     22140     22141
     22139     22137     22140     22141     22140     22141     22143     22144
     22140     22141     22143     22145     22140     22141     22143     22187
     22141     22143     22187     22188     22141     22143     22187     22189
     22141     22143     22187     22190     22142     22141     22143     22144
     22142     22141     22143     22145     22142     22141     22143     22187
     22143     22187     22190     22191     22143     22187     22190     22192
     22143     22187     22190     22193     22144     22143     22187     22188
     22144     22143     22187     22189     22144     22143     22187     22190
     22145     22143     22187     22188     22145     22143     22187     22189
     22145     22143     22187     22190     22146     22149     22152     22153
     22146     22149     22152     22154     22146     22149     22152     22155
     22147     22146     22149     22150     22147     22146     22149     22151
     22147     22146     22149     22152     22148     22146     22149     22150
     22148     22146     22149     22151     22148     22146     22149     22152
     22149     22152     22155     22156     22149     22152     22155     22157
     22149     22152     22155     22158     22150     22149     22152     22153
     22150     22149     22152     22154     22150     22149     22152     22155
     22151     22149     22152     22153     22151     22149     22152     22154
     22151     22149     22152     22155     22152     22155     22158     22159
     22152     22155     22158     22160     22152     22155     22158     22161
     22153     22152     22155     22156     22153     22152     22155     22157
     22153     22152     22155     22158     22154     22152     22155     22156
     22154     22152     22155     22157     22154     22152     22155     22158
     22155     22158     22161     22162     22155     22158     22161     22163
     22155     22158     22161     22164     22156     22155     22158     22159
     22156     22155     22158     22160     22156     22155     22158     22161
     22157     22155     22158     22159     22157     22155     22158     22160
     22157     22155     22158     22161     22158     22161     22164     22165
     22158     22161     22164     22166     22159     22158     22161     22162
     22159     22158     22161     22163     22159     22158     22161     22164
     22160     22158     22161     22162     22160     22158     22161     22163
     22160     22158     22161     22164     22161     22164     22166     22167
     22161     22164     22166     22168     22162     22161     22164     22165
     22162     22161     22164     22166     22163     22161     22164     22165
     22163     22161     22164     22166     22164     22166     22168     22169
     22164     22166     22168     22170     22164     22166     22168     22171
     22165     22164     22166     22167     22165     22164     22166     22168
     22166     22168     22171     22172     22166     22168     22171     22173
     22166     22168     22171     22174     22167     22166     22168     22169
     22167     22166     22168     22170     22167     22166     22168     22171
     22168     22171     22174     22175     22168     22171     22174     22176
     22168     22171     22174     22177     22169     22168     22171     22172
     22169     22168     22171     22173     22169     22168     22171     22174
     22170     22168     22171     22172     22170     22168     22171     22173
     22170     22168     22171     22174     22171     22174     22177     22178
     22171     22174     22177     22179     22171     22174     22177     22180
     22172     22171     22174     22175     22172     22171     22174     22176
     22172     22171     22174     22177     22173     22171     22174     22175
     22173     22171     22174     22176     22173     22171     22174     22177
     22174     22177     22180     22181     22174     22177     22180     22182
     22174     22177     22180     22183     22175     22174     22177     22178
     22175     22174     22177     22179     22175     22174     22177     22180
     22176     22174     22177     22178     22176     22174     22177     22179
     22176     22174     22177     22180     22177     22180     22183     22184
     22177     22180     22183     22185     22177     22180     22183     22186
     22178     22177     22180     22181     22178     22177     22180     22182
     22178     22177     22180     22183     22179     22177     22180     22181
     22179     22177     22180     22182     22179     22177     22180     22183
     22181     22180     22183     22184     22181     22180     22183     22185
     22181     22180     22183     22186     22182     22180     22183     22184
     22182     22180     22183     22185     22182     22180     22183     22186
     22187     22190     22193     22194     22187     22190     22193     22195
     22187     22190     22193     22196     22188     22187     22190     22191
     22188     22187     22190     22192     22188     22187     22190     22193
     22189     22187     22190     22191     22189     22187     22190     22192
     22189     22187     22190     22193     22190     22193     22196     22197
     22190     22193     22196     22198     22190     22193     22196     22199
     22191     22190     22193     22194     22191     22190     22193     22195
     22191     22190     22193     22196     22192     22190     22193     22194
     22192     22190     22193     22195     22192     22190     22193     22196
     22193     22196     22199     22200     22193     22196     22199     22201
     22193     22196     22199     22202     22194     22193     22196     22197
     22194     22193     22196     22198     22194     22193     22196     22199
     22195     22193     22196     22197     22195     22193     22196     22198
     22195     22193     22196     22199     22196     22199     22202     22203
     22196     22199     22202     22204     22196     22199     22202     22205
     22197     22196     22199     22200     22197     22196     22199     22201
     22197     22196     22199     22202     22198     22196     22199     22200
     22198     22196     22199     22201     22198     22196     22199     22202
     22199     22202     22205     22206     22199     22202     22205     22207
     22200     22199     22202     22203     22200     22199     22202     22204
     22200     22199     22202     22205     22201     22199     22202     22203
     22201     22199     22202     22204     22201     22199     22202     22205
     22202     22205     22207     22208     22202     22205     22207     22209
     22203     22202     22205     22206     22203     22202     22205     22207
     22204     22202     22205     22206     22204     22202     22205     22207
     22205     22207     22209     22210     22205     22207     22209     22211
     22205     22207     22209     22212     22206     22205     22207     22208
     22206     22205     22207     22209     22207     22209     22212     22213
     22207     22209     22212     22214     22207     22209     22212     22215
     22208     22207     22209     22210     22208     22207     22209     22211
     22208     22207     22209     22212     22209     22212     22215     22216
     22209     22212     22215     22217     22209     22212     22215     22218
     22210     22209     22212     22213     22210     22209     22212     22214
     22210     22209     22212     22215     22211     22209     22212     22213
     22211     22209     22212     22214     22211     22209     22212     22215
     22212     22215     22218     22219     22212     22215     22218     22220
     22212     22215     22218     22221     22213     22212     22215     22216
     22213     22212     22215     22217     22213     22212     22215     22218
     22214     22212     22215     22216     22214     22212     22215     22217
     22214     22212     22215     22218     22215     22218     22221     22222
     22215     22218     22221     22223     22215     22218     22221     22224
     22216     22215     22218     22219     22216     22215     22218     22220
     22216     22215     22218     22221     22217     22215     22218     22219
     22217     22215     22218     22220     22217     22215     22218     22221
     22218     22221     22224     22225     22218     22221     22224     22226
     22218     22221     22224     22227     22219     22218     22221     22222
     22219     22218     22221     22223     22219     22218     22221     22224
     22220     22218     22221     22222     22220     22218     22221     22223
     22220     22218     22221     22224     22221     22224     22227     22228
     22221     22224     22227     22229     22221     22224     22227     22230
     22222     22221     22224     22225     22222     22221     22224     22226
     22222     22221     22224     22227     22223     22221     22224     22225
     22223     22221     22224     22226     22223     22221     22224     22227
     22224     22227     22230     22231     22224     22227     22230     22232
     22224     22227     22230     22233     22225     22224     22227     22228
     22225     22224     22227     22229     22225     22224     22227     22230
     22226     22224     22227     22228     22226     22224     22227     22229
     22226     22224     22227     22230     22228     22227     22230     22231
     22228     22227     22230     22232     22228     22227     22230     22233
     22229     22227     22230     22231     22229     22227     22230     22232
     22229     22227     22230     22233     22234     22238     22241     22242
     22234     22238     22241     22243     22234     22238     22241     22248
     22235     22234     22238     22239     22235     22234     22238     22240
     22235     22234     22238     22241     22236     22234     22238     22239
     22236     22234     22238     22240     22236     22234     22238     22241
     22237     22234     22238     22239     22237     22234     22238     22240
     22237     22234     22238     22241     22238     22241     22248     22244
     22239     22238     22241     22242     22239     22238     22241     22243
     22239     22238     22241     22248     22240     22238     22241     22242
     22240     22238     22241     22243     22240     22238     22241     22248
     22241     22248     22244     22245     22241     22248     22244     22246
     22241     22248     22244     22247     22242     22241     22248     22244
     22243     22241     22248     22244     22244     22247     22249     22250
     22244     22247     22249     22251     22244     22247     22249     22252
     22245     22244     22247     22249     22246     22244     22247     22249
     22247     22249     22252     22253     22247     22249     22252     22254
     22247     22249     22252     22260     22248     22244     22247     22249
     22249     22252     22254     22255     22249     22252     22260     22261
     22249     22252     22260     22262     22249     22252     22260     22263
     22250     22249     22252     22253     22250     22249     22252     22254
     22250     22249     22252     22260     22251     22249     22252     22253
     22251     22249     22252     22254     22251     22249     22252     22260
     22252     22254     22255     22256     22252     22254     22255     22257
     22252     22260     22263     22264     22253     22252     22254     22255
     22253     22252     22260     22261     22253     22252     22260     22262
     22253     22252     22260     22263     22254     22252     22260     22261
     22254     22252     22260     22262     22254     22252     22260     22263
     22254     22255     22257     22258     22254     22255     22257     22259
     22254     22255     22257     22269     22255     22254     22252     22260
     22255     22257     22269     22270     22255     22257     22269     22271
     22255     22257     22269     22272     22256     22255     22257     22258
     22256     22255     22257     22259     22256     22255     22257     22269
     22257     22269     22272     22273     22257     22269     22272     22274
     22257     22269     22272     22275     22258     22257     22269     22270
     22258     22257     22269     22271     22258     22257     22269     22272
     22259     22257     22269     22270     22259     22257     22269     22271
     22259     22257     22269     22272     22260     22263     22264     22265
     22260     22263     22264     22266     22261     22260     22263     22264
     22262     22260     22263     22264     22263     22264     22266     22267
     22263     22264     22266     22268     22263     22264     22266     22313
     22264     22266     22313     22314     22264     22266     22313     22315
     22264     22266     22313     22316     22265     22264     22266     22267
     22265     22264     22266     22268     22265     22264     22266     22313
     22266     22313     22316     22317     22266     22313     22316     22318
     22266     22313     22316     22319     22267     22266     22313     22314
     22267     22266     22313     22315     22267     22266     22313     22316
     22268     22266     22313     22314     22268     22266     22313     22315
     22268     22266     22313     22316     22269     22272     22275     22276
     22269     22272     22275     22277     22269     22272     22275     22278
     22270     22269     22272     22273     22270     22269     22272     22274
     22270     22269     22272     22275     22271     22269     22272     22273
     22271     22269     22272     22274     22271     22269     22272     22275
     22272     22275     22278     22279     22272     22275     22278     22280
     22272     22275     22278     22281     22273     22272     22275     22276
     22273     22272     22275     22277     22273     22272     22275     22278
     22274     22272     22275     22276     22274     22272     22275     22277
     22274     22272     22275     22278     22275     22278     22281     22282
     22275     22278     22281     22283     22275     22278     22281     22284
     22276     22275     22278     22279     22276     22275     22278     22280
     22276     22275     22278     22281     22277     22275     22278     22279
     22277     22275     22278     22280     22277     22275     22278     22281
     22278     22281     22284     22285     22278     22281     22284     22286
     22278     22281     22284     22287     22279     22278     22281     22282
     22279     22278     22281     22283     22279     22278     22281     22284
     22280     22278     22281     22282     22280     22278     22281     22283
     22280     22278     22281     22284     22281     22284     22287     22288
     22281     22284     22287     22289     22281     22284     22287     22292
     22282     22281     22284     22285     22282     22281     22284     22286
     22282     22281     22284     22287     22283     22281     22284     22285
     22283     22281     22284     22286     22283     22281     22284     22287
     22284     22287     22289     22290     22284     22287     22289     22291
     22284     22287     22289     22292     22284     22287     22292     22289
     22284     22287     22292     22293     22284     22287     22292     22294
     22285     22284     22287     22288     22285     22284     22287     22289
     22285     22284     22287     22292     22286     22284     22287     22288
     22286     22284     22287     22289     22286     22284     22287     22292
     22287     22289     22292     22293     22287     22289     22292     22294
     22287     22292     22289     22290     22287     22292     22289     22291
     22287     22292     22294     22295     22287     22292     22294     22296
     22287     22292     22294     22297     22288     22287     22289     22290
     22288     22287     22289     22291     22288     22287     22289     22292
     22288     22287     22292     22289     22288     22287     22292     22293
     22288     22287     22292     22294     22289     22287     22292     22293
     22289     22287     22292     22294     22289     22292     22294     22295
     22289     22292     22294     22296     22289     22292     22294     22297
     22290     22289     22287     22292     22290     22289     22292     22293
     22290     22289     22292     22294     22291     22289     22287     22292
     22291     22289     22292     22293     22291     22289     22292     22294
     22292     22294     22297     22298     22292     22294     22297     22299
     22292     22294     22297     22300     22293     22292     22294     22295
     22293     22292     22294     22296     22293     22292     22294     22297
     22294     22297     22300     22301     22294     22297     22300     22302
     22294     22297     22300     22303     22295     22294     22297     22298
     22295     22294     22297     22299     22295     22294     22297     22300
     22296     22294     22297     22298     22296     22294     22297     22299
     22296     22294     22297     22300     22297     22300     22303     22304
     22297     22300     22303     22305     22297     22300     22303     22306
     22298     22297     22300     22301     22298     22297     22300     22302
     22298     22297     22300     22303     22299     22297     22300     22301
     22299     22297     22300     22302     22299     22297     22300     22303
     22300     22303     22306     22307     22300     22303     22306     22308
     22300     22303     22306     22309     22301     22300     22303     22304
     22301     22300     22303     22305     22301     22300     22303     22306
     22302     22300     22303     22304     22302     22300     22303     22305
     22302     22300     22303     22306     22303     22306     22309     22310
     22303     22306     22309     22311     22303     22306     22309     22312
     22304     22303     22306     22307     22304     22303     22306     22308
     22304     22303     22306     22309     22305     22303     22306     22307
     22305     22303     22306     22308     22305     22303     22306     22309
     22307     22306     22309     22310     22307     22306     22309     22311
     22307     22306     22309     22312     22308     22306     22309     22310
     22308     22306     22309     22311     22308     22306     22309     22312
     22313     22316     22319     22320     22313     22316     22319     22321
     22313     22316     22319     22322     22314     22313     22316     22317
     22314     22313     22316     22318     22314     22313     22316     22319
     22315     22313     22316     22317     22315     22313     22316     22318
     22315     22313     22316     22319     22316     22319     22322     22323
     22316     22319     22322     22324     22316     22319     22322     22325
     22317     22316     22319     22320     22317     22316     22319     22321
     22317     22316     22319     22322     22318     22316     22319     22320
     22318     22316     22319     22321     22318     22316     22319     22322
     22319     22322     22325     22326     22319     22322     22325     22327
     22319     22322     22325     22328     22320     22319     22322     22323
     22320     22319     22322     22324     22320     22319     22322     22325
     22321     22319     22322     22323     22321     22319     22322     22324
     22321     22319     22322     22325     22322     22325     22328     22329
     22322     22325     22328     22330     22322     22325     22328     22331
     22323     22322     22325     22326     22323     22322     22325     22327
     22323     22322     22325     22328     22324     22322     22325     22326
     22324     22322     22325     22327     22324     22322     22325     22328
     22325     22328     22331     22332     22325     22328     22331     22333
     22325     22328     22331     22334     22326     22325     22328     22329
     22326     22325     22328     22330     22326     22325     22328     22331
     22327     22325     22328     22329     22327     22325     22328     22330
     22327     22325     22328     22331     22328     22331     22334     22335
     22328     22331     22334     22336     22328     22331     22334     22337
     22329     22328     22331     22332     22329     22328     22331     22333
     22329     22328     22331     22334     22330     22328     22331     22332
     22330     22328     22331     22333     22330     22328     22331     22334
     22331     22334     22337     22338     22331     22334     22337     22339
     22331     22334     22337     22340     22332     22331     22334     22335
     22332     22331     22334     22336     22332     22331     22334     22337
     22333     22331     22334     22335     22333     22331     22334     22336
     22333     22331     22334     22337     22334     22337     22340     22341
     22334     22337     22340     22342     22334     22337     22340     22343
     22335     22334     22337     22338     22335     22334     22337     22339
     22335     22334     22337     22340     22336     22334     22337     22338
     22336     22334     22337     22339     22336     22334     22337     22340
     22337     22340     22343     22344     22337     22340     22343     22345
     22337     22340     22343     22346     22338     22337     22340     22341
     22338     22337     22340     22342     22338     22337     22340     22343
     22339     22337     22340     22341     22339     22337     22340     22342
     22339     22337     22340     22343     22340     22343     22346     22347
     22340     22343     22346     22348     22340     22343     22346     22349
     22341     22340     22343     22344     22341     22340     22343     22345
     22341     22340     22343     22346     22342     22340     22343     22344
     22342     22340     22343     22345     22342     22340     22343     22346
     22343     22346     22349     22350     22343     22346     22349     22351
     22343     22346     22349     22352     22344     22343     22346     22347
     22344     22343     22346     22348     22344     22343     22346     22349
     22345     22343     22346     22347     22345     22343     22346     22348
     22345     22343     22346     22349     22347     22346     22349     22350
     22347     22346     22349     22351     22347     22346     22349     22352
     22348     22346     22349     22350     22348     22346     22349     22351
     22348     22346     22349     22352     22353     22357     22360     22361
     22353     22357     22360     22362     22353     22357     22360     22367
     22354     22353     22357     22358     22354     22353     22357     22359
     22354     22353     22357     22360     22355     22353     22357     22358
     22355     22353     22357     22359     22355     22353     22357     22360
     22356     22353     22357     22358     22356     22353     22357     22359
     22356     22353     22357     22360     22357     22360     22367     22363
     22358     22357     22360     22361     22358     22357     22360     22362
     22358     22357     22360     22367     22359     22357     22360     22361
     22359     22357     22360     22362     22359     22357     22360     22367
     22360     22367     22363     22364     22360     22367     22363     22365
     22360     22367     22363     22366     22361     22360     22367     22363
     22362     22360     22367     22363     22363     22366     22368     22369
     22363     22366     22368     22370     22363     22366     22368     22371
     22364     22363     22366     22368     22365     22363     22366     22368
     22366     22368     22371     22372     22366     22368     22371     22373
     22366     22368     22371     22379     22367     22363     22366     22368
     22368     22371     22373     22374     22368     22371     22379     22380
     22368     22371     22379     22381     22368     22371     22379     22382
     22369     22368     22371     22372     22369     22368     22371     22373
     22369     22368     22371     22379     22370     22368     22371     22372
     22370     22368     22371     22373     22370     22368     22371     22379
     22371     22373     22374     22375     22371     22373     22374     22376
     22371     22379     22382     22383     22372     22371     22373     22374
     22372     22371     22379     22380     22372     22371     22379     22381
     22372     22371     22379     22382     22373     22371     22379     22380
     22373     22371     22379     22381     22373     22371     22379     22382
     22373     22374     22376     22377     22373     22374     22376     22378
     22373     22374     22376     22388     22374     22373     22371     22379
     22374     22376     22388     22389     22374     22376     22388     22390
     22374     22376     22388     22391     22375     22374     22376     22377
     22375     22374     22376     22378     22375     22374     22376     22388
     22376     22388     22391     22392     22376     22388     22391     22393
     22376     22388     22391     22394     22377     22376     22388     22389
     22377     22376     22388     22390     22377     22376     22388     22391
     22378     22376     22388     22389     22378     22376     22388     22390
     22378     22376     22388     22391     22379     22382     22383     22384
     22379     22382     22383     22385     22380     22379     22382     22383
     22381     22379     22382     22383     22382     22383     22385     22386
     22382     22383     22385     22387     22382     22383     22385     22432
     22383     22385     22432     22433     22383     22385     22432     22434
     22383     22385     22432     22435     22384     22383     22385     22386
     22384     22383     22385     22387     22384     22383     22385     22432
     22385     22432     22435     22436     22385     22432     22435     22437
     22385     22432     22435     22438     22386     22385     22432     22433
     22386     22385     22432     22434     22386     22385     22432     22435
     22387     22385     22432     22433     22387     22385     22432     22434
     22387     22385     22432     22435     22388     22391     22394     22395
     22388     22391     22394     22396     22388     22391     22394     22397
     22389     22388     22391     22392     22389     22388     22391     22393
     22389     22388     22391     22394     22390     22388     22391     22392
     22390     22388     22391     22393     22390     22388     22391     22394
     22391     22394     22397     22398     22391     22394     22397     22399
     22391     22394     22397     22400     22392     22391     22394     22395
     22392     22391     22394     22396     22392     22391     22394     22397
     22393     22391     22394     22395     22393     22391     22394     22396
     22393     22391     22394     22397     22394     22397     22400     22401
     22394     22397     22400     22402     22394     22397     22400     22403
     22395     22394     22397     22398     22395     22394     22397     22399
     22395     22394     22397     22400     22396     22394     22397     22398
     22396     22394     22397     22399     22396     22394     22397     22400
     22397     22400     22403     22404     22397     22400     22403     22405
     22397     22400     22403     22406     22398     22397     22400     22401
     22398     22397     22400     22402     22398     22397     22400     22403
     22399     22397     22400     22401     22399     22397     22400     22402
     22399     22397     22400     22403     22400     22403     22406     22407
     22400     22403     22406     22408     22400     22403     22406     22411
     22401     22400     22403     22404     22401     22400     22403     22405
     22401     22400     22403     22406     22402     22400     22403     22404
     22402     22400     22403     22405     22402     22400     22403     22406
     22403     22406     22408     22409     22403     22406     22408     22410
     22403     22406     22408     22411     22403     22406     22411     22408
     22403     22406     22411     22412     22403     22406     22411     22413
     22404     22403     22406     22407     22404     22403     22406     22408
     22404     22403     22406     22411     22405     22403     22406     22407
     22405     22403     22406     22408     22405     22403     22406     22411
     22406     22408     22411     22412     22406     22408     22411     22413
     22406     22411     22408     22409     22406     22411     22408     22410
     22406     22411     22413     22414     22406     22411     22413     22415
     22406     22411     22413     22416     22407     22406     22408     22409
     22407     22406     22408     22410     22407     22406     22408     22411
     22407     22406     22411     22408     22407     22406     22411     22412
     22407     22406     22411     22413     22408     22406     22411     22412
     22408     22406     22411     22413     22408     22411     22413     22414
     22408     22411     22413     22415     22408     22411     22413     22416
     22409     22408     22406     22411     22409     22408     22411     22412
     22409     22408     22411     22413     22410     22408     22406     22411
     22410     22408     22411     22412     22410     22408     22411     22413
     22411     22413     22416     22417     22411     22413     22416     22418
     22411     22413     22416     22419     22412     22411     22413     22414
     22412     22411     22413     22415     22412     22411     22413     22416
     22413     22416     22419     22420     22413     22416     22419     22421
     22413     22416     22419     22422     22414     22413     22416     22417
     22414     22413     22416     22418     22414     22413     22416     22419
     22415     22413     22416     22417     22415     22413     22416     22418
     22415     22413     22416     22419     22416     22419     22422     22423
     22416     22419     22422     22424     22416     22419     22422     22425
     22417     22416     22419     22420     22417     22416     22419     22421
     22417     22416     22419     22422     22418     22416     22419     22420
     22418     22416     22419     22421     22418     22416     22419     22422
     22419     22422     22425     22426     22419     22422     22425     22427
     22419     22422     22425     22428     22420     22419     22422     22423
     22420     22419     22422     22424     22420     22419     22422     22425
     22421     22419     22422     22423     22421     22419     22422     22424
     22421     22419     22422     22425     22422     22425     22428     22429
     22422     22425     22428     22430     22422     22425     22428     22431
     22423     22422     22425     22426     22423     22422     22425     22427
     22423     22422     22425     22428     22424     22422     22425     22426
     22424     22422     22425     22427     22424     22422     22425     22428
     22426     22425     22428     22429     22426     22425     22428     22430
     22426     22425     22428     22431     22427     22425     22428     22429
     22427     22425     22428     22430     22427     22425     22428     22431
     22432     22435     22438     22439     22432     22435     22438     22440
     22432     22435     22438     22441     22433     22432     22435     22436
     22433     22432     22435     22437     22433     22432     22435     22438
     22434     22432     22435     22436     22434     22432     22435     22437
     22434     22432     22435     22438     22435     22438     22441     22442
     22435     22438     22441     22443     22435     22438     22441     22444
     22436     22435     22438     22439     22436     22435     22438     22440
     22436     22435     22438     22441     22437     22435     22438     22439
     22437     22435     22438     22440     22437     22435     22438     22441
     22438     22441     22444     22445     22438     22441     22444     22446
     22438     22441     22444     22447     22439     22438     22441     22442
     22439     22438     22441     22443     22439     22438     22441     22444
     22440     22438     22441     22442     22440     22438     22441     22443
     22440     22438     22441     22444     22441     22444     22447     22448
     22441     22444     22447     22449     22441     22444     22447     22450
     22442     22441     22444     22445     22442     22441     22444     22446
     22442     22441     22444     22447     22443     22441     22444     22445
     22443     22441     22444     22446     22443     22441     22444     22447
     22444     22447     22450     22451     22444     22447     22450     22452
     22444     22447     22450     22453     22445     22444     22447     22448
     22445     22444     22447     22449     22445     22444     22447     22450
     22446     22444     22447     22448     22446     22444     22447     22449
     22446     22444     22447     22450     22447     22450     22453     22454
     22447     22450     22453     22455     22447     22450     22453     22456
     22448     22447     22450     22451     22448     22447     22450     22452
     22448     22447     22450     22453     22449     22447     22450     22451
     22449     22447     22450     22452     22449     22447     22450     22453
     22450     22453     22456     22457     22450     22453     22456     22458
     22450     22453     22456     22459     22451     22450     22453     22454
     22451     22450     22453     22455     22451     22450     22453     22456
     22452     22450     22453     22454     22452     22450     22453     22455
     22452     22450     22453     22456     22453     22456     22459     22460
     22453     22456     22459     22461     22453     22456     22459     22462
     22454     22453     22456     22457     22454     22453     22456     22458
     22454     22453     22456     22459     22455     22453     22456     22457
     22455     22453     22456     22458     22455     22453     22456     22459
     22456     22459     22462     22463     22456     22459     22462     22464
     22456     22459     22462     22465     22457     22456     22459     22460
     22457     22456     22459     22461     22457     22456     22459     22462
     22458     22456     22459     22460     22458     22456     22459     22461
     22458     22456     22459     22462     22459     22462     22465     22466
     22459     22462     22465     22467     22459     22462     22465     22468
     22460     22459     22462     22463     22460     22459     22462     22464
     22460     22459     22462     22465     22461     22459     22462     22463
     22461     22459     22462     22464     22461     22459     22462     22465
     22462     22465     22468     22469     22462     22465     22468     22470
     22462     22465     22468     22471     22463     22462     22465     22466
     22463     22462     22465     22467     22463     22462     22465     22468
     22464     22462     22465     22466     22464     22462     22465     22467
     22464     22462     22465     22468     22465     22468     22471     22472
     22465     22468     22471     22473     22465     22468     22471     22474
     22466     22465     22468     22469     22466     22465     22468     22470
     22466     22465     22468     22471     22467     22465     22468     22469
     22467     22465     22468     22470     22467     22465     22468     22471
     22469     22468     22471     22472     22469     22468     22471     22473
     22469     22468     22471     22474     22470     22468     22471     22472
     22470     22468     22471     22473     22470     22468     22471     22474
     22475     22479     22482     22483     22475     22479     22482     22484
     22475     22479     22482     22489     22476     22475     22479     22480
     22476     22475     22479     22481     22476     22475     22479     22482
     22477     22475     22479     22480     22477     22475     22479     22481
     22477     22475     22479     22482     22478     22475     22479     22480
     22478     22475     22479     22481     22478     22475     22479     22482
     22479     22482     22489     22485     22480     22479     22482     22483
     22480     22479     22482     22484     22480     22479     22482     22489
     22481     22479     22482     22483     22481     22479     22482     22484
     22481     22479     22482     22489     22482     22489     22485     22486
     22482     22489     22485     22487     22482     22489     22485     22488
     22483     22482     22489     22485     22484     22482     22489     22485
     22485     22488     22490     22491     22485     22488     22490     22492
     22485     22488     22490     22493     22486     22485     22488     22490
     22487     22485     22488     22490     22488     22490     22493     22494
     22488     22490     22493     22495     22488     22490     22493     22501
     22489     22485     22488     22490     22490     22493     22495     22496
     22490     22493     22501     22502     22490     22493     22501     22503
     22490     22493     22501     22504     22491     22490     22493     22494
     22491     22490     22493     22495     22491     22490     22493     22501
     22492     22490     22493     22494     22492     22490     22493     22495
     22492     22490     22493     22501     22493     22495     22496     22497
     22493     22495     22496     22498     22493     22501     22504     22505
     22494     22493     22495     22496     22494     22493     22501     22502
     22494     22493     22501     22503     22494     22493     22501     22504
     22495     22493     22501     22502     22495     22493     22501     22503
     22495     22493     22501     22504     22495     22496     22498     22499
     22495     22496     22498     22500     22495     22496     22498     22510
     22496     22495     22493     22501     22496     22498     22510     22511
     22496     22498     22510     22512     22496     22498     22510     22513
     22497     22496     22498     22499     22497     22496     22498     22500
     22497     22496     22498     22510     22498     22510     22513     22514
     22498     22510     22513     22515     22498     22510     22513     22516
     22499     22498     22510     22511     22499     22498     22510     22512
     22499     22498     22510     22513     22500     22498     22510     22511
     22500     22498     22510     22512     22500     22498     22510     22513
     22501     22504     22505     22506     22501     22504     22505     22507
     22502     22501     22504     22505     22503     22501     22504     22505
     22504     22505     22507     22508     22504     22505     22507     22509
     22504     22505     22507     22554     22505     22507     22554     22555
     22505     22507     22554     22556     22505     22507     22554     22557
     22506     22505     22507     22508     22506     22505     22507     22509
     22506     22505     22507     22554     22507     22554     22557     22558
     22507     22554     22557     22559     22507     22554     22557     22560
     22508     22507     22554     22555     22508     22507     22554     22556
     22508     22507     22554     22557     22509     22507     22554     22555
     22509     22507     22554     22556     22509     22507     22554     22557
     22510     22513     22516     22517     22510     22513     22516     22518
     22510     22513     22516     22519     22511     22510     22513     22514
     22511     22510     22513     22515     22511     22510     22513     22516
     22512     22510     22513     22514     22512     22510     22513     22515
     22512     22510     22513     22516     22513     22516     22519     22520
     22513     22516     22519     22521     22513     22516     22519     22522
     22514     22513     22516     22517     22514     22513     22516     22518
     22514     22513     22516     22519     22515     22513     22516     22517
     22515     22513     22516     22518     22515     22513     22516     22519
     22516     22519     22522     22523     22516     22519     22522     22524
     22516     22519     22522     22525     22517     22516     22519     22520
     22517     22516     22519     22521     22517     22516     22519     22522
     22518     22516     22519     22520     22518     22516     22519     22521
     22518     22516     22519     22522     22519     22522     22525     22526
     22519     22522     22525     22527     22519     22522     22525     22528
     22520     22519     22522     22523     22520     22519     22522     22524
     22520     22519     22522     22525     22521     22519     22522     22523
     22521     22519     22522     22524     22521     22519     22522     22525
     22522     22525     22528     22529     22522     22525     22528     22530
     22522     22525     22528     22533     22523     22522     22525     22526
     22523     22522     22525     22527     22523     22522     22525     22528
     22524     22522     22525     22526     22524     22522     22525     22527
     22524     22522     22525     22528     22525     22528     22530     22531
     22525     22528     22530     22532     22525     22528     22530     22533
     22525     22528     22533     22530     22525     22528     22533     22534
     22525     22528     22533     22535     22526     22525     22528     22529
     22526     22525     22528     22530     22526     22525     22528     22533
     22527     22525     22528     22529     22527     22525     22528     22530
     22527     22525     22528     22533     22528     22530     22533     22534
     22528     22530     22533     22535     22528     22533     22530     22531
     22528     22533     22530     22532     22528     22533     22535     22536
     22528     22533     22535     22537     22528     22533     22535     22538
     22529     22528     22530     22531     22529     22528     22530     22532
     22529     22528     22530     22533     22529     22528     22533     22530
     22529     22528     22533     22534     22529     22528     22533     22535
     22530     22528     22533     22534     22530     22528     22533     22535
     22530     22533     22535     22536     22530     22533     22535     22537
     22530     22533     22535     22538     22531     22530     22528     22533
     22531     22530     22533     22534     22531     22530     22533     22535
     22532     22530     22528     22533     22532     22530     22533     22534
     22532     22530     22533     22535     22533     22535     22538     22539
     22533     22535     22538     22540     22533     22535     22538     22541
     22534     22533     22535     22536     22534     22533     22535     22537
     22534     22533     22535     22538     22535     22538     22541     22542
     22535     22538     22541     22543     22535     22538     22541     22544
     22536     22535     22538     22539     22536     22535     22538     22540
     22536     22535     22538     22541     22537     22535     22538     22539
     22537     22535     22538     22540     22537     22535     22538     22541
     22538     22541     22544     22545     22538     22541     22544     22546
     22538     22541     22544     22547     22539     22538     22541     22542
     22539     22538     22541     22543     22539     22538     22541     22544
     22540     22538     22541     22542     22540     22538     22541     22543
     22540     22538     22541     22544     22541     22544     22547     22548
     22541     22544     22547     22549     22541     22544     22547     22550
     22542     22541     22544     22545     22542     22541     22544     22546
     22542     22541     22544     22547     22543     22541     22544     22545
     22543     22541     22544     22546     22543     22541     22544     22547
     22544     22547     22550     22551     22544     22547     22550     22552
     22544     22547     22550     22553     22545     22544     22547     22548
     22545     22544     22547     22549     22545     22544     22547     22550
     22546     22544     22547     22548     22546     22544     22547     22549
     22546     22544     22547     22550     22548     22547     22550     22551
     22548     22547     22550     22552     22548     22547     22550     22553
     22549     22547     22550     22551     22549     22547     22550     22552
     22549     22547     22550     22553     22554     22557     22560     22561
     22554     22557     22560     22562     22554     22557     22560     22563
     22555     22554     22557     22558     22555     22554     22557     22559
     22555     22554     22557     22560     22556     22554     22557     22558
     22556     22554     22557     22559     22556     22554     22557     22560
     22557     22560     22563     22564     22557     22560     22563     22565
     22557     22560     22563     22566     22558     22557     22560     22561
     22558     22557     22560     22562     22558     22557     22560     22563
     22559     22557     22560     22561     22559     22557     22560     22562
     22559     22557     22560     22563     22560     22563     22566     22567
     22560     22563     22566     22568     22560     22563     22566     22569
     22561     22560     22563     22564     22561     22560     22563     22565
     22561     22560     22563     22566     22562     22560     22563     22564
     22562     22560     22563     22565     22562     22560     22563     22566
     22563     22566     22569     22570     22563     22566     22569     22571
     22563     22566     22569     22572     22564     22563     22566     22567
     22564     22563     22566     22568     22564     22563     22566     22569
     22565     22563     22566     22567     22565     22563     22566     22568
     22565     22563     22566     22569     22566     22569     22572     22573
     22566     22569     22572     22574     22566     22569     22572     22575
     22567     22566     22569     22570     22567     22566     22569     22571
     22567     22566     22569     22572     22568     22566     22569     22570
     22568     22566     22569     22571     22568     22566     22569     22572
     22569     22572     22575     22576     22569     22572     22575     22577
     22569     22572     22575     22578     22570     22569     22572     22573
     22570     22569     22572     22574     22570     22569     22572     22575
     22571     22569     22572     22573     22571     22569     22572     22574
     22571     22569     22572     22575     22572     22575     22578     22579
     22572     22575     22578     22580     22572     22575     22578     22581
     22573     22572     22575     22576     22573     22572     22575     22577
     22573     22572     22575     22578     22574     22572     22575     22576
     22574     22572     22575     22577     22574     22572     22575     22578
     22575     22578     22581     22582     22575     22578     22581     22583
     22575     22578     22581     22584     22576     22575     22578     22579
     22576     22575     22578     22580     22576     22575     22578     22581
     22577     22575     22578     22579     22577     22575     22578     22580
     22577     22575     22578     22581     22578     22581     22584     22585
     22578     22581     22584     22586     22578     22581     22584     22587
     22579     22578     22581     22582     22579     22578     22581     22583
     22579     22578     22581     22584     22580     22578     22581     22582
     22580     22578     22581     22583     22580     22578     22581     22584
     22581     22584     22587     22588     22581     22584     22587     22589
     22581     22584     22587     22590     22582     22581     22584     22585
     22582     22581     22584     22586     22582     22581     22584     22587
     22583     22581     22584     22585     22583     22581     22584     22586
     22583     22581     22584     22587     22584     22587     22590     22591
     22584     22587     22590     22592     22584     22587     22590     22593
     22585     22584     22587     22588     22585     22584     22587     22589
     22585     22584     22587     22590     22586     22584     22587     22588
     22586     22584     22587     22589     22586     22584     22587     22590
     22588     22587     22590     22591     22588     22587     22590     22592
     22588     22587     22590     22593     22589     22587     22590     22591
     22589     22587     22590     22592     22589     22587     22590     22593
     22594     22598     22601     22602     22594     22598     22601     22603
     22594     22598     22601     22608     22595     22594     22598     22599
     22595     22594     22598     22600     22595     22594     22598     22601
     22596     22594     22598     22599     22596     22594     22598     22600
     22596     22594     22598     22601     22597     22594     22598     22599
     22597     22594     22598     22600     22597     22594     22598     22601
     22598     22601     22608     22604     22599     22598     22601     22602
     22599     22598     22601     22603     22599     22598     22601     22608
     22600     22598     22601     22602     22600     22598     22601     22603
     22600     22598     22601     22608     22601     22608     22604     22605
     22601     22608     22604     22606     22601     22608     22604     22607
     22602     22601     22608     22604     22603     22601     22608     22604
     22604     22607     22609     22610     22604     22607     22609     22611
     22604     22607     22609     22612     22605     22604     22607     22609
     22606     22604     22607     22609     22607     22609     22612     22613
     22607     22609     22612     22614     22607     22609     22612     22620
     22608     22604     22607     22609     22609     22612     22614     22615
     22609     22612     22620     22621     22609     22612     22620     22622
     22609     22612     22620     22623     22610     22609     22612     22613
     22610     22609     22612     22614     22610     22609     22612     22620
     22611     22609     22612     22613     22611     22609     22612     22614
     22611     22609     22612     22620     22612     22614     22615     22616
     22612     22614     22615     22617     22612     22620     22623     22624
     22613     22612     22614     22615     22613     22612     22620     22621
     22613     22612     22620     22622     22613     22612     22620     22623
     22614     22612     22620     22621     22614     22612     22620     22622
     22614     22612     22620     22623     22614     22615     22617     22618
     22614     22615     22617     22619     22614     22615     22617     22629
     22615     22614     22612     22620     22615     22617     22629     22630
     22615     22617     22629     22631     22615     22617     22629     22632
     22616     22615     22617     22618     22616     22615     22617     22619
     22616     22615     22617     22629     22617     22629     22632     22633
     22617     22629     22632     22634     22617     22629     22632     22635
     22618     22617     22629     22630     22618     22617     22629     22631
     22618     22617     22629     22632     22619     22617     22629     22630
     22619     22617     22629     22631     22619     22617     22629     22632
     22620     22623     22624     22625     22620     22623     22624     22626
     22621     22620     22623     22624     22622     22620     22623     22624
     22623     22624     22626     22627     22623     22624     22626     22628
     22623     22624     22626     22673     22624     22626     22673     22674
     22624     22626     22673     22675     22624     22626     22673     22676
     22625     22624     22626     22627     22625     22624     22626     22628
     22625     22624     22626     22673     22626     22673     22676     22677
     22626     22673     22676     22678     22626     22673     22676     22679
     22627     22626     22673     22674     22627     22626     22673     22675
     22627     22626     22673     22676     22628     22626     22673     22674
     22628     22626     22673     22675     22628     22626     22673     22676
     22629     22632     22635     22636     22629     22632     22635     22637
     22629     22632     22635     22638     22630     22629     22632     22633
     22630     22629     22632     22634     22630     22629     22632     22635
     22631     22629     22632     22633     22631     22629     22632     22634
     22631     22629     22632     22635     22632     22635     22638     22639
     22632     22635     22638     22640     22632     22635     22638     22641
     22633     22632     22635     22636     22633     22632     22635     22637
     22633     22632     22635     22638     22634     22632     22635     22636
     22634     22632     22635     22637     22634     22632     22635     22638
     22635     22638     22641     22642     22635     22638     22641     22643
     22635     22638     22641     22644     22636     22635     22638     22639
     22636     22635     22638     22640     22636     22635     22638     22641
     22637     22635     22638     22639     22637     22635     22638     22640
     22637     22635     22638     22641     22638     22641     22644     22645
     22638     22641     22644     22646     22638     22641     22644     22647
     22639     22638     22641     22642     22639     22638     22641     22643
     22639     22638     22641     22644     22640     22638     22641     22642
     22640     22638     22641     22643     22640     22638     22641     22644
     22641     22644     22647     22648     22641     22644     22647     22649
     22641     22644     22647     22652     22642     22641     22644     22645
     22642     22641     22644     22646     22642     22641     22644     22647
     22643     22641     22644     22645     22643     22641     22644     22646
     22643     22641     22644     22647     22644     22647     22649     22650
     22644     22647     22649     22651     22644     22647     22649     22652
     22644     22647     22652     22649     22644     22647     22652     22653
     22644     22647     22652     22654     22645     22644     22647     22648
     22645     22644     22647     22649     22645     22644     22647     22652
     22646     22644     22647     22648     22646     22644     22647     22649
     22646     22644     22647     22652     22647     22649     22652     22653
     22647     22649     22652     22654     22647     22652     22649     22650
     22647     22652     22649     22651     22647     22652     22654     22655
     22647     22652     22654     22656     22647     22652     22654     22657
     22648     22647     22649     22650     22648     22647     22649     22651
     22648     22647     22649     22652     22648     22647     22652     22649
     22648     22647     22652     22653     22648     22647     22652     22654
     22649     22647     22652     22653     22649     22647     22652     22654
     22649     22652     22654     22655     22649     22652     22654     22656
     22649     22652     22654     22657     22650     22649     22647     22652
     22650     22649     22652     22653     22650     22649     22652     22654
     22651     22649     22647     22652     22651     22649     22652     22653
     22651     22649     22652     22654     22652     22654     22657     22658
     22652     22654     22657     22659     22652     22654     22657     22660
     22653     22652     22654     22655     22653     22652     22654     22656
     22653     22652     22654     22657     22654     22657     22660     22661
     22654     22657     22660     22662     22654     22657     22660     22663
     22655     22654     22657     22658     22655     22654     22657     22659
     22655     22654     22657     22660     22656     22654     22657     22658
     22656     22654     22657     22659     22656     22654     22657     22660
     22657     22660     22663     22664     22657     22660     22663     22665
     22657     22660     22663     22666     22658     22657     22660     22661
     22658     22657     22660     22662     22658     22657     22660     22663
     22659     22657     22660     22661     22659     22657     22660     22662
     22659     22657     22660     22663     22660     22663     22666     22667
     22660     22663     22666     22668     22660     22663     22666     22669
     22661     22660     22663     22664     22661     22660     22663     22665
     22661     22660     22663     22666     22662     22660     22663     22664
     22662     22660     22663     22665     22662     22660     22663     22666
     22663     22666     22669     22670     22663     22666     22669     22671
     22663     22666     22669     22672     22664     22663     22666     22667
     22664     22663     22666     22668     22664     22663     22666     22669
     22665     22663     22666     22667     22665     22663     22666     22668
     22665     22663     22666     22669     22667     22666     22669     22670
     22667     22666     22669     22671     22667     22666     22669     22672
     22668     22666     22669     22670     22668     22666     22669     22671
     22668     22666     22669     22672     22673     22676     22679     22680
     22673     22676     22679     22681     22673     22676     22679     22682
     22674     22673     22676     22677     22674     22673     22676     22678
     22674     22673     22676     22679     22675     22673     22676     22677
     22675     22673     22676     22678     22675     22673     22676     22679
     22676     22679     22682     22683     22676     22679     22682     22684
     22676     22679     22682     22685     22677     22676     22679     22680
     22677     22676     22679     22681     22677     22676     22679     22682
     22678     22676     22679     22680     22678     22676     22679     22681
     22678     22676     22679     22682     22679     22682     22685     22686
     22679     22682     22685     22687     22679     22682     22685     22688
     22680     22679     22682     22683     22680     22679     22682     22684
     22680     22679     22682     22685     22681     22679     22682     22683
     22681     22679     22682     22684     22681     22679     22682     22685
     22682     22685     22688     22689     22682     22685     22688     22690
     22682     22685     22688     22691     22683     22682     22685     22686
     22683     22682     22685     22687     22683     22682     22685     22688
     22684     22682     22685     22686     22684     22682     22685     22687
     22684     22682     22685     22688     22685     22688     22691     22692
     22685     22688     22691     22693     22685     22688     22691     22694
     22686     22685     22688     22689     22686     22685     22688     22690
     22686     22685     22688     22691     22687     22685     22688     22689
     22687     22685     22688     22690     22687     22685     22688     22691
     22688     22691     22694     22695     22688     22691     22694     22696
     22688     22691     22694     22697     22689     22688     22691     22692
     22689     22688     22691     22693     22689     22688     22691     22694
     22690     22688     22691     22692     22690     22688     22691     22693
     22690     22688     22691     22694     22691     22694     22697     22698
     22691     22694     22697     22699     22691     22694     22697     22700
     22692     22691     22694     22695     22692     22691     22694     22696
     22692     22691     22694     22697     22693     22691     22694     22695
     22693     22691     22694     22696     22693     22691     22694     22697
     22694     22697     22700     22701     22694     22697     22700     22702
     22694     22697     22700     22703     22695     22694     22697     22698
     22695     22694     22697     22699     22695     22694     22697     22700
     22696     22694     22697     22698     22696     22694     22697     22699
     22696     22694     22697     22700     22697     22700     22703     22704
     22697     22700     22703     22705     22697     22700     22703     22706
     22698     22697     22700     22701     22698     22697     22700     22702
     22698     22697     22700     22703     22699     22697     22700     22701
     22699     22697     22700     22702     22699     22697     22700     22703
     22700     22703     22706     22707     22700     22703     22706     22708
     22700     22703     22706     22709     22701     22700     22703     22704
     22701     22700     22703     22705     22701     22700     22703     22706
     22702     22700     22703     22704     22702     22700     22703     22705
     22702     22700     22703     22706     22703     22706     22709     22710
     22703     22706     22709     22711     22703     22706     22709     22712
     22704     22703     22706     22707     22704     22703     22706     22708
     22704     22703     22706     22709     22705     22703     22706     22707
     22705     22703     22706     22708     22705     22703     22706     22709
     22707     22706     22709     22710     22707     22706     22709     22711
     22707     22706     22709     22712     22708     22706     22709     22710
     22708     22706     22709     22711     22708     22706     22709     22712
     22713     22717     22720     22721     22713     22717     22720     22722
     22713     22717     22720     22727     22714     22713     22717     22718
     22714     22713     22717     22719     22714     22713     22717     22720
     22715     22713     22717     22718     22715     22713     22717     22719
     22715     22713     22717     22720     22716     22713     22717     22718
     22716     22713     22717     22719     22716     22713     22717     22720
     22717     22720     22727     22723     22718     22717     22720     22721
     22718     22717     22720     22722     22718     22717     22720     22727
     22719     22717     22720     22721     22719     22717     22720     22722
     22719     22717     22720     22727     22720     22727     22723     22724
     22720     22727     22723     22725     22720     22727     22723     22726
     22721     22720     22727     22723     22722     22720     22727     22723
     22723     22726     22728     22729     22723     22726     22728     22730
     22723     22726     22728     22731     22724     22723     22726     22728
     22725     22723     22726     22728     22726     22728     22731     22732
     22726     22728     22731     22733     22726     22728     22731     22739
     22727     22723     22726     22728     22728     22731     22733     22734
     22728     22731     22739     22740     22728     22731     22739     22741
     22728     22731     22739     22742     22729     22728     22731     22732
     22729     22728     22731     22733     22729     22728     22731     22739
     22730     22728     22731     22732     22730     22728     22731     22733
     22730     22728     22731     22739     22731     22733     22734     22735
     22731     22733     22734     22736     22731     22739     22742     22743
     22732     22731     22733     22734     22732     22731     22739     22740
     22732     22731     22739     22741     22732     22731     22739     22742
     22733     22731     22739     22740     22733     22731     22739     22741
     22733     22731     22739     22742     22733     22734     22736     22737
     22733     22734     22736     22738     22733     22734     22736     22748
     22734     22733     22731     22739     22734     22736     22748     22749
     22734     22736     22748     22750     22734     22736     22748     22751
     22735     22734     22736     22737     22735     22734     22736     22738
     22735     22734     22736     22748     22736     22748     22751     22752
     22736     22748     22751     22753     22736     22748     22751     22754
     22737     22736     22748     22749     22737     22736     22748     22750
     22737     22736     22748     22751     22738     22736     22748     22749
     22738     22736     22748     22750     22738     22736     22748     22751
     22739     22742     22743     22744     22739     22742     22743     22745
     22740     22739     22742     22743     22741     22739     22742     22743
     22742     22743     22745     22746     22742     22743     22745     22747
     22742     22743     22745     22792     22743     22745     22792     22793
     22743     22745     22792     22794     22743     22745     22792     22795
     22744     22743     22745     22746     22744     22743     22745     22747
     22744     22743     22745     22792     22745     22792     22795     22796
     22745     22792     22795     22797     22745     22792     22795     22798
     22746     22745     22792     22793     22746     22745     22792     22794
     22746     22745     22792     22795     22747     22745     22792     22793
     22747     22745     22792     22794     22747     22745     22792     22795
     22748     22751     22754     22755     22748     22751     22754     22756
     22748     22751     22754     22757     22749     22748     22751     22752
     22749     22748     22751     22753     22749     22748     22751     22754
     22750     22748     22751     22752     22750     22748     22751     22753
     22750     22748     22751     22754     22751     22754     22757     22758
     22751     22754     22757     22759     22751     22754     22757     22760
     22752     22751     22754     22755     22752     22751     22754     22756
     22752     22751     22754     22757     22753     22751     22754     22755
     22753     22751     22754     22756     22753     22751     22754     22757
     22754     22757     22760     22761     22754     22757     22760     22762
     22754     22757     22760     22763     22755     22754     22757     22758
     22755     22754     22757     22759     22755     22754     22757     22760
     22756     22754     22757     22758     22756     22754     22757     22759
     22756     22754     22757     22760     22757     22760     22763     22764
     22757     22760     22763     22765     22757     22760     22763     22766
     22758     22757     22760     22761     22758     22757     22760     22762
     22758     22757     22760     22763     22759     22757     22760     22761
     22759     22757     22760     22762     22759     22757     22760     22763
     22760     22763     22766     22767     22760     22763     22766     22768
     22760     22763     22766     22771     22761     22760     22763     22764
     22761     22760     22763     22765     22761     22760     22763     22766
     22762     22760     22763     22764     22762     22760     22763     22765
     22762     22760     22763     22766     22763     22766     22768     22769
     22763     22766     22768     22770     22763     22766     22768     22771
     22763     22766     22771     22768     22763     22766     22771     22772
     22763     22766     22771     22773     22764     22763     22766     22767
     22764     22763     22766     22768     22764     22763     22766     22771
     22765     22763     22766     22767     22765     22763     22766     22768
     22765     22763     22766     22771     22766     22768     22771     22772
     22766     22768     22771     22773     22766     22771     22768     22769
     22766     22771     22768     22770     22766     22771     22773     22774
     22766     22771     22773     22775     22766     22771     22773     22776
     22767     22766     22768     22769     22767     22766     22768     22770
     22767     22766     22768     22771     22767     22766     22771     22768
     22767     22766     22771     22772     22767     22766     22771     22773
     22768     22766     22771     22772     22768     22766     22771     22773
     22768     22771     22773     22774     22768     22771     22773     22775
     22768     22771     22773     22776     22769     22768     22766     22771
     22769     22768     22771     22772     22769     22768     22771     22773
     22770     22768     22766     22771     22770     22768     22771     22772
     22770     22768     22771     22773     22771     22773     22776     22777
     22771     22773     22776     22778     22771     22773     22776     22779
     22772     22771     22773     22774     22772     22771     22773     22775
     22772     22771     22773     22776     22773     22776     22779     22780
     22773     22776     22779     22781     22773     22776     22779     22782
     22774     22773     22776     22777     22774     22773     22776     22778
     22774     22773     22776     22779     22775     22773     22776     22777
     22775     22773     22776     22778     22775     22773     22776     22779
     22776     22779     22782     22783     22776     22779     22782     22784
     22776     22779     22782     22785     22777     22776     22779     22780
     22777     22776     22779     22781     22777     22776     22779     22782
     22778     22776     22779     22780     22778     22776     22779     22781
     22778     22776     22779     22782     22779     22782     22785     22786
     22779     22782     22785     22787     22779     22782     22785     22788
     22780     22779     22782     22783     22780     22779     22782     22784
     22780     22779     22782     22785     22781     22779     22782     22783
     22781     22779     22782     22784     22781     22779     22782     22785
     22782     22785     22788     22789     22782     22785     22788     22790
     22782     22785     22788     22791     22783     22782     22785     22786
     22783     22782     22785     22787     22783     22782     22785     22788
     22784     22782     22785     22786     22784     22782     22785     22787
     22784     22782     22785     22788     22786     22785     22788     22789
     22786     22785     22788     22790     22786     22785     22788     22791
     22787     22785     22788     22789     22787     22785     22788     22790
     22787     22785     22788     22791     22792     22795     22798     22799
     22792     22795     22798     22800     22792     22795     22798     22801
     22793     22792     22795     22796     22793     22792     22795     22797
     22793     22792     22795     22798     22794     22792     22795     22796
     22794     22792     22795     22797     22794     22792     22795     22798
     22795     22798     22801     22802     22795     22798     22801     22803
     22795     22798     22801     22804     22796     22795     22798     22799
     22796     22795     22798     22800     22796     22795     22798     22801
     22797     22795     22798     22799     22797     22795     22798     22800
     22797     22795     22798     22801     22798     22801     22804     22805
     22798     22801     22804     22806     22798     22801     22804     22807
     22799     22798     22801     22802     22799     22798     22801     22803
     22799     22798     22801     22804     22800     22798     22801     22802
     22800     22798     22801     22803     22800     22798     22801     22804
     22801     22804     22807     22808     22801     22804     22807     22809
     22801     22804     22807     22810     22802     22801     22804     22805
     22802     22801     22804     22806     22802     22801     22804     22807
     22803     22801     22804     22805     22803     22801     22804     22806
     22803     22801     22804     22807     22804     22807     22810     22811
     22804     22807     22810     22812     22804     22807     22810     22813
     22805     22804     22807     22808     22805     22804     22807     22809
     22805     22804     22807     22810     22806     22804     22807     22808
     22806     22804     22807     22809     22806     22804     22807     22810
     22807     22810     22813     22814     22807     22810     22813     22815
     22807     22810     22813     22816     22808     22807     22810     22811
     22808     22807     22810     22812     22808     22807     22810     22813
     22809     22807     22810     22811     22809     22807     22810     22812
     22809     22807     22810     22813     22810     22813     22816     22817
     22810     22813     22816     22818     22810     22813     22816     22819
     22811     22810     22813     22814     22811     22810     22813     22815
     22811     22810     22813     22816     22812     22810     22813     22814
     22812     22810     22813     22815     22812     22810     22813     22816
     22813     22816     22819     22820     22813     22816     22819     22821
     22813     22816     22819     22822     22814     22813     22816     22817
     22814     22813     22816     22818     22814     22813     22816     22819
     22815     22813     22816     22817     22815     22813     22816     22818
     22815     22813     22816     22819     22816     22819     22822     22823
     22816     22819     22822     22824     22816     22819     22822     22825
     22817     22816     22819     22820     22817     22816     22819     22821
     22817     22816     22819     22822     22818     22816     22819     22820
     22818     22816     22819     22821     22818     22816     22819     22822
     22819     22822     22825     22826     22819     22822     22825     22827
     22819     22822     22825     22828     22820     22819     22822     22823
     22820     22819     22822     22824     22820     22819     22822     22825
     22821     22819     22822     22823     22821     22819     22822     22824
     22821     22819     22822     22825     22822     22825     22828     22829
     22822     22825     22828     22830     22822     22825     22828     22831
     22823     22822     22825     22826     22823     22822     22825     22827
     22823     22822     22825     22828     22824     22822     22825     22826
     22824     22822     22825     22827     22824     22822     22825     22828
     22825     22828     22831     22832     22825     22828     22831     22833
     22825     22828     22831     22834     22826     22825     22828     22829
     22826     22825     22828     22830     22826     22825     22828     22831
     22827     22825     22828     22829     22827     22825     22828     22830
     22827     22825     22828     22831     22829     22828     22831     22832
     22829     22828     22831     22833     22829     22828     22831     22834
     22830     22828     22831     22832     22830     22828     22831     22833
     22830     22828     22831     22834     22835     22839     22842     22843
     22835     22839     22842     22844     22835     22839     22842     22849
     22836     22835     22839     22840     22836     22835     22839     22841
     22836     22835     22839     22842     22837     22835     22839     22840
     22837     22835     22839     22841     22837     22835     22839     22842
     22838     22835     22839     22840     22838     22835     22839     22841
     22838     22835     22839     22842     22839     22842     22849     22845
     22840     22839     22842     22843     22840     22839     22842     22844
     22840     22839     22842     22849     22841     22839     22842     22843
     22841     22839     22842     22844     22841     22839     22842     22849
     22842     22849     22845     22846     22842     22849     22845     22847
     22842     22849     22845     22848     22843     22842     22849     22845
     22844     22842     22849     22845     22845     22848     22850     22851
     22845     22848     22850     22852     22845     22848     22850     22853
     22846     22845     22848     22850     22847     22845     22848     22850
     22848     22850     22853     22854     22848     22850     22853     22855
     22848     22850     22853     22861     22849     22845     22848     22850
     22850     22853     22855     22856     22850     22853     22861     22862
     22850     22853     22861     22863     22850     22853     22861     22864
     22851     22850     22853     22854     22851     22850     22853     22855
     22851     22850     22853     22861     22852     22850     22853     22854
     22852     22850     22853     22855     22852     22850     22853     22861
     22853     22855     22856     22857     22853     22855     22856     22858
     22853     22861     22864     22865     22854     22853     22855     22856
     22854     22853     22861     22862     22854     22853     22861     22863
     22854     22853     22861     22864     22855     22853     22861     22862
     22855     22853     22861     22863     22855     22853     22861     22864
     22855     22856     22858     22859     22855     22856     22858     22860
     22855     22856     22858     22870     22856     22855     22853     22861
     22856     22858     22870     22871     22856     22858     22870     22872
     22856     22858     22870     22873     22857     22856     22858     22859
     22857     22856     22858     22860     22857     22856     22858     22870
     22858     22870     22873     22874     22858     22870     22873     22875
     22858     22870     22873     22876     22859     22858     22870     22871
     22859     22858     22870     22872     22859     22858     22870     22873
     22860     22858     22870     22871     22860     22858     22870     22872
     22860     22858     22870     22873     22861     22864     22865     22866
     22861     22864     22865     22867     22862     22861     22864     22865
     22863     22861     22864     22865     22864     22865     22867     22868
     22864     22865     22867     22869     22864     22865     22867     22911
     22865     22867     22911     22912     22865     22867     22911     22913
     22865     22867     22911     22914     22866     22865     22867     22868
     22866     22865     22867     22869     22866     22865     22867     22911
     22867     22911     22914     22915     22867     22911     22914     22916
     22867     22911     22914     22917     22868     22867     22911     22912
     22868     22867     22911     22913     22868     22867     22911     22914
     22869     22867     22911     22912     22869     22867     22911     22913
     22869     22867     22911     22914     22870     22873     22876     22877
     22870     22873     22876     22878     22870     22873     22876     22879
     22871     22870     22873     22874     22871     22870     22873     22875
     22871     22870     22873     22876     22872     22870     22873     22874
     22872     22870     22873     22875     22872     22870     22873     22876
     22873     22876     22879     22880     22873     22876     22879     22881
     22873     22876     22879     22882     22874     22873     22876     22877
     22874     22873     22876     22878     22874     22873     22876     22879
     22875     22873     22876     22877     22875     22873     22876     22878
     22875     22873     22876     22879     22876     22879     22882     22883
     22876     22879     22882     22884     22876     22879     22882     22885
     22877     22876     22879     22880     22877     22876     22879     22881
     22877     22876     22879     22882     22878     22876     22879     22880
     22878     22876     22879     22881     22878     22876     22879     22882
     22879     22882     22885     22886     22879     22882     22885     22887
     22879     22882     22885     22888     22880     22879     22882     22883
     22880     22879     22882     22884     22880     22879     22882     22885
     22881     22879     22882     22883     22881     22879     22882     22884
     22881     22879     22882     22885     22882     22885     22888     22889
     22882     22885     22888     22890     22883     22882     22885     22886
     22883     22882     22885     22887     22883     22882     22885     22888
     22884     22882     22885     22886     22884     22882     22885     22887
     22884     22882     22885     22888     22885     22888     22890     22891
     22885     22888     22890     22892     22886     22885     22888     22889
     22886     22885     22888     22890     22887     22885     22888     22889
     22887     22885     22888     22890     22888     22890     22892     22893
     22888     22890     22892     22894     22888     22890     22892     22895
     22889     22888     22890     22891     22889     22888     22890     22892
     22890     22892     22895     22896     22890     22892     22895     22897
     22890     22892     22895     22898     22891     22890     22892     22893
     22891     22890     22892     22894     22891     22890     22892     22895
     22892     22895     22898     22899     22892     22895     22898     22900
     22892     22895     22898     22901     22893     22892     22895     22896
     22893     22892     22895     22897     22893     22892     22895     22898
     22894     22892     22895     22896     22894     22892     22895     22897
     22894     22892     22895     22898     22895     22898     22901     22902
     22895     22898     22901     22903     22895     22898     22901     22904
     22896     22895     22898     22899     22896     22895     22898     22900
     22896     22895     22898     22901     22897     22895     22898     22899
     22897     22895     22898     22900     22897     22895     22898     22901
     22898     22901     22904     22905     22898     22901     22904     22906
     22898     22901     22904     22907     22899     22898     22901     22902
     22899     22898     22901     22903     22899     22898     22901     22904
     22900     22898     22901     22902     22900     22898     22901     22903
     22900     22898     22901     22904     22901     22904     22907     22908
     22901     22904     22907     22909     22901     22904     22907     22910
     22902     22901     22904     22905     22902     22901     22904     22906
     22902     22901     22904     22907     22903     22901     22904     22905
     22903     22901     22904     22906     22903     22901     22904     22907
     22905     22904     22907     22908     22905     22904     22907     22909
     22905     22904     22907     22910     22906     22904     22907     22908
     22906     22904     22907     22909     22906     22904     22907     22910
     22911     22914     22917     22918     22911     22914     22917     22919
     22911     22914     22917     22920     22912     22911     22914     22915
     22912     22911     22914     22916     22912     22911     22914     22917
     22913     22911     22914     22915     22913     22911     22914     22916
     22913     22911     22914     22917     22914     22917     22920     22921
     22914     22917     22920     22922     22914     22917     22920     22923
     22915     22914     22917     22918     22915     22914     22917     22919
     22915     22914     22917     22920     22916     22914     22917     22918
     22916     22914     22917     22919     22916     22914     22917     22920
     22917     22920     22923     22924     22917     22920     22923     22925
     22917     22920     22923     22926     22918     22917     22920     22921
     22918     22917     22920     22922     22918     22917     22920     22923
     22919     22917     22920     22921     22919     22917     22920     22922
     22919     22917     22920     22923     22920     22923     22926     22927
     22920     22923     22926     22928     22920     22923     22926     22929
     22921     22920     22923     22924     22921     22920     22923     22925
     22921     22920     22923     22926     22922     22920     22923     22924
     22922     22920     22923     22925     22922     22920     22923     22926
     22923     22926     22929     22930     22923     22926     22929     22931
     22924     22923     22926     22927     22924     22923     22926     22928
     22924     22923     22926     22929     22925     22923     22926     22927
     22925     22923     22926     22928     22925     22923     22926     22929
     22926     22929     22931     22932     22926     22929     22931     22933
     22927     22926     22929     22930     22927     22926     22929     22931
     22928     22926     22929     22930     22928     22926     22929     22931
     22929     22931     22933     22934     22929     22931     22933     22935
     22929     22931     22933     22936     22930     22929     22931     22932
     22930     22929     22931     22933     22931     22933     22936     22937
     22931     22933     22936     22938     22931     22933     22936     22939
     22932     22931     22933     22934     22932     22931     22933     22935
     22932     22931     22933     22936     22933     22936     22939     22940
     22933     22936     22939     22941     22933     22936     22939     22942
     22934     22933     22936     22937     22934     22933     22936     22938
     22934     22933     22936     22939     22935     22933     22936     22937
     22935     22933     22936     22938     22935     22933     22936     22939
     22936     22939     22942     22943     22936     22939     22942     22944
     22936     22939     22942     22945     22937     22936     22939     22940
     22937     22936     22939     22941     22937     22936     22939     22942
     22938     22936     22939     22940     22938     22936     22939     22941
     22938     22936     22939     22942     22939     22942     22945     22946
     22939     22942     22945     22947     22939     22942     22945     22948
     22940     22939     22942     22943     22940     22939     22942     22944
     22940     22939     22942     22945     22941     22939     22942     22943
     22941     22939     22942     22944     22941     22939     22942     22945
     22942     22945     22948     22949     22942     22945     22948     22950
     22942     22945     22948     22951     22943     22942     22945     22946
     22943     22942     22945     22947     22943     22942     22945     22948
     22944     22942     22945     22946     22944     22942     22945     22947
     22944     22942     22945     22948     22945     22948     22951     22952
     22945     22948     22951     22953     22945     22948     22951     22954
     22946     22945     22948     22949     22946     22945     22948     22950
     22946     22945     22948     22951     22947     22945     22948     22949
     22947     22945     22948     22950     22947     22945     22948     22951
     22948     22951     22954     22955     22948     22951     22954     22956
     22948     22951     22954     22957     22949     22948     22951     22952
     22949     22948     22951     22953     22949     22948     22951     22954
     22950     22948     22951     22952     22950     22948     22951     22953
     22950     22948     22951     22954     22952     22951     22954     22955
     22952     22951     22954     22956     22952     22951     22954     22957
     22953     22951     22954     22955     22953     22951     22954     22956
     22953     22951     22954     22957     22958     22962     22965     22966
     22958     22962     22965     22967     22958     22962     22965     22972
     22959     22958     22962     22963     22959     22958     22962     22964
     22959     22958     22962     22965     22960     22958     22962     22963
     22960     22958     22962     22964     22960     22958     22962     22965
     22961     22958     22962     22963     22961     22958     22962     22964
     22961     22958     22962     22965     22962     22965     22972     22968
     22963     22962     22965     22966     22963     22962     22965     22967
     22963     22962     22965     22972     22964     22962     22965     22966
     22964     22962     22965     22967     22964     22962     22965     22972
     22965     22972     22968     22969     22965     22972     22968     22970
     22965     22972     22968     22971     22966     22965     22972     22968
     22967     22965     22972     22968     22968     22971     22973     22974
     22968     22971     22973     22975     22968     22971     22973     22976
     22969     22968     22971     22973     22970     22968     22971     22973
     22971     22973     22976     22977     22971     22973     22976     22978
     22971     22973     22976     22984     22972     22968     22971     22973
     22973     22976     22978     22979     22973     22976     22984     22985
     22973     22976     22984     22986     22973     22976     22984     22987
     22974     22973     22976     22977     22974     22973     22976     22978
     22974     22973     22976     22984     22975     22973     22976     22977
     22975     22973     22976     22978     22975     22973     22976     22984
     22976     22978     22979     22980     22976     22978     22979     22981
     22976     22984     22987     22988     22977     22976     22978     22979
     22977     22976     22984     22985     22977     22976     22984     22986
     22977     22976     22984     22987     22978     22976     22984     22985
     22978     22976     22984     22986     22978     22976     22984     22987
     22978     22979     22981     22982     22978     22979     22981     22983
     22978     22979     22981     22993     22979     22978     22976     22984
     22979     22981     22993     22994     22979     22981     22993     22995
     22979     22981     22993     22996     22980     22979     22981     22982
     22980     22979     22981     22983     22980     22979     22981     22993
     22981     22993     22996     22997     22981     22993     22996     22998
     22981     22993     22996     22999     22982     22981     22993     22994
     22982     22981     22993     22995     22982     22981     22993     22996
     22983     22981     22993     22994     22983     22981     22993     22995
     22983     22981     22993     22996     22984     22987     22988     22989
     22984     22987     22988     22990     22985     22984     22987     22988
     22986     22984     22987     22988     22987     22988     22990     22991
     22987     22988     22990     22992     22987     22988     22990     23037
     22988     22990     23037     23038     22988     22990     23037     23039
     22988     22990     23037     23040     22989     22988     22990     22991
     22989     22988     22990     22992     22989     22988     22990     23037
     22990     23037     23040     23041     22990     23037     23040     23042
     22990     23037     23040     23043     22991     22990     23037     23038
     22991     22990     23037     23039     22991     22990     23037     23040
     22992     22990     23037     23038     22992     22990     23037     23039
     22992     22990     23037     23040     22993     22996     22999     23000
     22993     22996     22999     23001     22993     22996     22999     23002
     22994     22993     22996     22997     22994     22993     22996     22998
     22994     22993     22996     22999     22995     22993     22996     22997
     22995     22993     22996     22998     22995     22993     22996     22999
     22996     22999     23002     23003     22996     22999     23002     23004
     22996     22999     23002     23005     22997     22996     22999     23000
     22997     22996     22999     23001     22997     22996     22999     23002
     22998     22996     22999     23000     22998     22996     22999     23001
     22998     22996     22999     23002     22999     23002     23005     23006
     22999     23002     23005     23007     22999     23002     23005     23008
     23000     22999     23002     23003     23000     22999     23002     23004
     23000     22999     23002     23005     23001     22999     23002     23003
     23001     22999     23002     23004     23001     22999     23002     23005
     23002     23005     23008     23009     23002     23005     23008     23010
     23002     23005     23008     23011     23003     23002     23005     23006
     23003     23002     23005     23007     23003     23002     23005     23008
     23004     23002     23005     23006     23004     23002     23005     23007
     23004     23002     23005     23008     23005     23008     23011     23012
     23005     23008     23011     23013     23005     23008     23011     23016
     23006     23005     23008     23009     23006     23005     23008     23010
     23006     23005     23008     23011     23007     23005     23008     23009
     23007     23005     23008     23010     23007     23005     23008     23011
     23008     23011     23013     23014     23008     23011     23013     23015
     23008     23011     23013     23016     23008     23011     23016     23013
     23008     23011     23016     23017     23008     23011     23016     23018
     23009     23008     23011     23012     23009     23008     23011     23013
     23009     23008     23011     23016     23010     23008     23011     23012
     23010     23008     23011     23013     23010     23008     23011     23016
     23011     23013     23016     23017     23011     23013     23016     23018
     23011     23016     23013     23014     23011     23016     23013     23015
     23011     23016     23018     23019     23011     23016     23018     23020
     23011     23016     23018     23021     23012     23011     23013     23014
     23012     23011     23013     23015     23012     23011     23013     23016
     23012     23011     23016     23013     23012     23011     23016     23017
     23012     23011     23016     23018     23013     23011     23016     23017
     23013     23011     23016     23018     23013     23016     23018     23019
     23013     23016     23018     23020     23013     23016     23018     23021
     23014     23013     23011     23016     23014     23013     23016     23017
     23014     23013     23016     23018     23015     23013     23011     23016
     23015     23013     23016     23017     23015     23013     23016     23018
     23016     23018     23021     23022     23016     23018     23021     23023
     23016     23018     23021     23024     23017     23016     23018     23019
     23017     23016     23018     23020     23017     23016     23018     23021
     23018     23021     23024     23025     23018     23021     23024     23026
     23018     23021     23024     23027     23019     23018     23021     23022
     23019     23018     23021     23023     23019     23018     23021     23024
     23020     23018     23021     23022     23020     23018     23021     23023
     23020     23018     23021     23024     23021     23024     23027     23028
     23021     23024     23027     23029     23021     23024     23027     23030
     23022     23021     23024     23025     23022     23021     23024     23026
     23022     23021     23024     23027     23023     23021     23024     23025
     23023     23021     23024     23026     23023     23021     23024     23027
     23024     23027     23030     23031     23024     23027     23030     23032
     23024     23027     23030     23033     23025     23024     23027     23028
     23025     23024     23027     23029     23025     23024     23027     23030
     23026     23024     23027     23028     23026     23024     23027     23029
     23026     23024     23027     23030     23027     23030     23033     23034
     23027     23030     23033     23035     23027     23030     23033     23036
     23028     23027     23030     23031     23028     23027     23030     23032
     23028     23027     23030     23033     23029     23027     23030     23031
     23029     23027     23030     23032     23029     23027     23030     23033
     23031     23030     23033     23034     23031     23030     23033     23035
     23031     23030     23033     23036     23032     23030     23033     23034
     23032     23030     23033     23035     23032     23030     23033     23036
     23037     23040     23043     23044     23037     23040     23043     23045
     23037     23040     23043     23046     23038     23037     23040     23041
     23038     23037     23040     23042     23038     23037     23040     23043
     23039     23037     23040     23041     23039     23037     23040     23042
     23039     23037     23040     23043     23040     23043     23046     23047
     23040     23043     23046     23048     23040     23043     23046     23049
     23041     23040     23043     23044     23041     23040     23043     23045
     23041     23040     23043     23046     23042     23040     23043     23044
     23042     23040     23043     23045     23042     23040     23043     23046
     23043     23046     23049     23050     23043     23046     23049     23051
     23043     23046     23049     23052     23044     23043     23046     23047
     23044     23043     23046     23048     23044     23043     23046     23049
     23045     23043     23046     23047     23045     23043     23046     23048
     23045     23043     23046     23049     23046     23049     23052     23053
     23046     23049     23052     23054     23046     23049     23052     23055
     23047     23046     23049     23050     23047     23046     23049     23051
     23047     23046     23049     23052     23048     23046     23049     23050
     23048     23046     23049     23051     23048     23046     23049     23052
     23049     23052     23055     23056     23049     23052     23055     23057
     23049     23052     23055     23058     23050     23049     23052     23053
     23050     23049     23052     23054     23050     23049     23052     23055
     23051     23049     23052     23053     23051     23049     23052     23054
     23051     23049     23052     23055     23052     23055     23058     23059
     23052     23055     23058     23060     23052     23055     23058     23061
     23053     23052     23055     23056     23053     23052     23055     23057
     23053     23052     23055     23058     23054     23052     23055     23056
     23054     23052     23055     23057     23054     23052     23055     23058
     23055     23058     23061     23062     23055     23058     23061     23063
     23055     23058     23061     23064     23056     23055     23058     23059
     23056     23055     23058     23060     23056     23055     23058     23061
     23057     23055     23058     23059     23057     23055     23058     23060
     23057     23055     23058     23061     23058     23061     23064     23065
     23058     23061     23064     23066     23058     23061     23064     23067
     23059     23058     23061     23062     23059     23058     23061     23063
     23059     23058     23061     23064     23060     23058     23061     23062
     23060     23058     23061     23063     23060     23058     23061     23064
     23061     23064     23067     23068     23061     23064     23067     23069
     23061     23064     23067     23070     23062     23061     23064     23065
     23062     23061     23064     23066     23062     23061     23064     23067
     23063     23061     23064     23065     23063     23061     23064     23066
     23063     23061     23064     23067     23064     23067     23070     23071
     23064     23067     23070     23072     23064     23067     23070     23073
     23065     23064     23067     23068     23065     23064     23067     23069
     23065     23064     23067     23070     23066     23064     23067     23068
     23066     23064     23067     23069     23066     23064     23067     23070
     23067     23070     23073     23074     23067     23070     23073     23075
     23067     23070     23073     23076     23068     23067     23070     23071
     23068     23067     23070     23072     23068     23067     23070     23073
     23069     23067     23070     23071     23069     23067     23070     23072
     23069     23067     23070     23073     23070     23073     23076     23077
     23070     23073     23076     23078     23070     23073     23076     23079
     23071     23070     23073     23074     23071     23070     23073     23075
     23071     23070     23073     23076     23072     23070     23073     23074
     23072     23070     23073     23075     23072     23070     23073     23076
     23074     23073     23076     23077     23074     23073     23076     23078
     23074     23073     23076     23079     23075     23073     23076     23077
     23075     23073     23076     23078     23075     23073     23076     23079
     23080     23084     23087     23088     23080     23084     23087     23089
     23080     23084     23087     23094     23081     23080     23084     23085
     23081     23080     23084     23086     23081     23080     23084     23087
     23082     23080     23084     23085     23082     23080     23084     23086
     23082     23080     23084     23087     23083     23080     23084     23085
     23083     23080     23084     23086     23083     23080     23084     23087
     23084     23087     23094     23090     23085     23084     23087     23088
     23085     23084     23087     23089     23085     23084     23087     23094
     23086     23084     23087     23088     23086     23084     23087     23089
     23086     23084     23087     23094     23087     23094     23090     23091
     23087     23094     23090     23092     23087     23094     23090     23093
     23088     23087     23094     23090     23089     23087     23094     23090
     23090     23093     23095     23096     23090     23093     23095     23097
     23090     23093     23095     23098     23091     23090     23093     23095
     23092     23090     23093     23095     23093     23095     23098     23099
     23093     23095     23098     23100     23093     23095     23098     23106
     23094     23090     23093     23095     23095     23098     23100     23101
     23095     23098     23106     23107     23095     23098     23106     23108
     23095     23098     23106     23109     23096     23095     23098     23099
     23096     23095     23098     23100     23096     23095     23098     23106
     23097     23095     23098     23099     23097     23095     23098     23100
     23097     23095     23098     23106     23098     23100     23101     23102
     23098     23100     23101     23103     23098     23106     23109     23110
     23099     23098     23100     23101     23099     23098     23106     23107
     23099     23098     23106     23108     23099     23098     23106     23109
     23100     23098     23106     23107     23100     23098     23106     23108
     23100     23098     23106     23109     23100     23101     23103     23104
     23100     23101     23103     23105     23100     23101     23103     23115
     23101     23100     23098     23106     23101     23103     23115     23116
     23101     23103     23115     23117     23101     23103     23115     23118
     23102     23101     23103     23104     23102     23101     23103     23105
     23102     23101     23103     23115     23103     23115     23118     23119
     23103     23115     23118     23120     23103     23115     23118     23121
     23104     23103     23115     23116     23104     23103     23115     23117
     23104     23103     23115     23118     23105     23103     23115     23116
     23105     23103     23115     23117     23105     23103     23115     23118
     23106     23109     23110     23111     23106     23109     23110     23112
     23107     23106     23109     23110     23108     23106     23109     23110
     23109     23110     23112     23113     23109     23110     23112     23114
     23109     23110     23112     23159     23110     23112     23159     23160
     23110     23112     23159     23161     23110     23112     23159     23162
     23111     23110     23112     23113     23111     23110     23112     23114
     23111     23110     23112     23159     23112     23159     23162     23163
     23112     23159     23162     23164     23112     23159     23162     23165
     23113     23112     23159     23160     23113     23112     23159     23161
     23113     23112     23159     23162     23114     23112     23159     23160
     23114     23112     23159     23161     23114     23112     23159     23162
     23115     23118     23121     23122     23115     23118     23121     23123
     23115     23118     23121     23124     23116     23115     23118     23119
     23116     23115     23118     23120     23116     23115     23118     23121
     23117     23115     23118     23119     23117     23115     23118     23120
     23117     23115     23118     23121     23118     23121     23124     23125
     23118     23121     23124     23126     23118     23121     23124     23127
     23119     23118     23121     23122     23119     23118     23121     23123
     23119     23118     23121     23124     23120     23118     23121     23122
     23120     23118     23121     23123     23120     23118     23121     23124
     23121     23124     23127     23128     23121     23124     23127     23129
     23121     23124     23127     23130     23122     23121     23124     23125
     23122     23121     23124     23126     23122     23121     23124     23127
     23123     23121     23124     23125     23123     23121     23124     23126
     23123     23121     23124     23127     23124     23127     23130     23131
     23124     23127     23130     23132     23124     23127     23130     23133
     23125     23124     23127     23128     23125     23124     23127     23129
     23125     23124     23127     23130     23126     23124     23127     23128
     23126     23124     23127     23129     23126     23124     23127     23130
     23127     23130     23133     23134     23127     23130     23133     23135
     23127     23130     23133     23138     23128     23127     23130     23131
     23128     23127     23130     23132     23128     23127     23130     23133
     23129     23127     23130     23131     23129     23127     23130     23132
     23129     23127     23130     23133     23130     23133     23135     23136
     23130     23133     23135     23137     23130     23133     23135     23138
     23130     23133     23138     23135     23130     23133     23138     23139
     23130     23133     23138     23140     23131     23130     23133     23134
     23131     23130     23133     23135     23131     23130     23133     23138
     23132     23130     23133     23134     23132     23130     23133     23135
     23132     23130     23133     23138     23133     23135     23138     23139
     23133     23135     23138     23140     23133     23138     23135     23136
     23133     23138     23135     23137     23133     23138     23140     23141
     23133     23138     23140     23142     23133     23138     23140     23143
     23134     23133     23135     23136     23134     23133     23135     23137
     23134     23133     23135     23138     23134     23133     23138     23135
     23134     23133     23138     23139     23134     23133     23138     23140
     23135     23133     23138     23139     23135     23133     23138     23140
     23135     23138     23140     23141     23135     23138     23140     23142
     23135     23138     23140     23143     23136     23135     23133     23138
     23136     23135     23138     23139     23136     23135     23138     23140
     23137     23135     23133     23138     23137     23135     23138     23139
     23137     23135     23138     23140     23138     23140     23143     23144
     23138     23140     23143     23145     23138     23140     23143     23146
     23139     23138     23140     23141     23139     23138     23140     23142
     23139     23138     23140     23143     23140     23143     23146     23147
     23140     23143     23146     23148     23140     23143     23146     23149
     23141     23140     23143     23144     23141     23140     23143     23145
     23141     23140     23143     23146     23142     23140     23143     23144
     23142     23140     23143     23145     23142     23140     23143     23146
     23143     23146     23149     23150     23143     23146     23149     23151
     23143     23146     23149     23152     23144     23143     23146     23147
     23144     23143     23146     23148     23144     23143     23146     23149
     23145     23143     23146     23147     23145     23143     23146     23148
     23145     23143     23146     23149     23146     23149     23152     23153
     23146     23149     23152     23154     23146     23149     23152     23155
     23147     23146     23149     23150     23147     23146     23149     23151
     23147     23146     23149     23152     23148     23146     23149     23150
     23148     23146     23149     23151     23148     23146     23149     23152
     23149     23152     23155     23156     23149     23152     23155     23157
     23149     23152     23155     23158     23150     23149     23152     23153
     23150     23149     23152     23154     23150     23149     23152     23155
     23151     23149     23152     23153     23151     23149     23152     23154
     23151     23149     23152     23155     23153     23152     23155     23156
     23153     23152     23155     23157     23153     23152     23155     23158
     23154     23152     23155     23156     23154     23152     23155     23157
     23154     23152     23155     23158     23159     23162     23165     23166
     23159     23162     23165     23167     23159     23162     23165     23168
     23160     23159     23162     23163     23160     23159     23162     23164
     23160     23159     23162     23165     23161     23159     23162     23163
     23161     23159     23162     23164     23161     23159     23162     23165
     23162     23165     23168     23169     23162     23165     23168     23170
     23162     23165     23168     23171     23163     23162     23165     23166
     23163     23162     23165     23167     23163     23162     23165     23168
     23164     23162     23165     23166     23164     23162     23165     23167
     23164     23162     23165     23168     23165     23168     23171     23172
     23165     23168     23171     23173     23165     23168     23171     23174
     23166     23165     23168     23169     23166     23165     23168     23170
     23166     23165     23168     23171     23167     23165     23168     23169
     23167     23165     23168     23170     23167     23165     23168     23171
     23168     23171     23174     23175     23168     23171     23174     23176
     23168     23171     23174     23177     23169     23168     23171     23172
     23169     23168     23171     23173     23169     23168     23171     23174
     23170     23168     23171     23172     23170     23168     23171     23173
     23170     23168     23171     23174     23171     23174     23177     23178
     23171     23174     23177     23179     23171     23174     23177     23180
     23172     23171     23174     23175     23172     23171     23174     23176
     23172     23171     23174     23177     23173     23171     23174     23175
     23173     23171     23174     23176     23173     23171     23174     23177
     23174     23177     23180     23181     23174     23177     23180     23182
     23174     23177     23180     23183     23175     23174     23177     23178
     23175     23174     23177     23179     23175     23174     23177     23180
     23176     23174     23177     23178     23176     23174     23177     23179
     23176     23174     23177     23180     23177     23180     23183     23184
     23177     23180     23183     23185     23177     23180     23183     23186
     23178     23177     23180     23181     23178     23177     23180     23182
     23178     23177     23180     23183     23179     23177     23180     23181
     23179     23177     23180     23182     23179     23177     23180     23183
     23180     23183     23186     23187     23180     23183     23186     23188
     23180     23183     23186     23189     23181     23180     23183     23184
     23181     23180     23183     23185     23181     23180     23183     23186
     23182     23180     23183     23184     23182     23180     23183     23185
     23182     23180     23183     23186     23183     23186     23189     23190
     23183     23186     23189     23191     23183     23186     23189     23192
     23184     23183     23186     23187     23184     23183     23186     23188
     23184     23183     23186     23189     23185     23183     23186     23187
     23185     23183     23186     23188     23185     23183     23186     23189
     23186     23189     23192     23193     23186     23189     23192     23194
     23186     23189     23192     23195     23187     23186     23189     23190
     23187     23186     23189     23191     23187     23186     23189     23192
     23188     23186     23189     23190     23188     23186     23189     23191
     23188     23186     23189     23192     23189     23192     23195     23196
     23189     23192     23195     23197     23189     23192     23195     23198
     23190     23189     23192     23193     23190     23189     23192     23194
     23190     23189     23192     23195     23191     23189     23192     23193
     23191     23189     23192     23194     23191     23189     23192     23195
     23192     23195     23198     23199     23192     23195     23198     23200
     23192     23195     23198     23201     23193     23192     23195     23196
     23193     23192     23195     23197     23193     23192     23195     23198
     23194     23192     23195     23196     23194     23192     23195     23197
     23194     23192     23195     23198     23196     23195     23198     23199
     23196     23195     23198     23200     23196     23195     23198     23201
     23197     23195     23198     23199     23197     23195     23198     23200
     23197     23195     23198     23201     23202     23206     23209     23210
     23202     23206     23209     23211     23202     23206     23209     23216
     23203     23202     23206     23207     23203     23202     23206     23208
     23203     23202     23206     23209     23204     23202     23206     23207
     23204     23202     23206     23208     23204     23202     23206     23209
     23205     23202     23206     23207     23205     23202     23206     23208
     23205     23202     23206     23209     23206     23209     23216     23212
     23207     23206     23209     23210     23207     23206     23209     23211
     23207     23206     23209     23216     23208     23206     23209     23210
     23208     23206     23209     23211     23208     23206     23209     23216
     23209     23216     23212     23213     23209     23216     23212     23214
     23209     23216     23212     23215     23210     23209     23216     23212
     23211     23209     23216     23212     23212     23215     23217     23218
     23212     23215     23217     23219     23212     23215     23217     23220
     23213     23212     23215     23217     23214     23212     23215     23217
     23215     23217     23220     23221     23215     23217     23220     23222
     23215     23217     23220     23228     23216     23212     23215     23217
     23217     23220     23222     23223     23217     23220     23228     23229
     23217     23220     23228     23230     23217     23220     23228     23231
     23218     23217     23220     23221     23218     23217     23220     23222
     23218     23217     23220     23228     23219     23217     23220     23221
     23219     23217     23220     23222     23219     23217     23220     23228
     23220     23222     23223     23224     23220     23222     23223     23225
     23220     23228     23231     23232     23221     23220     23222     23223
     23221     23220     23228     23229     23221     23220     23228     23230
     23221     23220     23228     23231     23222     23220     23228     23229
     23222     23220     23228     23230     23222     23220     23228     23231
     23222     23223     23225     23226     23222     23223     23225     23227
     23222     23223     23225     23237     23223     23222     23220     23228
     23223     23225     23237     23238     23223     23225     23237     23239
     23223     23225     23237     23240     23224     23223     23225     23226
     23224     23223     23225     23227     23224     23223     23225     23237
     23225     23237     23240     23241     23225     23237     23240     23242
     23225     23237     23240     23243     23226     23225     23237     23238
     23226     23225     23237     23239     23226     23225     23237     23240
     23227     23225     23237     23238     23227     23225     23237     23239
     23227     23225     23237     23240     23228     23231     23232     23233
     23228     23231     23232     23234     23229     23228     23231     23232
     23230     23228     23231     23232     23231     23232     23234     23235
     23231     23232     23234     23236     23231     23232     23234     23278
     23232     23234     23278     23279     23232     23234     23278     23280
     23232     23234     23278     23281     23233     23232     23234     23235
     23233     23232     23234     23236     23233     23232     23234     23278
     23234     23278     23281     23282     23234     23278     23281     23283
     23234     23278     23281     23284     23235     23234     23278     23279
     23235     23234     23278     23280     23235     23234     23278     23281
     23236     23234     23278     23279     23236     23234     23278     23280
     23236     23234     23278     23281     23237     23240     23243     23244
     23237     23240     23243     23245     23237     23240     23243     23246
     23238     23237     23240     23241     23238     23237     23240     23242
     23238     23237     23240     23243     23239     23237     23240     23241
     23239     23237     23240     23242     23239     23237     23240     23243
     23240     23243     23246     23247     23240     23243     23246     23248
     23240     23243     23246     23249     23241     23240     23243     23244
     23241     23240     23243     23245     23241     23240     23243     23246
     23242     23240     23243     23244     23242     23240     23243     23245
     23242     23240     23243     23246     23243     23246     23249     23250
     23243     23246     23249     23251     23243     23246     23249     23252
     23244     23243     23246     23247     23244     23243     23246     23248
     23244     23243     23246     23249     23245     23243     23246     23247
     23245     23243     23246     23248     23245     23243     23246     23249
     23246     23249     23252     23253     23246     23249     23252     23254
     23246     23249     23252     23255     23247     23246     23249     23250
     23247     23246     23249     23251     23247     23246     23249     23252
     23248     23246     23249     23250     23248     23246     23249     23251
     23248     23246     23249     23252     23249     23252     23255     23256
     23249     23252     23255     23257     23250     23249     23252     23253
     23250     23249     23252     23254     23250     23249     23252     23255
     23251     23249     23252     23253     23251     23249     23252     23254
     23251     23249     23252     23255     23252     23255     23257     23258
     23252     23255     23257     23259     23253     23252     23255     23256
     23253     23252     23255     23257     23254     23252     23255     23256
     23254     23252     23255     23257     23255     23257     23259     23260
     23255     23257     23259     23261     23255     23257     23259     23262
     23256     23255     23257     23258     23256     23255     23257     23259
     23257     23259     23262     23263     23257     23259     23262     23264
     23257     23259     23262     23265     23258     23257     23259     23260
     23258     23257     23259     23261     23258     23257     23259     23262
     23259     23262     23265     23266     23259     23262     23265     23267
     23259     23262     23265     23268     23260     23259     23262     23263
     23260     23259     23262     23264     23260     23259     23262     23265
     23261     23259     23262     23263     23261     23259     23262     23264
     23261     23259     23262     23265     23262     23265     23268     23269
     23262     23265     23268     23270     23262     23265     23268     23271
     23263     23262     23265     23266     23263     23262     23265     23267
     23263     23262     23265     23268     23264     23262     23265     23266
     23264     23262     23265     23267     23264     23262     23265     23268
     23265     23268     23271     23272     23265     23268     23271     23273
     23265     23268     23271     23274     23266     23265     23268     23269
     23266     23265     23268     23270     23266     23265     23268     23271
     23267     23265     23268     23269     23267     23265     23268     23270
     23267     23265     23268     23271     23268     23271     23274     23275
     23268     23271     23274     23276     23268     23271     23274     23277
     23269     23268     23271     23272     23269     23268     23271     23273
     23269     23268     23271     23274     23270     23268     23271     23272
     23270     23268     23271     23273     23270     23268     23271     23274
     23272     23271     23274     23275     23272     23271     23274     23276
     23272     23271     23274     23277     23273     23271     23274     23275
     23273     23271     23274     23276     23273     23271     23274     23277
     23278     23281     23284     23285     23278     23281     23284     23286
     23278     23281     23284     23287     23279     23278     23281     23282
     23279     23278     23281     23283     23279     23278     23281     23284
     23280     23278     23281     23282     23280     23278     23281     23283
     23280     23278     23281     23284     23281     23284     23287     23288
     23281     23284     23287     23289     23281     23284     23287     23290
     23282     23281     23284     23285     23282     23281     23284     23286
     23282     23281     23284     23287     23283     23281     23284     23285
     23283     23281     23284     23286     23283     23281     23284     23287
     23284     23287     23290     23291     23284     23287     23290     23292
     23284     23287     23290     23293     23285     23284     23287     23288
     23285     23284     23287     23289     23285     23284     23287     23290
     23286     23284     23287     23288     23286     23284     23287     23289
     23286     23284     23287     23290     23287     23290     23293     23294
     23287     23290     23293     23295     23287     23290     23293     23296
     23288     23287     23290     23291     23288     23287     23290     23292
     23288     23287     23290     23293     23289     23287     23290     23291
     23289     23287     23290     23292     23289     23287     23290     23293
     23290     23293     23296     23297     23290     23293     23296     23298
     23291     23290     23293     23294     23291     23290     23293     23295
     23291     23290     23293     23296     23292     23290     23293     23294
     23292     23290     23293     23295     23292     23290     23293     23296
     23293     23296     23298     23299     23293     23296     23298     23300
     23294     23293     23296     23297     23294     23293     23296     23298
     23295     23293     23296     23297     23295     23293     23296     23298
     23296     23298     23300     23301     23296     23298     23300     23302
     23296     23298     23300     23303     23297     23296     23298     23299
     23297     23296     23298     23300     23298     23300     23303     23304
     23298     23300     23303     23305     23298     23300     23303     23306
     23299     23298     23300     23301     23299     23298     23300     23302
     23299     23298     23300     23303     23300     23303     23306     23307
     23300     23303     23306     23308     23300     23303     23306     23309
     23301     23300     23303     23304     23301     23300     23303     23305
     23301     23300     23303     23306     23302     23300     23303     23304
     23302     23300     23303     23305     23302     23300     23303     23306
     23303     23306     23309     23310     23303     23306     23309     23311
     23303     23306     23309     23312     23304     23303     23306     23307
     23304     23303     23306     23308     23304     23303     23306     23309
     23305     23303     23306     23307     23305     23303     23306     23308
     23305     23303     23306     23309     23306     23309     23312     23313
     23306     23309     23312     23314     23306     23309     23312     23315
     23307     23306     23309     23310     23307     23306     23309     23311
     23307     23306     23309     23312     23308     23306     23309     23310
     23308     23306     23309     23311     23308     23306     23309     23312
     23309     23312     23315     23316     23309     23312     23315     23317
     23309     23312     23315     23318     23310     23309     23312     23313
     23310     23309     23312     23314     23310     23309     23312     23315
     23311     23309     23312     23313     23311     23309     23312     23314
     23311     23309     23312     23315     23312     23315     23318     23319
     23312     23315     23318     23320     23312     23315     23318     23321
     23313     23312     23315     23316     23313     23312     23315     23317
     23313     23312     23315     23318     23314     23312     23315     23316
     23314     23312     23315     23317     23314     23312     23315     23318
     23315     23318     23321     23322     23315     23318     23321     23323
     23315     23318     23321     23324     23316     23315     23318     23319
     23316     23315     23318     23320     23316     23315     23318     23321
     23317     23315     23318     23319     23317     23315     23318     23320
     23317     23315     23318     23321     23319     23318     23321     23322
     23319     23318     23321     23323     23319     23318     23321     23324
     23320     23318     23321     23322     23320     23318     23321     23323
     23320     23318     23321     23324     23325     23329     23332     23333
     23325     23329     23332     23334     23325     23329     23332     23339
     23326     23325     23329     23330     23326     23325     23329     23331
     23326     23325     23329     23332     23327     23325     23329     23330
     23327     23325     23329     23331     23327     23325     23329     23332
     23328     23325     23329     23330     23328     23325     23329     23331
     23328     23325     23329     23332     23329     23332     23339     23335
     23330     23329     23332     23333     23330     23329     23332     23334
     23330     23329     23332     23339     23331     23329     23332     23333
     23331     23329     23332     23334     23331     23329     23332     23339
     23332     23339     23335     23336     23332     23339     23335     23337
     23332     23339     23335     23338     23333     23332     23339     23335
     23334     23332     23339     23335     23335     23338     23340     23341
     23335     23338     23340     23342     23335     23338     23340     23343
     23336     23335     23338     23340     23337     23335     23338     23340
     23338     23340     23343     23344     23338     23340     23343     23345
     23338     23340     23343     23351     23339     23335     23338     23340
     23340     23343     23345     23346     23340     23343     23351     23352
     23340     23343     23351     23353     23340     23343     23351     23354
     23341     23340     23343     23344     23341     23340     23343     23345
     23341     23340     23343     23351     23342     23340     23343     23344
     23342     23340     23343     23345     23342     23340     23343     23351
     23343     23345     23346     23347     23343     23345     23346     23348
     23343     23351     23354     23355     23344     23343     23345     23346
     23344     23343     23351     23352     23344     23343     23351     23353
     23344     23343     23351     23354     23345     23343     23351     23352
     23345     23343     23351     23353     23345     23343     23351     23354
     23345     23346     23348     23349     23345     23346     23348     23350
     23345     23346     23348     23360     23346     23345     23343     23351
     23346     23348     23360     23361     23346     23348     23360     23362
     23346     23348     23360     23363     23347     23346     23348     23349
     23347     23346     23348     23350     23347     23346     23348     23360
     23348     23360     23363     23364     23348     23360     23363     23365
     23348     23360     23363     23366     23349     23348     23360     23361
     23349     23348     23360     23362     23349     23348     23360     23363
     23350     23348     23360     23361     23350     23348     23360     23362
     23350     23348     23360     23363     23351     23354     23355     23356
     23351     23354     23355     23357     23352     23351     23354     23355
     23353     23351     23354     23355     23354     23355     23357     23358
     23354     23355     23357     23359     23354     23355     23357     23404
     23355     23357     23404     23405     23355     23357     23404     23406
     23355     23357     23404     23407     23356     23355     23357     23358
     23356     23355     23357     23359     23356     23355     23357     23404
     23357     23404     23407     23408     23357     23404     23407     23409
     23357     23404     23407     23410     23358     23357     23404     23405
     23358     23357     23404     23406     23358     23357     23404     23407
     23359     23357     23404     23405     23359     23357     23404     23406
     23359     23357     23404     23407     23360     23363     23366     23367
     23360     23363     23366     23368     23360     23363     23366     23369
     23361     23360     23363     23364     23361     23360     23363     23365
     23361     23360     23363     23366     23362     23360     23363     23364
     23362     23360     23363     23365     23362     23360     23363     23366
     23363     23366     23369     23370     23363     23366     23369     23371
     23363     23366     23369     23372     23364     23363     23366     23367
     23364     23363     23366     23368     23364     23363     23366     23369
     23365     23363     23366     23367     23365     23363     23366     23368
     23365     23363     23366     23369     23366     23369     23372     23373
     23366     23369     23372     23374     23366     23369     23372     23375
     23367     23366     23369     23370     23367     23366     23369     23371
     23367     23366     23369     23372     23368     23366     23369     23370
     23368     23366     23369     23371     23368     23366     23369     23372
     23369     23372     23375     23376     23369     23372     23375     23377
     23369     23372     23375     23378     23370     23369     23372     23373
     23370     23369     23372     23374     23370     23369     23372     23375
     23371     23369     23372     23373     23371     23369     23372     23374
     23371     23369     23372     23375     23372     23375     23378     23379
     23372     23375     23378     23380     23372     23375     23378     23383
     23373     23372     23375     23376     23373     23372     23375     23377
     23373     23372     23375     23378     23374     23372     23375     23376
     23374     23372     23375     23377     23374     23372     23375     23378
     23375     23378     23380     23381     23375     23378     23380     23382
     23375     23378     23380     23383     23375     23378     23383     23380
     23375     23378     23383     23384     23375     23378     23383     23385
     23376     23375     23378     23379     23376     23375     23378     23380
     23376     23375     23378     23383     23377     23375     23378     23379
     23377     23375     23378     23380     23377     23375     23378     23383
     23378     23380     23383     23384     23378     23380     23383     23385
     23378     23383     23380     23381     23378     23383     23380     23382
     23378     23383     23385     23386     23378     23383     23385     23387
     23378     23383     23385     23388     23379     23378     23380     23381
     23379     23378     23380     23382     23379     23378     23380     23383
     23379     23378     23383     23380     23379     23378     23383     23384
     23379     23378     23383     23385     23380     23378     23383     23384
     23380     23378     23383     23385     23380     23383     23385     23386
     23380     23383     23385     23387     23380     23383     23385     23388
     23381     23380     23378     23383     23381     23380     23383     23384
     23381     23380     23383     23385     23382     23380     23378     23383
     23382     23380     23383     23384     23382     23380     23383     23385
     23383     23385     23388     23389     23383     23385     23388     23390
     23383     23385     23388     23391     23384     23383     23385     23386
     23384     23383     23385     23387     23384     23383     23385     23388
     23385     23388     23391     23392     23385     23388     23391     23393
     23385     23388     23391     23394     23386     23385     23388     23389
     23386     23385     23388     23390     23386     23385     23388     23391
     23387     23385     23388     23389     23387     23385     23388     23390
     23387     23385     23388     23391     23388     23391     23394     23395
     23388     23391     23394     23396     23388     23391     23394     23397
     23389     23388     23391     23392     23389     23388     23391     23393
     23389     23388     23391     23394     23390     23388     23391     23392
     23390     23388     23391     23393     23390     23388     23391     23394
     23391     23394     23397     23398     23391     23394     23397     23399
     23391     23394     23397     23400     23392     23391     23394     23395
     23392     23391     23394     23396     23392     23391     23394     23397
     23393     23391     23394     23395     23393     23391     23394     23396
     23393     23391     23394     23397     23394     23397     23400     23401
     23394     23397     23400     23402     23394     23397     23400     23403
     23395     23394     23397     23398     23395     23394     23397     23399
     23395     23394     23397     23400     23396     23394     23397     23398
     23396     23394     23397     23399     23396     23394     23397     23400
     23398     23397     23400     23401     23398     23397     23400     23402
     23398     23397     23400     23403     23399     23397     23400     23401
     23399     23397     23400     23402     23399     23397     23400     23403
     23404     23407     23410     23411     23404     23407     23410     23412
     23404     23407     23410     23413     23405     23404     23407     23408
     23405     23404     23407     23409     23405     23404     23407     23410
     23406     23404     23407     23408     23406     23404     23407     23409
     23406     23404     23407     23410     23407     23410     23413     23414
     23407     23410     23413     23415     23407     23410     23413     23416
     23408     23407     23410     23411     23408     23407     23410     23412
     23408     23407     23410     23413     23409     23407     23410     23411
     23409     23407     23410     23412     23409     23407     23410     23413
     23410     23413     23416     23417     23410     23413     23416     23418
     23410     23413     23416     23419     23411     23410     23413     23414
     23411     23410     23413     23415     23411     23410     23413     23416
     23412     23410     23413     23414     23412     23410     23413     23415
     23412     23410     23413     23416     23413     23416     23419     23420
     23413     23416     23419     23421     23413     23416     23419     23422
     23414     23413     23416     23417     23414     23413     23416     23418
     23414     23413     23416     23419     23415     23413     23416     23417
     23415     23413     23416     23418     23415     23413     23416     23419
     23416     23419     23422     23423     23416     23419     23422     23424
     23416     23419     23422     23425     23417     23416     23419     23420
     23417     23416     23419     23421     23417     23416     23419     23422
     23418     23416     23419     23420     23418     23416     23419     23421
     23418     23416     23419     23422     23419     23422     23425     23426
     23419     23422     23425     23427     23419     23422     23425     23428
     23420     23419     23422     23423     23420     23419     23422     23424
     23420     23419     23422     23425     23421     23419     23422     23423
     23421     23419     23422     23424     23421     23419     23422     23425
     23422     23425     23428     23429     23422     23425     23428     23430
     23422     23425     23428     23431     23423     23422     23425     23426
     23423     23422     23425     23427     23423     23422     23425     23428
     23424     23422     23425     23426     23424     23422     23425     23427
     23424     23422     23425     23428     23425     23428     23431     23432
     23425     23428     23431     23433     23425     23428     23431     23434
     23426     23425     23428     23429     23426     23425     23428     23430
     23426     23425     23428     23431     23427     23425     23428     23429
     23427     23425     23428     23430     23427     23425     23428     23431
     23428     23431     23434     23435     23428     23431     23434     23436
     23428     23431     23434     23437     23429     23428     23431     23432
     23429     23428     23431     23433     23429     23428     23431     23434
     23430     23428     23431     23432     23430     23428     23431     23433
     23430     23428     23431     23434     23431     23434     23437     23438
     23431     23434     23437     23439     23431     23434     23437     23440
     23432     23431     23434     23435     23432     23431     23434     23436
     23432     23431     23434     23437     23433     23431     23434     23435
     23433     23431     23434     23436     23433     23431     23434     23437
     23434     23437     23440     23441     23434     23437     23440     23442
     23434     23437     23440     23443     23435     23434     23437     23438
     23435     23434     23437     23439     23435     23434     23437     23440
     23436     23434     23437     23438     23436     23434     23437     23439
     23436     23434     23437     23440     23437     23440     23443     23444
     23437     23440     23443     23445     23437     23440     23443     23446
     23438     23437     23440     23441     23438     23437     23440     23442
     23438     23437     23440     23443     23439     23437     23440     23441
     23439     23437     23440     23442     23439     23437     23440     23443
     23441     23440     23443     23444     23441     23440     23443     23445
     23441     23440     23443     23446     23442     23440     23443     23444
     23442     23440     23443     23445     23442     23440     23443     23446
     23447     23451     23454     23455     23447     23451     23454     23456
     23447     23451     23454     23461     23448     23447     23451     23452
     23448     23447     23451     23453     23448     23447     23451     23454
     23449     23447     23451     23452     23449     23447     23451     23453
     23449     23447     23451     23454     23450     23447     23451     23452
     23450     23447     23451     23453     23450     23447     23451     23454
     23451     23454     23461     23457     23452     23451     23454     23455
     23452     23451     23454     23456     23452     23451     23454     23461
     23453     23451     23454     23455     23453     23451     23454     23456
     23453     23451     23454     23461     23454     23461     23457     23458
     23454     23461     23457     23459     23454     23461     23457     23460
     23455     23454     23461     23457     23456     23454     23461     23457
     23457     23460     23462     23463     23457     23460     23462     23464
     23457     23460     23462     23465     23458     23457     23460     23462
     23459     23457     23460     23462     23460     23462     23465     23466
     23460     23462     23465     23467     23460     23462     23465     23473
     23461     23457     23460     23462     23462     23465     23467     23468
     23462     23465     23473     23474     23462     23465     23473     23475
     23462     23465     23473     23476     23463     23462     23465     23466
     23463     23462     23465     23467     23463     23462     23465     23473
     23464     23462     23465     23466     23464     23462     23465     23467
     23464     23462     23465     23473     23465     23467     23468     23469
     23465     23467     23468     23470     23465     23473     23476     23477
     23466     23465     23467     23468     23466     23465     23473     23474
     23466     23465     23473     23475     23466     23465     23473     23476
     23467     23465     23473     23474     23467     23465     23473     23475
     23467     23465     23473     23476     23467     23468     23470     23471
     23467     23468     23470     23472     23467     23468     23470     23482
     23468     23467     23465     23473     23468     23470     23482     23483
     23468     23470     23482     23484     23468     23470     23482     23485
     23469     23468     23470     23471     23469     23468     23470     23472
     23469     23468     23470     23482     23470     23482     23485     23486
     23470     23482     23485     23487     23470     23482     23485     23488
     23471     23470     23482     23483     23471     23470     23482     23484
     23471     23470     23482     23485     23472     23470     23482     23483
     23472     23470     23482     23484     23472     23470     23482     23485
     23473     23476     23477     23478     23473     23476     23477     23479
     23474     23473     23476     23477     23475     23473     23476     23477
     23476     23477     23479     23480     23476     23477     23479     23481
     23476     23477     23479     23526     23477     23479     23526     23527
     23477     23479     23526     23528     23477     23479     23526     23529
     23478     23477     23479     23480     23478     23477     23479     23481
     23478     23477     23479     23526     23479     23526     23529     23530
     23479     23526     23529     23531     23479     23526     23529     23532
     23480     23479     23526     23527     23480     23479     23526     23528
     23480     23479     23526     23529     23481     23479     23526     23527
     23481     23479     23526     23528     23481     23479     23526     23529
     23482     23485     23488     23489     23482     23485     23488     23490
     23482     23485     23488     23491     23483     23482     23485     23486
     23483     23482     23485     23487     23483     23482     23485     23488
     23484     23482     23485     23486     23484     23482     23485     23487
     23484     23482     23485     23488     23485     23488     23491     23492
     23485     23488     23491     23493     23485     23488     23491     23494
     23486     23485     23488     23489     23486     23485     23488     23490
     23486     23485     23488     23491     23487     23485     23488     23489
     23487     23485     23488     23490     23487     23485     23488     23491
     23488     23491     23494     23495     23488     23491     23494     23496
     23488     23491     23494     23497     23489     23488     23491     23492
     23489     23488     23491     23493     23489     23488     23491     23494
     23490     23488     23491     23492     23490     23488     23491     23493
     23490     23488     23491     23494     23491     23494     23497     23498
     23491     23494     23497     23499     23491     23494     23497     23500
     23492     23491     23494     23495     23492     23491     23494     23496
     23492     23491     23494     23497     23493     23491     23494     23495
     23493     23491     23494     23496     23493     23491     23494     23497
     23494     23497     23500     23501     23494     23497     23500     23502
     23494     23497     23500     23505     23495     23494     23497     23498
     23495     23494     23497     23499     23495     23494     23497     23500
     23496     23494     23497     23498     23496     23494     23497     23499
     23496     23494     23497     23500     23497     23500     23502     23503
     23497     23500     23502     23504     23497     23500     23502     23505
     23497     23500     23505     23502     23497     23500     23505     23506
     23497     23500     23505     23507     23498     23497     23500     23501
     23498     23497     23500     23502     23498     23497     23500     23505
     23499     23497     23500     23501     23499     23497     23500     23502
     23499     23497     23500     23505     23500     23502     23505     23506
     23500     23502     23505     23507     23500     23505     23502     23503
     23500     23505     23502     23504     23500     23505     23507     23508
     23500     23505     23507     23509     23500     23505     23507     23510
     23501     23500     23502     23503     23501     23500     23502     23504
     23501     23500     23502     23505     23501     23500     23505     23502
     23501     23500     23505     23506     23501     23500     23505     23507
     23502     23500     23505     23506     23502     23500     23505     23507
     23502     23505     23507     23508     23502     23505     23507     23509
     23502     23505     23507     23510     23503     23502     23500     23505
     23503     23502     23505     23506     23503     23502     23505     23507
     23504     23502     23500     23505     23504     23502     23505     23506
     23504     23502     23505     23507     23505     23507     23510     23511
     23505     23507     23510     23512     23505     23507     23510     23513
     23506     23505     23507     23508     23506     23505     23507     23509
     23506     23505     23507     23510     23507     23510     23513     23514
     23507     23510     23513     23515     23507     23510     23513     23516
     23508     23507     23510     23511     23508     23507     23510     23512
     23508     23507     23510     23513     23509     23507     23510     23511
     23509     23507     23510     23512     23509     23507     23510     23513
     23510     23513     23516     23517     23510     23513     23516     23518
     23510     23513     23516     23519     23511     23510     23513     23514
     23511     23510     23513     23515     23511     23510     23513     23516
     23512     23510     23513     23514     23512     23510     23513     23515
     23512     23510     23513     23516     23513     23516     23519     23520
     23513     23516     23519     23521     23513     23516     23519     23522
     23514     23513     23516     23517     23514     23513     23516     23518
     23514     23513     23516     23519     23515     23513     23516     23517
     23515     23513     23516     23518     23515     23513     23516     23519
     23516     23519     23522     23523     23516     23519     23522     23524
     23516     23519     23522     23525     23517     23516     23519     23520
     23517     23516     23519     23521     23517     23516     23519     23522
     23518     23516     23519     23520     23518     23516     23519     23521
     23518     23516     23519     23522     23520     23519     23522     23523
     23520     23519     23522     23524     23520     23519     23522     23525
     23521     23519     23522     23523     23521     23519     23522     23524
     23521     23519     23522     23525     23526     23529     23532     23533
     23526     23529     23532     23534     23526     23529     23532     23535
     23527     23526     23529     23530     23527     23526     23529     23531
     23527     23526     23529     23532     23528     23526     23529     23530
     23528     23526     23529     23531     23528     23526     23529     23532
     23529     23532     23535     23536     23529     23532     23535     23537
     23529     23532     23535     23538     23530     23529     23532     23533
     23530     23529     23532     23534     23530     23529     23532     23535
     23531     23529     23532     23533     23531     23529     23532     23534
     23531     23529     23532     23535     23532     23535     23538     23539
     23532     23535     23538     23540     23532     23535     23538     23541
     23533     23532     23535     23536     23533     23532     23535     23537
     23533     23532     23535     23538     23534     23532     23535     23536
     23534     23532     23535     23537     23534     23532     23535     23538
     23535     23538     23541     23542     23535     23538     23541     23543
     23535     23538     23541     23544     23536     23535     23538     23539
     23536     23535     23538     23540     23536     23535     23538     23541
     23537     23535     23538     23539     23537     23535     23538     23540
     23537     23535     23538     23541     23538     23541     23544     23545
     23538     23541     23544     23546     23538     23541     23544     23547
     23539     23538     23541     23542     23539     23538     23541     23543
     23539     23538     23541     23544     23540     23538     23541     23542
     23540     23538     23541     23543     23540     23538     23541     23544
     23541     23544     23547     23548     23541     23544     23547     23549
     23541     23544     23547     23550     23542     23541     23544     23545
     23542     23541     23544     23546     23542     23541     23544     23547
     23543     23541     23544     23545     23543     23541     23544     23546
     23543     23541     23544     23547     23544     23547     23550     23551
     23544     23547     23550     23552     23544     23547     23550     23553
     23545     23544     23547     23548     23545     23544     23547     23549
     23545     23544     23547     23550     23546     23544     23547     23548
     23546     23544     23547     23549     23546     23544     23547     23550
     23547     23550     23553     23554     23547     23550     23553     23555
     23547     23550     23553     23556     23548     23547     23550     23551
     23548     23547     23550     23552     23548     23547     23550     23553
     23549     23547     23550     23551     23549     23547     23550     23552
     23549     23547     23550     23553     23550     23553     23556     23557
     23550     23553     23556     23558     23550     23553     23556     23559
     23551     23550     23553     23554     23551     23550     23553     23555
     23551     23550     23553     23556     23552     23550     23553     23554
     23552     23550     23553     23555     23552     23550     23553     23556
     23553     23556     23559     23560     23553     23556     23559     23561
     23553     23556     23559     23562     23554     23553     23556     23557
     23554     23553     23556     23558     23554     23553     23556     23559
     23555     23553     23556     23557     23555     23553     23556     23558
     23555     23553     23556     23559     23556     23559     23562     23563
     23556     23559     23562     23564     23556     23559     23562     23565
     23557     23556     23559     23560     23557     23556     23559     23561
     23557     23556     23559     23562     23558     23556     23559     23560
     23558     23556     23559     23561     23558     23556     23559     23562
     23559     23562     23565     23566     23559     23562     23565     23567
     23559     23562     23565     23568     23560     23559     23562     23563
     23560     23559     23562     23564     23560     23559     23562     23565
     23561     23559     23562     23563     23561     23559     23562     23564
     23561     23559     23562     23565     23563     23562     23565     23566
     23563     23562     23565     23567     23563     23562     23565     23568
     23564     23562     23565     23566     23564     23562     23565     23567
     23564     23562     23565     23568     23569     23573     23576     23577
     23569     23573     23576     23578     23569     23573     23576     23583
     23570     23569     23573     23574     23570     23569     23573     23575
     23570     23569     23573     23576     23571     23569     23573     23574
     23571     23569     23573     23575     23571     23569     23573     23576
     23572     23569     23573     23574     23572     23569     23573     23575
     23572     23569     23573     23576     23573     23576     23583     23579
     23574     23573     23576     23577     23574     23573     23576     23578
     23574     23573     23576     23583     23575     23573     23576     23577
     23575     23573     23576     23578     23575     23573     23576     23583
     23576     23583     23579     23580     23576     23583     23579     23581
     23576     23583     23579     23582     23577     23576     23583     23579
     23578     23576     23583     23579     23579     23582     23584     23585
     23579     23582     23584     23586     23579     23582     23584     23587
     23580     23579     23582     23584     23581     23579     23582     23584
     23582     23584     23587     23588     23582     23584     23587     23589
     23582     23584     23587     23595     23583     23579     23582     23584
     23584     23587     23589     23590     23584     23587     23595     23596
     23584     23587     23595     23597     23584     23587     23595     23598
     23585     23584     23587     23588     23585     23584     23587     23589
     23585     23584     23587     23595     23586     23584     23587     23588
     23586     23584     23587     23589     23586     23584     23587     23595
     23587     23589     23590     23591     23587     23589     23590     23592
     23587     23595     23598     23599     23588     23587     23589     23590
     23588     23587     23595     23596     23588     23587     23595     23597
     23588     23587     23595     23598     23589     23587     23595     23596
     23589     23587     23595     23597     23589     23587     23595     23598
     23589     23590     23592     23593     23589     23590     23592     23594
     23589     23590     23592     23604     23590     23589     23587     23595
     23590     23592     23604     23605     23590     23592     23604     23606
     23590     23592     23604     23607     23591     23590     23592     23593
     23591     23590     23592     23594     23591     23590     23592     23604
     23592     23604     23607     23608     23592     23604     23607     23609
     23592     23604     23607     23610     23593     23592     23604     23605
     23593     23592     23604     23606     23593     23592     23604     23607
     23594     23592     23604     23605     23594     23592     23604     23606
     23594     23592     23604     23607     23595     23598     23599     23600
     23595     23598     23599     23601     23596     23595     23598     23599
     23597     23595     23598     23599     23598     23599     23601     23602
     23598     23599     23601     23603     23598     23599     23601     23648
     23599     23601     23648     23649     23599     23601     23648     23650
     23599     23601     23648     23651     23600     23599     23601     23602
     23600     23599     23601     23603     23600     23599     23601     23648
     23601     23648     23651     23652     23601     23648     23651     23653
     23601     23648     23651     23654     23602     23601     23648     23649
     23602     23601     23648     23650     23602     23601     23648     23651
     23603     23601     23648     23649     23603     23601     23648     23650
     23603     23601     23648     23651     23604     23607     23610     23611
     23604     23607     23610     23612     23604     23607     23610     23613
     23605     23604     23607     23608     23605     23604     23607     23609
     23605     23604     23607     23610     23606     23604     23607     23608
     23606     23604     23607     23609     23606     23604     23607     23610
     23607     23610     23613     23614     23607     23610     23613     23615
     23607     23610     23613     23616     23608     23607     23610     23611
     23608     23607     23610     23612     23608     23607     23610     23613
     23609     23607     23610     23611     23609     23607     23610     23612
     23609     23607     23610     23613     23610     23613     23616     23617
     23610     23613     23616     23618     23610     23613     23616     23619
     23611     23610     23613     23614     23611     23610     23613     23615
     23611     23610     23613     23616     23612     23610     23613     23614
     23612     23610     23613     23615     23612     23610     23613     23616
     23613     23616     23619     23620     23613     23616     23619     23621
     23613     23616     23619     23622     23614     23613     23616     23617
     23614     23613     23616     23618     23614     23613     23616     23619
     23615     23613     23616     23617     23615     23613     23616     23618
     23615     23613     23616     23619     23616     23619     23622     23623
     23616     23619     23622     23624     23616     23619     23622     23627
     23617     23616     23619     23620     23617     23616     23619     23621
     23617     23616     23619     23622     23618     23616     23619     23620
     23618     23616     23619     23621     23618     23616     23619     23622
     23619     23622     23624     23625     23619     23622     23624     23626
     23619     23622     23624     23627     23619     23622     23627     23624
     23619     23622     23627     23628     23619     23622     23627     23629
     23620     23619     23622     23623     23620     23619     23622     23624
     23620     23619     23622     23627     23621     23619     23622     23623
     23621     23619     23622     23624     23621     23619     23622     23627
     23622     23624     23627     23628     23622     23624     23627     23629
     23622     23627     23624     23625     23622     23627     23624     23626
     23622     23627     23629     23630     23622     23627     23629     23631
     23622     23627     23629     23632     23623     23622     23624     23625
     23623     23622     23624     23626     23623     23622     23624     23627
     23623     23622     23627     23624     23623     23622     23627     23628
     23623     23622     23627     23629     23624     23622     23627     23628
     23624     23622     23627     23629     23624     23627     23629     23630
     23624     23627     23629     23631     23624     23627     23629     23632
     23625     23624     23622     23627     23625     23624     23627     23628
     23625     23624     23627     23629     23626     23624     23622     23627
     23626     23624     23627     23628     23626     23624     23627     23629
     23627     23629     23632     23633     23627     23629     23632     23634
     23627     23629     23632     23635     23628     23627     23629     23630
     23628     23627     23629     23631     23628     23627     23629     23632
     23629     23632     23635     23636     23629     23632     23635     23637
     23629     23632     23635     23638     23630     23629     23632     23633
     23630     23629     23632     23634     23630     23629     23632     23635
     23631     23629     23632     23633     23631     23629     23632     23634
     23631     23629     23632     23635     23632     23635     23638     23639
     23632     23635     23638     23640     23632     23635     23638     23641
     23633     23632     23635     23636     23633     23632     23635     23637
     23633     23632     23635     23638     23634     23632     23635     23636
     23634     23632     23635     23637     23634     23632     23635     23638
     23635     23638     23641     23642     23635     23638     23641     23643
     23635     23638     23641     23644     23636     23635     23638     23639
     23636     23635     23638     23640     23636     23635     23638     23641
     23637     23635     23638     23639     23637     23635     23638     23640
     23637     23635     23638     23641     23638     23641     23644     23645
     23638     23641     23644     23646     23638     23641     23644     23647
     23639     23638     23641     23642     23639     23638     23641     23643
     23639     23638     23641     23644     23640     23638     23641     23642
     23640     23638     23641     23643     23640     23638     23641     23644
     23642     23641     23644     23645     23642     23641     23644     23646
     23642     23641     23644     23647     23643     23641     23644     23645
     23643     23641     23644     23646     23643     23641     23644     23647
     23648     23651     23654     23655     23648     23651     23654     23656
     23648     23651     23654     23657     23649     23648     23651     23652
     23649     23648     23651     23653     23649     23648     23651     23654
     23650     23648     23651     23652     23650     23648     23651     23653
     23650     23648     23651     23654     23651     23654     23657     23658
     23651     23654     23657     23659     23651     23654     23657     23660
     23652     23651     23654     23655     23652     23651     23654     23656
     23652     23651     23654     23657     23653     23651     23654     23655
     23653     23651     23654     23656     23653     23651     23654     23657
     23654     23657     23660     23661     23654     23657     23660     23662
     23654     23657     23660     23663     23655     23654     23657     23658
     23655     23654     23657     23659     23655     23654     23657     23660
     23656     23654     23657     23658     23656     23654     23657     23659
     23656     23654     23657     23660     23657     23660     23663     23664
     23657     23660     23663     23665     23657     23660     23663     23666
     23658     23657     23660     23661     23658     23657     23660     23662
     23658     23657     23660     23663     23659     23657     23660     23661
     23659     23657     23660     23662     23659     23657     23660     23663
     23660     23663     23666     23667     23660     23663     23666     23668
     23660     23663     23666     23669     23661     23660     23663     23664
     23661     23660     23663     23665     23661     23660     23663     23666
     23662     23660     23663     23664     23662     23660     23663     23665
     23662     23660     23663     23666     23663     23666     23669     23670
     23663     23666     23669     23671     23663     23666     23669     23672
     23664     23663     23666     23667     23664     23663     23666     23668
     23664     23663     23666     23669     23665     23663     23666     23667
     23665     23663     23666     23668     23665     23663     23666     23669
     23666     23669     23672     23673     23666     23669     23672     23674
     23666     23669     23672     23675     23667     23666     23669     23670
     23667     23666     23669     23671     23667     23666     23669     23672
     23668     23666     23669     23670     23668     23666     23669     23671
     23668     23666     23669     23672     23669     23672     23675     23676
     23669     23672     23675     23677     23669     23672     23675     23678
     23670     23669     23672     23673     23670     23669     23672     23674
     23670     23669     23672     23675     23671     23669     23672     23673
     23671     23669     23672     23674     23671     23669     23672     23675
     23672     23675     23678     23679     23672     23675     23678     23680
     23672     23675     23678     23681     23673     23672     23675     23676
     23673     23672     23675     23677     23673     23672     23675     23678
     23674     23672     23675     23676     23674     23672     23675     23677
     23674     23672     23675     23678     23675     23678     23681     23682
     23675     23678     23681     23683     23675     23678     23681     23684
     23676     23675     23678     23679     23676     23675     23678     23680
     23676     23675     23678     23681     23677     23675     23678     23679
     23677     23675     23678     23680     23677     23675     23678     23681
     23678     23681     23684     23685     23678     23681     23684     23686
     23678     23681     23684     23687     23679     23678     23681     23682
     23679     23678     23681     23683     23679     23678     23681     23684
     23680     23678     23681     23682     23680     23678     23681     23683
     23680     23678     23681     23684     23681     23684     23687     23688
     23681     23684     23687     23689     23681     23684     23687     23690
     23682     23681     23684     23685     23682     23681     23684     23686
     23682     23681     23684     23687     23683     23681     23684     23685
     23683     23681     23684     23686     23683     23681     23684     23687
     23685     23684     23687     23688     23685     23684     23687     23689
     23685     23684     23687     23690     23686     23684     23687     23688
     23686     23684     23687     23689     23686     23684     23687     23690
     23691     23695     23698     23699     23691     23695     23698     23700
     23691     23695     23698     23705     23692     23691     23695     23696
     23692     23691     23695     23697     23692     23691     23695     23698
     23693     23691     23695     23696     23693     23691     23695     23697
     23693     23691     23695     23698     23694     23691     23695     23696
     23694     23691     23695     23697     23694     23691     23695     23698
     23695     23698     23705     23701     23696     23695     23698     23699
     23696     23695     23698     23700     23696     23695     23698     23705
     23697     23695     23698     23699     23697     23695     23698     23700
     23697     23695     23698     23705     23698     23705     23701     23702
     23698     23705     23701     23703     23698     23705     23701     23704
     23699     23698     23705     23701     23700     23698     23705     23701
     23701     23704     23706     23707     23701     23704     23706     23708
     23701     23704     23706     23709     23702     23701     23704     23706
     23703     23701     23704     23706     23704     23706     23709     23710
     23704     23706     23709     23711     23704     23706     23709     23717
     23705     23701     23704     23706     23706     23709     23711     23712
     23706     23709     23717     23718     23706     23709     23717     23719
     23706     23709     23717     23720     23707     23706     23709     23710
     23707     23706     23709     23711     23707     23706     23709     23717
     23708     23706     23709     23710     23708     23706     23709     23711
     23708     23706     23709     23717     23709     23711     23712     23713
     23709     23711     23712     23714     23709     23717     23720     23721
     23710     23709     23711     23712     23710     23709     23717     23718
     23710     23709     23717     23719     23710     23709     23717     23720
     23711     23709     23717     23718     23711     23709     23717     23719
     23711     23709     23717     23720     23711     23712     23714     23715
     23711     23712     23714     23716     23711     23712     23714     23726
     23712     23711     23709     23717     23712     23714     23726     23727
     23712     23714     23726     23728     23712     23714     23726     23729
     23713     23712     23714     23715     23713     23712     23714     23716
     23713     23712     23714     23726     23714     23726     23729     23730
     23714     23726     23729     23731     23714     23726     23729     23732
     23715     23714     23726     23727     23715     23714     23726     23728
     23715     23714     23726     23729     23716     23714     23726     23727
     23716     23714     23726     23728     23716     23714     23726     23729
     23717     23720     23721     23722     23717     23720     23721     23723
     23718     23717     23720     23721     23719     23717     23720     23721
     23720     23721     23723     23724     23720     23721     23723     23725
     23720     23721     23723     23770     23721     23723     23770     23771
     23721     23723     23770     23772     23721     23723     23770     23773
     23722     23721     23723     23724     23722     23721     23723     23725
     23722     23721     23723     23770     23723     23770     23773     23774
     23723     23770     23773     23775     23723     23770     23773     23776
     23724     23723     23770     23771     23724     23723     23770     23772
     23724     23723     23770     23773     23725     23723     23770     23771
     23725     23723     23770     23772     23725     23723     23770     23773
     23726     23729     23732     23733     23726     23729     23732     23734
     23726     23729     23732     23735     23727     23726     23729     23730
     23727     23726     23729     23731     23727     23726     23729     23732
     23728     23726     23729     23730     23728     23726     23729     23731
     23728     23726     23729     23732     23729     23732     23735     23736
     23729     23732     23735     23737     23729     23732     23735     23738
     23730     23729     23732     23733     23730     23729     23732     23734
     23730     23729     23732     23735     23731     23729     23732     23733
     23731     23729     23732     23734     23731     23729     23732     23735
     23732     23735     23738     23739     23732     23735     23738     23740
     23732     23735     23738     23741     23733     23732     23735     23736
     23733     23732     23735     23737     23733     23732     23735     23738
     23734     23732     23735     23736     23734     23732     23735     23737
     23734     23732     23735     23738     23735     23738     23741     23742
     23735     23738     23741     23743     23735     23738     23741     23744
     23736     23735     23738     23739     23736     23735     23738     23740
     23736     23735     23738     23741     23737     23735     23738     23739
     23737     23735     23738     23740     23737     23735     23738     23741
     23738     23741     23744     23745     23738     23741     23744     23746
     23738     23741     23744     23749     23739     23738     23741     23742
     23739     23738     23741     23743     23739     23738     23741     23744
     23740     23738     23741     23742     23740     23738     23741     23743
     23740     23738     23741     23744     23741     23744     23746     23747
     23741     23744     23746     23748     23741     23744     23746     23749
     23741     23744     23749     23746     23741     23744     23749     23750
     23741     23744     23749     23751     23742     23741     23744     23745
     23742     23741     23744     23746     23742     23741     23744     23749
     23743     23741     23744     23745     23743     23741     23744     23746
     23743     23741     23744     23749     23744     23746     23749     23750
     23744     23746     23749     23751     23744     23749     23746     23747
     23744     23749     23746     23748     23744     23749     23751     23752
     23744     23749     23751     23753     23744     23749     23751     23754
     23745     23744     23746     23747     23745     23744     23746     23748
     23745     23744     23746     23749     23745     23744     23749     23746
     23745     23744     23749     23750     23745     23744     23749     23751
     23746     23744     23749     23750     23746     23744     23749     23751
     23746     23749     23751     23752     23746     23749     23751     23753
     23746     23749     23751     23754     23747     23746     23744     23749
     23747     23746     23749     23750     23747     23746     23749     23751
     23748     23746     23744     23749     23748     23746     23749     23750
     23748     23746     23749     23751     23749     23751     23754     23755
     23749     23751     23754     23756     23749     23751     23754     23757
     23750     23749     23751     23752     23750     23749     23751     23753
     23750     23749     23751     23754     23751     23754     23757     23758
     23751     23754     23757     23759     23751     23754     23757     23760
     23752     23751     23754     23755     23752     23751     23754     23756
     23752     23751     23754     23757     23753     23751     23754     23755
     23753     23751     23754     23756     23753     23751     23754     23757
     23754     23757     23760     23761     23754     23757     23760     23762
     23754     23757     23760     23763     23755     23754     23757     23758
     23755     23754     23757     23759     23755     23754     23757     23760
     23756     23754     23757     23758     23756     23754     23757     23759
     23756     23754     23757     23760     23757     23760     23763     23764
     23757     23760     23763     23765     23757     23760     23763     23766
     23758     23757     23760     23761     23758     23757     23760     23762
     23758     23757     23760     23763     23759     23757     23760     23761
     23759     23757     23760     23762     23759     23757     23760     23763
     23760     23763     23766     23767     23760     23763     23766     23768
     23760     23763     23766     23769     23761     23760     23763     23764
     23761     23760     23763     23765     23761     23760     23763     23766
     23762     23760     23763     23764     23762     23760     23763     23765
     23762     23760     23763     23766     23764     23763     23766     23767
     23764     23763     23766     23768     23764     23763     23766     23769
     23765     23763     23766     23767     23765     23763     23766     23768
     23765     23763     23766     23769     23770     23773     23776     23777
     23770     23773     23776     23778     23770     23773     23776     23779
     23771     23770     23773     23774     23771     23770     23773     23775
     23771     23770     23773     23776     23772     23770     23773     23774
     23772     23770     23773     23775     23772     23770     23773     23776
     23773     23776     23779     23780     23773     23776     23779     23781
     23773     23776     23779     23782     23774     23773     23776     23777
     23774     23773     23776     23778     23774     23773     23776     23779
     23775     23773     23776     23777     23775     23773     23776     23778
     23775     23773     23776     23779     23776     23779     23782     23783
     23776     23779     23782     23784     23776     23779     23782     23785
     23777     23776     23779     23780     23777     23776     23779     23781
     23777     23776     23779     23782     23778     23776     23779     23780
     23778     23776     23779     23781     23778     23776     23779     23782
     23779     23782     23785     23786     23779     23782     23785     23787
     23779     23782     23785     23788     23780     23779     23782     23783
     23780     23779     23782     23784     23780     23779     23782     23785
     23781     23779     23782     23783     23781     23779     23782     23784
     23781     23779     23782     23785     23782     23785     23788     23789
     23782     23785     23788     23790     23782     23785     23788     23791
     23783     23782     23785     23786     23783     23782     23785     23787
     23783     23782     23785     23788     23784     23782     23785     23786
     23784     23782     23785     23787     23784     23782     23785     23788
     23785     23788     23791     23792     23785     23788     23791     23793
     23785     23788     23791     23794     23786     23785     23788     23789
     23786     23785     23788     23790     23786     23785     23788     23791
     23787     23785     23788     23789     23787     23785     23788     23790
     23787     23785     23788     23791     23788     23791     23794     23795
     23788     23791     23794     23796     23788     23791     23794     23797
     23789     23788     23791     23792     23789     23788     23791     23793
     23789     23788     23791     23794     23790     23788     23791     23792
     23790     23788     23791     23793     23790     23788     23791     23794
     23791     23794     23797     23798     23791     23794     23797     23799
     23791     23794     23797     23800     23792     23791     23794     23795
     23792     23791     23794     23796     23792     23791     23794     23797
     23793     23791     23794     23795     23793     23791     23794     23796
     23793     23791     23794     23797     23794     23797     23800     23801
     23794     23797     23800     23802     23794     23797     23800     23803
     23795     23794     23797     23798     23795     23794     23797     23799
     23795     23794     23797     23800     23796     23794     23797     23798
     23796     23794     23797     23799     23796     23794     23797     23800
     23797     23800     23803     23804     23797     23800     23803     23805
     23797     23800     23803     23806     23798     23797     23800     23801
     23798     23797     23800     23802     23798     23797     23800     23803
     23799     23797     23800     23801     23799     23797     23800     23802
     23799     23797     23800     23803     23800     23803     23806     23807
     23800     23803     23806     23808     23800     23803     23806     23809
     23801     23800     23803     23804     23801     23800     23803     23805
     23801     23800     23803     23806     23802     23800     23803     23804
     23802     23800     23803     23805     23802     23800     23803     23806
     23803     23806     23809     23810     23803     23806     23809     23811
     23803     23806     23809     23812     23804     23803     23806     23807
     23804     23803     23806     23808     23804     23803     23806     23809
     23805     23803     23806     23807     23805     23803     23806     23808
     23805     23803     23806     23809     23807     23806     23809     23810
     23807     23806     23809     23811     23807     23806     23809     23812
     23808     23806     23809     23810     23808     23806     23809     23811
     23808     23806     23809     23812     23813     23817     23820     23821
     23813     23817     23820     23822     23813     23817     23820     23827
     23814     23813     23817     23818     23814     23813     23817     23819
     23814     23813     23817     23820     23815     23813     23817     23818
     23815     23813     23817     23819     23815     23813     23817     23820
     23816     23813     23817     23818     23816     23813     23817     23819
     23816     23813     23817     23820     23817     23820     23827     23823
     23818     23817     23820     23821     23818     23817     23820     23822
     23818     23817     23820     23827     23819     23817     23820     23821
     23819     23817     23820     23822     23819     23817     23820     23827
     23820     23827     23823     23824     23820     23827     23823     23825
     23820     23827     23823     23826     23821     23820     23827     23823
     23822     23820     23827     23823     23823     23826     23828     23829
     23823     23826     23828     23830     23823     23826     23828     23831
     23824     23823     23826     23828     23825     23823     23826     23828
     23826     23828     23831     23832     23826     23828     23831     23833
     23826     23828     23831     23839     23827     23823     23826     23828
     23828     23831     23833     23834     23828     23831     23839     23840
     23828     23831     23839     23841     23828     23831     23839     23842
     23829     23828     23831     23832     23829     23828     23831     23833
     23829     23828     23831     23839     23830     23828     23831     23832
     23830     23828     23831     23833     23830     23828     23831     23839
     23831     23833     23834     23835     23831     23833     23834     23836
     23831     23839     23842     23843     23832     23831     23833     23834
     23832     23831     23839     23840     23832     23831     23839     23841
     23832     23831     23839     23842     23833     23831     23839     23840
     23833     23831     23839     23841     23833     23831     23839     23842
     23833     23834     23836     23837     23833     23834     23836     23838
     23833     23834     23836     23848     23834     23833     23831     23839
     23834     23836     23848     23849     23834     23836     23848     23850
     23834     23836     23848     23851     23835     23834     23836     23837
     23835     23834     23836     23838     23835     23834     23836     23848
     23836     23848     23851     23852     23836     23848     23851     23853
     23836     23848     23851     23854     23837     23836     23848     23849
     23837     23836     23848     23850     23837     23836     23848     23851
     23838     23836     23848     23849     23838     23836     23848     23850
     23838     23836     23848     23851     23839     23842     23843     23844
     23839     23842     23843     23845     23840     23839     23842     23843
     23841     23839     23842     23843     23842     23843     23845     23846
     23842     23843     23845     23847     23842     23843     23845     23892
     23843     23845     23892     23893     23843     23845     23892     23894
     23843     23845     23892     23895     23844     23843     23845     23846
     23844     23843     23845     23847     23844     23843     23845     23892
     23845     23892     23895     23896     23845     23892     23895     23897
     23845     23892     23895     23898     23846     23845     23892     23893
     23846     23845     23892     23894     23846     23845     23892     23895
     23847     23845     23892     23893     23847     23845     23892     23894
     23847     23845     23892     23895     23848     23851     23854     23855
     23848     23851     23854     23856     23848     23851     23854     23857
     23849     23848     23851     23852     23849     23848     23851     23853
     23849     23848     23851     23854     23850     23848     23851     23852
     23850     23848     23851     23853     23850     23848     23851     23854
     23851     23854     23857     23858     23851     23854     23857     23859
     23851     23854     23857     23860     23852     23851     23854     23855
     23852     23851     23854     23856     23852     23851     23854     23857
     23853     23851     23854     23855     23853     23851     23854     23856
     23853     23851     23854     23857     23854     23857     23860     23861
     23854     23857     23860     23862     23854     23857     23860     23863
     23855     23854     23857     23858     23855     23854     23857     23859
     23855     23854     23857     23860     23856     23854     23857     23858
     23856     23854     23857     23859     23856     23854     23857     23860
     23857     23860     23863     23864     23857     23860     23863     23865
     23857     23860     23863     23866     23858     23857     23860     23861
     23858     23857     23860     23862     23858     23857     23860     23863
     23859     23857     23860     23861     23859     23857     23860     23862
     23859     23857     23860     23863     23860     23863     23866     23867
     23860     23863     23866     23868     23860     23863     23866     23871
     23861     23860     23863     23864     23861     23860     23863     23865
     23861     23860     23863     23866     23862     23860     23863     23864
     23862     23860     23863     23865     23862     23860     23863     23866
     23863     23866     23868     23869     23863     23866     23868     23870
     23863     23866     23868     23871     23863     23866     23871     23868
     23863     23866     23871     23872     23863     23866     23871     23873
     23864     23863     23866     23867     23864     23863     23866     23868
     23864     23863     23866     23871     23865     23863     23866     23867
     23865     23863     23866     23868     23865     23863     23866     23871
     23866     23868     23871     23872     23866     23868     23871     23873
     23866     23871     23868     23869     23866     23871     23868     23870
     23866     23871     23873     23874     23866     23871     23873     23875
     23866     23871     23873     23876     23867     23866     23868     23869
     23867     23866     23868     23870     23867     23866     23868     23871
     23867     23866     23871     23868     23867     23866     23871     23872
     23867     23866     23871     23873     23868     23866     23871     23872
     23868     23866     23871     23873     23868     23871     23873     23874
     23868     23871     23873     23875     23868     23871     23873     23876
     23869     23868     23866     23871     23869     23868     23871     23872
     23869     23868     23871     23873     23870     23868     23866     23871
     23870     23868     23871     23872     23870     23868     23871     23873
     23871     23873     23876     23877     23871     23873     23876     23878
     23871     23873     23876     23879     23872     23871     23873     23874
     23872     23871     23873     23875     23872     23871     23873     23876
     23873     23876     23879     23880     23873     23876     23879     23881
     23873     23876     23879     23882     23874     23873     23876     23877
     23874     23873     23876     23878     23874     23873     23876     23879
     23875     23873     23876     23877     23875     23873     23876     23878
     23875     23873     23876     23879     23876     23879     23882     23883
     23876     23879     23882     23884     23876     23879     23882     23885
     23877     23876     23879     23880     23877     23876     23879     23881
     23877     23876     23879     23882     23878     23876     23879     23880
     23878     23876     23879     23881     23878     23876     23879     23882
     23879     23882     23885     23886     23879     23882     23885     23887
     23879     23882     23885     23888     23880     23879     23882     23883
     23880     23879     23882     23884     23880     23879     23882     23885
     23881     23879     23882     23883     23881     23879     23882     23884
     23881     23879     23882     23885     23882     23885     23888     23889
     23882     23885     23888     23890     23882     23885     23888     23891
     23883     23882     23885     23886     23883     23882     23885     23887
     23883     23882     23885     23888     23884     23882     23885     23886
     23884     23882     23885     23887     23884     23882     23885     23888
     23886     23885     23888     23889     23886     23885     23888     23890
     23886     23885     23888     23891     23887     23885     23888     23889
     23887     23885     23888     23890     23887     23885     23888     23891
     23892     23895     23898     23899     23892     23895     23898     23900
     23892     23895     23898     23901     23893     23892     23895     23896
     23893     23892     23895     23897     23893     23892     23895     23898
     23894     23892     23895     23896     23894     23892     23895     23897
     23894     23892     23895     23898     23895     23898     23901     23902
     23895     23898     23901     23903     23895     23898     23901     23904
     23896     23895     23898     23899     23896     23895     23898     23900
     23896     23895     23898     23901     23897     23895     23898     23899
     23897     23895     23898     23900     23897     23895     23898     23901
     23898     23901     23904     23905     23898     23901     23904     23906
     23898     23901     23904     23907     23899     23898     23901     23902
     23899     23898     23901     23903     23899     23898     23901     23904
     23900     23898     23901     23902     23900     23898     23901     23903
     23900     23898     23901     23904     23901     23904     23907     23908
     23901     23904     23907     23909     23901     23904     23907     23910
     23902     23901     23904     23905     23902     23901     23904     23906
     23902     23901     23904     23907     23903     23901     23904     23905
     23903     23901     23904     23906     23903     23901     23904     23907
     23904     23907     23910     23911     23904     23907     23910     23912
     23904     23907     23910     23913     23905     23904     23907     23908
     23905     23904     23907     23909     23905     23904     23907     23910
     23906     23904     23907     23908     23906     23904     23907     23909
     23906     23904     23907     23910     23907     23910     23913     23914
     23907     23910     23913     23915     23907     23910     23913     23916
     23908     23907     23910     23911     23908     23907     23910     23912
     23908     23907     23910     23913     23909     23907     23910     23911
     23909     23907     23910     23912     23909     23907     23910     23913
     23910     23913     23916     23917     23910     23913     23916     23918
     23910     23913     23916     23919     23911     23910     23913     23914
     23911     23910     23913     23915     23911     23910     23913     23916
     23912     23910     23913     23914     23912     23910     23913     23915
     23912     23910     23913     23916     23913     23916     23919     23920
     23913     23916     23919     23921     23913     23916     23919     23922
     23914     23913     23916     23917     23914     23913     23916     23918
     23914     23913     23916     23919     23915     23913     23916     23917
     23915     23913     23916     23918     23915     23913     23916     23919
     23916     23919     23922     23923     23916     23919     23922     23924
     23916     23919     23922     23925     23917     23916     23919     23920
     23917     23916     23919     23921     23917     23916     23919     23922
     23918     23916     23919     23920     23918     23916     23919     23921
     23918     23916     23919     23922     23919     23922     23925     23926
     23919     23922     23925     23927     23919     23922     23925     23928
     23920     23919     23922     23923     23920     23919     23922     23924
     23920     23919     23922     23925     23921     23919     23922     23923
     23921     23919     23922     23924     23921     23919     23922     23925
     23922     23925     23928     23929     23922     23925     23928     23930
     23922     23925     23928     23931     23923     23922     23925     23926
     23923     23922     23925     23927     23923     23922     23925     23928
     23924     23922     23925     23926     23924     23922     23925     23927
     23924     23922     23925     23928     23925     23928     23931     23932
     23925     23928     23931     23933     23925     23928     23931     23934
     23926     23925     23928     23929     23926     23925     23928     23930
     23926     23925     23928     23931     23927     23925     23928     23929
     23927     23925     23928     23930     23927     23925     23928     23931
     23929     23928     23931     23932     23929     23928     23931     23933
     23929     23928     23931     23934     23930     23928     23931     23932
     23930     23928     23931     23933     23930     23928     23931     23934
     23935     23939     23942     23943     23935     23939     23942     23944
     23935     23939     23942     23949     23936     23935     23939     23940
     23936     23935     23939     23941     23936     23935     23939     23942
     23937     23935     23939     23940     23937     23935     23939     23941
     23937     23935     23939     23942     23938     23935     23939     23940
     23938     23935     23939     23941     23938     23935     23939     23942
     23939     23942     23949     23945     23940     23939     23942     23943
     23940     23939     23942     23944     23940     23939     23942     23949
     23941     23939     23942     23943     23941     23939     23942     23944
     23941     23939     23942     23949     23942     23949     23945     23946
     23942     23949     23945     23947     23942     23949     23945     23948
     23943     23942     23949     23945     23944     23942     23949     23945
     23945     23948     23950     23951     23945     23948     23950     23952
     23945     23948     23950     23953     23946     23945     23948     23950
     23947     23945     23948     23950     23948     23950     23953     23954
     23948     23950     23953     23955     23948     23950     23953     23961
     23949     23945     23948     23950     23950     23953     23955     23956
     23950     23953     23961     23962     23950     23953     23961     23963
     23950     23953     23961     23964     23951     23950     23953     23954
     23951     23950     23953     23955     23951     23950     23953     23961
     23952     23950     23953     23954     23952     23950     23953     23955
     23952     23950     23953     23961     23953     23955     23956     23957
     23953     23955     23956     23958     23953     23961     23964     23965
     23954     23953     23955     23956     23954     23953     23961     23962
     23954     23953     23961     23963     23954     23953     23961     23964
     23955     23953     23961     23962     23955     23953     23961     23963
     23955     23953     23961     23964     23955     23956     23958     23959
     23955     23956     23958     23960     23955     23956     23958     23970
     23956     23955     23953     23961     23956     23958     23970     23971
     23956     23958     23970     23972     23956     23958     23970     23973
     23957     23956     23958     23959     23957     23956     23958     23960
     23957     23956     23958     23970     23958     23970     23973     23974
     23958     23970     23973     23975     23958     23970     23973     23976
     23959     23958     23970     23971     23959     23958     23970     23972
     23959     23958     23970     23973     23960     23958     23970     23971
     23960     23958     23970     23972     23960     23958     23970     23973
     23961     23964     23965     23966     23961     23964     23965     23967
     23962     23961     23964     23965     23963     23961     23964     23965
     23964     23965     23967     23968     23964     23965     23967     23969
     23964     23965     23967     24014     23965     23967     24014     24015
     23965     23967     24014     24016     23965     23967     24014     24017
     23966     23965     23967     23968     23966     23965     23967     23969
     23966     23965     23967     24014     23967     24014     24017     24018
     23967     24014     24017     24019     23967     24014     24017     24020
     23968     23967     24014     24015     23968     23967     24014     24016
     23968     23967     24014     24017     23969     23967     24014     24015
     23969     23967     24014     24016     23969     23967     24014     24017
     23970     23973     23976     23977     23970     23973     23976     23978
     23970     23973     23976     23979     23971     23970     23973     23974
     23971     23970     23973     23975     23971     23970     23973     23976
     23972     23970     23973     23974     23972     23970     23973     23975
     23972     23970     23973     23976     23973     23976     23979     23980
     23973     23976     23979     23981     23973     23976     23979     23982
     23974     23973     23976     23977     23974     23973     23976     23978
     23974     23973     23976     23979     23975     23973     23976     23977
     23975     23973     23976     23978     23975     23973     23976     23979
     23976     23979     23982     23983     23976     23979     23982     23984
     23976     23979     23982     23985     23977     23976     23979     23980
     23977     23976     23979     23981     23977     23976     23979     23982
     23978     23976     23979     23980     23978     23976     23979     23981
     23978     23976     23979     23982     23979     23982     23985     23986
     23979     23982     23985     23987     23979     23982     23985     23988
     23980     23979     23982     23983     23980     23979     23982     23984
     23980     23979     23982     23985     23981     23979     23982     23983
     23981     23979     23982     23984     23981     23979     23982     23985
     23982     23985     23988     23989     23982     23985     23988     23990
     23982     23985     23988     23993     23983     23982     23985     23986
     23983     23982     23985     23987     23983     23982     23985     23988
     23984     23982     23985     23986     23984     23982     23985     23987
     23984     23982     23985     23988     23985     23988     23990     23991
     23985     23988     23990     23992     23985     23988     23990     23993
     23985     23988     23993     23990     23985     23988     23993     23994
     23985     23988     23993     23995     23986     23985     23988     23989
     23986     23985     23988     23990     23986     23985     23988     23993
     23987     23985     23988     23989     23987     23985     23988     23990
     23987     23985     23988     23993     23988     23990     23993     23994
     23988     23990     23993     23995     23988     23993     23990     23991
     23988     23993     23990     23992     23988     23993     23995     23996
     23988     23993     23995     23997     23988     23993     23995     23998
     23989     23988     23990     23991     23989     23988     23990     23992
     23989     23988     23990     23993     23989     23988     23993     23990
     23989     23988     23993     23994     23989     23988     23993     23995
     23990     23988     23993     23994     23990     23988     23993     23995
     23990     23993     23995     23996     23990     23993     23995     23997
     23990     23993     23995     23998     23991     23990     23988     23993
     23991     23990     23993     23994     23991     23990     23993     23995
     23992     23990     23988     23993     23992     23990     23993     23994
     23992     23990     23993     23995     23993     23995     23998     23999
     23993     23995     23998     24000     23993     23995     23998     24001
     23994     23993     23995     23996     23994     23993     23995     23997
     23994     23993     23995     23998     23995     23998     24001     24002
     23995     23998     24001     24003     23995     23998     24001     24004
     23996     23995     23998     23999     23996     23995     23998     24000
     23996     23995     23998     24001     23997     23995     23998     23999
     23997     23995     23998     24000     23997     23995     23998     24001
     23998     24001     24004     24005     23998     24001     24004     24006
     23998     24001     24004     24007     23999     23998     24001     24002
     23999     23998     24001     24003     23999     23998     24001     24004
     24000     23998     24001     24002     24000     23998     24001     24003
     24000     23998     24001     24004     24001     24004     24007     24008
     24001     24004     24007     24009     24001     24004     24007     24010
     24002     24001     24004     24005     24002     24001     24004     24006
     24002     24001     24004     24007     24003     24001     24004     24005
     24003     24001     24004     24006     24003     24001     24004     24007
     24004     24007     24010     24011     24004     24007     24010     24012
     24004     24007     24010     24013     24005     24004     24007     24008
     24005     24004     24007     24009     24005     24004     24007     24010
     24006     24004     24007     24008     24006     24004     24007     24009
     24006     24004     24007     24010     24008     24007     24010     24011
     24008     24007     24010     24012     24008     24007     24010     24013
     24009     24007     24010     24011     24009     24007     24010     24012
     24009     24007     24010     24013     24014     24017     24020     24021
     24014     24017     24020     24022     24014     24017     24020     24023
     24015     24014     24017     24018     24015     24014     24017     24019
     24015     24014     24017     24020     24016     24014     24017     24018
     24016     24014     24017     24019     24016     24014     24017     24020
     24017     24020     24023     24024     24017     24020     24023     24025
     24017     24020     24023     24026     24018     24017     24020     24021
     24018     24017     24020     24022     24018     24017     24020     24023
     24019     24017     24020     24021     24019     24017     24020     24022
     24019     24017     24020     24023     24020     24023     24026     24027
     24020     24023     24026     24028     24020     24023     24026     24029
     24021     24020     24023     24024     24021     24020     24023     24025
     24021     24020     24023     24026     24022     24020     24023     24024
     24022     24020     24023     24025     24022     24020     24023     24026
     24023     24026     24029     24030     24023     24026     24029     24031
     24023     24026     24029     24032     24024     24023     24026     24027
     24024     24023     24026     24028     24024     24023     24026     24029
     24025     24023     24026     24027     24025     24023     24026     24028
     24025     24023     24026     24029     24026     24029     24032     24033
     24026     24029     24032     24034     24026     24029     24032     24035
     24027     24026     24029     24030     24027     24026     24029     24031
     24027     24026     24029     24032     24028     24026     24029     24030
     24028     24026     24029     24031     24028     24026     24029     24032
     24029     24032     24035     24036     24029     24032     24035     24037
     24029     24032     24035     24038     24030     24029     24032     24033
     24030     24029     24032     24034     24030     24029     24032     24035
     24031     24029     24032     24033     24031     24029     24032     24034
     24031     24029     24032     24035     24032     24035     24038     24039
     24032     24035     24038     24040     24032     24035     24038     24041
     24033     24032     24035     24036     24033     24032     24035     24037
     24033     24032     24035     24038     24034     24032     24035     24036
     24034     24032     24035     24037     24034     24032     24035     24038
     24035     24038     24041     24042     24035     24038     24041     24043
     24035     24038     24041     24044     24036     24035     24038     24039
     24036     24035     24038     24040     24036     24035     24038     24041
     24037     24035     24038     24039     24037     24035     24038     24040
     24037     24035     24038     24041     24038     24041     24044     24045
     24038     24041     24044     24046     24038     24041     24044     24047
     24039     24038     24041     24042     24039     24038     24041     24043
     24039     24038     24041     24044     24040     24038     24041     24042
     24040     24038     24041     24043     24040     24038     24041     24044
     24041     24044     24047     24048     24041     24044     24047     24049
     24041     24044     24047     24050     24042     24041     24044     24045
     24042     24041     24044     24046     24042     24041     24044     24047
     24043     24041     24044     24045     24043     24041     24044     24046
     24043     24041     24044     24047     24044     24047     24050     24051
     24044     24047     24050     24052     24044     24047     24050     24053
     24045     24044     24047     24048     24045     24044     24047     24049
     24045     24044     24047     24050     24046     24044     24047     24048
     24046     24044     24047     24049     24046     24044     24047     24050
     24048     24047     24050     24051     24048     24047     24050     24052
     24048     24047     24050     24053     24049     24047     24050     24051
     24049     24047     24050     24052     24049     24047     24050     24053
     24054     24058     24061     24062     24054     24058     24061     24063
     24054     24058     24061     24068     24055     24054     24058     24059
     24055     24054     24058     24060     24055     24054     24058     24061
     24056     24054     24058     24059     24056     24054     24058     24060
     24056     24054     24058     24061     24057     24054     24058     24059
     24057     24054     24058     24060     24057     24054     24058     24061
     24058     24061     24068     24064     24059     24058     24061     24062
     24059     24058     24061     24063     24059     24058     24061     24068
     24060     24058     24061     24062     24060     24058     24061     24063
     24060     24058     24061     24068     24061     24068     24064     24065
     24061     24068     24064     24066     24061     24068     24064     24067
     24062     24061     24068     24064     24063     24061     24068     24064
     24064     24067     24069     24070     24064     24067     24069     24071
     24064     24067     24069     24072     24065     24064     24067     24069
     24066     24064     24067     24069     24067     24069     24072     24073
     24067     24069     24072     24074     24067     24069     24072     24080
     24068     24064     24067     24069     24069     24072     24074     24075
     24069     24072     24080     24081     24069     24072     24080     24082
     24069     24072     24080     24083     24070     24069     24072     24073
     24070     24069     24072     24074     24070     24069     24072     24080
     24071     24069     24072     24073     24071     24069     24072     24074
     24071     24069     24072     24080     24072     24074     24075     24076
     24072     24074     24075     24077     24072     24080     24083     24084
     24073     24072     24074     24075     24073     24072     24080     24081
     24073     24072     24080     24082     24073     24072     24080     24083
     24074     24072     24080     24081     24074     24072     24080     24082
     24074     24072     24080     24083     24074     24075     24077     24078
     24074     24075     24077     24079     24074     24075     24077     24089
     24075     24074     24072     24080     24075     24077     24089     24090
     24075     24077     24089     24091     24075     24077     24089     24092
     24076     24075     24077     24078     24076     24075     24077     24079
     24076     24075     24077     24089     24077     24089     24092     24093
     24077     24089     24092     24094     24077     24089     24092     24095
     24078     24077     24089     24090     24078     24077     24089     24091
     24078     24077     24089     24092     24079     24077     24089     24090
     24079     24077     24089     24091     24079     24077     24089     24092
     24080     24083     24084     24085     24080     24083     24084     24086
     24081     24080     24083     24084     24082     24080     24083     24084
     24083     24084     24086     24087     24083     24084     24086     24088
     24083     24084     24086     24133     24084     24086     24133     24134
     24084     24086     24133     24135     24084     24086     24133     24136
     24085     24084     24086     24087     24085     24084     24086     24088
     24085     24084     24086     24133     24086     24133     24136     24137
     24086     24133     24136     24138     24086     24133     24136     24139
     24087     24086     24133     24134     24087     24086     24133     24135
     24087     24086     24133     24136     24088     24086     24133     24134
     24088     24086     24133     24135     24088     24086     24133     24136
     24089     24092     24095     24096     24089     24092     24095     24097
     24089     24092     24095     24098     24090     24089     24092     24093
     24090     24089     24092     24094     24090     24089     24092     24095
     24091     24089     24092     24093     24091     24089     24092     24094
     24091     24089     24092     24095     24092     24095     24098     24099
     24092     24095     24098     24100     24092     24095     24098     24101
     24093     24092     24095     24096     24093     24092     24095     24097
     24093     24092     24095     24098     24094     24092     24095     24096
     24094     24092     24095     24097     24094     24092     24095     24098
     24095     24098     24101     24102     24095     24098     24101     24103
     24095     24098     24101     24104     24096     24095     24098     24099
     24096     24095     24098     24100     24096     24095     24098     24101
     24097     24095     24098     24099     24097     24095     24098     24100
     24097     24095     24098     24101     24098     24101     24104     24105
     24098     24101     24104     24106     24098     24101     24104     24107
     24099     24098     24101     24102     24099     24098     24101     24103
     24099     24098     24101     24104     24100     24098     24101     24102
     24100     24098     24101     24103     24100     24098     24101     24104
     24101     24104     24107     24108     24101     24104     24107     24109
     24101     24104     24107     24112     24102     24101     24104     24105
     24102     24101     24104     24106     24102     24101     24104     24107
     24103     24101     24104     24105     24103     24101     24104     24106
     24103     24101     24104     24107     24104     24107     24109     24110
     24104     24107     24109     24111     24104     24107     24109     24112
     24104     24107     24112     24109     24104     24107     24112     24113
     24104     24107     24112     24114     24105     24104     24107     24108
     24105     24104     24107     24109     24105     24104     24107     24112
     24106     24104     24107     24108     24106     24104     24107     24109
     24106     24104     24107     24112     24107     24109     24112     24113
     24107     24109     24112     24114     24107     24112     24109     24110
     24107     24112     24109     24111     24107     24112     24114     24115
     24107     24112     24114     24116     24107     24112     24114     24117
     24108     24107     24109     24110     24108     24107     24109     24111
     24108     24107     24109     24112     24108     24107     24112     24109
     24108     24107     24112     24113     24108     24107     24112     24114
     24109     24107     24112     24113     24109     24107     24112     24114
     24109     24112     24114     24115     24109     24112     24114     24116
     24109     24112     24114     24117     24110     24109     24107     24112
     24110     24109     24112     24113     24110     24109     24112     24114
     24111     24109     24107     24112     24111     24109     24112     24113
     24111     24109     24112     24114     24112     24114     24117     24118
     24112     24114     24117     24119     24112     24114     24117     24120
     24113     24112     24114     24115     24113     24112     24114     24116
     24113     24112     24114     24117     24114     24117     24120     24121
     24114     24117     24120     24122     24114     24117     24120     24123
     24115     24114     24117     24118     24115     24114     24117     24119
     24115     24114     24117     24120     24116     24114     24117     24118
     24116     24114     24117     24119     24116     24114     24117     24120
     24117     24120     24123     24124     24117     24120     24123     24125
     24117     24120     24123     24126     24118     24117     24120     24121
     24118     24117     24120     24122     24118     24117     24120     24123
     24119     24117     24120     24121     24119     24117     24120     24122
     24119     24117     24120     24123     24120     24123     24126     24127
     24120     24123     24126     24128     24120     24123     24126     24129
     24121     24120     24123     24124     24121     24120     24123     24125
     24121     24120     24123     24126     24122     24120     24123     24124
     24122     24120     24123     24125     24122     24120     24123     24126
     24123     24126     24129     24130     24123     24126     24129     24131
     24123     24126     24129     24132     24124     24123     24126     24127
     24124     24123     24126     24128     24124     24123     24126     24129
     24125     24123     24126     24127     24125     24123     24126     24128
     24125     24123     24126     24129     24127     24126     24129     24130
     24127     24126     24129     24131     24127     24126     24129     24132
     24128     24126     24129     24130     24128     24126     24129     24131
     24128     24126     24129     24132     24133     24136     24139     24140
     24133     24136     24139     24141     24133     24136     24139     24142
     24134     24133     24136     24137     24134     24133     24136     24138
     24134     24133     24136     24139     24135     24133     24136     24137
     24135     24133     24136     24138     24135     24133     24136     24139
     24136     24139     24142     24143     24136     24139     24142     24144
     24136     24139     24142     24145     24137     24136     24139     24140
     24137     24136     24139     24141     24137     24136     24139     24142
     24138     24136     24139     24140     24138     24136     24139     24141
     24138     24136     24139     24142     24139     24142     24145     24146
     24139     24142     24145     24147     24139     24142     24145     24148
     24140     24139     24142     24143     24140     24139     24142     24144
     24140     24139     24142     24145     24141     24139     24142     24143
     24141     24139     24142     24144     24141     24139     24142     24145
     24142     24145     24148     24149     24142     24145     24148     24150
     24142     24145     24148     24151     24143     24142     24145     24146
     24143     24142     24145     24147     24143     24142     24145     24148
     24144     24142     24145     24146     24144     24142     24145     24147
     24144     24142     24145     24148     24145     24148     24151     24152
     24145     24148     24151     24153     24145     24148     24151     24154
     24146     24145     24148     24149     24146     24145     24148     24150
     24146     24145     24148     24151     24147     24145     24148     24149
     24147     24145     24148     24150     24147     24145     24148     24151
     24148     24151     24154     24155     24148     24151     24154     24156
     24148     24151     24154     24157     24149     24148     24151     24152
     24149     24148     24151     24153     24149     24148     24151     24154
     24150     24148     24151     24152     24150     24148     24151     24153
     24150     24148     24151     24154     24151     24154     24157     24158
     24151     24154     24157     24159     24151     24154     24157     24160
     24152     24151     24154     24155     24152     24151     24154     24156
     24152     24151     24154     24157     24153     24151     24154     24155
     24153     24151     24154     24156     24153     24151     24154     24157
     24154     24157     24160     24161     24154     24157     24160     24162
     24154     24157     24160     24163     24155     24154     24157     24158
     24155     24154     24157     24159     24155     24154     24157     24160
     24156     24154     24157     24158     24156     24154     24157     24159
     24156     24154     24157     24160     24157     24160     24163     24164
     24157     24160     24163     24165     24157     24160     24163     24166
     24158     24157     24160     24161     24158     24157     24160     24162
     24158     24157     24160     24163     24159     24157     24160     24161
     24159     24157     24160     24162     24159     24157     24160     24163
     24160     24163     24166     24167     24160     24163     24166     24168
     24160     24163     24166     24169     24161     24160     24163     24164
     24161     24160     24163     24165     24161     24160     24163     24166
     24162     24160     24163     24164     24162     24160     24163     24165
     24162     24160     24163     24166     24163     24166     24169     24170
     24163     24166     24169     24171     24163     24166     24169     24172
     24164     24163     24166     24167     24164     24163     24166     24168
     24164     24163     24166     24169     24165     24163     24166     24167
     24165     24163     24166     24168     24165     24163     24166     24169
     24166     24169     24172     24173     24166     24169     24172     24174
     24166     24169     24172     24175     24167     24166     24169     24170
     24167     24166     24169     24171     24167     24166     24169     24172
     24168     24166     24169     24170     24168     24166     24169     24171
     24168     24166     24169     24172     24170     24169     24172     24173
     24170     24169     24172     24174     24170     24169     24172     24175
     24171     24169     24172     24173     24171     24169     24172     24174
     24171     24169     24172     24175     24176     24180     24183     24184
     24176     24180     24183     24185     24176     24180     24183     24190
     24177     24176     24180     24181     24177     24176     24180     24182
     24177     24176     24180     24183     24178     24176     24180     24181
     24178     24176     24180     24182     24178     24176     24180     24183
     24179     24176     24180     24181     24179     24176     24180     24182
     24179     24176     24180     24183     24180     24183     24190     24186
     24181     24180     24183     24184     24181     24180     24183     24185
     24181     24180     24183     24190     24182     24180     24183     24184
     24182     24180     24183     24185     24182     24180     24183     24190
     24183     24190     24186     24187     24183     24190     24186     24188
     24183     24190     24186     24189     24184     24183     24190     24186
     24185     24183     24190     24186     24186     24189     24191     24192
     24186     24189     24191     24193     24186     24189     24191     24194
     24187     24186     24189     24191     24188     24186     24189     24191
     24189     24191     24194     24195     24189     24191     24194     24196
     24189     24191     24194     24202     24190     24186     24189     24191
     24191     24194     24196     24197     24191     24194     24202     24203
     24191     24194     24202     24204     24191     24194     24202     24205
     24192     24191     24194     24195     24192     24191     24194     24196
     24192     24191     24194     24202     24193     24191     24194     24195
     24193     24191     24194     24196     24193     24191     24194     24202
     24194     24196     24197     24198     24194     24196     24197     24199
     24194     24202     24205     24206     24195     24194     24196     24197
     24195     24194     24202     24203     24195     24194     24202     24204
     24195     24194     24202     24205     24196     24194     24202     24203
     24196     24194     24202     24204     24196     24194     24202     24205
     24196     24197     24199     24200     24196     24197     24199     24201
     24196     24197     24199     24211     24197     24196     24194     24202
     24197     24199     24211     24212     24197     24199     24211     24213
     24197     24199     24211     24214     24198     24197     24199     24200
     24198     24197     24199     24201     24198     24197     24199     24211
     24199     24211     24214     24215     24199     24211     24214     24216
     24199     24211     24214     24217     24200     24199     24211     24212
     24200     24199     24211     24213     24200     24199     24211     24214
     24201     24199     24211     24212     24201     24199     24211     24213
     24201     24199     24211     24214     24202     24205     24206     24207
     24202     24205     24206     24208     24203     24202     24205     24206
     24204     24202     24205     24206     24205     24206     24208     24209
     24205     24206     24208     24210     24205     24206     24208     24258
     24206     24208     24258     24259     24206     24208     24258     24260
     24206     24208     24258     24261     24207     24206     24208     24209
     24207     24206     24208     24210     24207     24206     24208     24258
     24208     24258     24261     24262     24208     24258     24261     24263
     24208     24258     24261     24264     24209     24208     24258     24259
     24209     24208     24258     24260     24209     24208     24258     24261
     24210     24208     24258     24259     24210     24208     24258     24260
     24210     24208     24258     24261     24211     24214     24217     24218
     24211     24214     24217     24219     24211     24214     24217     24220
     24212     24211     24214     24215     24212     24211     24214     24216
     24212     24211     24214     24217     24213     24211     24214     24215
     24213     24211     24214     24216     24213     24211     24214     24217
     24214     24217     24220     24221     24214     24217     24220     24222
     24214     24217     24220     24223     24215     24214     24217     24218
     24215     24214     24217     24219     24215     24214     24217     24220
     24216     24214     24217     24218     24216     24214     24217     24219
     24216     24214     24217     24220     24217     24220     24223     24224
     24217     24220     24223     24225     24217     24220     24223     24226
     24218     24217     24220     24221     24218     24217     24220     24222
     24218     24217     24220     24223     24219     24217     24220     24221
     24219     24217     24220     24222     24219     24217     24220     24223
     24220     24223     24226     24227     24220     24223     24226     24228
     24220     24223     24226     24229     24221     24220     24223     24224
     24221     24220     24223     24225     24221     24220     24223     24226
     24222     24220     24223     24224     24222     24220     24223     24225
     24222     24220     24223     24226     24223     24226     24229     24230
     24223     24226     24229     24231     24224     24223     24226     24227
     24224     24223     24226     24228     24224     24223     24226     24229
     24225     24223     24226     24227     24225     24223     24226     24228
     24225     24223     24226     24229     24226     24229     24231     24232
     24226     24229     24231     24233     24227     24226     24229     24230
     24227     24226     24229     24231     24228     24226     24229     24230
     24228     24226     24229     24231     24229     24231     24233     24234
     24229     24231     24233     24235     24229     24231     24233     24236
     24230     24229     24231     24232     24230     24229     24231     24233
     24231     24233     24236     24237     24231     24233     24236     24238
     24231     24233     24236     24239     24232     24231     24233     24234
     24232     24231     24233     24235     24232     24231     24233     24236
     24233     24236     24239     24240     24233     24236     24239     24241
     24233     24236     24239     24242     24234     24233     24236     24237
     24234     24233     24236     24238     24234     24233     24236     24239
     24235     24233     24236     24237     24235     24233     24236     24238
     24235     24233     24236     24239     24236     24239     24242     24243
     24236     24239     24242     24244     24236     24239     24242     24245
     24237     24236     24239     24240     24237     24236     24239     24241
     24237     24236     24239     24242     24238     24236     24239     24240
     24238     24236     24239     24241     24238     24236     24239     24242
     24239     24242     24245     24246     24239     24242     24245     24247
     24239     24242     24245     24248     24240     24239     24242     24243
     24240     24239     24242     24244     24240     24239     24242     24245
     24241     24239     24242     24243     24241     24239     24242     24244
     24241     24239     24242     24245     24242     24245     24248     24249
     24242     24245     24248     24250     24242     24245     24248     24251
     24243     24242     24245     24246     24243     24242     24245     24247
     24243     24242     24245     24248     24244     24242     24245     24246
     24244     24242     24245     24247     24244     24242     24245     24248
     24245     24248     24251     24252     24245     24248     24251     24253
     24245     24248     24251     24254     24246     24245     24248     24249
     24246     24245     24248     24250     24246     24245     24248     24251
     24247     24245     24248     24249     24247     24245     24248     24250
     24247     24245     24248     24251     24248     24251     24254     24255
     24248     24251     24254     24256     24248     24251     24254     24257
     24249     24248     24251     24252     24249     24248     24251     24253
     24249     24248     24251     24254     24250     24248     24251     24252
     24250     24248     24251     24253     24250     24248     24251     24254
     24252     24251     24254     24255     24252     24251     24254     24256
     24252     24251     24254     24257     24253     24251     24254     24255
     24253     24251     24254     24256     24253     24251     24254     24257
     24258     24261     24264     24265     24258     24261     24264     24266
     24258     24261     24264     24267     24259     24258     24261     24262
     24259     24258     24261     24263     24259     24258     24261     24264
     24260     24258     24261     24262     24260     24258     24261     24263
     24260     24258     24261     24264     24261     24264     24267     24268
     24261     24264     24267     24269     24261     24264     24267     24270
     24262     24261     24264     24265     24262     24261     24264     24266
     24262     24261     24264     24267     24263     24261     24264     24265
     24263     24261     24264     24266     24263     24261     24264     24267
     24264     24267     24270     24271     24264     24267     24270     24272
     24264     24267     24270     24273     24265     24264     24267     24268
     24265     24264     24267     24269     24265     24264     24267     24270
     24266     24264     24267     24268     24266     24264     24267     24269
     24266     24264     24267     24270     24267     24270     24273     24274
     24267     24270     24273     24275     24267     24270     24273     24276
     24268     24267     24270     24271     24268     24267     24270     24272
     24268     24267     24270     24273     24269     24267     24270     24271
     24269     24267     24270     24272     24269     24267     24270     24273
     24270     24273     24276     24277     24270     24273     24276     24278
     24270     24273     24276     24279     24271     24270     24273     24274
     24271     24270     24273     24275     24271     24270     24273     24276
     24272     24270     24273     24274     24272     24270     24273     24275
     24272     24270     24273     24276     24273     24276     24279     24280
     24273     24276     24279     24281     24273     24276     24279     24282
     24274     24273     24276     24277     24274     24273     24276     24278
     24274     24273     24276     24279     24275     24273     24276     24277
     24275     24273     24276     24278     24275     24273     24276     24279
     24276     24279     24282     24283     24276     24279     24282     24284
     24276     24279     24282     24285     24277     24276     24279     24280
     24277     24276     24279     24281     24277     24276     24279     24282
     24278     24276     24279     24280     24278     24276     24279     24281
     24278     24276     24279     24282     24279     24282     24285     24286
     24279     24282     24285     24287     24279     24282     24285     24288
     24280     24279     24282     24283     24280     24279     24282     24284
     24280     24279     24282     24285     24281     24279     24282     24283
     24281     24279     24282     24284     24281     24279     24282     24285
     24282     24285     24288     24289     24282     24285     24288     24290
     24282     24285     24288     24291     24283     24282     24285     24286
     24283     24282     24285     24287     24283     24282     24285     24288
     24284     24282     24285     24286     24284     24282     24285     24287
     24284     24282     24285     24288     24285     24288     24291     24292
     24285     24288     24291     24293     24285     24288     24291     24294
     24286     24285     24288     24289     24286     24285     24288     24290
     24286     24285     24288     24291     24287     24285     24288     24289
     24287     24285     24288     24290     24287     24285     24288     24291
     24288     24291     24294     24295     24288     24291     24294     24296
     24288     24291     24294     24297     24289     24288     24291     24292
     24289     24288     24291     24293     24289     24288     24291     24294
     24290     24288     24291     24292     24290     24288     24291     24293
     24290     24288     24291     24294     24291     24294     24297     24298
     24291     24294     24297     24299     24291     24294     24297     24300
     24292     24291     24294     24295     24292     24291     24294     24296
     24292     24291     24294     24297     24293     24291     24294     24295
     24293     24291     24294     24296     24293     24291     24294     24297
     24295     24294     24297     24298     24295     24294     24297     24299
     24295     24294     24297     24300     24296     24294     24297     24298
     24296     24294     24297     24299     24296     24294     24297     24300
     24301     24305     24308     24309     24301     24305     24308     24310
     24301     24305     24308     24315     24302     24301     24305     24306
     24302     24301     24305     24307     24302     24301     24305     24308
     24303     24301     24305     24306     24303     24301     24305     24307
     24303     24301     24305     24308     24304     24301     24305     24306
     24304     24301     24305     24307     24304     24301     24305     24308
     24305     24308     24315     24311     24306     24305     24308     24309
     24306     24305     24308     24310     24306     24305     24308     24315
     24307     24305     24308     24309     24307     24305     24308     24310
     24307     24305     24308     24315     24308     24315     24311     24312
     24308     24315     24311     24313     24308     24315     24311     24314
     24309     24308     24315     24311     24310     24308     24315     24311
     24311     24314     24316     24317     24311     24314     24316     24318
     24311     24314     24316     24319     24312     24311     24314     24316
     24313     24311     24314     24316     24314     24316     24319     24320
     24314     24316     24319     24321     24314     24316     24319     24327
     24315     24311     24314     24316     24316     24319     24321     24322
     24316     24319     24327     24328     24316     24319     24327     24329
     24316     24319     24327     24330     24317     24316     24319     24320
     24317     24316     24319     24321     24317     24316     24319     24327
     24318     24316     24319     24320     24318     24316     24319     24321
     24318     24316     24319     24327     24319     24321     24322     24323
     24319     24321     24322     24324     24319     24327     24330     24331
     24320     24319     24321     24322     24320     24319     24327     24328
     24320     24319     24327     24329     24320     24319     24327     24330
     24321     24319     24327     24328     24321     24319     24327     24329
     24321     24319     24327     24330     24321     24322     24324     24325
     24321     24322     24324     24326     24321     24322     24324     24336
     24322     24321     24319     24327     24322     24324     24336     24337
     24322     24324     24336     24338     24322     24324     24336     24339
     24323     24322     24324     24325     24323     24322     24324     24326
     24323     24322     24324     24336     24324     24336     24339     24340
     24324     24336     24339     24341     24324     24336     24339     24342
     24325     24324     24336     24337     24325     24324     24336     24338
     24325     24324     24336     24339     24326     24324     24336     24337
     24326     24324     24336     24338     24326     24324     24336     24339
     24327     24330     24331     24332     24327     24330     24331     24333
     24328     24327     24330     24331     24329     24327     24330     24331
     24330     24331     24333     24334     24330     24331     24333     24335
     24330     24331     24333     24380     24331     24333     24380     24381
     24331     24333     24380     24382     24331     24333     24380     24383
     24332     24331     24333     24334     24332     24331     24333     24335
     24332     24331     24333     24380     24333     24380     24383     24384
     24333     24380     24383     24385     24333     24380     24383     24386
     24334     24333     24380     24381     24334     24333     24380     24382
     24334     24333     24380     24383     24335     24333     24380     24381
     24335     24333     24380     24382     24335     24333     24380     24383
     24336     24339     24342     24343     24336     24339     24342     24344
     24336     24339     24342     24345     24337     24336     24339     24340
     24337     24336     24339     24341     24337     24336     24339     24342
     24338     24336     24339     24340     24338     24336     24339     24341
     24338     24336     24339     24342     24339     24342     24345     24346
     24339     24342     24345     24347     24339     24342     24345     24348
     24340     24339     24342     24343     24340     24339     24342     24344
     24340     24339     24342     24345     24341     24339     24342     24343
     24341     24339     24342     24344     24341     24339     24342     24345
     24342     24345     24348     24349     24342     24345     24348     24350
     24342     24345     24348     24351     24343     24342     24345     24346
     24343     24342     24345     24347     24343     24342     24345     24348
     24344     24342     24345     24346     24344     24342     24345     24347
     24344     24342     24345     24348     24345     24348     24351     24352
     24345     24348     24351     24353     24345     24348     24351     24354
     24346     24345     24348     24349     24346     24345     24348     24350
     24346     24345     24348     24351     24347     24345     24348     24349
     24347     24345     24348     24350     24347     24345     24348     24351
     24348     24351     24354     24355     24348     24351     24354     24356
     24348     24351     24354     24359     24349     24348     24351     24352
     24349     24348     24351     24353     24349     24348     24351     24354
     24350     24348     24351     24352     24350     24348     24351     24353
     24350     24348     24351     24354     24351     24354     24356     24357
     24351     24354     24356     24358     24351     24354     24356     24359
     24351     24354     24359     24356     24351     24354     24359     24360
     24351     24354     24359     24361     24352     24351     24354     24355
     24352     24351     24354     24356     24352     24351     24354     24359
     24353     24351     24354     24355     24353     24351     24354     24356
     24353     24351     24354     24359     24354     24356     24359     24360
     24354     24356     24359     24361     24354     24359     24356     24357
     24354     24359     24356     24358     24354     24359     24361     24362
     24354     24359     24361     24363     24354     24359     24361     24364
     24355     24354     24356     24357     24355     24354     24356     24358
     24355     24354     24356     24359     24355     24354     24359     24356
     24355     24354     24359     24360     24355     24354     24359     24361
     24356     24354     24359     24360     24356     24354     24359     24361
     24356     24359     24361     24362     24356     24359     24361     24363
     24356     24359     24361     24364     24357     24356     24354     24359
     24357     24356     24359     24360     24357     24356     24359     24361
     24358     24356     24354     24359     24358     24356     24359     24360
     24358     24356     24359     24361     24359     24361     24364     24365
     24359     24361     24364     24366     24359     24361     24364     24367
     24360     24359     24361     24362     24360     24359     24361     24363
     24360     24359     24361     24364     24361     24364     24367     24368
     24361     24364     24367     24369     24361     24364     24367     24370
     24362     24361     24364     24365     24362     24361     24364     24366
     24362     24361     24364     24367     24363     24361     24364     24365
     24363     24361     24364     24366     24363     24361     24364     24367
     24364     24367     24370     24371     24364     24367     24370     24372
     24364     24367     24370     24373     24365     24364     24367     24368
     24365     24364     24367     24369     24365     24364     24367     24370
     24366     24364     24367     24368     24366     24364     24367     24369
     24366     24364     24367     24370     24367     24370     24373     24374
     24367     24370     24373     24375     24367     24370     24373     24376
     24368     24367     24370     24371     24368     24367     24370     24372
     24368     24367     24370     24373     24369     24367     24370     24371
     24369     24367     24370     24372     24369     24367     24370     24373
     24370     24373     24376     24377     24370     24373     24376     24378
     24370     24373     24376     24379     24371     24370     24373     24374
     24371     24370     24373     24375     24371     24370     24373     24376
     24372     24370     24373     24374     24372     24370     24373     24375
     24372     24370     24373     24376     24374     24373     24376     24377
     24374     24373     24376     24378     24374     24373     24376     24379
     24375     24373     24376     24377     24375     24373     24376     24378
     24375     24373     24376     24379     24380     24383     24386     24387
     24380     24383     24386     24388     24380     24383     24386     24389
     24381     24380     24383     24384     24381     24380     24383     24385
     24381     24380     24383     24386     24382     24380     24383     24384
     24382     24380     24383     24385     24382     24380     24383     24386
     24383     24386     24389     24390     24383     24386     24389     24391
     24383     24386     24389     24392     24384     24383     24386     24387
     24384     24383     24386     24388     24384     24383     24386     24389
     24385     24383     24386     24387     24385     24383     24386     24388
     24385     24383     24386     24389     24386     24389     24392     24393
     24386     24389     24392     24394     24386     24389     24392     24395
     24387     24386     24389     24390     24387     24386     24389     24391
     24387     24386     24389     24392     24388     24386     24389     24390
     24388     24386     24389     24391     24388     24386     24389     24392
     24389     24392     24395     24396     24389     24392     24395     24397
     24389     24392     24395     24398     24390     24389     24392     24393
     24390     24389     24392     24394     24390     24389     24392     24395
     24391     24389     24392     24393     24391     24389     24392     24394
     24391     24389     24392     24395     24392     24395     24398     24399
     24392     24395     24398     24400     24392     24395     24398     24401
     24393     24392     24395     24396     24393     24392     24395     24397
     24393     24392     24395     24398     24394     24392     24395     24396
     24394     24392     24395     24397     24394     24392     24395     24398
     24395     24398     24401     24402     24395     24398     24401     24403
     24395     24398     24401     24404     24396     24395     24398     24399
     24396     24395     24398     24400     24396     24395     24398     24401
     24397     24395     24398     24399     24397     24395     24398     24400
     24397     24395     24398     24401     24398     24401     24404     24405
     24398     24401     24404     24406     24398     24401     24404     24407
     24399     24398     24401     24402     24399     24398     24401     24403
     24399     24398     24401     24404     24400     24398     24401     24402
     24400     24398     24401     24403     24400     24398     24401     24404
     24401     24404     24407     24408     24401     24404     24407     24409
     24401     24404     24407     24410     24402     24401     24404     24405
     24402     24401     24404     24406     24402     24401     24404     24407
     24403     24401     24404     24405     24403     24401     24404     24406
     24403     24401     24404     24407     24404     24407     24410     24411
     24404     24407     24410     24412     24404     24407     24410     24413
     24405     24404     24407     24408     24405     24404     24407     24409
     24405     24404     24407     24410     24406     24404     24407     24408
     24406     24404     24407     24409     24406     24404     24407     24410
     24407     24410     24413     24414     24407     24410     24413     24415
     24407     24410     24413     24416     24408     24407     24410     24411
     24408     24407     24410     24412     24408     24407     24410     24413
     24409     24407     24410     24411     24409     24407     24410     24412
     24409     24407     24410     24413     24410     24413     24416     24417
     24410     24413     24416     24418     24410     24413     24416     24419
     24411     24410     24413     24414     24411     24410     24413     24415
     24411     24410     24413     24416     24412     24410     24413     24414
     24412     24410     24413     24415     24412     24410     24413     24416
     24413     24416     24419     24420     24413     24416     24419     24421
     24413     24416     24419     24422     24414     24413     24416     24417
     24414     24413     24416     24418     24414     24413     24416     24419
     24415     24413     24416     24417     24415     24413     24416     24418
     24415     24413     24416     24419     24417     24416     24419     24420
     24417     24416     24419     24421     24417     24416     24419     24422
     24418     24416     24419     24420     24418     24416     24419     24421
     24418     24416     24419     24422     24423     24427     24430     24431
     24423     24427     24430     24432     24423     24427     24430     24437
     24424     24423     24427     24428     24424     24423     24427     24429
     24424     24423     24427     24430     24425     24423     24427     24428
     24425     24423     24427     24429     24425     24423     24427     24430
     24426     24423     24427     24428     24426     24423     24427     24429
     24426     24423     24427     24430     24427     24430     24437     24433
     24428     24427     24430     24431     24428     24427     24430     24432
     24428     24427     24430     24437     24429     24427     24430     24431
     24429     24427     24430     24432     24429     24427     24430     24437
     24430     24437     24433     24434     24430     24437     24433     24435
     24430     24437     24433     24436     24431     24430     24437     24433
     24432     24430     24437     24433     24433     24436     24438     24439
     24433     24436     24438     24440     24433     24436     24438     24441
     24434     24433     24436     24438     24435     24433     24436     24438
     24436     24438     24441     24442     24436     24438     24441     24443
     24436     24438     24441     24449     24437     24433     24436     24438
     24438     24441     24443     24444     24438     24441     24449     24450
     24438     24441     24449     24451     24438     24441     24449     24452
     24439     24438     24441     24442     24439     24438     24441     24443
     24439     24438     24441     24449     24440     24438     24441     24442
     24440     24438     24441     24443     24440     24438     24441     24449
     24441     24443     24444     24445     24441     24443     24444     24446
     24441     24449     24452     24453     24442     24441     24443     24444
     24442     24441     24449     24450     24442     24441     24449     24451
     24442     24441     24449     24452     24443     24441     24449     24450
     24443     24441     24449     24451     24443     24441     24449     24452
     24443     24444     24446     24447     24443     24444     24446     24448
     24443     24444     24446     24458     24444     24443     24441     24449
     24444     24446     24458     24459     24444     24446     24458     24460
     24444     24446     24458     24461     24445     24444     24446     24447
     24445     24444     24446     24448     24445     24444     24446     24458
     24446     24458     24461     24462     24446     24458     24461     24463
     24446     24458     24461     24464     24447     24446     24458     24459
     24447     24446     24458     24460     24447     24446     24458     24461
     24448     24446     24458     24459     24448     24446     24458     24460
     24448     24446     24458     24461     24449     24452     24453     24454
     24449     24452     24453     24455     24450     24449     24452     24453
     24451     24449     24452     24453     24452     24453     24455     24456
     24452     24453     24455     24457     24452     24453     24455     24505
     24453     24455     24505     24506     24453     24455     24505     24507
     24453     24455     24505     24508     24454     24453     24455     24456
     24454     24453     24455     24457     24454     24453     24455     24505
     24455     24505     24508     24509     24455     24505     24508     24510
     24455     24505     24508     24511     24456     24455     24505     24506
     24456     24455     24505     24507     24456     24455     24505     24508
     24457     24455     24505     24506     24457     24455     24505     24507
     24457     24455     24505     24508     24458     24461     24464     24465
     24458     24461     24464     24466     24458     24461     24464     24467
     24459     24458     24461     24462     24459     24458     24461     24463
     24459     24458     24461     24464     24460     24458     24461     24462
     24460     24458     24461     24463     24460     24458     24461     24464
     24461     24464     24467     24468     24461     24464     24467     24469
     24461     24464     24467     24470     24462     24461     24464     24465
     24462     24461     24464     24466     24462     24461     24464     24467
     24463     24461     24464     24465     24463     24461     24464     24466
     24463     24461     24464     24467     24464     24467     24470     24471
     24464     24467     24470     24472     24464     24467     24470     24473
     24465     24464     24467     24468     24465     24464     24467     24469
     24465     24464     24467     24470     24466     24464     24467     24468
     24466     24464     24467     24469     24466     24464     24467     24470
     24467     24470     24473     24474     24467     24470     24473     24475
     24467     24470     24473     24476     24468     24467     24470     24471
     24468     24467     24470     24472     24468     24467     24470     24473
     24469     24467     24470     24471     24469     24467     24470     24472
     24469     24467     24470     24473     24470     24473     24476     24477
     24470     24473     24476     24478     24471     24470     24473     24474
     24471     24470     24473     24475     24471     24470     24473     24476
     24472     24470     24473     24474     24472     24470     24473     24475
     24472     24470     24473     24476     24473     24476     24478     24479
     24473     24476     24478     24480     24474     24473     24476     24477
     24474     24473     24476     24478     24475     24473     24476     24477
     24475     24473     24476     24478     24476     24478     24480     24481
     24476     24478     24480     24482     24476     24478     24480     24483
     24477     24476     24478     24479     24477     24476     24478     24480
     24478     24480     24483     24484     24478     24480     24483     24485
     24478     24480     24483     24486     24479     24478     24480     24481
     24479     24478     24480     24482     24479     24478     24480     24483
     24480     24483     24486     24487     24480     24483     24486     24488
     24480     24483     24486     24489     24481     24480     24483     24484
     24481     24480     24483     24485     24481     24480     24483     24486
     24482     24480     24483     24484     24482     24480     24483     24485
     24482     24480     24483     24486     24483     24486     24489     24490
     24483     24486     24489     24491     24483     24486     24489     24492
     24484     24483     24486     24487     24484     24483     24486     24488
     24484     24483     24486     24489     24485     24483     24486     24487
     24485     24483     24486     24488     24485     24483     24486     24489
     24486     24489     24492     24493     24486     24489     24492     24494
     24486     24489     24492     24495     24487     24486     24489     24490
     24487     24486     24489     24491     24487     24486     24489     24492
     24488     24486     24489     24490     24488     24486     24489     24491
     24488     24486     24489     24492     24489     24492     24495     24496
     24489     24492     24495     24497     24489     24492     24495     24498
     24490     24489     24492     24493     24490     24489     24492     24494
     24490     24489     24492     24495     24491     24489     24492     24493
     24491     24489     24492     24494     24491     24489     24492     24495
     24492     24495     24498     24499     24492     24495     24498     24500
     24492     24495     24498     24501     24493     24492     24495     24496
     24493     24492     24495     24497     24493     24492     24495     24498
     24494     24492     24495     24496     24494     24492     24495     24497
     24494     24492     24495     24498     24495     24498     24501     24502
     24495     24498     24501     24503     24495     24498     24501     24504
     24496     24495     24498     24499     24496     24495     24498     24500
     24496     24495     24498     24501     24497     24495     24498     24499
     24497     24495     24498     24500     24497     24495     24498     24501
     24499     24498     24501     24502     24499     24498     24501     24503
     24499     24498     24501     24504     24500     24498     24501     24502
     24500     24498     24501     24503     24500     24498     24501     24504
     24505     24508     24511     24512     24505     24508     24511     24513
     24505     24508     24511     24514     24506     24505     24508     24509
     24506     24505     24508     24510     24506     24505     24508     24511
     24507     24505     24508     24509     24507     24505     24508     24510
     24507     24505     24508     24511     24508     24511     24514     24515
     24508     24511     24514     24516     24508     24511     24514     24517
     24509     24508     24511     24512     24509     24508     24511     24513
     24509     24508     24511     24514     24510     24508     24511     24512
     24510     24508     24511     24513     24510     24508     24511     24514
     24511     24514     24517     24518     24511     24514     24517     24519
     24511     24514     24517     24520     24512     24511     24514     24515
     24512     24511     24514     24516     24512     24511     24514     24517
     24513     24511     24514     24515     24513     24511     24514     24516
     24513     24511     24514     24517     24514     24517     24520     24521
     24514     24517     24520     24522     24514     24517     24520     24523
     24515     24514     24517     24518     24515     24514     24517     24519
     24515     24514     24517     24520     24516     24514     24517     24518
     24516     24514     24517     24519     24516     24514     24517     24520
     24517     24520     24523     24524     24517     24520     24523     24525
     24517     24520     24523     24526     24518     24517     24520     24521
     24518     24517     24520     24522     24518     24517     24520     24523
     24519     24517     24520     24521     24519     24517     24520     24522
     24519     24517     24520     24523     24520     24523     24526     24527
     24520     24523     24526     24528     24520     24523     24526     24529
     24521     24520     24523     24524     24521     24520     24523     24525
     24521     24520     24523     24526     24522     24520     24523     24524
     24522     24520     24523     24525     24522     24520     24523     24526
     24523     24526     24529     24530     24523     24526     24529     24531
     24523     24526     24529     24532     24524     24523     24526     24527
     24524     24523     24526     24528     24524     24523     24526     24529
     24525     24523     24526     24527     24525     24523     24526     24528
     24525     24523     24526     24529     24526     24529     24532     24533
     24526     24529     24532     24534     24526     24529     24532     24535
     24527     24526     24529     24530     24527     24526     24529     24531
     24527     24526     24529     24532     24528     24526     24529     24530
     24528     24526     24529     24531     24528     24526     24529     24532
     24529     24532     24535     24536     24529     24532     24535     24537
     24529     24532     24535     24538     24530     24529     24532     24533
     24530     24529     24532     24534     24530     24529     24532     24535
     24531     24529     24532     24533     24531     24529     24532     24534
     24531     24529     24532     24535     24532     24535     24538     24539
     24532     24535     24538     24540     24532     24535     24538     24541
     24533     24532     24535     24536     24533     24532     24535     24537
     24533     24532     24535     24538     24534     24532     24535     24536
     24534     24532     24535     24537     24534     24532     24535     24538
     24535     24538     24541     24542     24535     24538     24541     24543
     24535     24538     24541     24544     24536     24535     24538     24539
     24536     24535     24538     24540     24536     24535     24538     24541
     24537     24535     24538     24539     24537     24535     24538     24540
     24537     24535     24538     24541     24538     24541     24544     24545
     24538     24541     24544     24546     24538     24541     24544     24547
     24539     24538     24541     24542     24539     24538     24541     24543
     24539     24538     24541     24544     24540     24538     24541     24542
     24540     24538     24541     24543     24540     24538     24541     24544
     24542     24541     24544     24545     24542     24541     24544     24546
     24542     24541     24544     24547     24543     24541     24544     24545
     24543     24541     24544     24546     24543     24541     24544     24547
     24548     24552     24555     24556     24548     24552     24555     24557
     24548     24552     24555     24562     24549     24548     24552     24553
     24549     24548     24552     24554     24549     24548     24552     24555
     24550     24548     24552     24553     24550     24548     24552     24554
     24550     24548     24552     24555     24551     24548     24552     24553
     24551     24548     24552     24554     24551     24548     24552     24555
     24552     24555     24562     24558     24553     24552     24555     24556
     24553     24552     24555     24557     24553     24552     24555     24562
     24554     24552     24555     24556     24554     24552     24555     24557
     24554     24552     24555     24562     24555     24562     24558     24559
     24555     24562     24558     24560     24555     24562     24558     24561
     24556     24555     24562     24558     24557     24555     24562     24558
     24558     24561     24563     24564     24558     24561     24563     24565
     24558     24561     24563     24566     24559     24558     24561     24563
     24560     24558     24561     24563     24561     24563     24566     24567
     24561     24563     24566     24568     24561     24563     24566     24574
     24562     24558     24561     24563     24563     24566     24568     24569
     24563     24566     24574     24575     24563     24566     24574     24576
     24563     24566     24574     24577     24564     24563     24566     24567
     24564     24563     24566     24568     24564     24563     24566     24574
     24565     24563     24566     24567     24565     24563     24566     24568
     24565     24563     24566     24574     24566     24568     24569     24570
     24566     24568     24569     24571     24566     24574     24577     24578
     24567     24566     24568     24569     24567     24566     24574     24575
     24567     24566     24574     24576     24567     24566     24574     24577
     24568     24566     24574     24575     24568     24566     24574     24576
     24568     24566     24574     24577     24568     24569     24571     24572
     24568     24569     24571     24573     24568     24569     24571     24583
     24569     24568     24566     24574     24569     24571     24583     24584
     24569     24571     24583     24585     24569     24571     24583     24586
     24570     24569     24571     24572     24570     24569     24571     24573
     24570     24569     24571     24583     24571     24583     24586     24587
     24571     24583     24586     24588     24571     24583     24586     24589
     24572     24571     24583     24584     24572     24571     24583     24585
     24572     24571     24583     24586     24573     24571     24583     24584
     24573     24571     24583     24585     24573     24571     24583     24586
     24574     24577     24578     24579     24574     24577     24578     24580
     24575     24574     24577     24578     24576     24574     24577     24578
     24577     24578     24580     24581     24577     24578     24580     24582
     24577     24578     24580     24630     24578     24580     24630     24631
     24578     24580     24630     24632     24578     24580     24630     24633
     24579     24578     24580     24581     24579     24578     24580     24582
     24579     24578     24580     24630     24580     24630     24633     24634
     24580     24630     24633     24635     24580     24630     24633     24636
     24581     24580     24630     24631     24581     24580     24630     24632
     24581     24580     24630     24633     24582     24580     24630     24631
     24582     24580     24630     24632     24582     24580     24630     24633
     24583     24586     24589     24590     24583     24586     24589     24591
     24583     24586     24589     24592     24584     24583     24586     24587
     24584     24583     24586     24588     24584     24583     24586     24589
     24585     24583     24586     24587     24585     24583     24586     24588
     24585     24583     24586     24589     24586     24589     24592     24593
     24586     24589     24592     24594     24586     24589     24592     24595
     24587     24586     24589     24590     24587     24586     24589     24591
     24587     24586     24589     24592     24588     24586     24589     24590
     24588     24586     24589     24591     24588     24586     24589     24592
     24589     24592     24595     24596     24589     24592     24595     24597
     24589     24592     24595     24598     24590     24589     24592     24593
     24590     24589     24592     24594     24590     24589     24592     24595
     24591     24589     24592     24593     24591     24589     24592     24594
     24591     24589     24592     24595     24592     24595     24598     24599
     24592     24595     24598     24600     24592     24595     24598     24601
     24593     24592     24595     24596     24593     24592     24595     24597
     24593     24592     24595     24598     24594     24592     24595     24596
     24594     24592     24595     24597     24594     24592     24595     24598
     24595     24598     24601     24602     24595     24598     24601     24603
     24596     24595     24598     24599     24596     24595     24598     24600
     24596     24595     24598     24601     24597     24595     24598     24599
     24597     24595     24598     24600     24597     24595     24598     24601
     24598     24601     24603     24604     24598     24601     24603     24605
     24599     24598     24601     24602     24599     24598     24601     24603
     24600     24598     24601     24602     24600     24598     24601     24603
     24601     24603     24605     24606     24601     24603     24605     24607
     24601     24603     24605     24608     24602     24601     24603     24604
     24602     24601     24603     24605     24603     24605     24608     24609
     24603     24605     24608     24610     24603     24605     24608     24611
     24604     24603     24605     24606     24604     24603     24605     24607
     24604     24603     24605     24608     24605     24608     24611     24612
     24605     24608     24611     24613     24605     24608     24611     24614
     24606     24605     24608     24609     24606     24605     24608     24610
     24606     24605     24608     24611     24607     24605     24608     24609
     24607     24605     24608     24610     24607     24605     24608     24611
     24608     24611     24614     24615     24608     24611     24614     24616
     24608     24611     24614     24617     24609     24608     24611     24612
     24609     24608     24611     24613     24609     24608     24611     24614
     24610     24608     24611     24612     24610     24608     24611     24613
     24610     24608     24611     24614     24611     24614     24617     24618
     24611     24614     24617     24619     24611     24614     24617     24620
     24612     24611     24614     24615     24612     24611     24614     24616
     24612     24611     24614     24617     24613     24611     24614     24615
     24613     24611     24614     24616     24613     24611     24614     24617
     24614     24617     24620     24621     24614     24617     24620     24622
     24614     24617     24620     24623     24615     24614     24617     24618
     24615     24614     24617     24619     24615     24614     24617     24620
     24616     24614     24617     24618     24616     24614     24617     24619
     24616     24614     24617     24620     24617     24620     24623     24624
     24617     24620     24623     24625     24617     24620     24623     24626
     24618     24617     24620     24621     24618     24617     24620     24622
     24618     24617     24620     24623     24619     24617     24620     24621
     24619     24617     24620     24622     24619     24617     24620     24623
     24620     24623     24626     24627     24620     24623     24626     24628
     24620     24623     24626     24629     24621     24620     24623     24624
     24621     24620     24623     24625     24621     24620     24623     24626
     24622     24620     24623     24624     24622     24620     24623     24625
     24622     24620     24623     24626     24624     24623     24626     24627
     24624     24623     24626     24628     24624     24623     24626     24629
     24625     24623     24626     24627     24625     24623     24626     24628
     24625     24623     24626     24629     24630     24633     24636     24637
     24630     24633     24636     24638     24630     24633     24636     24639
     24631     24630     24633     24634     24631     24630     24633     24635
     24631     24630     24633     24636     24632     24630     24633     24634
     24632     24630     24633     24635     24632     24630     24633     24636
     24633     24636     24639     24640     24633     24636     24639     24641
     24633     24636     24639     24642     24634     24633     24636     24637
     24634     24633     24636     24638     24634     24633     24636     24639
     24635     24633     24636     24637     24635     24633     24636     24638
     24635     24633     24636     24639     24636     24639     24642     24643
     24636     24639     24642     24644     24636     24639     24642     24645
     24637     24636     24639     24640     24637     24636     24639     24641
     24637     24636     24639     24642     24638     24636     24639     24640
     24638     24636     24639     24641     24638     24636     24639     24642
     24639     24642     24645     24646     24639     24642     24645     24647
     24639     24642     24645     24648     24640     24639     24642     24643
     24640     24639     24642     24644     24640     24639     24642     24645
     24641     24639     24642     24643     24641     24639     24642     24644
     24641     24639     24642     24645     24642     24645     24648     24649
     24642     24645     24648     24650     24642     24645     24648     24651
     24643     24642     24645     24646     24643     24642     24645     24647
     24643     24642     24645     24648     24644     24642     24645     24646
     24644     24642     24645     24647     24644     24642     24645     24648
     24645     24648     24651     24652     24645     24648     24651     24653
     24645     24648     24651     24654     24646     24645     24648     24649
     24646     24645     24648     24650     24646     24645     24648     24651
     24647     24645     24648     24649     24647     24645     24648     24650
     24647     24645     24648     24651     24648     24651     24654     24655
     24648     24651     24654     24656     24648     24651     24654     24657
     24649     24648     24651     24652     24649     24648     24651     24653
     24649     24648     24651     24654     24650     24648     24651     24652
     24650     24648     24651     24653     24650     24648     24651     24654
     24651     24654     24657     24658     24651     24654     24657     24659
     24651     24654     24657     24660     24652     24651     24654     24655
     24652     24651     24654     24656     24652     24651     24654     24657
     24653     24651     24654     24655     24653     24651     24654     24656
     24653     24651     24654     24657     24654     24657     24660     24661
     24654     24657     24660     24662     24654     24657     24660     24663
     24655     24654     24657     24658     24655     24654     24657     24659
     24655     24654     24657     24660     24656     24654     24657     24658
     24656     24654     24657     24659     24656     24654     24657     24660
     24657     24660     24663     24664     24657     24660     24663     24665
     24657     24660     24663     24666     24658     24657     24660     24661
     24658     24657     24660     24662     24658     24657     24660     24663
     24659     24657     24660     24661     24659     24657     24660     24662
     24659     24657     24660     24663     24660     24663     24666     24667
     24660     24663     24666     24668     24660     24663     24666     24669
     24661     24660     24663     24664     24661     24660     24663     24665
     24661     24660     24663     24666     24662     24660     24663     24664
     24662     24660     24663     24665     24662     24660     24663     24666
     24663     24666     24669     24670     24663     24666     24669     24671
     24663     24666     24669     24672     24664     24663     24666     24667
     24664     24663     24666     24668     24664     24663     24666     24669
     24665     24663     24666     24667     24665     24663     24666     24668
     24665     24663     24666     24669     24667     24666     24669     24670
     24667     24666     24669     24671     24667     24666     24669     24672
     24668     24666     24669     24670     24668     24666     24669     24671
     24668     24666     24669     24672     24673     24677     24680     24681
     24673     24677     24680     24682     24673     24677     24680     24687
     24674     24673     24677     24678     24674     24673     24677     24679
     24674     24673     24677     24680     24675     24673     24677     24678
     24675     24673     24677     24679     24675     24673     24677     24680
     24676     24673     24677     24678     24676     24673     24677     24679
     24676     24673     24677     24680     24677     24680     24687     24683
     24678     24677     24680     24681     24678     24677     24680     24682
     24678     24677     24680     24687     24679     24677     24680     24681
     24679     24677     24680     24682     24679     24677     24680     24687
     24680     24687     24683     24684     24680     24687     24683     24685
     24680     24687     24683     24686     24681     24680     24687     24683
     24682     24680     24687     24683     24683     24686     24688     24689
     24683     24686     24688     24690     24683     24686     24688     24691
     24684     24683     24686     24688     24685     24683     24686     24688
     24686     24688     24691     24692     24686     24688     24691     24693
     24686     24688     24691     24699     24687     24683     24686     24688
     24688     24691     24693     24694     24688     24691     24699     24700
     24688     24691     24699     24701     24688     24691     24699     24702
     24689     24688     24691     24692     24689     24688     24691     24693
     24689     24688     24691     24699     24690     24688     24691     24692
     24690     24688     24691     24693     24690     24688     24691     24699
     24691     24693     24694     24695     24691     24693     24694     24696
     24691     24699     24702     24703     24692     24691     24693     24694
     24692     24691     24699     24700     24692     24691     24699     24701
     24692     24691     24699     24702     24693     24691     24699     24700
     24693     24691     24699     24701     24693     24691     24699     24702
     24693     24694     24696     24697     24693     24694     24696     24698
     24693     24694     24696     24708     24694     24693     24691     24699
     24694     24696     24708     24709     24694     24696     24708     24710
     24694     24696     24708     24711     24695     24694     24696     24697
     24695     24694     24696     24698     24695     24694     24696     24708
     24696     24708     24711     24712     24696     24708     24711     24713
     24696     24708     24711     24714     24697     24696     24708     24709
     24697     24696     24708     24710     24697     24696     24708     24711
     24698     24696     24708     24709     24698     24696     24708     24710
     24698     24696     24708     24711     24699     24702     24703     24704
     24699     24702     24703     24705     24700     24699     24702     24703
     24701     24699     24702     24703     24702     24703     24705     24706
     24702     24703     24705     24707     24702     24703     24705     24749
     24703     24705     24749     24750     24703     24705     24749     24751
     24703     24705     24749     24752     24704     24703     24705     24706
     24704     24703     24705     24707     24704     24703     24705     24749
     24705     24749     24752     24753     24705     24749     24752     24754
     24705     24749     24752     24755     24706     24705     24749     24750
     24706     24705     24749     24751     24706     24705     24749     24752
     24707     24705     24749     24750     24707     24705     24749     24751
     24707     24705     24749     24752     24708     24711     24714     24715
     24708     24711     24714     24716     24708     24711     24714     24717
     24709     24708     24711     24712     24709     24708     24711     24713
     24709     24708     24711     24714     24710     24708     24711     24712
     24710     24708     24711     24713     24710     24708     24711     24714
     24711     24714     24717     24718     24711     24714     24717     24719
     24711     24714     24717     24720     24712     24711     24714     24715
     24712     24711     24714     24716     24712     24711     24714     24717
     24713     24711     24714     24715     24713     24711     24714     24716
     24713     24711     24714     24717     24714     24717     24720     24721
     24714     24717     24720     24722     24714     24717     24720     24723
     24715     24714     24717     24718     24715     24714     24717     24719
     24715     24714     24717     24720     24716     24714     24717     24718
     24716     24714     24717     24719     24716     24714     24717     24720
     24717     24720     24723     24724     24717     24720     24723     24725
     24717     24720     24723     24726     24718     24717     24720     24721
     24718     24717     24720     24722     24718     24717     24720     24723
     24719     24717     24720     24721     24719     24717     24720     24722
     24719     24717     24720     24723     24720     24723     24726     24727
     24720     24723     24726     24728     24721     24720     24723     24724
     24721     24720     24723     24725     24721     24720     24723     24726
     24722     24720     24723     24724     24722     24720     24723     24725
     24722     24720     24723     24726     24723     24726     24728     24729
     24723     24726     24728     24730     24724     24723     24726     24727
     24724     24723     24726     24728     24725     24723     24726     24727
     24725     24723     24726     24728     24726     24728     24730     24731
     24726     24728     24730     24732     24726     24728     24730     24733
     24727     24726     24728     24729     24727     24726     24728     24730
     24728     24730     24733     24734     24728     24730     24733     24735
     24728     24730     24733     24736     24729     24728     24730     24731
     24729     24728     24730     24732     24729     24728     24730     24733
     24730     24733     24736     24737     24730     24733     24736     24738
     24730     24733     24736     24739     24731     24730     24733     24734
     24731     24730     24733     24735     24731     24730     24733     24736
     24732     24730     24733     24734     24732     24730     24733     24735
     24732     24730     24733     24736     24733     24736     24739     24740
     24733     24736     24739     24741     24733     24736     24739     24742
     24734     24733     24736     24737     24734     24733     24736     24738
     24734     24733     24736     24739     24735     24733     24736     24737
     24735     24733     24736     24738     24735     24733     24736     24739
     24736     24739     24742     24743     24736     24739     24742     24744
     24736     24739     24742     24745     24737     24736     24739     24740
     24737     24736     24739     24741     24737     24736     24739     24742
     24738     24736     24739     24740     24738     24736     24739     24741
     24738     24736     24739     24742     24739     24742     24745     24746
     24739     24742     24745     24747     24739     24742     24745     24748
     24740     24739     24742     24743     24740     24739     24742     24744
     24740     24739     24742     24745     24741     24739     24742     24743
     24741     24739     24742     24744     24741     24739     24742     24745
     24743     24742     24745     24746     24743     24742     24745     24747
     24743     24742     24745     24748     24744     24742     24745     24746
     24744     24742     24745     24747     24744     24742     24745     24748
     24749     24752     24755     24756     24749     24752     24755     24757
     24749     24752     24755     24758     24750     24749     24752     24753
     24750     24749     24752     24754     24750     24749     24752     24755
     24751     24749     24752     24753     24751     24749     24752     24754
     24751     24749     24752     24755     24752     24755     24758     24759
     24752     24755     24758     24760     24752     24755     24758     24761
     24753     24752     24755     24756     24753     24752     24755     24757
     24753     24752     24755     24758     24754     24752     24755     24756
     24754     24752     24755     24757     24754     24752     24755     24758
     24755     24758     24761     24762     24755     24758     24761     24763
     24755     24758     24761     24764     24756     24755     24758     24759
     24756     24755     24758     24760     24756     24755     24758     24761
     24757     24755     24758     24759     24757     24755     24758     24760
     24757     24755     24758     24761     24758     24761     24764     24765
     24758     24761     24764     24766     24758     24761     24764     24767
     24759     24758     24761     24762     24759     24758     24761     24763
     24759     24758     24761     24764     24760     24758     24761     24762
     24760     24758     24761     24763     24760     24758     24761     24764
     24761     24764     24767     24768     24761     24764     24767     24769
     24762     24761     24764     24765     24762     24761     24764     24766
     24762     24761     24764     24767     24763     24761     24764     24765
     24763     24761     24764     24766     24763     24761     24764     24767
     24764     24767     24769     24770     24764     24767     24769     24771
     24765     24764     24767     24768     24765     24764     24767     24769
     24766     24764     24767     24768     24766     24764     24767     24769
     24767     24769     24771     24772     24767     24769     24771     24773
     24767     24769     24771     24774     24768     24767     24769     24770
     24768     24767     24769     24771     24769     24771     24774     24775
     24769     24771     24774     24776     24769     24771     24774     24777
     24770     24769     24771     24772     24770     24769     24771     24773
     24770     24769     24771     24774     24771     24774     24777     24778
     24771     24774     24777     24779     24771     24774     24777     24780
     24772     24771     24774     24775     24772     24771     24774     24776
     24772     24771     24774     24777     24773     24771     24774     24775
     24773     24771     24774     24776     24773     24771     24774     24777
     24774     24777     24780     24781     24774     24777     24780     24782
     24774     24777     24780     24783     24775     24774     24777     24778
     24775     24774     24777     24779     24775     24774     24777     24780
     24776     24774     24777     24778     24776     24774     24777     24779
     24776     24774     24777     24780     24777     24780     24783     24784
     24777     24780     24783     24785     24777     24780     24783     24786
     24778     24777     24780     24781     24778     24777     24780     24782
     24778     24777     24780     24783     24779     24777     24780     24781
     24779     24777     24780     24782     24779     24777     24780     24783
     24780     24783     24786     24787     24780     24783     24786     24788
     24780     24783     24786     24789     24781     24780     24783     24784
     24781     24780     24783     24785     24781     24780     24783     24786
     24782     24780     24783     24784     24782     24780     24783     24785
     24782     24780     24783     24786     24783     24786     24789     24790
     24783     24786     24789     24791     24783     24786     24789     24792
     24784     24783     24786     24787     24784     24783     24786     24788
     24784     24783     24786     24789     24785     24783     24786     24787
     24785     24783     24786     24788     24785     24783     24786     24789
     24786     24789     24792     24793     24786     24789     24792     24794
     24786     24789     24792     24795     24787     24786     24789     24790
     24787     24786     24789     24791     24787     24786     24789     24792
     24788     24786     24789     24790     24788     24786     24789     24791
     24788     24786     24789     24792     24790     24789     24792     24793
     24790     24789     24792     24794     24790     24789     24792     24795
     24791     24789     24792     24793     24791     24789     24792     24794
     24791     24789     24792     24795     24796     24801     24803     24804
     24796     24801     24805     24806     24796     24801     24805     24807
     24796     24801     24805     24812     24797     24796     24799     24800
     24797     24796     24801     24802     24797     24796     24801     24803
     24797     24796     24801     24805     24798     24796     24799     24800
     24798     24796     24801     24802     24798     24796     24801     24803
     24798     24796     24801     24805     24799     24796     24801     24802
     24799     24796     24801     24803     24799     24796     24801     24805
     24800     24799     24796     24801     24801     24805     24812     24808
     24802     24801     24803     24804     24802     24801     24805     24806
     24802     24801     24805     24807     24802     24801     24805     24812
     24803     24801     24805     24806     24803     24801     24805     24807
     24803     24801     24805     24812     24804     24803     24801     24805
     24805     24812     24808     24809     24805     24812     24808     24810
     24805     24812     24808     24811     24806     24805     24812     24808
     24807     24805     24812     24808     24808     24811     24813     24814
     24808     24811     24813     24815     24808     24811     24813     24816
     24809     24808     24811     24813     24810     24808     24811     24813
     24811     24813     24816     24817     24811     24813     24816     24818
     24811     24813     24816     24824     24812     24808     24811     24813
     24813     24816     24818     24819     24813     24816     24824     24825
     24813     24816     24824     24826     24813     24816     24824     24827
     24814     24813     24816     24817     24814     24813     24816     24818
     24814     24813     24816     24824     24815     24813     24816     24817
     24815     24813     24816     24818     24815     24813     24816     24824
     24816     24818     24819     24820     24816     24818     24819     24821
     24816     24824     24827     24828     24817     24816     24818     24819
     24817     24816     24824     24825     24817     24816     24824     24826
     24817     24816     24824     24827     24818     24816     24824     24825
     24818     24816     24824     24826     24818     24816     24824     24827
     24818     24819     24821     24822     24818     24819     24821     24823
     24818     24819     24821     24833     24819     24818     24816     24824
     24819     24821     24833     24834     24819     24821     24833     24835
     24819     24821     24833     24836     24820     24819     24821     24822
     24820     24819     24821     24823     24820     24819     24821     24833
     24821     24833     24836     24837     24821     24833     24836     24838
     24821     24833     24836     24839     24822     24821     24833     24834
     24822     24821     24833     24835     24822     24821     24833     24836
     24823     24821     24833     24834     24823     24821     24833     24835
     24823     24821     24833     24836     24824     24827     24828     24829
     24824     24827     24828     24830     24825     24824     24827     24828
     24826     24824     24827     24828     24827     24828     24830     24831
     24827     24828     24830     24832     24827     24828     24830     24874
     24828     24830     24874     24875     24828     24830     24874     24876
     24828     24830     24874     24877     24829     24828     24830     24831
     24829     24828     24830     24832     24829     24828     24830     24874
     24830     24874     24877     24878     24830     24874     24877     24879
     24830     24874     24877     24880     24831     24830     24874     24875
     24831     24830     24874     24876     24831     24830     24874     24877
     24832     24830     24874     24875     24832     24830     24874     24876
     24832     24830     24874     24877     24833     24836     24839     24840
     24833     24836     24839     24841     24833     24836     24839     24842
     24834     24833     24836     24837     24834     24833     24836     24838
     24834     24833     24836     24839     24835     24833     24836     24837
     24835     24833     24836     24838     24835     24833     24836     24839
     24836     24839     24842     24843     24836     24839     24842     24844
     24836     24839     24842     24845     24837     24836     24839     24840
     24837     24836     24839     24841     24837     24836     24839     24842
     24838     24836     24839     24840     24838     24836     24839     24841
     24838     24836     24839     24842     24839     24842     24845     24846
     24839     24842     24845     24847     24839     24842     24845     24848
     24840     24839     24842     24843     24840     24839     24842     24844
     24840     24839     24842     24845     24841     24839     24842     24843
     24841     24839     24842     24844     24841     24839     24842     24845
     24842     24845     24848     24849     24842     24845     24848     24850
     24842     24845     24848     24851     24843     24842     24845     24846
     24843     24842     24845     24847     24843     24842     24845     24848
     24844     24842     24845     24846     24844     24842     24845     24847
     24844     24842     24845     24848     24845     24848     24851     24852
     24845     24848     24851     24853     24846     24845     24848     24849
     24846     24845     24848     24850     24846     24845     24848     24851
     24847     24845     24848     24849     24847     24845     24848     24850
     24847     24845     24848     24851     24848     24851     24853     24854
     24848     24851     24853     24855     24849     24848     24851     24852
     24849     24848     24851     24853     24850     24848     24851     24852
     24850     24848     24851     24853     24851     24853     24855     24856
     24851     24853     24855     24857     24851     24853     24855     24858
     24852     24851     24853     24854     24852     24851     24853     24855
     24853     24855     24858     24859     24853     24855     24858     24860
     24853     24855     24858     24861     24854     24853     24855     24856
     24854     24853     24855     24857     24854     24853     24855     24858
     24855     24858     24861     24862     24855     24858     24861     24863
     24855     24858     24861     24864     24856     24855     24858     24859
     24856     24855     24858     24860     24856     24855     24858     24861
     24857     24855     24858     24859     24857     24855     24858     24860
     24857     24855     24858     24861     24858     24861     24864     24865
     24858     24861     24864     24866     24858     24861     24864     24867
     24859     24858     24861     24862     24859     24858     24861     24863
     24859     24858     24861     24864     24860     24858     24861     24862
     24860     24858     24861     24863     24860     24858     24861     24864
     24861     24864     24867     24868     24861     24864     24867     24869
     24861     24864     24867     24870     24862     24861     24864     24865
     24862     24861     24864     24866     24862     24861     24864     24867
     24863     24861     24864     24865     24863     24861     24864     24866
     24863     24861     24864     24867     24864     24867     24870     24871
     24864     24867     24870     24872     24864     24867     24870     24873
     24865     24864     24867     24868     24865     24864     24867     24869
     24865     24864     24867     24870     24866     24864     24867     24868
     24866     24864     24867     24869     24866     24864     24867     24870
     24868     24867     24870     24871     24868     24867     24870     24872
     24868     24867     24870     24873     24869     24867     24870     24871
     24869     24867     24870     24872     24869     24867     24870     24873
     24874     24877     24880     24881     24874     24877     24880     24882
     24874     24877     24880     24883     24875     24874     24877     24878
     24875     24874     24877     24879     24875     24874     24877     24880
     24876     24874     24877     24878     24876     24874     24877     24879
     24876     24874     24877     24880     24877     24880     24883     24884
     24877     24880     24883     24885     24877     24880     24883     24886
     24878     24877     24880     24881     24878     24877     24880     24882
     24878     24877     24880     24883     24879     24877     24880     24881
     24879     24877     24880     24882     24879     24877     24880     24883
     24880     24883     24886     24887     24880     24883     24886     24888
     24880     24883     24886     24889     24881     24880     24883     24884
     24881     24880     24883     24885     24881     24880     24883     24886
     24882     24880     24883     24884     24882     24880     24883     24885
     24882     24880     24883     24886     24883     24886     24889     24890
     24883     24886     24889     24891     24883     24886     24889     24892
     24884     24883     24886     24887     24884     24883     24886     24888
     24884     24883     24886     24889     24885     24883     24886     24887
     24885     24883     24886     24888     24885     24883     24886     24889
     24886     24889     24892     24893     24886     24889     24892     24894
     24886     24889     24892     24895     24887     24886     24889     24890
     24887     24886     24889     24891     24887     24886     24889     24892
     24888     24886     24889     24890     24888     24886     24889     24891
     24888     24886     24889     24892     24889     24892     24895     24896
     24889     24892     24895     24897     24889     24892     24895     24898
     24890     24889     24892     24893     24890     24889     24892     24894
     24890     24889     24892     24895     24891     24889     24892     24893
     24891     24889     24892     24894     24891     24889     24892     24895
     24892     24895     24898     24899     24892     24895     24898     24900
     24892     24895     24898     24901     24893     24892     24895     24896
     24893     24892     24895     24897     24893     24892     24895     24898
     24894     24892     24895     24896     24894     24892     24895     24897
     24894     24892     24895     24898     24895     24898     24901     24902
     24895     24898     24901     24903     24895     24898     24901     24904
     24896     24895     24898     24899     24896     24895     24898     24900
     24896     24895     24898     24901     24897     24895     24898     24899
     24897     24895     24898     24900     24897     24895     24898     24901
     24898     24901     24904     24905     24898     24901     24904     24906
     24898     24901     24904     24907     24899     24898     24901     24902
     24899     24898     24901     24903     24899     24898     24901     24904
     24900     24898     24901     24902     24900     24898     24901     24903
     24900     24898     24901     24904     24901     24904     24907     24908
     24901     24904     24907     24909     24901     24904     24907     24910
     24902     24901     24904     24905     24902     24901     24904     24906
     24902     24901     24904     24907     24903     24901     24904     24905
     24903     24901     24904     24906     24903     24901     24904     24907
     24904     24907     24910     24911     24904     24907     24910     24912
     24904     24907     24910     24913     24905     24904     24907     24908
     24905     24904     24907     24909     24905     24904     24907     24910
     24906     24904     24907     24908     24906     24904     24907     24909
     24906     24904     24907     24910     24907     24910     24913     24914
     24907     24910     24913     24915     24907     24910     24913     24916
     24908     24907     24910     24911     24908     24907     24910     24912
     24908     24907     24910     24913     24909     24907     24910     24911
     24909     24907     24910     24912     24909     24907     24910     24913
     24911     24910     24913     24914     24911     24910     24913     24915
     24911     24910     24913     24916     24912     24910     24913     24914
     24912     24910     24913     24915     24912     24910     24913     24916
     24917     24922     24924     24925     24917     24922     24926     24927
     24917     24922     24926     24928     24917     24922     24926     24933
     24918     24917     24920     24921     24918     24917     24922     24923
     24918     24917     24922     24924     24918     24917     24922     24926
     24919     24917     24920     24921     24919     24917     24922     24923
     24919     24917     24922     24924     24919     24917     24922     24926
     24920     24917     24922     24923     24920     24917     24922     24924
     24920     24917     24922     24926     24921     24920     24917     24922
     24922     24926     24933     24929     24923     24922     24924     24925
     24923     24922     24926     24927     24923     24922     24926     24928
     24923     24922     24926     24933     24924     24922     24926     24927
     24924     24922     24926     24928     24924     24922     24926     24933
     24925     24924     24922     24926     24926     24933     24929     24930
     24926     24933     24929     24931     24926     24933     24929     24932
     24927     24926     24933     24929     24928     24926     24933     24929
     24929     24932     24934     24935     24929     24932     24934     24936
     24929     24932     24934     24937     24930     24929     24932     24934
     24931     24929     24932     24934     24932     24934     24937     24938
     24932     24934     24937     24939     24932     24934     24937     24945
     24933     24929     24932     24934     24934     24937     24939     24940
     24934     24937     24945     24946     24934     24937     24945     24947
     24934     24937     24945     24948     24935     24934     24937     24938
     24935     24934     24937     24939     24935     24934     24937     24945
     24936     24934     24937     24938     24936     24934     24937     24939
     24936     24934     24937     24945     24937     24939     24940     24941
     24937     24939     24940     24942     24937     24945     24948     24949
     24938     24937     24939     24940     24938     24937     24945     24946
     24938     24937     24945     24947     24938     24937     24945     24948
     24939     24937     24945     24946     24939     24937     24945     24947
     24939     24937     24945     24948     24939     24940     24942     24943
     24939     24940     24942     24944     24939     24940     24942     24954
     24940     24939     24937     24945     24940     24942     24954     24955
     24940     24942     24954     24956     24940     24942     24954     24957
     24941     24940     24942     24943     24941     24940     24942     24944
     24941     24940     24942     24954     24942     24954     24957     24958
     24942     24954     24957     24959     24942     24954     24957     24960
     24943     24942     24954     24955     24943     24942     24954     24956
     24943     24942     24954     24957     24944     24942     24954     24955
     24944     24942     24954     24956     24944     24942     24954     24957
     24945     24948     24949     24950     24945     24948     24949     24951
     24946     24945     24948     24949     24947     24945     24948     24949
     24948     24949     24951     24952     24948     24949     24951     24953
     24948     24949     24951     24998     24949     24951     24998     24999
     24949     24951     24998     25000     24949     24951     24998     25001
     24950     24949     24951     24952     24950     24949     24951     24953
     24950     24949     24951     24998     24951     24998     25001     25002
     24951     24998     25001     25003     24951     24998     25001     25004
     24952     24951     24998     24999     24952     24951     24998     25000
     24952     24951     24998     25001     24953     24951     24998     24999
     24953     24951     24998     25000     24953     24951     24998     25001
     24954     24957     24960     24961     24954     24957     24960     24962
     24954     24957     24960     24963     24955     24954     24957     24958
     24955     24954     24957     24959     24955     24954     24957     24960
     24956     24954     24957     24958     24956     24954     24957     24959
     24956     24954     24957     24960     24957     24960     24963     24964
     24957     24960     24963     24965     24957     24960     24963     24966
     24958     24957     24960     24961     24958     24957     24960     24962
     24958     24957     24960     24963     24959     24957     24960     24961
     24959     24957     24960     24962     24959     24957     24960     24963
     24960     24963     24966     24967     24960     24963     24966     24968
     24960     24963     24966     24969     24961     24960     24963     24964
     24961     24960     24963     24965     24961     24960     24963     24966
     24962     24960     24963     24964     24962     24960     24963     24965
     24962     24960     24963     24966     24963     24966     24969     24970
     24963     24966     24969     24971     24963     24966     24969     24972
     24964     24963     24966     24967     24964     24963     24966     24968
     24964     24963     24966     24969     24965     24963     24966     24967
     24965     24963     24966     24968     24965     24963     24966     24969
     24966     24969     24972     24973     24966     24969     24972     24974
     24966     24969     24972     24977     24967     24966     24969     24970
     24967     24966     24969     24971     24967     24966     24969     24972
     24968     24966     24969     24970     24968     24966     24969     24971
     24968     24966     24969     24972     24969     24972     24974     24975
     24969     24972     24974     24976     24969     24972     24974     24977
     24969     24972     24977     24974     24969     24972     24977     24978
     24969     24972     24977     24979     24970     24969     24972     24973
     24970     24969     24972     24974     24970     24969     24972     24977
     24971     24969     24972     24973     24971     24969     24972     24974
     24971     24969     24972     24977     24972     24974     24977     24978
     24972     24974     24977     24979     24972     24977     24974     24975
     24972     24977     24974     24976     24972     24977     24979     24980
     24972     24977     24979     24981     24972     24977     24979     24982
     24973     24972     24974     24975     24973     24972     24974     24976
     24973     24972     24974     24977     24973     24972     24977     24974
     24973     24972     24977     24978     24973     24972     24977     24979
     24974     24972     24977     24978     24974     24972     24977     24979
     24974     24977     24979     24980     24974     24977     24979     24981
     24974     24977     24979     24982     24975     24974     24972     24977
     24975     24974     24977     24978     24975     24974     24977     24979
     24976     24974     24972     24977     24976     24974     24977     24978
     24976     24974     24977     24979     24977     24979     24982     24983
     24977     24979     24982     24984     24977     24979     24982     24985
     24978     24977     24979     24980     24978     24977     24979     24981
     24978     24977     24979     24982     24979     24982     24985     24986
     24979     24982     24985     24987     24979     24982     24985     24988
     24980     24979     24982     24983     24980     24979     24982     24984
     24980     24979     24982     24985     24981     24979     24982     24983
     24981     24979     24982     24984     24981     24979     24982     24985
     24982     24985     24988     24989     24982     24985     24988     24990
     24982     24985     24988     24991     24983     24982     24985     24986
     24983     24982     24985     24987     24983     24982     24985     24988
     24984     24982     24985     24986     24984     24982     24985     24987
     24984     24982     24985     24988     24985     24988     24991     24992
     24985     24988     24991     24993     24985     24988     24991     24994
     24986     24985     24988     24989     24986     24985     24988     24990
     24986     24985     24988     24991     24987     24985     24988     24989
     24987     24985     24988     24990     24987     24985     24988     24991
     24988     24991     24994     24995     24988     24991     24994     24996
     24988     24991     24994     24997     24989     24988     24991     24992
     24989     24988     24991     24993     24989     24988     24991     24994
     24990     24988     24991     24992     24990     24988     24991     24993
     24990     24988     24991     24994     24992     24991     24994     24995
     24992     24991     24994     24996     24992     24991     24994     24997
     24993     24991     24994     24995     24993     24991     24994     24996
     24993     24991     24994     24997     24998     25001     25004     25005
     24998     25001     25004     25006     24998     25001     25004     25007
     24999     24998     25001     25002     24999     24998     25001     25003
     24999     24998     25001     25004     25000     24998     25001     25002
     25000     24998     25001     25003     25000     24998     25001     25004
     25001     25004     25007     25008     25001     25004     25007     25009
     25001     25004     25007     25010     25002     25001     25004     25005
     25002     25001     25004     25006     25002     25001     25004     25007
     25003     25001     25004     25005     25003     25001     25004     25006
     25003     25001     25004     25007     25004     25007     25010     25011
     25004     25007     25010     25012     25004     25007     25010     25013
     25005     25004     25007     25008     25005     25004     25007     25009
     25005     25004     25007     25010     25006     25004     25007     25008
     25006     25004     25007     25009     25006     25004     25007     25010
     25007     25010     25013     25014     25007     25010     25013     25015
     25007     25010     25013     25016     25008     25007     25010     25011
     25008     25007     25010     25012     25008     25007     25010     25013
     25009     25007     25010     25011     25009     25007     25010     25012
     25009     25007     25010     25013     25010     25013     25016     25017
     25010     25013     25016     25018     25010     25013     25016     25019
     25011     25010     25013     25014     25011     25010     25013     25015
     25011     25010     25013     25016     25012     25010     25013     25014
     25012     25010     25013     25015     25012     25010     25013     25016
     25013     25016     25019     25020     25013     25016     25019     25021
     25013     25016     25019     25022     25014     25013     25016     25017
     25014     25013     25016     25018     25014     25013     25016     25019
     25015     25013     25016     25017     25015     25013     25016     25018
     25015     25013     25016     25019     25016     25019     25022     25023
     25016     25019     25022     25024     25016     25019     25022     25025
     25017     25016     25019     25020     25017     25016     25019     25021
     25017     25016     25019     25022     25018     25016     25019     25020
     25018     25016     25019     25021     25018     25016     25019     25022
     25019     25022     25025     25026     25019     25022     25025     25027
     25019     25022     25025     25028     25020     25019     25022     25023
     25020     25019     25022     25024     25020     25019     25022     25025
     25021     25019     25022     25023     25021     25019     25022     25024
     25021     25019     25022     25025     25022     25025     25028     25029
     25022     25025     25028     25030     25022     25025     25028     25031
     25023     25022     25025     25026     25023     25022     25025     25027
     25023     25022     25025     25028     25024     25022     25025     25026
     25024     25022     25025     25027     25024     25022     25025     25028
     25025     25028     25031     25032     25025     25028     25031     25033
     25025     25028     25031     25034     25026     25025     25028     25029
     25026     25025     25028     25030     25026     25025     25028     25031
     25027     25025     25028     25029     25027     25025     25028     25030
     25027     25025     25028     25031     25028     25031     25034     25035
     25028     25031     25034     25036     25028     25031     25034     25037
     25029     25028     25031     25032     25029     25028     25031     25033
     25029     25028     25031     25034     25030     25028     25031     25032
     25030     25028     25031     25033     25030     25028     25031     25034
     25031     25034     25037     25038     25031     25034     25037     25039
     25031     25034     25037     25040     25032     25031     25034     25035
     25032     25031     25034     25036     25032     25031     25034     25037
     25033     25031     25034     25035     25033     25031     25034     25036
     25033     25031     25034     25037     25035     25034     25037     25038
     25035     25034     25037     25039     25035     25034     25037     25040
     25036     25034     25037     25038     25036     25034     25037     25039
     25036     25034     25037     25040     25041     25045     25048     25049
     25041     25045     25048     25050     25041     25045     25048     25055
     25042     25041     25045     25046     25042     25041     25045     25047
     25042     25041     25045     25048     25043     25041     25045     25046
     25043     25041     25045     25047     25043     25041     25045     25048
     25044     25041     25045     25046     25044     25041     25045     25047
     25044     25041     25045     25048     25045     25048     25055     25051
     25046     25045     25048     25049     25046     25045     25048     25050
     25046     25045     25048     25055     25047     25045     25048     25049
     25047     25045     25048     25050     25047     25045     25048     25055
     25048     25055     25051     25052     25048     25055     25051     25053
     25048     25055     25051     25054     25049     25048     25055     25051
     25050     25048     25055     25051     25051     25054     25056     25057
     25051     25054     25056     25058     25051     25054     25056     25059
     25052     25051     25054     25056     25053     25051     25054     25056
     25054     25056     25059     25060     25054     25056     25059     25061
     25054     25056     25059     25067     25055     25051     25054     25056
     25056     25059     25061     25062     25056     25059     25067     25068
     25056     25059     25067     25069     25056     25059     25067     25070
     25057     25056     25059     25060     25057     25056     25059     25061
     25057     25056     25059     25067     25058     25056     25059     25060
     25058     25056     25059     25061     25058     25056     25059     25067
     25059     25061     25062     25063     25059     25061     25062     25064
     25059     25067     25070     25071     25060     25059     25061     25062
     25060     25059     25067     25068     25060     25059     25067     25069
     25060     25059     25067     25070     25061     25059     25067     25068
     25061     25059     25067     25069     25061     25059     25067     25070
     25061     25062     25064     25065     25061     25062     25064     25066
     25061     25062     25064     25076     25062     25061     25059     25067
     25062     25064     25076     25077     25062     25064     25076     25078
     25062     25064     25076     25079     25063     25062     25064     25065
     25063     25062     25064     25066     25063     25062     25064     25076
     25064     25076     25079     25080     25064     25076     25079     25081
     25064     25076     25079     25082     25065     25064     25076     25077
     25065     25064     25076     25078     25065     25064     25076     25079
     25066     25064     25076     25077     25066     25064     25076     25078
     25066     25064     25076     25079     25067     25070     25071     25072
     25067     25070     25071     25073     25068     25067     25070     25071
     25069     25067     25070     25071     25070     25071     25073     25074
     25070     25071     25073     25075     25070     25071     25073     25117
     25071     25073     25117     25118     25071     25073     25117     25119
     25071     25073     25117     25120     25072     25071     25073     25074
     25072     25071     25073     25075     25072     25071     25073     25117
     25073     25117     25120     25121     25073     25117     25120     25122
     25073     25117     25120     25123     25074     25073     25117     25118
     25074     25073     25117     25119     25074     25073     25117     25120
     25075     25073     25117     25118     25075     25073     25117     25119
     25075     25073     25117     25120     25076     25079     25082     25083
     25076     25079     25082     25084     25076     25079     25082     25085
     25077     25076     25079     25080     25077     25076     25079     25081
     25077     25076     25079     25082     25078     25076     25079     25080
     25078     25076     25079     25081     25078     25076     25079     25082
     25079     25082     25085     25086     25079     25082     25085     25087
     25079     25082     25085     25088     25080     25079     25082     25083
     25080     25079     25082     25084     25080     25079     25082     25085
     25081     25079     25082     25083     25081     25079     25082     25084
     25081     25079     25082     25085     25082     25085     25088     25089
     25082     25085     25088     25090     25082     25085     25088     25091
     25083     25082     25085     25086     25083     25082     25085     25087
     25083     25082     25085     25088     25084     25082     25085     25086
     25084     25082     25085     25087     25084     25082     25085     25088
     25085     25088     25091     25092     25085     25088     25091     25093
     25085     25088     25091     25094     25086     25085     25088     25089
     25086     25085     25088     25090     25086     25085     25088     25091
     25087     25085     25088     25089     25087     25085     25088     25090
     25087     25085     25088     25091     25088     25091     25094     25095
     25088     25091     25094     25096     25089     25088     25091     25092
     25089     25088     25091     25093     25089     25088     25091     25094
     25090     25088     25091     25092     25090     25088     25091     25093
     25090     25088     25091     25094     25091     25094     25096     25097
     25091     25094     25096     25098     25092     25091     25094     25095
     25092     25091     25094     25096     25093     25091     25094     25095
     25093     25091     25094     25096     25094     25096     25098     25099
     25094     25096     25098     25100     25094     25096     25098     25101
     25095     25094     25096     25097     25095     25094     25096     25098
     25096     25098     25101     25102     25096     25098     25101     25103
     25096     25098     25101     25104     25097     25096     25098     25099
     25097     25096     25098     25100     25097     25096     25098     25101
     25098     25101     25104     25105     25098     25101     25104     25106
     25098     25101     25104     25107     25099     25098     25101     25102
     25099     25098     25101     25103     25099     25098     25101     25104
     25100     25098     25101     25102     25100     25098     25101     25103
     25100     25098     25101     25104     25101     25104     25107     25108
     25101     25104     25107     25109     25101     25104     25107     25110
     25102     25101     25104     25105     25102     25101     25104     25106
     25102     25101     25104     25107     25103     25101     25104     25105
     25103     25101     25104     25106     25103     25101     25104     25107
     25104     25107     25110     25111     25104     25107     25110     25112
     25104     25107     25110     25113     25105     25104     25107     25108
     25105     25104     25107     25109     25105     25104     25107     25110
     25106     25104     25107     25108     25106     25104     25107     25109
     25106     25104     25107     25110     25107     25110     25113     25114
     25107     25110     25113     25115     25107     25110     25113     25116
     25108     25107     25110     25111     25108     25107     25110     25112
     25108     25107     25110     25113     25109     25107     25110     25111
     25109     25107     25110     25112     25109     25107     25110     25113
     25111     25110     25113     25114     25111     25110     25113     25115
     25111     25110     25113     25116     25112     25110     25113     25114
     25112     25110     25113     25115     25112     25110     25113     25116
     25117     25120     25123     25124     25117     25120     25123     25125
     25117     25120     25123     25126     25118     25117     25120     25121
     25118     25117     25120     25122     25118     25117     25120     25123
     25119     25117     25120     25121     25119     25117     25120     25122
     25119     25117     25120     25123     25120     25123     25126     25127
     25120     25123     25126     25128     25120     25123     25126     25129
     25121     25120     25123     25124     25121     25120     25123     25125
     25121     25120     25123     25126     25122     25120     25123     25124
     25122     25120     25123     25125     25122     25120     25123     25126
     25123     25126     25129     25130     25123     25126     25129     25131
     25123     25126     25129     25132     25124     25123     25126     25127
     25124     25123     25126     25128     25124     25123     25126     25129
     25125     25123     25126     25127     25125     25123     25126     25128
     25125     25123     25126     25129     25126     25129     25132     25133
     25126     25129     25132     25134     25126     25129     25132     25135
     25127     25126     25129     25130     25127     25126     25129     25131
     25127     25126     25129     25132     25128     25126     25129     25130
     25128     25126     25129     25131     25128     25126     25129     25132
     25129     25132     25135     25136     25129     25132     25135     25137
     25130     25129     25132     25133     25130     25129     25132     25134
     25130     25129     25132     25135     25131     25129     25132     25133
     25131     25129     25132     25134     25131     25129     25132     25135
     25132     25135     25137     25138     25132     25135     25137     25139
     25133     25132     25135     25136     25133     25132     25135     25137
     25134     25132     25135     25136     25134     25132     25135     25137
     25135     25137     25139     25140     25135     25137     25139     25141
     25135     25137     25139     25142     25136     25135     25137     25138
     25136     25135     25137     25139     25137     25139     25142     25143
     25137     25139     25142     25144     25137     25139     25142     25145
     25138     25137     25139     25140     25138     25137     25139     25141
     25138     25137     25139     25142     25139     25142     25145     25146
     25139     25142     25145     25147     25139     25142     25145     25148
     25140     25139     25142     25143     25140     25139     25142     25144
     25140     25139     25142     25145     25141     25139     25142     25143
     25141     25139     25142     25144     25141     25139     25142     25145
     25142     25145     25148     25149     25142     25145     25148     25150
     25142     25145     25148     25151     25143     25142     25145     25146
     25143     25142     25145     25147     25143     25142     25145     25148
     25144     25142     25145     25146     25144     25142     25145     25147
     25144     25142     25145     25148     25145     25148     25151     25152
     25145     25148     25151     25153     25145     25148     25151     25154
     25146     25145     25148     25149     25146     25145     25148     25150
     25146     25145     25148     25151     25147     25145     25148     25149
     25147     25145     25148     25150     25147     25145     25148     25151
     25148     25151     25154     25155     25148     25151     25154     25156
     25148     25151     25154     25157     25149     25148     25151     25152
     25149     25148     25151     25153     25149     25148     25151     25154
     25150     25148     25151     25152     25150     25148     25151     25153
     25150     25148     25151     25154     25151     25154     25157     25158
     25151     25154     25157     25159     25151     25154     25157     25160
     25152     25151     25154     25155     25152     25151     25154     25156
     25152     25151     25154     25157     25153     25151     25154     25155
     25153     25151     25154     25156     25153     25151     25154     25157
     25154     25157     25160     25161     25154     25157     25160     25162
     25154     25157     25160     25163     25155     25154     25157     25158
     25155     25154     25157     25159     25155     25154     25157     25160
     25156     25154     25157     25158     25156     25154     25157     25159
     25156     25154     25157     25160     25158     25157     25160     25161
     25158     25157     25160     25162     25158     25157     25160     25163
     25159     25157     25160     25161     25159     25157     25160     25162
     25159     25157     25160     25163     25164     25168     25171     25172
     25164     25168     25171     25173     25164     25168     25171     25178
     25165     25164     25168     25169     25165     25164     25168     25170
     25165     25164     25168     25171     25166     25164     25168     25169
     25166     25164     25168     25170     25166     25164     25168     25171
     25167     25164     25168     25169     25167     25164     25168     25170
     25167     25164     25168     25171     25168     25171     25178     25174
     25169     25168     25171     25172     25169     25168     25171     25173
     25169     25168     25171     25178     25170     25168     25171     25172
     25170     25168     25171     25173     25170     25168     25171     25178
     25171     25178     25174     25175     25171     25178     25174     25176
     25171     25178     25174     25177     25172     25171     25178     25174
     25173     25171     25178     25174     25174     25177     25179     25180
     25174     25177     25179     25181     25174     25177     25179     25182
     25175     25174     25177     25179     25176     25174     25177     25179
     25177     25179     25182     25183     25177     25179     25182     25184
     25177     25179     25182     25190     25178     25174     25177     25179
     25179     25182     25184     25185     25179     25182     25190     25191
     25179     25182     25190     25192     25179     25182     25190     25193
     25180     25179     25182     25183     25180     25179     25182     25184
     25180     25179     25182     25190     25181     25179     25182     25183
     25181     25179     25182     25184     25181     25179     25182     25190
     25182     25184     25185     25186     25182     25184     25185     25187
     25182     25190     25193     25194     25183     25182     25184     25185
     25183     25182     25190     25191     25183     25182     25190     25192
     25183     25182     25190     25193     25184     25182     25190     25191
     25184     25182     25190     25192     25184     25182     25190     25193
     25184     25185     25187     25188     25184     25185     25187     25189
     25184     25185     25187     25199     25185     25184     25182     25190
     25185     25187     25199     25200     25185     25187     25199     25201
     25185     25187     25199     25202     25186     25185     25187     25188
     25186     25185     25187     25189     25186     25185     25187     25199
     25187     25199     25202     25203     25187     25199     25202     25204
     25187     25199     25202     25205     25188     25187     25199     25200
     25188     25187     25199     25201     25188     25187     25199     25202
     25189     25187     25199     25200     25189     25187     25199     25201
     25189     25187     25199     25202     25190     25193     25194     25195
     25190     25193     25194     25196     25191     25190     25193     25194
     25192     25190     25193     25194     25193     25194     25196     25197
     25193     25194     25196     25198     25193     25194     25196     25243
     25194     25196     25243     25244     25194     25196     25243     25245
     25194     25196     25243     25246     25195     25194     25196     25197
     25195     25194     25196     25198     25195     25194     25196     25243
     25196     25243     25246     25247     25196     25243     25246     25248
     25196     25243     25246     25249     25197     25196     25243     25244
     25197     25196     25243     25245     25197     25196     25243     25246
     25198     25196     25243     25244     25198     25196     25243     25245
     25198     25196     25243     25246     25199     25202     25205     25206
     25199     25202     25205     25207     25199     25202     25205     25208
     25200     25199     25202     25203     25200     25199     25202     25204
     25200     25199     25202     25205     25201     25199     25202     25203
     25201     25199     25202     25204     25201     25199     25202     25205
     25202     25205     25208     25209     25202     25205     25208     25210
     25202     25205     25208     25211     25203     25202     25205     25206
     25203     25202     25205     25207     25203     25202     25205     25208
     25204     25202     25205     25206     25204     25202     25205     25207
     25204     25202     25205     25208     25205     25208     25211     25212
     25205     25208     25211     25213     25205     25208     25211     25214
     25206     25205     25208     25209     25206     25205     25208     25210
     25206     25205     25208     25211     25207     25205     25208     25209
     25207     25205     25208     25210     25207     25205     25208     25211
     25208     25211     25214     25215     25208     25211     25214     25216
     25208     25211     25214     25217     25209     25208     25211     25212
     25209     25208     25211     25213     25209     25208     25211     25214
     25210     25208     25211     25212     25210     25208     25211     25213
     25210     25208     25211     25214     25211     25214     25217     25218
     25211     25214     25217     25219     25211     25214     25217     25222
     25212     25211     25214     25215     25212     25211     25214     25216
     25212     25211     25214     25217     25213     25211     25214     25215
     25213     25211     25214     25216     25213     25211     25214     25217
     25214     25217     25219     25220     25214     25217     25219     25221
     25214     25217     25219     25222     25214     25217     25222     25219
     25214     25217     25222     25223     25214     25217     25222     25224
     25215     25214     25217     25218     25215     25214     25217     25219
     25215     25214     25217     25222     25216     25214     25217     25218
     25216     25214     25217     25219     25216     25214     25217     25222
     25217     25219     25222     25223     25217     25219     25222     25224
     25217     25222     25219     25220     25217     25222     25219     25221
     25217     25222     25224     25225     25217     25222     25224     25226
     25217     25222     25224     25227     25218     25217     25219     25220
     25218     25217     25219     25221     25218     25217     25219     25222
     25218     25217     25222     25219     25218     25217     25222     25223
     25218     25217     25222     25224     25219     25217     25222     25223
     25219     25217     25222     25224     25219     25222     25224     25225
     25219     25222     25224     25226     25219     25222     25224     25227
     25220     25219     25217     25222     25220     25219     25222     25223
     25220     25219     25222     25224     25221     25219     25217     25222
     25221     25219     25222     25223     25221     25219     25222     25224
     25222     25224     25227     25228     25222     25224     25227     25229
     25222     25224     25227     25230     25223     25222     25224     25225
     25223     25222     25224     25226     25223     25222     25224     25227
     25224     25227     25230     25231     25224     25227     25230     25232
     25224     25227     25230     25233     25225     25224     25227     25228
     25225     25224     25227     25229     25225     25224     25227     25230
     25226     25224     25227     25228     25226     25224     25227     25229
     25226     25224     25227     25230     25227     25230     25233     25234
     25227     25230     25233     25235     25227     25230     25233     25236
     25228     25227     25230     25231     25228     25227     25230     25232
     25228     25227     25230     25233     25229     25227     25230     25231
     25229     25227     25230     25232     25229     25227     25230     25233
     25230     25233     25236     25237     25230     25233     25236     25238
     25230     25233     25236     25239     25231     25230     25233     25234
     25231     25230     25233     25235     25231     25230     25233     25236
     25232     25230     25233     25234     25232     25230     25233     25235
     25232     25230     25233     25236     25233     25236     25239     25240
     25233     25236     25239     25241     25233     25236     25239     25242
     25234     25233     25236     25237     25234     25233     25236     25238
     25234     25233     25236     25239     25235     25233     25236     25237
     25235     25233     25236     25238     25235     25233     25236     25239
     25237     25236     25239     25240     25237     25236     25239     25241
     25237     25236     25239     25242     25238     25236     25239     25240
     25238     25236     25239     25241     25238     25236     25239     25242
     25243     25246     25249     25250     25243     25246     25249     25251
     25243     25246     25249     25252     25244     25243     25246     25247
     25244     25243     25246     25248     25244     25243     25246     25249
     25245     25243     25246     25247     25245     25243     25246     25248
     25245     25243     25246     25249     25246     25249     25252     25253
     25246     25249     25252     25254     25246     25249     25252     25255
     25247     25246     25249     25250     25247     25246     25249     25251
     25247     25246     25249     25252     25248     25246     25249     25250
     25248     25246     25249     25251     25248     25246     25249     25252
     25249     25252     25255     25256     25249     25252     25255     25257
     25249     25252     25255     25258     25250     25249     25252     25253
     25250     25249     25252     25254     25250     25249     25252     25255
     25251     25249     25252     25253     25251     25249     25252     25254
     25251     25249     25252     25255     25252     25255     25258     25259
     25252     25255     25258     25260     25252     25255     25258     25261
     25253     25252     25255     25256     25253     25252     25255     25257
     25253     25252     25255     25258     25254     25252     25255     25256
     25254     25252     25255     25257     25254     25252     25255     25258
     25255     25258     25261     25262     25255     25258     25261     25263
     25255     25258     25261     25264     25256     25255     25258     25259
     25256     25255     25258     25260     25256     25255     25258     25261
     25257     25255     25258     25259     25257     25255     25258     25260
     25257     25255     25258     25261     25258     25261     25264     25265
     25258     25261     25264     25266     25258     25261     25264     25267
     25259     25258     25261     25262     25259     25258     25261     25263
     25259     25258     25261     25264     25260     25258     25261     25262
     25260     25258     25261     25263     25260     25258     25261     25264
     25261     25264     25267     25268     25261     25264     25267     25269
     25261     25264     25267     25270     25262     25261     25264     25265
     25262     25261     25264     25266     25262     25261     25264     25267
     25263     25261     25264     25265     25263     25261     25264     25266
     25263     25261     25264     25267     25264     25267     25270     25271
     25264     25267     25270     25272     25264     25267     25270     25273
     25265     25264     25267     25268     25265     25264     25267     25269
     25265     25264     25267     25270     25266     25264     25267     25268
     25266     25264     25267     25269     25266     25264     25267     25270
     25267     25270     25273     25274     25267     25270     25273     25275
     25267     25270     25273     25276     25268     25267     25270     25271
     25268     25267     25270     25272     25268     25267     25270     25273
     25269     25267     25270     25271     25269     25267     25270     25272
     25269     25267     25270     25273     25270     25273     25276     25277
     25270     25273     25276     25278     25270     25273     25276     25279
     25271     25270     25273     25274     25271     25270     25273     25275
     25271     25270     25273     25276     25272     25270     25273     25274
     25272     25270     25273     25275     25272     25270     25273     25276
     25273     25276     25279     25280     25273     25276     25279     25281
     25273     25276     25279     25282     25274     25273     25276     25277
     25274     25273     25276     25278     25274     25273     25276     25279
     25275     25273     25276     25277     25275     25273     25276     25278
     25275     25273     25276     25279     25276     25279     25282     25283
     25276     25279     25282     25284     25276     25279     25282     25285
     25277     25276     25279     25280     25277     25276     25279     25281
     25277     25276     25279     25282     25278     25276     25279     25280
     25278     25276     25279     25281     25278     25276     25279     25282
     25280     25279     25282     25283     25280     25279     25282     25284
     25280     25279     25282     25285     25281     25279     25282     25283
     25281     25279     25282     25284     25281     25279     25282     25285
     25286     25290     25293     25294     25286     25290     25293     25295
     25286     25290     25293     25300     25287     25286     25290     25291
     25287     25286     25290     25292     25287     25286     25290     25293
     25288     25286     25290     25291     25288     25286     25290     25292
     25288     25286     25290     25293     25289     25286     25290     25291
     25289     25286     25290     25292     25289     25286     25290     25293
     25290     25293     25300     25296     25291     25290     25293     25294
     25291     25290     25293     25295     25291     25290     25293     25300
     25292     25290     25293     25294     25292     25290     25293     25295
     25292     25290     25293     25300     25293     25300     25296     25297
     25293     25300     25296     25298     25293     25300     25296     25299
     25294     25293     25300     25296     25295     25293     25300     25296
     25296     25299     25301     25302     25296     25299     25301     25303
     25296     25299     25301     25304     25297     25296     25299     25301
     25298     25296     25299     25301     25299     25301     25304     25305
     25299     25301     25304     25306     25299     25301     25304     25312
     25300     25296     25299     25301     25301     25304     25306     25307
     25301     25304     25312     25313     25301     25304     25312     25314
     25301     25304     25312     25315     25302     25301     25304     25305
     25302     25301     25304     25306     25302     25301     25304     25312
     25303     25301     25304     25305     25303     25301     25304     25306
     25303     25301     25304     25312     25304     25306     25307     25308
     25304     25306     25307     25309     25304     25312     25315     25316
     25305     25304     25306     25307     25305     25304     25312     25313
     25305     25304     25312     25314     25305     25304     25312     25315
     25306     25304     25312     25313     25306     25304     25312     25314
     25306     25304     25312     25315     25306     25307     25309     25310
     25306     25307     25309     25311     25306     25307     25309     25321
     25307     25306     25304     25312     25307     25309     25321     25322
     25307     25309     25321     25323     25307     25309     25321     25324
     25308     25307     25309     25310     25308     25307     25309     25311
     25308     25307     25309     25321     25309     25321     25324     25325
     25309     25321     25324     25326     25309     25321     25324     25327
     25310     25309     25321     25322     25310     25309     25321     25323
     25310     25309     25321     25324     25311     25309     25321     25322
     25311     25309     25321     25323     25311     25309     25321     25324
     25312     25315     25316     25317     25312     25315     25316     25318
     25313     25312     25315     25316     25314     25312     25315     25316
     25315     25316     25318     25319     25315     25316     25318     25320
     25315     25316     25318     25365     25316     25318     25365     25366
     25316     25318     25365     25367     25316     25318     25365     25368
     25317     25316     25318     25319     25317     25316     25318     25320
     25317     25316     25318     25365     25318     25365     25368     25369
     25318     25365     25368     25370     25318     25365     25368     25371
     25319     25318     25365     25366     25319     25318     25365     25367
     25319     25318     25365     25368     25320     25318     25365     25366
     25320     25318     25365     25367     25320     25318     25365     25368
     25321     25324     25327     25328     25321     25324     25327     25329
     25321     25324     25327     25330     25322     25321     25324     25325
     25322     25321     25324     25326     25322     25321     25324     25327
     25323     25321     25324     25325     25323     25321     25324     25326
     25323     25321     25324     25327     25324     25327     25330     25331
     25324     25327     25330     25332     25324     25327     25330     25333
     25325     25324     25327     25328     25325     25324     25327     25329
     25325     25324     25327     25330     25326     25324     25327     25328
     25326     25324     25327     25329     25326     25324     25327     25330
     25327     25330     25333     25334     25327     25330     25333     25335
     25327     25330     25333     25336     25328     25327     25330     25331
     25328     25327     25330     25332     25328     25327     25330     25333
     25329     25327     25330     25331     25329     25327     25330     25332
     25329     25327     25330     25333     25330     25333     25336     25337
     25330     25333     25336     25338     25330     25333     25336     25339
     25331     25330     25333     25334     25331     25330     25333     25335
     25331     25330     25333     25336     25332     25330     25333     25334
     25332     25330     25333     25335     25332     25330     25333     25336
     25333     25336     25339     25340     25333     25336     25339     25341
     25333     25336     25339     25344     25334     25333     25336     25337
     25334     25333     25336     25338     25334     25333     25336     25339
     25335     25333     25336     25337     25335     25333     25336     25338
     25335     25333     25336     25339     25336     25339     25341     25342
     25336     25339     25341     25343     25336     25339     25341     25344
     25336     25339     25344     25341     25336     25339     25344     25345
     25336     25339     25344     25346     25337     25336     25339     25340
     25337     25336     25339     25341     25337     25336     25339     25344
     25338     25336     25339     25340     25338     25336     25339     25341
     25338     25336     25339     25344     25339     25341     25344     25345
     25339     25341     25344     25346     25339     25344     25341     25342
     25339     25344     25341     25343     25339     25344     25346     25347
     25339     25344     25346     25348     25339     25344     25346     25349
     25340     25339     25341     25342     25340     25339     25341     25343
     25340     25339     25341     25344     25340     25339     25344     25341
     25340     25339     25344     25345     25340     25339     25344     25346
     25341     25339     25344     25345     25341     25339     25344     25346
     25341     25344     25346     25347     25341     25344     25346     25348
     25341     25344     25346     25349     25342     25341     25339     25344
     25342     25341     25344     25345     25342     25341     25344     25346
     25343     25341     25339     25344     25343     25341     25344     25345
     25343     25341     25344     25346     25344     25346     25349     25350
     25344     25346     25349     25351     25344     25346     25349     25352
     25345     25344     25346     25347     25345     25344     25346     25348
     25345     25344     25346     25349     25346     25349     25352     25353
     25346     25349     25352     25354     25346     25349     25352     25355
     25347     25346     25349     25350     25347     25346     25349     25351
     25347     25346     25349     25352     25348     25346     25349     25350
     25348     25346     25349     25351     25348     25346     25349     25352
     25349     25352     25355     25356     25349     25352     25355     25357
     25349     25352     25355     25358     25350     25349     25352     25353
     25350     25349     25352     25354     25350     25349     25352     25355
     25351     25349     25352     25353     25351     25349     25352     25354
     25351     25349     25352     25355     25352     25355     25358     25359
     25352     25355     25358     25360     25352     25355     25358     25361
     25353     25352     25355     25356     25353     25352     25355     25357
     25353     25352     25355     25358     25354     25352     25355     25356
     25354     25352     25355     25357     25354     25352     25355     25358
     25355     25358     25361     25362     25355     25358     25361     25363
     25355     25358     25361     25364     25356     25355     25358     25359
     25356     25355     25358     25360     25356     25355     25358     25361
     25357     25355     25358     25359     25357     25355     25358     25360
     25357     25355     25358     25361     25359     25358     25361     25362
     25359     25358     25361     25363     25359     25358     25361     25364
     25360     25358     25361     25362     25360     25358     25361     25363
     25360     25358     25361     25364     25365     25368     25371     25372
     25365     25368     25371     25373     25365     25368     25371     25374
     25366     25365     25368     25369     25366     25365     25368     25370
     25366     25365     25368     25371     25367     25365     25368     25369
     25367     25365     25368     25370     25367     25365     25368     25371
     25368     25371     25374     25375     25368     25371     25374     25376
     25368     25371     25374     25377     25369     25368     25371     25372
     25369     25368     25371     25373     25369     25368     25371     25374
     25370     25368     25371     25372     25370     25368     25371     25373
     25370     25368     25371     25374     25371     25374     25377     25378
     25371     25374     25377     25379     25371     25374     25377     25380
     25372     25371     25374     25375     25372     25371     25374     25376
     25372     25371     25374     25377     25373     25371     25374     25375
     25373     25371     25374     25376     25373     25371     25374     25377
     25374     25377     25380     25381     25374     25377     25380     25382
     25374     25377     25380     25383     25375     25374     25377     25378
     25375     25374     25377     25379     25375     25374     25377     25380
     25376     25374     25377     25378     25376     25374     25377     25379
     25376     25374     25377     25380     25377     25380     25383     25384
     25377     25380     25383     25385     25377     25380     25383     25386
     25378     25377     25380     25381     25378     25377     25380     25382
     25378     25377     25380     25383     25379     25377     25380     25381
     25379     25377     25380     25382     25379     25377     25380     25383
     25380     25383     25386     25387     25380     25383     25386     25388
     25380     25383     25386     25389     25381     25380     25383     25384
     25381     25380     25383     25385     25381     25380     25383     25386
     25382     25380     25383     25384     25382     25380     25383     25385
     25382     25380     25383     25386     25383     25386     25389     25390
     25383     25386     25389     25391     25383     25386     25389     25392
     25384     25383     25386     25387     25384     25383     25386     25388
     25384     25383     25386     25389     25385     25383     25386     25387
     25385     25383     25386     25388     25385     25383     25386     25389
     25386     25389     25392     25393     25386     25389     25392     25394
     25386     25389     25392     25395     25387     25386     25389     25390
     25387     25386     25389     25391     25387     25386     25389     25392
     25388     25386     25389     25390     25388     25386     25389     25391
     25388     25386     25389     25392     25389     25392     25395     25396
     25389     25392     25395     25397     25389     25392     25395     25398
     25390     25389     25392     25393     25390     25389     25392     25394
     25390     25389     25392     25395     25391     25389     25392     25393
     25391     25389     25392     25394     25391     25389     25392     25395
     25392     25395     25398     25399     25392     25395     25398     25400
     25392     25395     25398     25401     25393     25392     25395     25396
     25393     25392     25395     25397     25393     25392     25395     25398
     25394     25392     25395     25396     25394     25392     25395     25397
     25394     25392     25395     25398     25395     25398     25401     25402
     25395     25398     25401     25403     25395     25398     25401     25404
     25396     25395     25398     25399     25396     25395     25398     25400
     25396     25395     25398     25401     25397     25395     25398     25399
     25397     25395     25398     25400     25397     25395     25398     25401
     25398     25401     25404     25405     25398     25401     25404     25406
     25398     25401     25404     25407     25399     25398     25401     25402
     25399     25398     25401     25403     25399     25398     25401     25404
     25400     25398     25401     25402     25400     25398     25401     25403
     25400     25398     25401     25404     25402     25401     25404     25405
     25402     25401     25404     25406     25402     25401     25404     25407
     25403     25401     25404     25405     25403     25401     25404     25406
     25403     25401     25404     25407     25408     25413     25415     25416
     25408     25413     25417     25418     25408     25413     25417     25419
     25408     25413     25417     25424     25409     25408     25411     25412
     25409     25408     25413     25414     25409     25408     25413     25415
     25409     25408     25413     25417     25410     25408     25411     25412
     25410     25408     25413     25414     25410     25408     25413     25415
     25410     25408     25413     25417     25411     25408     25413     25414
     25411     25408     25413     25415     25411     25408     25413     25417
     25412     25411     25408     25413     25413     25417     25424     25420
     25414     25413     25415     25416     25414     25413     25417     25418
     25414     25413     25417     25419     25414     25413     25417     25424
     25415     25413     25417     25418     25415     25413     25417     25419
     25415     25413     25417     25424     25416     25415     25413     25417
     25417     25424     25420     25421     25417     25424     25420     25422
     25417     25424     25420     25423     25418     25417     25424     25420
     25419     25417     25424     25420     25420     25423     25425     25426
     25420     25423     25425     25427     25420     25423     25425     25428
     25421     25420     25423     25425     25422     25420     25423     25425
     25423     25425     25428     25429     25423     25425     25428     25430
     25423     25425     25428     25436     25424     25420     25423     25425
     25425     25428     25430     25431     25425     25428     25436     25437
     25425     25428     25436     25438     25425     25428     25436     25439
     25426     25425     25428     25429     25426     25425     25428     25430
     25426     25425     25428     25436     25427     25425     25428     25429
     25427     25425     25428     25430     25427     25425     25428     25436
     25428     25430     25431     25432     25428     25430     25431     25433
     25428     25436     25439     25440     25429     25428     25430     25431
     25429     25428     25436     25437     25429     25428     25436     25438
     25429     25428     25436     25439     25430     25428     25436     25437
     25430     25428     25436     25438     25430     25428     25436     25439
     25430     25431     25433     25434     25430     25431     25433     25435
     25430     25431     25433     25445     25431     25430     25428     25436
     25431     25433     25445     25446     25431     25433     25445     25447
     25431     25433     25445     25448     25432     25431     25433     25434
     25432     25431     25433     25435     25432     25431     25433     25445
     25433     25445     25448     25449     25433     25445     25448     25450
     25433     25445     25448     25451     25434     25433     25445     25446
     25434     25433     25445     25447     25434     25433     25445     25448
     25435     25433     25445     25446     25435     25433     25445     25447
     25435     25433     25445     25448     25436     25439     25440     25441
     25436     25439     25440     25442     25437     25436     25439     25440
     25438     25436     25439     25440     25439     25440     25442     25443
     25439     25440     25442     25444     25439     25440     25442     25489
     25440     25442     25489     25490     25440     25442     25489     25491
     25440     25442     25489     25492     25441     25440     25442     25443
     25441     25440     25442     25444     25441     25440     25442     25489
     25442     25489     25492     25493     25442     25489     25492     25494
     25442     25489     25492     25495     25443     25442     25489     25490
     25443     25442     25489     25491     25443     25442     25489     25492
     25444     25442     25489     25490     25444     25442     25489     25491
     25444     25442     25489     25492     25445     25448     25451     25452
     25445     25448     25451     25453     25445     25448     25451     25454
     25446     25445     25448     25449     25446     25445     25448     25450
     25446     25445     25448     25451     25447     25445     25448     25449
     25447     25445     25448     25450     25447     25445     25448     25451
     25448     25451     25454     25455     25448     25451     25454     25456
     25448     25451     25454     25457     25449     25448     25451     25452
     25449     25448     25451     25453     25449     25448     25451     25454
     25450     25448     25451     25452     25450     25448     25451     25453
     25450     25448     25451     25454     25451     25454     25457     25458
     25451     25454     25457     25459     25451     25454     25457     25460
     25452     25451     25454     25455     25452     25451     25454     25456
     25452     25451     25454     25457     25453     25451     25454     25455
     25453     25451     25454     25456     25453     25451     25454     25457
     25454     25457     25460     25461     25454     25457     25460     25462
     25454     25457     25460     25463     25455     25454     25457     25458
     25455     25454     25457     25459     25455     25454     25457     25460
     25456     25454     25457     25458     25456     25454     25457     25459
     25456     25454     25457     25460     25457     25460     25463     25464
     25457     25460     25463     25465     25457     25460     25463     25468
     25458     25457     25460     25461     25458     25457     25460     25462
     25458     25457     25460     25463     25459     25457     25460     25461
     25459     25457     25460     25462     25459     25457     25460     25463
     25460     25463     25465     25466     25460     25463     25465     25467
     25460     25463     25465     25468     25460     25463     25468     25465
     25460     25463     25468     25469     25460     25463     25468     25470
     25461     25460     25463     25464     25461     25460     25463     25465
     25461     25460     25463     25468     25462     25460     25463     25464
     25462     25460     25463     25465     25462     25460     25463     25468
     25463     25465     25468     25469     25463     25465     25468     25470
     25463     25468     25465     25466     25463     25468     25465     25467
     25463     25468     25470     25471     25463     25468     25470     25472
     25463     25468     25470     25473     25464     25463     25465     25466
     25464     25463     25465     25467     25464     25463     25465     25468
     25464     25463     25468     25465     25464     25463     25468     25469
     25464     25463     25468     25470     25465     25463     25468     25469
     25465     25463     25468     25470     25465     25468     25470     25471
     25465     25468     25470     25472     25465     25468     25470     25473
     25466     25465     25463     25468     25466     25465     25468     25469
     25466     25465     25468     25470     25467     25465     25463     25468
     25467     25465     25468     25469     25467     25465     25468     25470
     25468     25470     25473     25474     25468     25470     25473     25475
     25468     25470     25473     25476     25469     25468     25470     25471
     25469     25468     25470     25472     25469     25468     25470     25473
     25470     25473     25476     25477     25470     25473     25476     25478
     25470     25473     25476     25479     25471     25470     25473     25474
     25471     25470     25473     25475     25471     25470     25473     25476
     25472     25470     25473     25474     25472     25470     25473     25475
     25472     25470     25473     25476     25473     25476     25479     25480
     25473     25476     25479     25481     25473     25476     25479     25482
     25474     25473     25476     25477     25474     25473     25476     25478
     25474     25473     25476     25479     25475     25473     25476     25477
     25475     25473     25476     25478     25475     25473     25476     25479
     25476     25479     25482     25483     25476     25479     25482     25484
     25476     25479     25482     25485     25477     25476     25479     25480
     25477     25476     25479     25481     25477     25476     25479     25482
     25478     25476     25479     25480     25478     25476     25479     25481
     25478     25476     25479     25482     25479     25482     25485     25486
     25479     25482     25485     25487     25479     25482     25485     25488
     25480     25479     25482     25483     25480     25479     25482     25484
     25480     25479     25482     25485     25481     25479     25482     25483
     25481     25479     25482     25484     25481     25479     25482     25485
     25483     25482     25485     25486     25483     25482     25485     25487
     25483     25482     25485     25488     25484     25482     25485     25486
     25484     25482     25485     25487     25484     25482     25485     25488
     25489     25492     25495     25496     25489     25492     25495     25497
     25489     25492     25495     25498     25490     25489     25492     25493
     25490     25489     25492     25494     25490     25489     25492     25495
     25491     25489     25492     25493     25491     25489     25492     25494
     25491     25489     25492     25495     25492     25495     25498     25499
     25492     25495     25498     25500     25492     25495     25498     25501
     25493     25492     25495     25496     25493     25492     25495     25497
     25493     25492     25495     25498     25494     25492     25495     25496
     25494     25492     25495     25497     25494     25492     25495     25498
     25495     25498     25501     25502     25495     25498     25501     25503
     25495     25498     25501     25504     25496     25495     25498     25499
     25496     25495     25498     25500     25496     25495     25498     25501
     25497     25495     25498     25499     25497     25495     25498     25500
     25497     25495     25498     25501     25498     25501     25504     25505
     25498     25501     25504     25506     25498     25501     25504     25507
     25499     25498     25501     25502     25499     25498     25501     25503
     25499     25498     25501     25504     25500     25498     25501     25502
     25500     25498     25501     25503     25500     25498     25501     25504
     25501     25504     25507     25508     25501     25504     25507     25509
     25501     25504     25507     25510     25502     25501     25504     25505
     25502     25501     25504     25506     25502     25501     25504     25507
     25503     25501     25504     25505     25503     25501     25504     25506
     25503     25501     25504     25507     25504     25507     25510     25511
     25504     25507     25510     25512     25504     25507     25510     25513
     25505     25504     25507     25508     25505     25504     25507     25509
     25505     25504     25507     25510     25506     25504     25507     25508
     25506     25504     25507     25509     25506     25504     25507     25510
     25507     25510     25513     25514     25507     25510     25513     25515
     25507     25510     25513     25516     25508     25507     25510     25511
     25508     25507     25510     25512     25508     25507     25510     25513
     25509     25507     25510     25511     25509     25507     25510     25512
     25509     25507     25510     25513     25510     25513     25516     25517
     25510     25513     25516     25518     25510     25513     25516     25519
     25511     25510     25513     25514     25511     25510     25513     25515
     25511     25510     25513     25516     25512     25510     25513     25514
     25512     25510     25513     25515     25512     25510     25513     25516
     25513     25516     25519     25520     25513     25516     25519     25521
     25513     25516     25519     25522     25514     25513     25516     25517
     25514     25513     25516     25518     25514     25513     25516     25519
     25515     25513     25516     25517     25515     25513     25516     25518
     25515     25513     25516     25519     25516     25519     25522     25523
     25516     25519     25522     25524     25516     25519     25522     25525
     25517     25516     25519     25520     25517     25516     25519     25521
     25517     25516     25519     25522     25518     25516     25519     25520
     25518     25516     25519     25521     25518     25516     25519     25522
     25519     25522     25525     25526     25519     25522     25525     25527
     25519     25522     25525     25528     25520     25519     25522     25523
     25520     25519     25522     25524     25520     25519     25522     25525
     25521     25519     25522     25523     25521     25519     25522     25524
     25521     25519     25522     25525     25522     25525     25528     25529
     25522     25525     25528     25530     25522     25525     25528     25531
     25523     25522     25525     25526     25523     25522     25525     25527
     25523     25522     25525     25528     25524     25522     25525     25526
     25524     25522     25525     25527     25524     25522     25525     25528
     25526     25525     25528     25529     25526     25525     25528     25530
     25526     25525     25528     25531     25527     25525     25528     25529
     25527     25525     25528     25530     25527     25525     25528     25531
     25532     25537     25539     25540     25532     25537     25541     25542
     25532     25537     25541     25543     25532     25537     25541     25548
     25533     25532     25535     25536     25533     25532     25537     25538
     25533     25532     25537     25539     25533     25532     25537     25541
     25534     25532     25535     25536     25534     25532     25537     25538
     25534     25532     25537     25539     25534     25532     25537     25541
     25535     25532     25537     25538     25535     25532     25537     25539
     25535     25532     25537     25541     25536     25535     25532     25537
     25537     25541     25548     25544     25538     25537     25539     25540
     25538     25537     25541     25542     25538     25537     25541     25543
     25538     25537     25541     25548     25539     25537     25541     25542
     25539     25537     25541     25543     25539     25537     25541     25548
     25540     25539     25537     25541     25541     25548     25544     25545
     25541     25548     25544     25546     25541     25548     25544     25547
     25542     25541     25548     25544     25543     25541     25548     25544
     25544     25547     25549     25550     25544     25547     25549     25551
     25544     25547     25549     25552     25545     25544     25547     25549
     25546     25544     25547     25549     25547     25549     25552     25553
     25547     25549     25552     25554     25547     25549     25552     25560
     25548     25544     25547     25549     25549     25552     25554     25555
     25549     25552     25560     25561     25549     25552     25560     25562
     25549     25552     25560     25563     25550     25549     25552     25553
     25550     25549     25552     25554     25550     25549     25552     25560
     25551     25549     25552     25553     25551     25549     25552     25554
     25551     25549     25552     25560     25552     25554     25555     25556
     25552     25554     25555     25557     25552     25560     25563     25564
     25553     25552     25554     25555     25553     25552     25560     25561
     25553     25552     25560     25562     25553     25552     25560     25563
     25554     25552     25560     25561     25554     25552     25560     25562
     25554     25552     25560     25563     25554     25555     25557     25558
     25554     25555     25557     25559     25554     25555     25557     25569
     25555     25554     25552     25560     25555     25557     25569     25570
     25555     25557     25569     25571     25555     25557     25569     25572
     25556     25555     25557     25558     25556     25555     25557     25559
     25556     25555     25557     25569     25557     25569     25572     25573
     25557     25569     25572     25574     25557     25569     25572     25575
     25558     25557     25569     25570     25558     25557     25569     25571
     25558     25557     25569     25572     25559     25557     25569     25570
     25559     25557     25569     25571     25559     25557     25569     25572
     25560     25563     25564     25565     25560     25563     25564     25566
     25561     25560     25563     25564     25562     25560     25563     25564
     25563     25564     25566     25567     25563     25564     25566     25568
     25563     25564     25566     25613     25564     25566     25613     25614
     25564     25566     25613     25615     25564     25566     25613     25616
     25565     25564     25566     25567     25565     25564     25566     25568
     25565     25564     25566     25613     25566     25613     25616     25617
     25566     25613     25616     25618     25566     25613     25616     25619
     25567     25566     25613     25614     25567     25566     25613     25615
     25567     25566     25613     25616     25568     25566     25613     25614
     25568     25566     25613     25615     25568     25566     25613     25616
     25569     25572     25575     25576     25569     25572     25575     25577
     25569     25572     25575     25578     25570     25569     25572     25573
     25570     25569     25572     25574     25570     25569     25572     25575
     25571     25569     25572     25573     25571     25569     25572     25574
     25571     25569     25572     25575     25572     25575     25578     25579
     25572     25575     25578     25580     25572     25575     25578     25581
     25573     25572     25575     25576     25573     25572     25575     25577
     25573     25572     25575     25578     25574     25572     25575     25576
     25574     25572     25575     25577     25574     25572     25575     25578
     25575     25578     25581     25582     25575     25578     25581     25583
     25575     25578     25581     25584     25576     25575     25578     25579
     25576     25575     25578     25580     25576     25575     25578     25581
     25577     25575     25578     25579     25577     25575     25578     25580
     25577     25575     25578     25581     25578     25581     25584     25585
     25578     25581     25584     25586     25578     25581     25584     25587
     25579     25578     25581     25582     25579     25578     25581     25583
     25579     25578     25581     25584     25580     25578     25581     25582
     25580     25578     25581     25583     25580     25578     25581     25584
     25581     25584     25587     25588     25581     25584     25587     25589
     25581     25584     25587     25592     25582     25581     25584     25585
     25582     25581     25584     25586     25582     25581     25584     25587
     25583     25581     25584     25585     25583     25581     25584     25586
     25583     25581     25584     25587     25584     25587     25589     25590
     25584     25587     25589     25591     25584     25587     25589     25592
     25584     25587     25592     25589     25584     25587     25592     25593
     25584     25587     25592     25594     25585     25584     25587     25588
     25585     25584     25587     25589     25585     25584     25587     25592
     25586     25584     25587     25588     25586     25584     25587     25589
     25586     25584     25587     25592     25587     25589     25592     25593
     25587     25589     25592     25594     25587     25592     25589     25590
     25587     25592     25589     25591     25587     25592     25594     25595
     25587     25592     25594     25596     25587     25592     25594     25597
     25588     25587     25589     25590     25588     25587     25589     25591
     25588     25587     25589     25592     25588     25587     25592     25589
     25588     25587     25592     25593     25588     25587     25592     25594
     25589     25587     25592     25593     25589     25587     25592     25594
     25589     25592     25594     25595     25589     25592     25594     25596
     25589     25592     25594     25597     25590     25589     25587     25592
     25590     25589     25592     25593     25590     25589     25592     25594
     25591     25589     25587     25592     25591     25589     25592     25593
     25591     25589     25592     25594     25592     25594     25597     25598
     25592     25594     25597     25599     25592     25594     25597     25600
     25593     25592     25594     25595     25593     25592     25594     25596
     25593     25592     25594     25597     25594     25597     25600     25601
     25594     25597     25600     25602     25594     25597     25600     25603
     25595     25594     25597     25598     25595     25594     25597     25599
     25595     25594     25597     25600     25596     25594     25597     25598
     25596     25594     25597     25599     25596     25594     25597     25600
     25597     25600     25603     25604     25597     25600     25603     25605
     25597     25600     25603     25606     25598     25597     25600     25601
     25598     25597     25600     25602     25598     25597     25600     25603
     25599     25597     25600     25601     25599     25597     25600     25602
     25599     25597     25600     25603     25600     25603     25606     25607
     25600     25603     25606     25608     25600     25603     25606     25609
     25601     25600     25603     25604     25601     25600     25603     25605
     25601     25600     25603     25606     25602     25600     25603     25604
     25602     25600     25603     25605     25602     25600     25603     25606
     25603     25606     25609     25610     25603     25606     25609     25611
     25603     25606     25609     25612     25604     25603     25606     25607
     25604     25603     25606     25608     25604     25603     25606     25609
     25605     25603     25606     25607     25605     25603     25606     25608
     25605     25603     25606     25609     25607     25606     25609     25610
     25607     25606     25609     25611     25607     25606     25609     25612
     25608     25606     25609     25610     25608     25606     25609     25611
     25608     25606     25609     25612     25613     25616     25619     25620
     25613     25616     25619     25621     25613     25616     25619     25622
     25614     25613     25616     25617     25614     25613     25616     25618
     25614     25613     25616     25619     25615     25613     25616     25617
     25615     25613     25616     25618     25615     25613     25616     25619
     25616     25619     25622     25623     25616     25619     25622     25624
     25616     25619     25622     25625     25617     25616     25619     25620
     25617     25616     25619     25621     25617     25616     25619     25622
     25618     25616     25619     25620     25618     25616     25619     25621
     25618     25616     25619     25622     25619     25622     25625     25626
     25619     25622     25625     25627     25619     25622     25625     25628
     25620     25619     25622     25623     25620     25619     25622     25624
     25620     25619     25622     25625     25621     25619     25622     25623
     25621     25619     25622     25624     25621     25619     25622     25625
     25622     25625     25628     25629     25622     25625     25628     25630
     25622     25625     25628     25631     25623     25622     25625     25626
     25623     25622     25625     25627     25623     25622     25625     25628
     25624     25622     25625     25626     25624     25622     25625     25627
     25624     25622     25625     25628     25625     25628     25631     25632
     25625     25628     25631     25633     25625     25628     25631     25634
     25626     25625     25628     25629     25626     25625     25628     25630
     25626     25625     25628     25631     25627     25625     25628     25629
     25627     25625     25628     25630     25627     25625     25628     25631
     25628     25631     25634     25635     25628     25631     25634     25636
     25628     25631     25634     25637     25629     25628     25631     25632
     25629     25628     25631     25633     25629     25628     25631     25634
     25630     25628     25631     25632     25630     25628     25631     25633
     25630     25628     25631     25634     25631     25634     25637     25638
     25631     25634     25637     25639     25631     25634     25637     25640
     25632     25631     25634     25635     25632     25631     25634     25636
     25632     25631     25634     25637     25633     25631     25634     25635
     25633     25631     25634     25636     25633     25631     25634     25637
     25634     25637     25640     25641     25634     25637     25640     25642
     25634     25637     25640     25643     25635     25634     25637     25638
     25635     25634     25637     25639     25635     25634     25637     25640
     25636     25634     25637     25638     25636     25634     25637     25639
     25636     25634     25637     25640     25637     25640     25643     25644
     25637     25640     25643     25645     25637     25640     25643     25646
     25638     25637     25640     25641     25638     25637     25640     25642
     25638     25637     25640     25643     25639     25637     25640     25641
     25639     25637     25640     25642     25639     25637     25640     25643
     25640     25643     25646     25647     25640     25643     25646     25648
     25640     25643     25646     25649     25641     25640     25643     25644
     25641     25640     25643     25645     25641     25640     25643     25646
     25642     25640     25643     25644     25642     25640     25643     25645
     25642     25640     25643     25646     25643     25646     25649     25650
     25643     25646     25649     25651     25643     25646     25649     25652
     25644     25643     25646     25647     25644     25643     25646     25648
     25644     25643     25646     25649     25645     25643     25646     25647
     25645     25643     25646     25648     25645     25643     25646     25649
     25646     25649     25652     25653     25646     25649     25652     25654
     25646     25649     25652     25655     25647     25646     25649     25650
     25647     25646     25649     25651     25647     25646     25649     25652
     25648     25646     25649     25650     25648     25646     25649     25651
     25648     25646     25649     25652     25650     25649     25652     25653
     25650     25649     25652     25654     25650     25649     25652     25655
     25651     25649     25652     25653     25651     25649     25652     25654
     25651     25649     25652     25655     25656     25660     25663     25664
     25656     25660     25663     25665     25656     25660     25663     25670
     25657     25656     25660     25661     25657     25656     25660     25662
     25657     25656     25660     25663     25658     25656     25660     25661
     25658     25656     25660     25662     25658     25656     25660     25663
     25659     25656     25660     25661     25659     25656     25660     25662
     25659     25656     25660     25663     25660     25663     25670     25666
     25661     25660     25663     25664     25661     25660     25663     25665
     25661     25660     25663     25670     25662     25660     25663     25664
     25662     25660     25663     25665     25662     25660     25663     25670
     25663     25670     25666     25667     25663     25670     25666     25668
     25663     25670     25666     25669     25664     25663     25670     25666
     25665     25663     25670     25666     25666     25669     25671     25672
     25666     25669     25671     25673     25666     25669     25671     25674
     25667     25666     25669     25671     25668     25666     25669     25671
     25669     25671     25674     25675     25669     25671     25674     25676
     25669     25671     25674     25682     25670     25666     25669     25671
     25671     25674     25676     25677     25671     25674     25682     25683
     25671     25674     25682     25684     25671     25674     25682     25685
     25672     25671     25674     25675     25672     25671     25674     25676
     25672     25671     25674     25682     25673     25671     25674     25675
     25673     25671     25674     25676     25673     25671     25674     25682
     25674     25676     25677     25678     25674     25676     25677     25679
     25674     25682     25685     25686     25675     25674     25676     25677
     25675     25674     25682     25683     25675     25674     25682     25684
     25675     25674     25682     25685     25676     25674     25682     25683
     25676     25674     25682     25684     25676     25674     25682     25685
     25676     25677     25679     25680     25676     25677     25679     25681
     25676     25677     25679     25691     25677     25676     25674     25682
     25677     25679     25691     25692     25677     25679     25691     25693
     25677     25679     25691     25694     25678     25677     25679     25680
     25678     25677     25679     25681     25678     25677     25679     25691
     25679     25691     25694     25695     25679     25691     25694     25696
     25679     25691     25694     25697     25680     25679     25691     25692
     25680     25679     25691     25693     25680     25679     25691     25694
     25681     25679     25691     25692     25681     25679     25691     25693
     25681     25679     25691     25694     25682     25685     25686     25687
     25682     25685     25686     25688     25683     25682     25685     25686
     25684     25682     25685     25686     25685     25686     25688     25689
     25685     25686     25688     25690     25685     25686     25688     25735
     25686     25688     25735     25736     25686     25688     25735     25737
     25686     25688     25735     25738     25687     25686     25688     25689
     25687     25686     25688     25690     25687     25686     25688     25735
     25688     25735     25738     25739     25688     25735     25738     25740
     25688     25735     25738     25741     25689     25688     25735     25736
     25689     25688     25735     25737     25689     25688     25735     25738
     25690     25688     25735     25736     25690     25688     25735     25737
     25690     25688     25735     25738     25691     25694     25697     25698
     25691     25694     25697     25699     25691     25694     25697     25700
     25692     25691     25694     25695     25692     25691     25694     25696
     25692     25691     25694     25697     25693     25691     25694     25695
     25693     25691     25694     25696     25693     25691     25694     25697
     25694     25697     25700     25701     25694     25697     25700     25702
     25694     25697     25700     25703     25695     25694     25697     25698
     25695     25694     25697     25699     25695     25694     25697     25700
     25696     25694     25697     25698     25696     25694     25697     25699
     25696     25694     25697     25700     25697     25700     25703     25704
     25697     25700     25703     25705     25697     25700     25703     25706
     25698     25697     25700     25701     25698     25697     25700     25702
     25698     25697     25700     25703     25699     25697     25700     25701
     25699     25697     25700     25702     25699     25697     25700     25703
     25700     25703     25706     25707     25700     25703     25706     25708
     25700     25703     25706     25709     25701     25700     25703     25704
     25701     25700     25703     25705     25701     25700     25703     25706
     25702     25700     25703     25704     25702     25700     25703     25705
     25702     25700     25703     25706     25703     25706     25709     25710
     25703     25706     25709     25711     25703     25706     25709     25714
     25704     25703     25706     25707     25704     25703     25706     25708
     25704     25703     25706     25709     25705     25703     25706     25707
     25705     25703     25706     25708     25705     25703     25706     25709
     25706     25709     25711     25712     25706     25709     25711     25713
     25706     25709     25711     25714     25706     25709     25714     25711
     25706     25709     25714     25715     25706     25709     25714     25716
     25707     25706     25709     25710     25707     25706     25709     25711
     25707     25706     25709     25714     25708     25706     25709     25710
     25708     25706     25709     25711     25708     25706     25709     25714
     25709     25711     25714     25715     25709     25711     25714     25716
     25709     25714     25711     25712     25709     25714     25711     25713
     25709     25714     25716     25717     25709     25714     25716     25718
     25709     25714     25716     25719     25710     25709     25711     25712
     25710     25709     25711     25713     25710     25709     25711     25714
     25710     25709     25714     25711     25710     25709     25714     25715
     25710     25709     25714     25716     25711     25709     25714     25715
     25711     25709     25714     25716     25711     25714     25716     25717
     25711     25714     25716     25718     25711     25714     25716     25719
     25712     25711     25709     25714     25712     25711     25714     25715
     25712     25711     25714     25716     25713     25711     25709     25714
     25713     25711     25714     25715     25713     25711     25714     25716
     25714     25716     25719     25720     25714     25716     25719     25721
     25714     25716     25719     25722     25715     25714     25716     25717
     25715     25714     25716     25718     25715     25714     25716     25719
     25716     25719     25722     25723     25716     25719     25722     25724
     25716     25719     25722     25725     25717     25716     25719     25720
     25717     25716     25719     25721     25717     25716     25719     25722
     25718     25716     25719     25720     25718     25716     25719     25721
     25718     25716     25719     25722     25719     25722     25725     25726
     25719     25722     25725     25727     25719     25722     25725     25728
     25720     25719     25722     25723     25720     25719     25722     25724
     25720     25719     25722     25725     25721     25719     25722     25723
     25721     25719     25722     25724     25721     25719     25722     25725
     25722     25725     25728     25729     25722     25725     25728     25730
     25722     25725     25728     25731     25723     25722     25725     25726
     25723     25722     25725     25727     25723     25722     25725     25728
     25724     25722     25725     25726     25724     25722     25725     25727
     25724     25722     25725     25728     25725     25728     25731     25732
     25725     25728     25731     25733     25725     25728     25731     25734
     25726     25725     25728     25729     25726     25725     25728     25730
     25726     25725     25728     25731     25727     25725     25728     25729
     25727     25725     25728     25730     25727     25725     25728     25731
     25729     25728     25731     25732     25729     25728     25731     25733
     25729     25728     25731     25734     25730     25728     25731     25732
     25730     25728     25731     25733     25730     25728     25731     25734
     25735     25738     25741     25742     25735     25738     25741     25743
     25735     25738     25741     25744     25736     25735     25738     25739
     25736     25735     25738     25740     25736     25735     25738     25741
     25737     25735     25738     25739     25737     25735     25738     25740
     25737     25735     25738     25741     25738     25741     25744     25745
     25738     25741     25744     25746     25738     25741     25744     25747
     25739     25738     25741     25742     25739     25738     25741     25743
     25739     25738     25741     25744     25740     25738     25741     25742
     25740     25738     25741     25743     25740     25738     25741     25744
     25741     25744     25747     25748     25741     25744     25747     25749
     25741     25744     25747     25750     25742     25741     25744     25745
     25742     25741     25744     25746     25742     25741     25744     25747
     25743     25741     25744     25745     25743     25741     25744     25746
     25743     25741     25744     25747     25744     25747     25750     25751
     25744     25747     25750     25752     25744     25747     25750     25753
     25745     25744     25747     25748     25745     25744     25747     25749
     25745     25744     25747     25750     25746     25744     25747     25748
     25746     25744     25747     25749     25746     25744     25747     25750
     25747     25750     25753     25754     25747     25750     25753     25755
     25747     25750     25753     25756     25748     25747     25750     25751
     25748     25747     25750     25752     25748     25747     25750     25753
     25749     25747     25750     25751     25749     25747     25750     25752
     25749     25747     25750     25753     25750     25753     25756     25757
     25750     25753     25756     25758     25750     25753     25756     25759
     25751     25750     25753     25754     25751     25750     25753     25755
     25751     25750     25753     25756     25752     25750     25753     25754
     25752     25750     25753     25755     25752     25750     25753     25756
     25753     25756     25759     25760     25753     25756     25759     25761
     25753     25756     25759     25762     25754     25753     25756     25757
     25754     25753     25756     25758     25754     25753     25756     25759
     25755     25753     25756     25757     25755     25753     25756     25758
     25755     25753     25756     25759     25756     25759     25762     25763
     25756     25759     25762     25764     25756     25759     25762     25765
     25757     25756     25759     25760     25757     25756     25759     25761
     25757     25756     25759     25762     25758     25756     25759     25760
     25758     25756     25759     25761     25758     25756     25759     25762
     25759     25762     25765     25766     25759     25762     25765     25767
     25759     25762     25765     25768     25760     25759     25762     25763
     25760     25759     25762     25764     25760     25759     25762     25765
     25761     25759     25762     25763     25761     25759     25762     25764
     25761     25759     25762     25765     25762     25765     25768     25769
     25762     25765     25768     25770     25762     25765     25768     25771
     25763     25762     25765     25766     25763     25762     25765     25767
     25763     25762     25765     25768     25764     25762     25765     25766
     25764     25762     25765     25767     25764     25762     25765     25768
     25765     25768     25771     25772     25765     25768     25771     25773
     25765     25768     25771     25774     25766     25765     25768     25769
     25766     25765     25768     25770     25766     25765     25768     25771
     25767     25765     25768     25769     25767     25765     25768     25770
     25767     25765     25768     25771     25768     25771     25774     25775
     25768     25771     25774     25776     25768     25771     25774     25777
     25769     25768     25771     25772     25769     25768     25771     25773
     25769     25768     25771     25774     25770     25768     25771     25772
     25770     25768     25771     25773     25770     25768     25771     25774
     25772     25771     25774     25775     25772     25771     25774     25776
     25772     25771     25774     25777     25773     25771     25774     25775
     25773     25771     25774     25776     25773     25771     25774     25777
     25778     25783     25785     25786     25778     25783     25787     25788
     25778     25783     25787     25789     25778     25783     25787     25794
     25779     25778     25781     25782     25779     25778     25783     25784
     25779     25778     25783     25785     25779     25778     25783     25787
     25780     25778     25781     25782     25780     25778     25783     25784
     25780     25778     25783     25785     25780     25778     25783     25787
     25781     25778     25783     25784     25781     25778     25783     25785
     25781     25778     25783     25787     25782     25781     25778     25783
     25783     25787     25794     25790     25784     25783     25785     25786
     25784     25783     25787     25788     25784     25783     25787     25789
     25784     25783     25787     25794     25785     25783     25787     25788
     25785     25783     25787     25789     25785     25783     25787     25794
     25786     25785     25783     25787     25787     25794     25790     25791
     25787     25794     25790     25792     25787     25794     25790     25793
     25788     25787     25794     25790     25789     25787     25794     25790
     25790     25793     25795     25796     25790     25793     25795     25797
     25790     25793     25795     25798     25791     25790     25793     25795
     25792     25790     25793     25795     25793     25795     25798     25799
     25793     25795     25798     25800     25793     25795     25798     25806
     25794     25790     25793     25795     25795     25798     25800     25801
     25795     25798     25806     25807     25795     25798     25806     25808
     25795     25798     25806     25809     25796     25795     25798     25799
     25796     25795     25798     25800     25796     25795     25798     25806
     25797     25795     25798     25799     25797     25795     25798     25800
     25797     25795     25798     25806     25798     25800     25801     25802
     25798     25800     25801     25803     25798     25806     25809     25810
     25799     25798     25800     25801     25799     25798     25806     25807
     25799     25798     25806     25808     25799     25798     25806     25809
     25800     25798     25806     25807     25800     25798     25806     25808
     25800     25798     25806     25809     25800     25801     25803     25804
     25800     25801     25803     25805     25800     25801     25803     25815
     25801     25800     25798     25806     25801     25803     25815     25816
     25801     25803     25815     25817     25801     25803     25815     25818
     25802     25801     25803     25804     25802     25801     25803     25805
     25802     25801     25803     25815     25803     25815     25818     25819
     25803     25815     25818     25820     25803     25815     25818     25821
     25804     25803     25815     25816     25804     25803     25815     25817
     25804     25803     25815     25818     25805     25803     25815     25816
     25805     25803     25815     25817     25805     25803     25815     25818
     25806     25809     25810     25811     25806     25809     25810     25812
     25807     25806     25809     25810     25808     25806     25809     25810
     25809     25810     25812     25813     25809     25810     25812     25814
     25809     25810     25812     25856     25810     25812     25856     25857
     25810     25812     25856     25858     25810     25812     25856     25859
     25811     25810     25812     25813     25811     25810     25812     25814
     25811     25810     25812     25856     25812     25856     25859     25860
     25812     25856     25859     25861     25812     25856     25859     25862
     25813     25812     25856     25857     25813     25812     25856     25858
     25813     25812     25856     25859     25814     25812     25856     25857
     25814     25812     25856     25858     25814     25812     25856     25859
     25815     25818     25821     25822     25815     25818     25821     25823
     25815     25818     25821     25824     25816     25815     25818     25819
     25816     25815     25818     25820     25816     25815     25818     25821
     25817     25815     25818     25819     25817     25815     25818     25820
     25817     25815     25818     25821     25818     25821     25824     25825
     25818     25821     25824     25826     25818     25821     25824     25827
     25819     25818     25821     25822     25819     25818     25821     25823
     25819     25818     25821     25824     25820     25818     25821     25822
     25820     25818     25821     25823     25820     25818     25821     25824
     25821     25824     25827     25828     25821     25824     25827     25829
     25821     25824     25827     25830     25822     25821     25824     25825
     25822     25821     25824     25826     25822     25821     25824     25827
     25823     25821     25824     25825     25823     25821     25824     25826
     25823     25821     25824     25827     25824     25827     25830     25831
     25824     25827     25830     25832     25824     25827     25830     25833
     25825     25824     25827     25828     25825     25824     25827     25829
     25825     25824     25827     25830     25826     25824     25827     25828
     25826     25824     25827     25829     25826     25824     25827     25830
     25827     25830     25833     25834     25827     25830     25833     25835
     25828     25827     25830     25831     25828     25827     25830     25832
     25828     25827     25830     25833     25829     25827     25830     25831
     25829     25827     25830     25832     25829     25827     25830     25833
     25830     25833     25835     25836     25830     25833     25835     25837
     25831     25830     25833     25834     25831     25830     25833     25835
     25832     25830     25833     25834     25832     25830     25833     25835
     25833     25835     25837     25838     25833     25835     25837     25839
     25833     25835     25837     25840     25834     25833     25835     25836
     25834     25833     25835     25837     25835     25837     25840     25841
     25835     25837     25840     25842     25835     25837     25840     25843
     25836     25835     25837     25838     25836     25835     25837     25839
     25836     25835     25837     25840     25837     25840     25843     25844
     25837     25840     25843     25845     25837     25840     25843     25846
     25838     25837     25840     25841     25838     25837     25840     25842
     25838     25837     25840     25843     25839     25837     25840     25841
     25839     25837     25840     25842     25839     25837     25840     25843
     25840     25843     25846     25847     25840     25843     25846     25848
     25840     25843     25846     25849     25841     25840     25843     25844
     25841     25840     25843     25845     25841     25840     25843     25846
     25842     25840     25843     25844     25842     25840     25843     25845
     25842     25840     25843     25846     25843     25846     25849     25850
     25843     25846     25849     25851     25843     25846     25849     25852
     25844     25843     25846     25847     25844     25843     25846     25848
     25844     25843     25846     25849     25845     25843     25846     25847
     25845     25843     25846     25848     25845     25843     25846     25849
     25846     25849     25852     25853     25846     25849     25852     25854
     25846     25849     25852     25855     25847     25846     25849     25850
     25847     25846     25849     25851     25847     25846     25849     25852
     25848     25846     25849     25850     25848     25846     25849     25851
     25848     25846     25849     25852     25850     25849     25852     25853
     25850     25849     25852     25854     25850     25849     25852     25855
     25851     25849     25852     25853     25851     25849     25852     25854
     25851     25849     25852     25855     25856     25859     25862     25863
     25856     25859     25862     25864     25856     25859     25862     25865
     25857     25856     25859     25860     25857     25856     25859     25861
     25857     25856     25859     25862     25858     25856     25859     25860
     25858     25856     25859     25861     25858     25856     25859     25862
     25859     25862     25865     25866     25859     25862     25865     25867
     25859     25862     25865     25868     25860     25859     25862     25863
     25860     25859     25862     25864     25860     25859     25862     25865
     25861     25859     25862     25863     25861     25859     25862     25864
     25861     25859     25862     25865     25862     25865     25868     25869
     25862     25865     25868     25870     25862     25865     25868     25871
     25863     25862     25865     25866     25863     25862     25865     25867
     25863     25862     25865     25868     25864     25862     25865     25866
     25864     25862     25865     25867     25864     25862     25865     25868
     25865     25868     25871     25872     25865     25868     25871     25873
     25865     25868     25871     25874     25866     25865     25868     25869
     25866     25865     25868     25870     25866     25865     25868     25871
     25867     25865     25868     25869     25867     25865     25868     25870
     25867     25865     25868     25871     25868     25871     25874     25875
     25868     25871     25874     25876     25868     25871     25874     25877
     25869     25868     25871     25872     25869     25868     25871     25873
     25869     25868     25871     25874     25870     25868     25871     25872
     25870     25868     25871     25873     25870     25868     25871     25874
     25871     25874     25877     25878     25871     25874     25877     25879
     25871     25874     25877     25880     25872     25871     25874     25875
     25872     25871     25874     25876     25872     25871     25874     25877
     25873     25871     25874     25875     25873     25871     25874     25876
     25873     25871     25874     25877     25874     25877     25880     25881
     25874     25877     25880     25882     25874     25877     25880     25883
     25875     25874     25877     25878     25875     25874     25877     25879
     25875     25874     25877     25880     25876     25874     25877     25878
     25876     25874     25877     25879     25876     25874     25877     25880
     25877     25880     25883     25884     25877     25880     25883     25885
     25877     25880     25883     25886     25878     25877     25880     25881
     25878     25877     25880     25882     25878     25877     25880     25883
     25879     25877     25880     25881     25879     25877     25880     25882
     25879     25877     25880     25883     25880     25883     25886     25887
     25880     25883     25886     25888     25880     25883     25886     25889
     25881     25880     25883     25884     25881     25880     25883     25885
     25881     25880     25883     25886     25882     25880     25883     25884
     25882     25880     25883     25885     25882     25880     25883     25886
     25883     25886     25889     25890     25883     25886     25889     25891
     25883     25886     25889     25892     25884     25883     25886     25887
     25884     25883     25886     25888     25884     25883     25886     25889
     25885     25883     25886     25887     25885     25883     25886     25888
     25885     25883     25886     25889     25886     25889     25892     25893
     25886     25889     25892     25894     25886     25889     25892     25895
     25887     25886     25889     25890     25887     25886     25889     25891
     25887     25886     25889     25892     25888     25886     25889     25890
     25888     25886     25889     25891     25888     25886     25889     25892
     25889     25892     25895     25896     25889     25892     25895     25897
     25889     25892     25895     25898     25890     25889     25892     25893
     25890     25889     25892     25894     25890     25889     25892     25895
     25891     25889     25892     25893     25891     25889     25892     25894
     25891     25889     25892     25895     25893     25892     25895     25896
     25893     25892     25895     25897     25893     25892     25895     25898
     25894     25892     25895     25896     25894     25892     25895     25897
     25894     25892     25895     25898     25899     25903     25906     25907
     25899     25903     25906     25908     25899     25903     25906     25913
     25900     25899     25903     25904     25900     25899     25903     25905
     25900     25899     25903     25906     25901     25899     25903     25904
     25901     25899     25903     25905     25901     25899     25903     25906
     25902     25899     25903     25904     25902     25899     25903     25905
     25902     25899     25903     25906     25903     25906     25913     25909
     25904     25903     25906     25907     25904     25903     25906     25908
     25904     25903     25906     25913     25905     25903     25906     25907
     25905     25903     25906     25908     25905     25903     25906     25913
     25906     25913     25909     25910     25906     25913     25909     25911
     25906     25913     25909     25912     25907     25906     25913     25909
     25908     25906     25913     25909     25909     25912     25914     25915
     25909     25912     25914     25916     25909     25912     25914     25917
     25910     25909     25912     25914     25911     25909     25912     25914
     25912     25914     25917     25918     25912     25914     25917     25919
     25912     25914     25917     25925     25913     25909     25912     25914
     25914     25917     25919     25920     25914     25917     25925     25926
     25914     25917     25925     25927     25914     25917     25925     25928
     25915     25914     25917     25918     25915     25914     25917     25919
     25915     25914     25917     25925     25916     25914     25917     25918
     25916     25914     25917     25919     25916     25914     25917     25925
     25917     25919     25920     25921     25917     25919     25920     25922
     25917     25925     25928     25929     25918     25917     25919     25920
     25918     25917     25925     25926     25918     25917     25925     25927
     25918     25917     25925     25928     25919     25917     25925     25926
     25919     25917     25925     25927     25919     25917     25925     25928
     25919     25920     25922     25923     25919     25920     25922     25924
     25919     25920     25922     25934     25920     25919     25917     25925
     25920     25922     25934     25935     25920     25922     25934     25936
     25920     25922     25934     25937     25921     25920     25922     25923
     25921     25920     25922     25924     25921     25920     25922     25934
     25922     25934     25937     25938     25922     25934     25937     25939
     25922     25934     25937     25940     25923     25922     25934     25935
     25923     25922     25934     25936     25923     25922     25934     25937
     25924     25922     25934     25935     25924     25922     25934     25936
     25924     25922     25934     25937     25925     25928     25929     25930
     25925     25928     25929     25931     25926     25925     25928     25929
     25927     25925     25928     25929     25928     25929     25931     25932
     25928     25929     25931     25933     25928     25929     25931     25978
     25929     25931     25978     25979     25929     25931     25978     25980
     25929     25931     25978     25981     25930     25929     25931     25932
     25930     25929     25931     25933     25930     25929     25931     25978
     25931     25978     25981     25982     25931     25978     25981     25983
     25931     25978     25981     25984     25932     25931     25978     25979
     25932     25931     25978     25980     25932     25931     25978     25981
     25933     25931     25978     25979     25933     25931     25978     25980
     25933     25931     25978     25981     25934     25937     25940     25941
     25934     25937     25940     25942     25934     25937     25940     25943
     25935     25934     25937     25938     25935     25934     25937     25939
     25935     25934     25937     25940     25936     25934     25937     25938
     25936     25934     25937     25939     25936     25934     25937     25940
     25937     25940     25943     25944     25937     25940     25943     25945
     25937     25940     25943     25946     25938     25937     25940     25941
     25938     25937     25940     25942     25938     25937     25940     25943
     25939     25937     25940     25941     25939     25937     25940     25942
     25939     25937     25940     25943     25940     25943     25946     25947
     25940     25943     25946     25948     25940     25943     25946     25949
     25941     25940     25943     25944     25941     25940     25943     25945
     25941     25940     25943     25946     25942     25940     25943     25944
     25942     25940     25943     25945     25942     25940     25943     25946
     25943     25946     25949     25950     25943     25946     25949     25951
     25943     25946     25949     25952     25944     25943     25946     25947
     25944     25943     25946     25948     25944     25943     25946     25949
     25945     25943     25946     25947     25945     25943     25946     25948
     25945     25943     25946     25949     25946     25949     25952     25953
     25946     25949     25952     25954     25946     25949     25952     25957
     25947     25946     25949     25950     25947     25946     25949     25951
     25947     25946     25949     25952     25948     25946     25949     25950
     25948     25946     25949     25951     25948     25946     25949     25952
     25949     25952     25954     25955     25949     25952     25954     25956
     25949     25952     25954     25957     25949     25952     25957     25954
     25949     25952     25957     25958     25949     25952     25957     25959
     25950     25949     25952     25953     25950     25949     25952     25954
     25950     25949     25952     25957     25951     25949     25952     25953
     25951     25949     25952     25954     25951     25949     25952     25957
     25952     25954     25957     25958     25952     25954     25957     25959
     25952     25957     25954     25955     25952     25957     25954     25956
     25952     25957     25959     25960     25952     25957     25959     25961
     25952     25957     25959     25962     25953     25952     25954     25955
     25953     25952     25954     25956     25953     25952     25954     25957
     25953     25952     25957     25954     25953     25952     25957     25958
     25953     25952     25957     25959     25954     25952     25957     25958
     25954     25952     25957     25959     25954     25957     25959     25960
     25954     25957     25959     25961     25954     25957     25959     25962
     25955     25954     25952     25957     25955     25954     25957     25958
     25955     25954     25957     25959     25956     25954     25952     25957
     25956     25954     25957     25958     25956     25954     25957     25959
     25957     25959     25962     25963     25957     25959     25962     25964
     25957     25959     25962     25965     25958     25957     25959     25960
     25958     25957     25959     25961     25958     25957     25959     25962
     25959     25962     25965     25966     25959     25962     25965     25967
     25959     25962     25965     25968     25960     25959     25962     25963
     25960     25959     25962     25964     25960     25959     25962     25965
     25961     25959     25962     25963     25961     25959     25962     25964
     25961     25959     25962     25965     25962     25965     25968     25969
     25962     25965     25968     25970     25962     25965     25968     25971
     25963     25962     25965     25966     25963     25962     25965     25967
     25963     25962     25965     25968     25964     25962     25965     25966
     25964     25962     25965     25967     25964     25962     25965     25968
     25965     25968     25971     25972     25965     25968     25971     25973
     25965     25968     25971     25974     25966     25965     25968     25969
     25966     25965     25968     25970     25966     25965     25968     25971
     25967     25965     25968     25969     25967     25965     25968     25970
     25967     25965     25968     25971     25968     25971     25974     25975
     25968     25971     25974     25976     25968     25971     25974     25977
     25969     25968     25971     25972     25969     25968     25971     25973
     25969     25968     25971     25974     25970     25968     25971     25972
     25970     25968     25971     25973     25970     25968     25971     25974
     25972     25971     25974     25975     25972     25971     25974     25976
     25972     25971     25974     25977     25973     25971     25974     25975
     25973     25971     25974     25976     25973     25971     25974     25977
     25978     25981     25984     25985     25978     25981     25984     25986
     25978     25981     25984     25987     25979     25978     25981     25982
     25979     25978     25981     25983     25979     25978     25981     25984
     25980     25978     25981     25982     25980     25978     25981     25983
     25980     25978     25981     25984     25981     25984     25987     25988
     25981     25984     25987     25989     25981     25984     25987     25990
     25982     25981     25984     25985     25982     25981     25984     25986
     25982     25981     25984     25987     25983     25981     25984     25985
     25983     25981     25984     25986     25983     25981     25984     25987
     25984     25987     25990     25991     25984     25987     25990     25992
     25984     25987     25990     25993     25985     25984     25987     25988
     25985     25984     25987     25989     25985     25984     25987     25990
     25986     25984     25987     25988     25986     25984     25987     25989
     25986     25984     25987     25990     25987     25990     25993     25994
     25987     25990     25993     25995     25987     25990     25993     25996
     25988     25987     25990     25991     25988     25987     25990     25992
     25988     25987     25990     25993     25989     25987     25990     25991
     25989     25987     25990     25992     25989     25987     25990     25993
     25990     25993     25996     25997     25990     25993     25996     25998
     25990     25993     25996     25999     25991     25990     25993     25994
     25991     25990     25993     25995     25991     25990     25993     25996
     25992     25990     25993     25994     25992     25990     25993     25995
     25992     25990     25993     25996     25993     25996     25999     26000
     25993     25996     25999     26001     25993     25996     25999     26002
     25994     25993     25996     25997     25994     25993     25996     25998
     25994     25993     25996     25999     25995     25993     25996     25997
     25995     25993     25996     25998     25995     25993     25996     25999
     25996     25999     26002     26003     25996     25999     26002     26004
     25996     25999     26002     26005     25997     25996     25999     26000
     25997     25996     25999     26001     25997     25996     25999     26002
     25998     25996     25999     26000     25998     25996     25999     26001
     25998     25996     25999     26002     25999     26002     26005     26006
     25999     26002     26005     26007     25999     26002     26005     26008
     26000     25999     26002     26003     26000     25999     26002     26004
     26000     25999     26002     26005     26001     25999     26002     26003
     26001     25999     26002     26004     26001     25999     26002     26005
     26002     26005     26008     26009     26002     26005     26008     26010
     26002     26005     26008     26011     26003     26002     26005     26006
     26003     26002     26005     26007     26003     26002     26005     26008
     26004     26002     26005     26006     26004     26002     26005     26007
     26004     26002     26005     26008     26005     26008     26011     26012
     26005     26008     26011     26013     26005     26008     26011     26014
     26006     26005     26008     26009     26006     26005     26008     26010
     26006     26005     26008     26011     26007     26005     26008     26009
     26007     26005     26008     26010     26007     26005     26008     26011
     26008     26011     26014     26015     26008     26011     26014     26016
     26008     26011     26014     26017     26009     26008     26011     26012
     26009     26008     26011     26013     26009     26008     26011     26014
     26010     26008     26011     26012     26010     26008     26011     26013
     26010     26008     26011     26014     26011     26014     26017     26018
     26011     26014     26017     26019     26011     26014     26017     26020
     26012     26011     26014     26015     26012     26011     26014     26016
     26012     26011     26014     26017     26013     26011     26014     26015
     26013     26011     26014     26016     26013     26011     26014     26017
     26015     26014     26017     26018     26015     26014     26017     26019
     26015     26014     26017     26020     26016     26014     26017     26018
     26016     26014     26017     26019     26016     26014     26017     26020
     26021     26025     26028     26029     26021     26025     26028     26030
     26021     26025     26028     26035     26022     26021     26025     26026
     26022     26021     26025     26027     26022     26021     26025     26028
     26023     26021     26025     26026     26023     26021     26025     26027
     26023     26021     26025     26028     26024     26021     26025     26026
     26024     26021     26025     26027     26024     26021     26025     26028
     26025     26028     26035     26031     26026     26025     26028     26029
     26026     26025     26028     26030     26026     26025     26028     26035
     26027     26025     26028     26029     26027     26025     26028     26030
     26027     26025     26028     26035     26028     26035     26031     26032
     26028     26035     26031     26033     26028     26035     26031     26034
     26029     26028     26035     26031     26030     26028     26035     26031
     26031     26034     26036     26037     26031     26034     26036     26038
     26031     26034     26036     26039     26032     26031     26034     26036
     26033     26031     26034     26036     26034     26036     26039     26040
     26034     26036     26039     26041     26034     26036     26039     26047
     26035     26031     26034     26036     26036     26039     26041     26042
     26036     26039     26047     26048     26036     26039     26047     26049
     26036     26039     26047     26050     26037     26036     26039     26040
     26037     26036     26039     26041     26037     26036     26039     26047
     26038     26036     26039     26040     26038     26036     26039     26041
     26038     26036     26039     26047     26039     26041     26042     26043
     26039     26041     26042     26044     26039     26047     26050     26051
     26040     26039     26041     26042     26040     26039     26047     26048
     26040     26039     26047     26049     26040     26039     26047     26050
     26041     26039     26047     26048     26041     26039     26047     26049
     26041     26039     26047     26050     26041     26042     26044     26045
     26041     26042     26044     26046     26041     26042     26044     26056
     26042     26041     26039     26047     26042     26044     26056     26057
     26042     26044     26056     26058     26042     26044     26056     26059
     26043     26042     26044     26045     26043     26042     26044     26046
     26043     26042     26044     26056     26044     26056     26059     26060
     26044     26056     26059     26061     26044     26056     26059     26062
     26045     26044     26056     26057     26045     26044     26056     26058
     26045     26044     26056     26059     26046     26044     26056     26057
     26046     26044     26056     26058     26046     26044     26056     26059
     26047     26050     26051     26052     26047     26050     26051     26053
     26048     26047     26050     26051     26049     26047     26050     26051
     26050     26051     26053     26054     26050     26051     26053     26055
     26050     26051     26053     26097     26051     26053     26097     26098
     26051     26053     26097     26099     26051     26053     26097     26100
     26052     26051     26053     26054     26052     26051     26053     26055
     26052     26051     26053     26097     26053     26097     26100     26101
     26053     26097     26100     26102     26053     26097     26100     26103
     26054     26053     26097     26098     26054     26053     26097     26099
     26054     26053     26097     26100     26055     26053     26097     26098
     26055     26053     26097     26099     26055     26053     26097     26100
     26056     26059     26062     26063     26056     26059     26062     26064
     26056     26059     26062     26065     26057     26056     26059     26060
     26057     26056     26059     26061     26057     26056     26059     26062
     26058     26056     26059     26060     26058     26056     26059     26061
     26058     26056     26059     26062     26059     26062     26065     26066
     26059     26062     26065     26067     26059     26062     26065     26068
     26060     26059     26062     26063     26060     26059     26062     26064
     26060     26059     26062     26065     26061     26059     26062     26063
     26061     26059     26062     26064     26061     26059     26062     26065
     26062     26065     26068     26069     26062     26065     26068     26070
     26062     26065     26068     26071     26063     26062     26065     26066
     26063     26062     26065     26067     26063     26062     26065     26068
     26064     26062     26065     26066     26064     26062     26065     26067
     26064     26062     26065     26068     26065     26068     26071     26072
     26065     26068     26071     26073     26065     26068     26071     26074
     26066     26065     26068     26069     26066     26065     26068     26070
     26066     26065     26068     26071     26067     26065     26068     26069
     26067     26065     26068     26070     26067     26065     26068     26071
     26068     26071     26074     26075     26068     26071     26074     26076
     26069     26068     26071     26072     26069     26068     26071     26073
     26069     26068     26071     26074     26070     26068     26071     26072
     26070     26068     26071     26073     26070     26068     26071     26074
     26071     26074     26076     26077     26071     26074     26076     26078
     26072     26071     26074     26075     26072     26071     26074     26076
     26073     26071     26074     26075     26073     26071     26074     26076
     26074     26076     26078     26079     26074     26076     26078     26080
     26074     26076     26078     26081     26075     26074     26076     26077
     26075     26074     26076     26078     26076     26078     26081     26082
     26076     26078     26081     26083     26076     26078     26081     26084
     26077     26076     26078     26079     26077     26076     26078     26080
     26077     26076     26078     26081     26078     26081     26084     26085
     26078     26081     26084     26086     26078     26081     26084     26087
     26079     26078     26081     26082     26079     26078     26081     26083
     26079     26078     26081     26084     26080     26078     26081     26082
     26080     26078     26081     26083     26080     26078     26081     26084
     26081     26084     26087     26088     26081     26084     26087     26089
     26081     26084     26087     26090     26082     26081     26084     26085
     26082     26081     26084     26086     26082     26081     26084     26087
     26083     26081     26084     26085     26083     26081     26084     26086
     26083     26081     26084     26087     26084     26087     26090     26091
     26084     26087     26090     26092     26084     26087     26090     26093
     26085     26084     26087     26088     26085     26084     26087     26089
     26085     26084     26087     26090     26086     26084     26087     26088
     26086     26084     26087     26089     26086     26084     26087     26090
     26087     26090     26093     26094     26087     26090     26093     26095
     26087     26090     26093     26096     26088     26087     26090     26091
     26088     26087     26090     26092     26088     26087     26090     26093
     26089     26087     26090     26091     26089     26087     26090     26092
     26089     26087     26090     26093     26091     26090     26093     26094
     26091     26090     26093     26095     26091     26090     26093     26096
     26092     26090     26093     26094     26092     26090     26093     26095
     26092     26090     26093     26096     26097     26100     26103     26104
     26097     26100     26103     26105     26097     26100     26103     26106
     26098     26097     26100     26101     26098     26097     26100     26102
     26098     26097     26100     26103     26099     26097     26100     26101
     26099     26097     26100     26102     26099     26097     26100     26103
     26100     26103     26106     26107     26100     26103     26106     26108
     26100     26103     26106     26109     26101     26100     26103     26104
     26101     26100     26103     26105     26101     26100     26103     26106
     26102     26100     26103     26104     26102     26100     26103     26105
     26102     26100     26103     26106     26103     26106     26109     26110
     26103     26106     26109     26111     26103     26106     26109     26112
     26104     26103     26106     26107     26104     26103     26106     26108
     26104     26103     26106     26109     26105     26103     26106     26107
     26105     26103     26106     26108     26105     26103     26106     26109
     26106     26109     26112     26113     26106     26109     26112     26114
     26106     26109     26112     26115     26107     26106     26109     26110
     26107     26106     26109     26111     26107     26106     26109     26112
     26108     26106     26109     26110     26108     26106     26109     26111
     26108     26106     26109     26112     26109     26112     26115     26116
     26109     26112     26115     26117     26110     26109     26112     26113
     26110     26109     26112     26114     26110     26109     26112     26115
     26111     26109     26112     26113     26111     26109     26112     26114
     26111     26109     26112     26115     26112     26115     26117     26118
     26112     26115     26117     26119     26113     26112     26115     26116
     26113     26112     26115     26117     26114     26112     26115     26116
     26114     26112     26115     26117     26115     26117     26119     26120
     26115     26117     26119     26121     26115     26117     26119     26122
     26116     26115     26117     26118     26116     26115     26117     26119
     26117     26119     26122     26123     26117     26119     26122     26124
     26117     26119     26122     26125     26118     26117     26119     26120
     26118     26117     26119     26121     26118     26117     26119     26122
     26119     26122     26125     26126     26119     26122     26125     26127
     26119     26122     26125     26128     26120     26119     26122     26123
     26120     26119     26122     26124     26120     26119     26122     26125
     26121     26119     26122     26123     26121     26119     26122     26124
     26121     26119     26122     26125     26122     26125     26128     26129
     26122     26125     26128     26130     26122     26125     26128     26131
     26123     26122     26125     26126     26123     26122     26125     26127
     26123     26122     26125     26128     26124     26122     26125     26126
     26124     26122     26125     26127     26124     26122     26125     26128
     26125     26128     26131     26132     26125     26128     26131     26133
     26125     26128     26131     26134     26126     26125     26128     26129
     26126     26125     26128     26130     26126     26125     26128     26131
     26127     26125     26128     26129     26127     26125     26128     26130
     26127     26125     26128     26131     26128     26131     26134     26135
     26128     26131     26134     26136     26128     26131     26134     26137
     26129     26128     26131     26132     26129     26128     26131     26133
     26129     26128     26131     26134     26130     26128     26131     26132
     26130     26128     26131     26133     26130     26128     26131     26134
     26131     26134     26137     26138     26131     26134     26137     26139
     26131     26134     26137     26140     26132     26131     26134     26135
     26132     26131     26134     26136     26132     26131     26134     26137
     26133     26131     26134     26135     26133     26131     26134     26136
     26133     26131     26134     26137     26134     26137     26140     26141
     26134     26137     26140     26142     26134     26137     26140     26143
     26135     26134     26137     26138     26135     26134     26137     26139
     26135     26134     26137     26140     26136     26134     26137     26138
     26136     26134     26137     26139     26136     26134     26137     26140
     26138     26137     26140     26141     26138     26137     26140     26142
     26138     26137     26140     26143     26139     26137     26140     26141
     26139     26137     26140     26142     26139     26137     26140     26143
     26144     26148     26151     26152     26144     26148     26151     26153
     26144     26148     26151     26158     26145     26144     26148     26149
     26145     26144     26148     26150     26145     26144     26148     26151
     26146     26144     26148     26149     26146     26144     26148     26150
     26146     26144     26148     26151     26147     26144     26148     26149
     26147     26144     26148     26150     26147     26144     26148     26151
     26148     26151     26158     26154     26149     26148     26151     26152
     26149     26148     26151     26153     26149     26148     26151     26158
     26150     26148     26151     26152     26150     26148     26151     26153
     26150     26148     26151     26158     26151     26158     26154     26155
     26151     26158     26154     26156     26151     26158     26154     26157
     26152     26151     26158     26154     26153     26151     26158     26154
     26154     26157     26159     26160     26154     26157     26159     26161
     26154     26157     26159     26162     26155     26154     26157     26159
     26156     26154     26157     26159     26157     26159     26162     26163
     26157     26159     26162     26164     26157     26159     26162     26170
     26158     26154     26157     26159     26159     26162     26164     26165
     26159     26162     26170     26171     26159     26162     26170     26172
     26159     26162     26170     26173     26160     26159     26162     26163
     26160     26159     26162     26164     26160     26159     26162     26170
     26161     26159     26162     26163     26161     26159     26162     26164
     26161     26159     26162     26170     26162     26164     26165     26166
     26162     26164     26165     26167     26162     26170     26173     26174
     26163     26162     26164     26165     26163     26162     26170     26171
     26163     26162     26170     26172     26163     26162     26170     26173
     26164     26162     26170     26171     26164     26162     26170     26172
     26164     26162     26170     26173     26164     26165     26167     26168
     26164     26165     26167     26169     26164     26165     26167     26179
     26165     26164     26162     26170     26165     26167     26179     26180
     26165     26167     26179     26181     26165     26167     26179     26182
     26166     26165     26167     26168     26166     26165     26167     26169
     26166     26165     26167     26179     26167     26179     26182     26183
     26167     26179     26182     26184     26167     26179     26182     26185
     26168     26167     26179     26180     26168     26167     26179     26181
     26168     26167     26179     26182     26169     26167     26179     26180
     26169     26167     26179     26181     26169     26167     26179     26182
     26170     26173     26174     26175     26170     26173     26174     26176
     26171     26170     26173     26174     26172     26170     26173     26174
     26173     26174     26176     26177     26173     26174     26176     26178
     26173     26174     26176     26223     26174     26176     26223     26224
     26174     26176     26223     26225     26174     26176     26223     26226
     26175     26174     26176     26177     26175     26174     26176     26178
     26175     26174     26176     26223     26176     26223     26226     26227
     26176     26223     26226     26228     26176     26223     26226     26229
     26177     26176     26223     26224     26177     26176     26223     26225
     26177     26176     26223     26226     26178     26176     26223     26224
     26178     26176     26223     26225     26178     26176     26223     26226
     26179     26182     26185     26186     26179     26182     26185     26187
     26179     26182     26185     26188     26180     26179     26182     26183
     26180     26179     26182     26184     26180     26179     26182     26185
     26181     26179     26182     26183     26181     26179     26182     26184
     26181     26179     26182     26185     26182     26185     26188     26189
     26182     26185     26188     26190     26182     26185     26188     26191
     26183     26182     26185     26186     26183     26182     26185     26187
     26183     26182     26185     26188     26184     26182     26185     26186
     26184     26182     26185     26187     26184     26182     26185     26188
     26185     26188     26191     26192     26185     26188     26191     26193
     26185     26188     26191     26194     26186     26185     26188     26189
     26186     26185     26188     26190     26186     26185     26188     26191
     26187     26185     26188     26189     26187     26185     26188     26190
     26187     26185     26188     26191     26188     26191     26194     26195
     26188     26191     26194     26196     26188     26191     26194     26197
     26189     26188     26191     26192     26189     26188     26191     26193
     26189     26188     26191     26194     26190     26188     26191     26192
     26190     26188     26191     26193     26190     26188     26191     26194
     26191     26194     26197     26198     26191     26194     26197     26199
     26191     26194     26197     26202     26192     26191     26194     26195
     26192     26191     26194     26196     26192     26191     26194     26197
     26193     26191     26194     26195     26193     26191     26194     26196
     26193     26191     26194     26197     26194     26197     26199     26200
     26194     26197     26199     26201     26194     26197     26199     26202
     26194     26197     26202     26199     26194     26197     26202     26203
     26194     26197     26202     26204     26195     26194     26197     26198
     26195     26194     26197     26199     26195     26194     26197     26202
     26196     26194     26197     26198     26196     26194     26197     26199
     26196     26194     26197     26202     26197     26199     26202     26203
     26197     26199     26202     26204     26197     26202     26199     26200
     26197     26202     26199     26201     26197     26202     26204     26205
     26197     26202     26204     26206     26197     26202     26204     26207
     26198     26197     26199     26200     26198     26197     26199     26201
     26198     26197     26199     26202     26198     26197     26202     26199
     26198     26197     26202     26203     26198     26197     26202     26204
     26199     26197     26202     26203     26199     26197     26202     26204
     26199     26202     26204     26205     26199     26202     26204     26206
     26199     26202     26204     26207     26200     26199     26197     26202
     26200     26199     26202     26203     26200     26199     26202     26204
     26201     26199     26197     26202     26201     26199     26202     26203
     26201     26199     26202     26204     26202     26204     26207     26208
     26202     26204     26207     26209     26202     26204     26207     26210
     26203     26202     26204     26205     26203     26202     26204     26206
     26203     26202     26204     26207     26204     26207     26210     26211
     26204     26207     26210     26212     26204     26207     26210     26213
     26205     26204     26207     26208     26205     26204     26207     26209
     26205     26204     26207     26210     26206     26204     26207     26208
     26206     26204     26207     26209     26206     26204     26207     26210
     26207     26210     26213     26214     26207     26210     26213     26215
     26207     26210     26213     26216     26208     26207     26210     26211
     26208     26207     26210     26212     26208     26207     26210     26213
     26209     26207     26210     26211     26209     26207     26210     26212
     26209     26207     26210     26213     26210     26213     26216     26217
     26210     26213     26216     26218     26210     26213     26216     26219
     26211     26210     26213     26214     26211     26210     26213     26215
     26211     26210     26213     26216     26212     26210     26213     26214
     26212     26210     26213     26215     26212     26210     26213     26216
     26213     26216     26219     26220     26213     26216     26219     26221
     26213     26216     26219     26222     26214     26213     26216     26217
     26214     26213     26216     26218     26214     26213     26216     26219
     26215     26213     26216     26217     26215     26213     26216     26218
     26215     26213     26216     26219     26217     26216     26219     26220
     26217     26216     26219     26221     26217     26216     26219     26222
     26218     26216     26219     26220     26218     26216     26219     26221
     26218     26216     26219     26222     26223     26226     26229     26230
     26223     26226     26229     26231     26223     26226     26229     26232
     26224     26223     26226     26227     26224     26223     26226     26228
     26224     26223     26226     26229     26225     26223     26226     26227
     26225     26223     26226     26228     26225     26223     26226     26229
     26226     26229     26232     26233     26226     26229     26232     26234
     26226     26229     26232     26235     26227     26226     26229     26230
     26227     26226     26229     26231     26227     26226     26229     26232
     26228     26226     26229     26230     26228     26226     26229     26231
     26228     26226     26229     26232     26229     26232     26235     26236
     26229     26232     26235     26237     26229     26232     26235     26238
     26230     26229     26232     26233     26230     26229     26232     26234
     26230     26229     26232     26235     26231     26229     26232     26233
     26231     26229     26232     26234     26231     26229     26232     26235
     26232     26235     26238     26239     26232     26235     26238     26240
     26232     26235     26238     26241     26233     26232     26235     26236
     26233     26232     26235     26237     26233     26232     26235     26238
     26234     26232     26235     26236     26234     26232     26235     26237
     26234     26232     26235     26238     26235     26238     26241     26242
     26235     26238     26241     26243     26235     26238     26241     26244
     26236     26235     26238     26239     26236     26235     26238     26240
     26236     26235     26238     26241     26237     26235     26238     26239
     26237     26235     26238     26240     26237     26235     26238     26241
     26238     26241     26244     26245     26238     26241     26244     26246
     26238     26241     26244     26247     26239     26238     26241     26242
     26239     26238     26241     26243     26239     26238     26241     26244
     26240     26238     26241     26242     26240     26238     26241     26243
     26240     26238     26241     26244     26241     26244     26247     26248
     26241     26244     26247     26249     26241     26244     26247     26250
     26242     26241     26244     26245     26242     26241     26244     26246
     26242     26241     26244     26247     26243     26241     26244     26245
     26243     26241     26244     26246     26243     26241     26244     26247
     26244     26247     26250     26251     26244     26247     26250     26252
     26244     26247     26250     26253     26245     26244     26247     26248
     26245     26244     26247     26249     26245     26244     26247     26250
     26246     26244     26247     26248     26246     26244     26247     26249
     26246     26244     26247     26250     26247     26250     26253     26254
     26247     26250     26253     26255     26247     26250     26253     26256
     26248     26247     26250     26251     26248     26247     26250     26252
     26248     26247     26250     26253     26249     26247     26250     26251
     26249     26247     26250     26252     26249     26247     26250     26253
     26250     26253     26256     26257     26250     26253     26256     26258
     26250     26253     26256     26259     26251     26250     26253     26254
     26251     26250     26253     26255     26251     26250     26253     26256
     26252     26250     26253     26254     26252     26250     26253     26255
     26252     26250     26253     26256     26253     26256     26259     26260
     26253     26256     26259     26261     26253     26256     26259     26262
     26254     26253     26256     26257     26254     26253     26256     26258
     26254     26253     26256     26259     26255     26253     26256     26257
     26255     26253     26256     26258     26255     26253     26256     26259
     26257     26256     26259     26260     26257     26256     26259     26261
     26257     26256     26259     26262     26258     26256     26259     26260
     26258     26256     26259     26261     26258     26256     26259     26262
     26263     26268     26270     26271     26263     26268     26272     26273
     26263     26268     26272     26274     26263     26268     26272     26279
     26264     26263     26266     26267     26264     26263     26268     26269
     26264     26263     26268     26270     26264     26263     26268     26272
     26265     26263     26266     26267     26265     26263     26268     26269
     26265     26263     26268     26270     26265     26263     26268     26272
     26266     26263     26268     26269     26266     26263     26268     26270
     26266     26263     26268     26272     26267     26266     26263     26268
     26268     26272     26279     26275     26269     26268     26270     26271
     26269     26268     26272     26273     26269     26268     26272     26274
     26269     26268     26272     26279     26270     26268     26272     26273
     26270     26268     26272     26274     26270     26268     26272     26279
     26271     26270     26268     26272     26272     26279     26275     26276
     26272     26279     26275     26277     26272     26279     26275     26278
     26273     26272     26279     26275     26274     26272     26279     26275
     26275     26278     26280     26281     26275     26278     26280     26282
     26275     26278     26280     26283     26276     26275     26278     26280
     26277     26275     26278     26280     26278     26280     26283     26284
     26278     26280     26283     26285     26278     26280     26283     26291
     26279     26275     26278     26280     26280     26283     26285     26286
     26280     26283     26291     26292     26280     26283     26291     26293
     26280     26283     26291     26294     26281     26280     26283     26284
     26281     26280     26283     26285     26281     26280     26283     26291
     26282     26280     26283     26284     26282     26280     26283     26285
     26282     26280     26283     26291     26283     26285     26286     26287
     26283     26285     26286     26288     26283     26291     26294     26295
     26284     26283     26285     26286     26284     26283     26291     26292
     26284     26283     26291     26293     26284     26283     26291     26294
     26285     26283     26291     26292     26285     26283     26291     26293
     26285     26283     26291     26294     26285     26286     26288     26289
     26285     26286     26288     26290     26285     26286     26288     26300
     26286     26285     26283     26291     26286     26288     26300     26301
     26286     26288     26300     26302     26286     26288     26300     26303
     26287     26286     26288     26289     26287     26286     26288     26290
     26287     26286     26288     26300     26288     26300     26303     26304
     26288     26300     26303     26305     26288     26300     26303     26306
     26289     26288     26300     26301     26289     26288     26300     26302
     26289     26288     26300     26303     26290     26288     26300     26301
     26290     26288     26300     26302     26290     26288     26300     26303
     26291     26294     26295     26296     26291     26294     26295     26297
     26292     26291     26294     26295     26293     26291     26294     26295
     26294     26295     26297     26298     26294     26295     26297     26299
     26294     26295     26297     26344     26295     26297     26344     26345
     26295     26297     26344     26346     26295     26297     26344     26347
     26296     26295     26297     26298     26296     26295     26297     26299
     26296     26295     26297     26344     26297     26344     26347     26348
     26297     26344     26347     26349     26297     26344     26347     26350
     26298     26297     26344     26345     26298     26297     26344     26346
     26298     26297     26344     26347     26299     26297     26344     26345
     26299     26297     26344     26346     26299     26297     26344     26347
     26300     26303     26306     26307     26300     26303     26306     26308
     26300     26303     26306     26309     26301     26300     26303     26304
     26301     26300     26303     26305     26301     26300     26303     26306
     26302     26300     26303     26304     26302     26300     26303     26305
     26302     26300     26303     26306     26303     26306     26309     26310
     26303     26306     26309     26311     26303     26306     26309     26312
     26304     26303     26306     26307     26304     26303     26306     26308
     26304     26303     26306     26309     26305     26303     26306     26307
     26305     26303     26306     26308     26305     26303     26306     26309
     26306     26309     26312     26313     26306     26309     26312     26314
     26306     26309     26312     26315     26307     26306     26309     26310
     26307     26306     26309     26311     26307     26306     26309     26312
     26308     26306     26309     26310     26308     26306     26309     26311
     26308     26306     26309     26312     26309     26312     26315     26316
     26309     26312     26315     26317     26309     26312     26315     26318
     26310     26309     26312     26313     26310     26309     26312     26314
     26310     26309     26312     26315     26311     26309     26312     26313
     26311     26309     26312     26314     26311     26309     26312     26315
     26312     26315     26318     26319     26312     26315     26318     26320
     26312     26315     26318     26323     26313     26312     26315     26316
     26313     26312     26315     26317     26313     26312     26315     26318
     26314     26312     26315     26316     26314     26312     26315     26317
     26314     26312     26315     26318     26315     26318     26320     26321
     26315     26318     26320     26322     26315     26318     26320     26323
     26315     26318     26323     26320     26315     26318     26323     26324
     26315     26318     26323     26325     26316     26315     26318     26319
     26316     26315     26318     26320     26316     26315     26318     26323
     26317     26315     26318     26319     26317     26315     26318     26320
     26317     26315     26318     26323     26318     26320     26323     26324
     26318     26320     26323     26325     26318     26323     26320     26321
     26318     26323     26320     26322     26318     26323     26325     26326
     26318     26323     26325     26327     26318     26323     26325     26328
     26319     26318     26320     26321     26319     26318     26320     26322
     26319     26318     26320     26323     26319     26318     26323     26320
     26319     26318     26323     26324     26319     26318     26323     26325
     26320     26318     26323     26324     26320     26318     26323     26325
     26320     26323     26325     26326     26320     26323     26325     26327
     26320     26323     26325     26328     26321     26320     26318     26323
     26321     26320     26323     26324     26321     26320     26323     26325
     26322     26320     26318     26323     26322     26320     26323     26324
     26322     26320     26323     26325     26323     26325     26328     26329
     26323     26325     26328     26330     26323     26325     26328     26331
     26324     26323     26325     26326     26324     26323     26325     26327
     26324     26323     26325     26328     26325     26328     26331     26332
     26325     26328     26331     26333     26325     26328     26331     26334
     26326     26325     26328     26329     26326     26325     26328     26330
     26326     26325     26328     26331     26327     26325     26328     26329
     26327     26325     26328     26330     26327     26325     26328     26331
     26328     26331     26334     26335     26328     26331     26334     26336
     26328     26331     26334     26337     26329     26328     26331     26332
     26329     26328     26331     26333     26329     26328     26331     26334
     26330     26328     26331     26332     26330     26328     26331     26333
     26330     26328     26331     26334     26331     26334     26337     26338
     26331     26334     26337     26339     26331     26334     26337     26340
     26332     26331     26334     26335     26332     26331     26334     26336
     26332     26331     26334     26337     26333     26331     26334     26335
     26333     26331     26334     26336     26333     26331     26334     26337
     26334     26337     26340     26341     26334     26337     26340     26342
     26334     26337     26340     26343     26335     26334     26337     26338
     26335     26334     26337     26339     26335     26334     26337     26340
     26336     26334     26337     26338     26336     26334     26337     26339
     26336     26334     26337     26340     26338     26337     26340     26341
     26338     26337     26340     26342     26338     26337     26340     26343
     26339     26337     26340     26341     26339     26337     26340     26342
     26339     26337     26340     26343     26344     26347     26350     26351
     26344     26347     26350     26352     26344     26347     26350     26353
     26345     26344     26347     26348     26345     26344     26347     26349
     26345     26344     26347     26350     26346     26344     26347     26348
     26346     26344     26347     26349     26346     26344     26347     26350
     26347     26350     26353     26354     26347     26350     26353     26355
     26347     26350     26353     26356     26348     26347     26350     26351
     26348     26347     26350     26352     26348     26347     26350     26353
     26349     26347     26350     26351     26349     26347     26350     26352
     26349     26347     26350     26353     26350     26353     26356     26357
     26350     26353     26356     26358     26350     26353     26356     26359
     26351     26350     26353     26354     26351     26350     26353     26355
     26351     26350     26353     26356     26352     26350     26353     26354
     26352     26350     26353     26355     26352     26350     26353     26356
     26353     26356     26359     26360     26353     26356     26359     26361
     26353     26356     26359     26362     26354     26353     26356     26357
     26354     26353     26356     26358     26354     26353     26356     26359
     26355     26353     26356     26357     26355     26353     26356     26358
     26355     26353     26356     26359     26356     26359     26362     26363
     26356     26359     26362     26364     26356     26359     26362     26365
     26357     26356     26359     26360     26357     26356     26359     26361
     26357     26356     26359     26362     26358     26356     26359     26360
     26358     26356     26359     26361     26358     26356     26359     26362
     26359     26362     26365     26366     26359     26362     26365     26367
     26359     26362     26365     26368     26360     26359     26362     26363
     26360     26359     26362     26364     26360     26359     26362     26365
     26361     26359     26362     26363     26361     26359     26362     26364
     26361     26359     26362     26365     26362     26365     26368     26369
     26362     26365     26368     26370     26362     26365     26368     26371
     26363     26362     26365     26366     26363     26362     26365     26367
     26363     26362     26365     26368     26364     26362     26365     26366
     26364     26362     26365     26367     26364     26362     26365     26368
     26365     26368     26371     26372     26365     26368     26371     26373
     26365     26368     26371     26374     26366     26365     26368     26369
     26366     26365     26368     26370     26366     26365     26368     26371
     26367     26365     26368     26369     26367     26365     26368     26370
     26367     26365     26368     26371     26368     26371     26374     26375
     26368     26371     26374     26376     26368     26371     26374     26377
     26369     26368     26371     26372     26369     26368     26371     26373
     26369     26368     26371     26374     26370     26368     26371     26372
     26370     26368     26371     26373     26370     26368     26371     26374
     26371     26374     26377     26378     26371     26374     26377     26379
     26371     26374     26377     26380     26372     26371     26374     26375
     26372     26371     26374     26376     26372     26371     26374     26377
     26373     26371     26374     26375     26373     26371     26374     26376
     26373     26371     26374     26377     26374     26377     26380     26381
     26374     26377     26380     26382     26374     26377     26380     26383
     26375     26374     26377     26378     26375     26374     26377     26379
     26375     26374     26377     26380     26376     26374     26377     26378
     26376     26374     26377     26379     26376     26374     26377     26380
     26377     26380     26383     26384     26377     26380     26383     26385
     26377     26380     26383     26386     26378     26377     26380     26381
     26378     26377     26380     26382     26378     26377     26380     26383
     26379     26377     26380     26381     26379     26377     26380     26382
     26379     26377     26380     26383     26381     26380     26383     26384
     26381     26380     26383     26385     26381     26380     26383     26386
     26382     26380     26383     26384     26382     26380     26383     26385
     26382     26380     26383     26386     26387     26391     26394     26395
     26387     26391     26394     26396     26387     26391     26394     26401
     26388     26387     26391     26392     26388     26387     26391     26393
     26388     26387     26391     26394     26389     26387     26391     26392
     26389     26387     26391     26393     26389     26387     26391     26394
     26390     26387     26391     26392     26390     26387     26391     26393
     26390     26387     26391     26394     26391     26394     26401     26397
     26392     26391     26394     26395     26392     26391     26394     26396
     26392     26391     26394     26401     26393     26391     26394     26395
     26393     26391     26394     26396     26393     26391     26394     26401
     26394     26401     26397     26398     26394     26401     26397     26399
     26394     26401     26397     26400     26395     26394     26401     26397
     26396     26394     26401     26397     26397     26400     26402     26403
     26397     26400     26402     26404     26397     26400     26402     26405
     26398     26397     26400     26402     26399     26397     26400     26402
     26400     26402     26405     26406     26400     26402     26405     26407
     26400     26402     26405     26413     26401     26397     26400     26402
     26402     26405     26407     26408     26402     26405     26413     26414
     26402     26405     26413     26415     26402     26405     26413     26416
     26403     26402     26405     26406     26403     26402     26405     26407
     26403     26402     26405     26413     26404     26402     26405     26406
     26404     26402     26405     26407     26404     26402     26405     26413
     26405     26407     26408     26409     26405     26407     26408     26410
     26405     26413     26416     26417     26406     26405     26407     26408
     26406     26405     26413     26414     26406     26405     26413     26415
     26406     26405     26413     26416     26407     26405     26413     26414
     26407     26405     26413     26415     26407     26405     26413     26416
     26407     26408     26410     26411     26407     26408     26410     26412
     26407     26408     26410     26422     26408     26407     26405     26413
     26408     26410     26422     26423     26408     26410     26422     26424
     26408     26410     26422     26425     26409     26408     26410     26411
     26409     26408     26410     26412     26409     26408     26410     26422
     26410     26422     26425     26426     26410     26422     26425     26427
     26410     26422     26425     26428     26411     26410     26422     26423
     26411     26410     26422     26424     26411     26410     26422     26425
     26412     26410     26422     26423     26412     26410     26422     26424
     26412     26410     26422     26425     26413     26416     26417     26418
     26413     26416     26417     26419     26414     26413     26416     26417
     26415     26413     26416     26417     26416     26417     26419     26420
     26416     26417     26419     26421     26416     26417     26419     26466
     26417     26419     26466     26467     26417     26419     26466     26468
     26417     26419     26466     26469     26418     26417     26419     26420
     26418     26417     26419     26421     26418     26417     26419     26466
     26419     26466     26469     26470     26419     26466     26469     26471
     26419     26466     26469     26472     26420     26419     26466     26467
     26420     26419     26466     26468     26420     26419     26466     26469
     26421     26419     26466     26467     26421     26419     26466     26468
     26421     26419     26466     26469     26422     26425     26428     26429
     26422     26425     26428     26430     26422     26425     26428     26431
     26423     26422     26425     26426     26423     26422     26425     26427
     26423     26422     26425     26428     26424     26422     26425     26426
     26424     26422     26425     26427     26424     26422     26425     26428
     26425     26428     26431     26432     26425     26428     26431     26433
     26425     26428     26431     26434     26426     26425     26428     26429
     26426     26425     26428     26430     26426     26425     26428     26431
     26427     26425     26428     26429     26427     26425     26428     26430
     26427     26425     26428     26431     26428     26431     26434     26435
     26428     26431     26434     26436     26428     26431     26434     26437
     26429     26428     26431     26432     26429     26428     26431     26433
     26429     26428     26431     26434     26430     26428     26431     26432
     26430     26428     26431     26433     26430     26428     26431     26434
     26431     26434     26437     26438     26431     26434     26437     26439
     26431     26434     26437     26440     26432     26431     26434     26435
     26432     26431     26434     26436     26432     26431     26434     26437
     26433     26431     26434     26435     26433     26431     26434     26436
     26433     26431     26434     26437     26434     26437     26440     26441
     26434     26437     26440     26442     26434     26437     26440     26445
     26435     26434     26437     26438     26435     26434     26437     26439
     26435     26434     26437     26440     26436     26434     26437     26438
     26436     26434     26437     26439     26436     26434     26437     26440
     26437     26440     26442     26443     26437     26440     26442     26444
     26437     26440     26442     26445     26437     26440     26445     26442
     26437     26440     26445     26446     26437     26440     26445     26447
     26438     26437     26440     26441     26438     26437     26440     26442
     26438     26437     26440     26445     26439     26437     26440     26441
     26439     26437     26440     26442     26439     26437     26440     26445
     26440     26442     26445     26446     26440     26442     26445     26447
     26440     26445     26442     26443     26440     26445     26442     26444
     26440     26445     26447     26448     26440     26445     26447     26449
     26440     26445     26447     26450     26441     26440     26442     26443
     26441     26440     26442     26444     26441     26440     26442     26445
     26441     26440     26445     26442     26441     26440     26445     26446
     26441     26440     26445     26447     26442     26440     26445     26446
     26442     26440     26445     26447     26442     26445     26447     26448
     26442     26445     26447     26449     26442     26445     26447     26450
     26443     26442     26440     26445     26443     26442     26445     26446
     26443     26442     26445     26447     26444     26442     26440     26445
     26444     26442     26445     26446     26444     26442     26445     26447
     26445     26447     26450     26451     26445     26447     26450     26452
     26445     26447     26450     26453     26446     26445     26447     26448
     26446     26445     26447     26449     26446     26445     26447     26450
     26447     26450     26453     26454     26447     26450     26453     26455
     26447     26450     26453     26456     26448     26447     26450     26451
     26448     26447     26450     26452     26448     26447     26450     26453
     26449     26447     26450     26451     26449     26447     26450     26452
     26449     26447     26450     26453     26450     26453     26456     26457
     26450     26453     26456     26458     26450     26453     26456     26459
     26451     26450     26453     26454     26451     26450     26453     26455
     26451     26450     26453     26456     26452     26450     26453     26454
     26452     26450     26453     26455     26452     26450     26453     26456
     26453     26456     26459     26460     26453     26456     26459     26461
     26453     26456     26459     26462     26454     26453     26456     26457
     26454     26453     26456     26458     26454     26453     26456     26459
     26455     26453     26456     26457     26455     26453     26456     26458
     26455     26453     26456     26459     26456     26459     26462     26463
     26456     26459     26462     26464     26456     26459     26462     26465
     26457     26456     26459     26460     26457     26456     26459     26461
     26457     26456     26459     26462     26458     26456     26459     26460
     26458     26456     26459     26461     26458     26456     26459     26462
     26460     26459     26462     26463     26460     26459     26462     26464
     26460     26459     26462     26465     26461     26459     26462     26463
     26461     26459     26462     26464     26461     26459     26462     26465
     26466     26469     26472     26473     26466     26469     26472     26474
     26466     26469     26472     26475     26467     26466     26469     26470
     26467     26466     26469     26471     26467     26466     26469     26472
     26468     26466     26469     26470     26468     26466     26469     26471
     26468     26466     26469     26472     26469     26472     26475     26476
     26469     26472     26475     26477     26469     26472     26475     26478
     26470     26469     26472     26473     26470     26469     26472     26474
     26470     26469     26472     26475     26471     26469     26472     26473
     26471     26469     26472     26474     26471     26469     26472     26475
     26472     26475     26478     26479     26472     26475     26478     26480
     26472     26475     26478     26481     26473     26472     26475     26476
     26473     26472     26475     26477     26473     26472     26475     26478
     26474     26472     26475     26476     26474     26472     26475     26477
     26474     26472     26475     26478     26475     26478     26481     26482
     26475     26478     26481     26483     26475     26478     26481     26484
     26476     26475     26478     26479     26476     26475     26478     26480
     26476     26475     26478     26481     26477     26475     26478     26479
     26477     26475     26478     26480     26477     26475     26478     26481
     26478     26481     26484     26485     26478     26481     26484     26486
     26478     26481     26484     26487     26479     26478     26481     26482
     26479     26478     26481     26483     26479     26478     26481     26484
     26480     26478     26481     26482     26480     26478     26481     26483
     26480     26478     26481     26484     26481     26484     26487     26488
     26481     26484     26487     26489     26481     26484     26487     26490
     26482     26481     26484     26485     26482     26481     26484     26486
     26482     26481     26484     26487     26483     26481     26484     26485
     26483     26481     26484     26486     26483     26481     26484     26487
     26484     26487     26490     26491     26484     26487     26490     26492
     26484     26487     26490     26493     26485     26484     26487     26488
     26485     26484     26487     26489     26485     26484     26487     26490
     26486     26484     26487     26488     26486     26484     26487     26489
     26486     26484     26487     26490     26487     26490     26493     26494
     26487     26490     26493     26495     26487     26490     26493     26496
     26488     26487     26490     26491     26488     26487     26490     26492
     26488     26487     26490     26493     26489     26487     26490     26491
     26489     26487     26490     26492     26489     26487     26490     26493
     26490     26493     26496     26497     26490     26493     26496     26498
     26490     26493     26496     26499     26491     26490     26493     26494
     26491     26490     26493     26495     26491     26490     26493     26496
     26492     26490     26493     26494     26492     26490     26493     26495
     26492     26490     26493     26496     26493     26496     26499     26500
     26493     26496     26499     26501     26493     26496     26499     26502
     26494     26493     26496     26497     26494     26493     26496     26498
     26494     26493     26496     26499     26495     26493     26496     26497
     26495     26493     26496     26498     26495     26493     26496     26499
     26496     26499     26502     26503     26496     26499     26502     26504
     26496     26499     26502     26505     26497     26496     26499     26500
     26497     26496     26499     26501     26497     26496     26499     26502
     26498     26496     26499     26500     26498     26496     26499     26501
     26498     26496     26499     26502     26499     26502     26505     26506
     26499     26502     26505     26507     26499     26502     26505     26508
     26500     26499     26502     26503     26500     26499     26502     26504
     26500     26499     26502     26505     26501     26499     26502     26503
     26501     26499     26502     26504     26501     26499     26502     26505
     26503     26502     26505     26506     26503     26502     26505     26507
     26503     26502     26505     26508     26504     26502     26505     26506
     26504     26502     26505     26507     26504     26502     26505     26508
     26509     26514     26516     26517     26509     26514     26518     26519
     26509     26514     26518     26520     26509     26514     26518     26525
     26510     26509     26512     26513     26510     26509     26514     26515
     26510     26509     26514     26516     26510     26509     26514     26518
     26511     26509     26512     26513     26511     26509     26514     26515
     26511     26509     26514     26516     26511     26509     26514     26518
     26512     26509     26514     26515     26512     26509     26514     26516
     26512     26509     26514     26518     26513     26512     26509     26514
     26514     26518     26525     26521     26515     26514     26516     26517
     26515     26514     26518     26519     26515     26514     26518     26520
     26515     26514     26518     26525     26516     26514     26518     26519
     26516     26514     26518     26520     26516     26514     26518     26525
     26517     26516     26514     26518     26518     26525     26521     26522
     26518     26525     26521     26523     26518     26525     26521     26524
     26519     26518     26525     26521     26520     26518     26525     26521
     26521     26524     26526     26527     26521     26524     26526     26528
     26521     26524     26526     26529     26522     26521     26524     26526
     26523     26521     26524     26526     26524     26526     26529     26530
     26524     26526     26529     26531     26524     26526     26529     26537
     26525     26521     26524     26526     26526     26529     26531     26532
     26526     26529     26537     26538     26526     26529     26537     26539
     26526     26529     26537     26540     26527     26526     26529     26530
     26527     26526     26529     26531     26527     26526     26529     26537
     26528     26526     26529     26530     26528     26526     26529     26531
     26528     26526     26529     26537     26529     26531     26532     26533
     26529     26531     26532     26534     26529     26537     26540     26541
     26530     26529     26531     26532     26530     26529     26537     26538
     26530     26529     26537     26539     26530     26529     26537     26540
     26531     26529     26537     26538     26531     26529     26537     26539
     26531     26529     26537     26540     26531     26532     26534     26535
     26531     26532     26534     26536     26531     26532     26534     26546
     26532     26531     26529     26537     26532     26534     26546     26547
     26532     26534     26546     26548     26532     26534     26546     26549
     26533     26532     26534     26535     26533     26532     26534     26536
     26533     26532     26534     26546     26534     26546     26549     26550
     26534     26546     26549     26551     26534     26546     26549     26552
     26535     26534     26546     26547     26535     26534     26546     26548
     26535     26534     26546     26549     26536     26534     26546     26547
     26536     26534     26546     26548     26536     26534     26546     26549
     26537     26540     26541     26542     26537     26540     26541     26543
     26538     26537     26540     26541     26539     26537     26540     26541
     26540     26541     26543     26544     26540     26541     26543     26545
     26540     26541     26543     26587     26541     26543     26587     26588
     26541     26543     26587     26589     26541     26543     26587     26590
     26542     26541     26543     26544     26542     26541     26543     26545
     26542     26541     26543     26587     26543     26587     26590     26591
     26543     26587     26590     26592     26543     26587     26590     26593
     26544     26543     26587     26588     26544     26543     26587     26589
     26544     26543     26587     26590     26545     26543     26587     26588
     26545     26543     26587     26589     26545     26543     26587     26590
     26546     26549     26552     26553     26546     26549     26552     26554
     26546     26549     26552     26555     26547     26546     26549     26550
     26547     26546     26549     26551     26547     26546     26549     26552
     26548     26546     26549     26550     26548     26546     26549     26551
     26548     26546     26549     26552     26549     26552     26555     26556
     26549     26552     26555     26557     26549     26552     26555     26558
     26550     26549     26552     26553     26550     26549     26552     26554
     26550     26549     26552     26555     26551     26549     26552     26553
     26551     26549     26552     26554     26551     26549     26552     26555
     26552     26555     26558     26559     26552     26555     26558     26560
     26552     26555     26558     26561     26553     26552     26555     26556
     26553     26552     26555     26557     26553     26552     26555     26558
     26554     26552     26555     26556     26554     26552     26555     26557
     26554     26552     26555     26558     26555     26558     26561     26562
     26555     26558     26561     26563     26555     26558     26561     26564
     26556     26555     26558     26559     26556     26555     26558     26560
     26556     26555     26558     26561     26557     26555     26558     26559
     26557     26555     26558     26560     26557     26555     26558     26561
     26558     26561     26564     26565     26558     26561     26564     26566
     26559     26558     26561     26562     26559     26558     26561     26563
     26559     26558     26561     26564     26560     26558     26561     26562
     26560     26558     26561     26563     26560     26558     26561     26564
     26561     26564     26566     26567     26561     26564     26566     26568
     26562     26561     26564     26565     26562     26561     26564     26566
     26563     26561     26564     26565     26563     26561     26564     26566
     26564     26566     26568     26569     26564     26566     26568     26570
     26564     26566     26568     26571     26565     26564     26566     26567
     26565     26564     26566     26568     26566     26568     26571     26572
     26566     26568     26571     26573     26566     26568     26571     26574
     26567     26566     26568     26569     26567     26566     26568     26570
     26567     26566     26568     26571     26568     26571     26574     26575
     26568     26571     26574     26576     26568     26571     26574     26577
     26569     26568     26571     26572     26569     26568     26571     26573
     26569     26568     26571     26574     26570     26568     26571     26572
     26570     26568     26571     26573     26570     26568     26571     26574
     26571     26574     26577     26578     26571     26574     26577     26579
     26571     26574     26577     26580     26572     26571     26574     26575
     26572     26571     26574     26576     26572     26571     26574     26577
     26573     26571     26574     26575     26573     26571     26574     26576
     26573     26571     26574     26577     26574     26577     26580     26581
     26574     26577     26580     26582     26574     26577     26580     26583
     26575     26574     26577     26578     26575     26574     26577     26579
     26575     26574     26577     26580     26576     26574     26577     26578
     26576     26574     26577     26579     26576     26574     26577     26580
     26577     26580     26583     26584     26577     26580     26583     26585
     26577     26580     26583     26586     26578     26577     26580     26581
     26578     26577     26580     26582     26578     26577     26580     26583
     26579     26577     26580     26581     26579     26577     26580     26582
     26579     26577     26580     26583     26581     26580     26583     26584
     26581     26580     26583     26585     26581     26580     26583     26586
     26582     26580     26583     26584     26582     26580     26583     26585
     26582     26580     26583     26586     26587     26590     26593     26594
     26587     26590     26593     26595     26587     26590     26593     26596
     26588     26587     26590     26591     26588     26587     26590     26592
     26588     26587     26590     26593     26589     26587     26590     26591
     26589     26587     26590     26592     26589     26587     26590     26593
     26590     26593     26596     26597     26590     26593     26596     26598
     26590     26593     26596     26599     26591     26590     26593     26594
     26591     26590     26593     26595     26591     26590     26593     26596
     26592     26590     26593     26594     26592     26590     26593     26595
     26592     26590     26593     26596     26593     26596     26599     26600
     26593     26596     26599     26601     26593     26596     26599     26602
     26594     26593     26596     26597     26594     26593     26596     26598
     26594     26593     26596     26599     26595     26593     26596     26597
     26595     26593     26596     26598     26595     26593     26596     26599
     26596     26599     26602     26603     26596     26599     26602     26604
     26596     26599     26602     26605     26597     26596     26599     26600
     26597     26596     26599     26601     26597     26596     26599     26602
     26598     26596     26599     26600     26598     26596     26599     26601
     26598     26596     26599     26602     26599     26602     26605     26606
     26599     26602     26605     26607     26599     26602     26605     26608
     26600     26599     26602     26603     26600     26599     26602     26604
     26600     26599     26602     26605     26601     26599     26602     26603
     26601     26599     26602     26604     26601     26599     26602     26605
     26602     26605     26608     26609     26602     26605     26608     26610
     26602     26605     26608     26611     26603     26602     26605     26606
     26603     26602     26605     26607     26603     26602     26605     26608
     26604     26602     26605     26606     26604     26602     26605     26607
     26604     26602     26605     26608     26605     26608     26611     26612
     26605     26608     26611     26613     26605     26608     26611     26614
     26606     26605     26608     26609     26606     26605     26608     26610
     26606     26605     26608     26611     26607     26605     26608     26609
     26607     26605     26608     26610     26607     26605     26608     26611
     26608     26611     26614     26615     26608     26611     26614     26616
     26608     26611     26614     26617     26609     26608     26611     26612
     26609     26608     26611     26613     26609     26608     26611     26614
     26610     26608     26611     26612     26610     26608     26611     26613
     26610     26608     26611     26614     26611     26614     26617     26618
     26611     26614     26617     26619     26611     26614     26617     26620
     26612     26611     26614     26615     26612     26611     26614     26616
     26612     26611     26614     26617     26613     26611     26614     26615
     26613     26611     26614     26616     26613     26611     26614     26617
     26614     26617     26620     26621     26614     26617     26620     26622
     26614     26617     26620     26623     26615     26614     26617     26618
     26615     26614     26617     26619     26615     26614     26617     26620
     26616     26614     26617     26618     26616     26614     26617     26619
     26616     26614     26617     26620     26617     26620     26623     26624
     26617     26620     26623     26625     26617     26620     26623     26626
     26618     26617     26620     26621     26618     26617     26620     26622
     26618     26617     26620     26623     26619     26617     26620     26621
     26619     26617     26620     26622     26619     26617     26620     26623
     26620     26623     26626     26627     26620     26623     26626     26628
     26620     26623     26626     26629     26621     26620     26623     26624
     26621     26620     26623     26625     26621     26620     26623     26626
     26622     26620     26623     26624     26622     26620     26623     26625
     26622     26620     26623     26626     26624     26623     26626     26627
     26624     26623     26626     26628     26624     26623     26626     26629
     26625     26623     26626     26627     26625     26623     26626     26628
     26625     26623     26626     26629     26630     26634     26637     26638
     26630     26634     26637     26639     26630     26634     26637     26644
     26631     26630     26634     26635     26631     26630     26634     26636
     26631     26630     26634     26637     26632     26630     26634     26635
     26632     26630     26634     26636     26632     26630     26634     26637
     26633     26630     26634     26635     26633     26630     26634     26636
     26633     26630     26634     26637     26634     26637     26644     26640
     26635     26634     26637     26638     26635     26634     26637     26639
     26635     26634     26637     26644     26636     26634     26637     26638
     26636     26634     26637     26639     26636     26634     26637     26644
     26637     26644     26640     26641     26637     26644     26640     26642
     26637     26644     26640     26643     26638     26637     26644     26640
     26639     26637     26644     26640     26640     26643     26645     26646
     26640     26643     26645     26647     26640     26643     26645     26648
     26641     26640     26643     26645     26642     26640     26643     26645
     26643     26645     26648     26649     26643     26645     26648     26650
     26643     26645     26648     26656     26644     26640     26643     26645
     26645     26648     26650     26651     26645     26648     26656     26657
     26645     26648     26656     26658     26645     26648     26656     26659
     26646     26645     26648     26649     26646     26645     26648     26650
     26646     26645     26648     26656     26647     26645     26648     26649
     26647     26645     26648     26650     26647     26645     26648     26656
     26648     26650     26651     26652     26648     26650     26651     26653
     26648     26656     26659     26660     26649     26648     26650     26651
     26649     26648     26656     26657     26649     26648     26656     26658
     26649     26648     26656     26659     26650     26648     26656     26657
     26650     26648     26656     26658     26650     26648     26656     26659
     26650     26651     26653     26654     26650     26651     26653     26655
     26650     26651     26653     26665     26651     26650     26648     26656
     26651     26653     26665     26666     26651     26653     26665     26667
     26651     26653     26665     26668     26652     26651     26653     26654
     26652     26651     26653     26655     26652     26651     26653     26665
     26653     26665     26668     26669     26653     26665     26668     26670
     26653     26665     26668     26671     26654     26653     26665     26666
     26654     26653     26665     26667     26654     26653     26665     26668
     26655     26653     26665     26666     26655     26653     26665     26667
     26655     26653     26665     26668     26656     26659     26660     26661
     26656     26659     26660     26662     26657     26656     26659     26660
     26658     26656     26659     26660     26659     26660     26662     26663
     26659     26660     26662     26664     26659     26660     26662     26709
     26660     26662     26709     26710     26660     26662     26709     26711
     26660     26662     26709     26712     26661     26660     26662     26663
     26661     26660     26662     26664     26661     26660     26662     26709
     26662     26709     26712     26713     26662     26709     26712     26714
     26662     26709     26712     26715     26663     26662     26709     26710
     26663     26662     26709     26711     26663     26662     26709     26712
     26664     26662     26709     26710     26664     26662     26709     26711
     26664     26662     26709     26712     26665     26668     26671     26672
     26665     26668     26671     26673     26665     26668     26671     26674
     26666     26665     26668     26669     26666     26665     26668     26670
     26666     26665     26668     26671     26667     26665     26668     26669
     26667     26665     26668     26670     26667     26665     26668     26671
     26668     26671     26674     26675     26668     26671     26674     26676
     26668     26671     26674     26677     26669     26668     26671     26672
     26669     26668     26671     26673     26669     26668     26671     26674
     26670     26668     26671     26672     26670     26668     26671     26673
     26670     26668     26671     26674     26671     26674     26677     26678
     26671     26674     26677     26679     26671     26674     26677     26680
     26672     26671     26674     26675     26672     26671     26674     26676
     26672     26671     26674     26677     26673     26671     26674     26675
     26673     26671     26674     26676     26673     26671     26674     26677
     26674     26677     26680     26681     26674     26677     26680     26682
     26674     26677     26680     26683     26675     26674     26677     26678
     26675     26674     26677     26679     26675     26674     26677     26680
     26676     26674     26677     26678     26676     26674     26677     26679
     26676     26674     26677     26680     26677     26680     26683     26684
     26677     26680     26683     26685     26677     26680     26683     26688
     26678     26677     26680     26681     26678     26677     26680     26682
     26678     26677     26680     26683     26679     26677     26680     26681
     26679     26677     26680     26682     26679     26677     26680     26683
     26680     26683     26685     26686     26680     26683     26685     26687
     26680     26683     26685     26688     26680     26683     26688     26685
     26680     26683     26688     26689     26680     26683     26688     26690
     26681     26680     26683     26684     26681     26680     26683     26685
     26681     26680     26683     26688     26682     26680     26683     26684
     26682     26680     26683     26685     26682     26680     26683     26688
     26683     26685     26688     26689     26683     26685     26688     26690
     26683     26688     26685     26686     26683     26688     26685     26687
     26683     26688     26690     26691     26683     26688     26690     26692
     26683     26688     26690     26693     26684     26683     26685     26686
     26684     26683     26685     26687     26684     26683     26685     26688
     26684     26683     26688     26685     26684     26683     26688     26689
     26684     26683     26688     26690     26685     26683     26688     26689
     26685     26683     26688     26690     26685     26688     26690     26691
     26685     26688     26690     26692     26685     26688     26690     26693
     26686     26685     26683     26688     26686     26685     26688     26689
     26686     26685     26688     26690     26687     26685     26683     26688
     26687     26685     26688     26689     26687     26685     26688     26690
     26688     26690     26693     26694     26688     26690     26693     26695
     26688     26690     26693     26696     26689     26688     26690     26691
     26689     26688     26690     26692     26689     26688     26690     26693
     26690     26693     26696     26697     26690     26693     26696     26698
     26690     26693     26696     26699     26691     26690     26693     26694
     26691     26690     26693     26695     26691     26690     26693     26696
     26692     26690     26693     26694     26692     26690     26693     26695
     26692     26690     26693     26696     26693     26696     26699     26700
     26693     26696     26699     26701     26693     26696     26699     26702
     26694     26693     26696     26697     26694     26693     26696     26698
     26694     26693     26696     26699     26695     26693     26696     26697
     26695     26693     26696     26698     26695     26693     26696     26699
     26696     26699     26702     26703     26696     26699     26702     26704
     26696     26699     26702     26705     26697     26696     26699     26700
     26697     26696     26699     26701     26697     26696     26699     26702
     26698     26696     26699     26700     26698     26696     26699     26701
     26698     26696     26699     26702     26699     26702     26705     26706
     26699     26702     26705     26707     26699     26702     26705     26708
     26700     26699     26702     26703     26700     26699     26702     26704
     26700     26699     26702     26705     26701     26699     26702     26703
     26701     26699     26702     26704     26701     26699     26702     26705
     26703     26702     26705     26706     26703     26702     26705     26707
     26703     26702     26705     26708     26704     26702     26705     26706
     26704     26702     26705     26707     26704     26702     26705     26708
     26709     26712     26715     26716     26709     26712     26715     26717
     26709     26712     26715     26718     26710     26709     26712     26713
     26710     26709     26712     26714     26710     26709     26712     26715
     26711     26709     26712     26713     26711     26709     26712     26714
     26711     26709     26712     26715     26712     26715     26718     26719
     26712     26715     26718     26720     26712     26715     26718     26721
     26713     26712     26715     26716     26713     26712     26715     26717
     26713     26712     26715     26718     26714     26712     26715     26716
     26714     26712     26715     26717     26714     26712     26715     26718
     26715     26718     26721     26722     26715     26718     26721     26723
     26715     26718     26721     26724     26716     26715     26718     26719
     26716     26715     26718     26720     26716     26715     26718     26721
     26717     26715     26718     26719     26717     26715     26718     26720
     26717     26715     26718     26721     26718     26721     26724     26725
     26718     26721     26724     26726     26718     26721     26724     26727
     26719     26718     26721     26722     26719     26718     26721     26723
     26719     26718     26721     26724     26720     26718     26721     26722
     26720     26718     26721     26723     26720     26718     26721     26724
     26721     26724     26727     26728     26721     26724     26727     26729
     26721     26724     26727     26730     26722     26721     26724     26725
     26722     26721     26724     26726     26722     26721     26724     26727
     26723     26721     26724     26725     26723     26721     26724     26726
     26723     26721     26724     26727     26724     26727     26730     26731
     26724     26727     26730     26732     26724     26727     26730     26733
     26725     26724     26727     26728     26725     26724     26727     26729
     26725     26724     26727     26730     26726     26724     26727     26728
     26726     26724     26727     26729     26726     26724     26727     26730
     26727     26730     26733     26734     26727     26730     26733     26735
     26727     26730     26733     26736     26728     26727     26730     26731
     26728     26727     26730     26732     26728     26727     26730     26733
     26729     26727     26730     26731     26729     26727     26730     26732
     26729     26727     26730     26733     26730     26733     26736     26737
     26730     26733     26736     26738     26730     26733     26736     26739
     26731     26730     26733     26734     26731     26730     26733     26735
     26731     26730     26733     26736     26732     26730     26733     26734
     26732     26730     26733     26735     26732     26730     26733     26736
     26733     26736     26739     26740     26733     26736     26739     26741
     26733     26736     26739     26742     26734     26733     26736     26737
     26734     26733     26736     26738     26734     26733     26736     26739
     26735     26733     26736     26737     26735     26733     26736     26738
     26735     26733     26736     26739     26736     26739     26742     26743
     26736     26739     26742     26744     26736     26739     26742     26745
     26737     26736     26739     26740     26737     26736     26739     26741
     26737     26736     26739     26742     26738     26736     26739     26740
     26738     26736     26739     26741     26738     26736     26739     26742
     26739     26742     26745     26746     26739     26742     26745     26747
     26739     26742     26745     26748     26740     26739     26742     26743
     26740     26739     26742     26744     26740     26739     26742     26745
     26741     26739     26742     26743     26741     26739     26742     26744
     26741     26739     26742     26745     26742     26745     26748     26749
     26742     26745     26748     26750     26742     26745     26748     26751
     26743     26742     26745     26746     26743     26742     26745     26747
     26743     26742     26745     26748     26744     26742     26745     26746
     26744     26742     26745     26747     26744     26742     26745     26748
     26746     26745     26748     26749     26746     26745     26748     26750
     26746     26745     26748     26751     26747     26745     26748     26749
     26747     26745     26748     26750     26747     26745     26748     26751
     26752     26756     26759     26760     26752     26756     26759     26761
     26752     26756     26759     26766     26753     26752     26756     26757
     26753     26752     26756     26758     26753     26752     26756     26759
     26754     26752     26756     26757     26754     26752     26756     26758
     26754     26752     26756     26759     26755     26752     26756     26757
     26755     26752     26756     26758     26755     26752     26756     26759
     26756     26759     26766     26762     26757     26756     26759     26760
     26757     26756     26759     26761     26757     26756     26759     26766
     26758     26756     26759     26760     26758     26756     26759     26761
     26758     26756     26759     26766     26759     26766     26762     26763
     26759     26766     26762     26764     26759     26766     26762     26765
     26760     26759     26766     26762     26761     26759     26766     26762
     26762     26765     26767     26768     26762     26765     26767     26769
     26762     26765     26767     26770     26763     26762     26765     26767
     26764     26762     26765     26767     26765     26767     26770     26771
     26765     26767     26770     26772     26765     26767     26770     26778
     26766     26762     26765     26767     26767     26770     26772     26773
     26767     26770     26778     26779     26767     26770     26778     26780
     26767     26770     26778     26781     26768     26767     26770     26771
     26768     26767     26770     26772     26768     26767     26770     26778
     26769     26767     26770     26771     26769     26767     26770     26772
     26769     26767     26770     26778     26770     26772     26773     26774
     26770     26772     26773     26775     26770     26778     26781     26782
     26771     26770     26772     26773     26771     26770     26778     26779
     26771     26770     26778     26780     26771     26770     26778     26781
     26772     26770     26778     26779     26772     26770     26778     26780
     26772     26770     26778     26781     26772     26773     26775     26776
     26772     26773     26775     26777     26772     26773     26775     26787
     26773     26772     26770     26778     26773     26775     26787     26788
     26773     26775     26787     26789     26773     26775     26787     26790
     26774     26773     26775     26776     26774     26773     26775     26777
     26774     26773     26775     26787     26775     26787     26790     26791
     26775     26787     26790     26792     26775     26787     26790     26793
     26776     26775     26787     26788     26776     26775     26787     26789
     26776     26775     26787     26790     26777     26775     26787     26788
     26777     26775     26787     26789     26777     26775     26787     26790
     26778     26781     26782     26783     26778     26781     26782     26784
     26779     26778     26781     26782     26780     26778     26781     26782
     26781     26782     26784     26785     26781     26782     26784     26786
     26781     26782     26784     26831     26782     26784     26831     26832
     26782     26784     26831     26833     26782     26784     26831     26834
     26783     26782     26784     26785     26783     26782     26784     26786
     26783     26782     26784     26831     26784     26831     26834     26835
     26784     26831     26834     26836     26784     26831     26834     26837
     26785     26784     26831     26832     26785     26784     26831     26833
     26785     26784     26831     26834     26786     26784     26831     26832
     26786     26784     26831     26833     26786     26784     26831     26834
     26787     26790     26793     26794     26787     26790     26793     26795
     26787     26790     26793     26796     26788     26787     26790     26791
     26788     26787     26790     26792     26788     26787     26790     26793
     26789     26787     26790     26791     26789     26787     26790     26792
     26789     26787     26790     26793     26790     26793     26796     26797
     26790     26793     26796     26798     26790     26793     26796     26799
     26791     26790     26793     26794     26791     26790     26793     26795
     26791     26790     26793     26796     26792     26790     26793     26794
     26792     26790     26793     26795     26792     26790     26793     26796
     26793     26796     26799     26800     26793     26796     26799     26801
     26793     26796     26799     26802     26794     26793     26796     26797
     26794     26793     26796     26798     26794     26793     26796     26799
     26795     26793     26796     26797     26795     26793     26796     26798
     26795     26793     26796     26799     26796     26799     26802     26803
     26796     26799     26802     26804     26796     26799     26802     26805
     26797     26796     26799     26800     26797     26796     26799     26801
     26797     26796     26799     26802     26798     26796     26799     26800
     26798     26796     26799     26801     26798     26796     26799     26802
     26799     26802     26805     26806     26799     26802     26805     26807
     26799     26802     26805     26810     26800     26799     26802     26803
     26800     26799     26802     26804     26800     26799     26802     26805
     26801     26799     26802     26803     26801     26799     26802     26804
     26801     26799     26802     26805     26802     26805     26807     26808
     26802     26805     26807     26809     26802     26805     26807     26810
     26802     26805     26810     26807     26802     26805     26810     26811
     26802     26805     26810     26812     26803     26802     26805     26806
     26803     26802     26805     26807     26803     26802     26805     26810
     26804     26802     26805     26806     26804     26802     26805     26807
     26804     26802     26805     26810     26805     26807     26810     26811
     26805     26807     26810     26812     26805     26810     26807     26808
     26805     26810     26807     26809     26805     26810     26812     26813
     26805     26810     26812     26814     26805     26810     26812     26815
     26806     26805     26807     26808     26806     26805     26807     26809
     26806     26805     26807     26810     26806     26805     26810     26807
     26806     26805     26810     26811     26806     26805     26810     26812
     26807     26805     26810     26811     26807     26805     26810     26812
     26807     26810     26812     26813     26807     26810     26812     26814
     26807     26810     26812     26815     26808     26807     26805     26810
     26808     26807     26810     26811     26808     26807     26810     26812
     26809     26807     26805     26810     26809     26807     26810     26811
     26809     26807     26810     26812     26810     26812     26815     26816
     26810     26812     26815     26817     26810     26812     26815     26818
     26811     26810     26812     26813     26811     26810     26812     26814
     26811     26810     26812     26815     26812     26815     26818     26819
     26812     26815     26818     26820     26812     26815     26818     26821
     26813     26812     26815     26816     26813     26812     26815     26817
     26813     26812     26815     26818     26814     26812     26815     26816
     26814     26812     26815     26817     26814     26812     26815     26818
     26815     26818     26821     26822     26815     26818     26821     26823
     26815     26818     26821     26824     26816     26815     26818     26819
     26816     26815     26818     26820     26816     26815     26818     26821
     26817     26815     26818     26819     26817     26815     26818     26820
     26817     26815     26818     26821     26818     26821     26824     26825
     26818     26821     26824     26826     26818     26821     26824     26827
     26819     26818     26821     26822     26819     26818     26821     26823
     26819     26818     26821     26824     26820     26818     26821     26822
     26820     26818     26821     26823     26820     26818     26821     26824
     26821     26824     26827     26828     26821     26824     26827     26829
     26821     26824     26827     26830     26822     26821     26824     26825
     26822     26821     26824     26826     26822     26821     26824     26827
     26823     26821     26824     26825     26823     26821     26824     26826
     26823     26821     26824     26827     26825     26824     26827     26828
     26825     26824     26827     26829     26825     26824     26827     26830
     26826     26824     26827     26828     26826     26824     26827     26829
     26826     26824     26827     26830     26831     26834     26837     26838
     26831     26834     26837     26839     26831     26834     26837     26840
     26832     26831     26834     26835     26832     26831     26834     26836
     26832     26831     26834     26837     26833     26831     26834     26835
     26833     26831     26834     26836     26833     26831     26834     26837
     26834     26837     26840     26841     26834     26837     26840     26842
     26834     26837     26840     26843     26835     26834     26837     26838
     26835     26834     26837     26839     26835     26834     26837     26840
     26836     26834     26837     26838     26836     26834     26837     26839
     26836     26834     26837     26840     26837     26840     26843     26844
     26837     26840     26843     26845     26837     26840     26843     26846
     26838     26837     26840     26841     26838     26837     26840     26842
     26838     26837     26840     26843     26839     26837     26840     26841
     26839     26837     26840     26842     26839     26837     26840     26843
     26840     26843     26846     26847     26840     26843     26846     26848
     26840     26843     26846     26849     26841     26840     26843     26844
     26841     26840     26843     26845     26841     26840     26843     26846
     26842     26840     26843     26844     26842     26840     26843     26845
     26842     26840     26843     26846     26843     26846     26849     26850
     26843     26846     26849     26851     26843     26846     26849     26852
     26844     26843     26846     26847     26844     26843     26846     26848
     26844     26843     26846     26849     26845     26843     26846     26847
     26845     26843     26846     26848     26845     26843     26846     26849
     26846     26849     26852     26853     26846     26849     26852     26854
     26846     26849     26852     26855     26847     26846     26849     26850
     26847     26846     26849     26851     26847     26846     26849     26852
     26848     26846     26849     26850     26848     26846     26849     26851
     26848     26846     26849     26852     26849     26852     26855     26856
     26849     26852     26855     26857     26849     26852     26855     26858
     26850     26849     26852     26853     26850     26849     26852     26854
     26850     26849     26852     26855     26851     26849     26852     26853
     26851     26849     26852     26854     26851     26849     26852     26855
     26852     26855     26858     26859     26852     26855     26858     26860
     26852     26855     26858     26861     26853     26852     26855     26856
     26853     26852     26855     26857     26853     26852     26855     26858
     26854     26852     26855     26856     26854     26852     26855     26857
     26854     26852     26855     26858     26855     26858     26861     26862
     26855     26858     26861     26863     26855     26858     26861     26864
     26856     26855     26858     26859     26856     26855     26858     26860
     26856     26855     26858     26861     26857     26855     26858     26859
     26857     26855     26858     26860     26857     26855     26858     26861
     26858     26861     26864     26865     26858     26861     26864     26866
     26858     26861     26864     26867     26859     26858     26861     26862
     26859     26858     26861     26863     26859     26858     26861     26864
     26860     26858     26861     26862     26860     26858     26861     26863
     26860     26858     26861     26864     26861     26864     26867     26868
     26861     26864     26867     26869     26861     26864     26867     26870
     26862     26861     26864     26865     26862     26861     26864     26866
     26862     26861     26864     26867     26863     26861     26864     26865
     26863     26861     26864     26866     26863     26861     26864     26867
     26864     26867     26870     26871     26864     26867     26870     26872
     26864     26867     26870     26873     26865     26864     26867     26868
     26865     26864     26867     26869     26865     26864     26867     26870
     26866     26864     26867     26868     26866     26864     26867     26869
     26866     26864     26867     26870     26868     26867     26870     26871
     26868     26867     26870     26872     26868     26867     26870     26873
     26869     26867     26870     26871     26869     26867     26870     26872
     26869     26867     26870     26873     26874     26878     26881     26882
     26874     26878     26881     26883     26874     26878     26881     26888
     26875     26874     26878     26879     26875     26874     26878     26880
     26875     26874     26878     26881     26876     26874     26878     26879
     26876     26874     26878     26880     26876     26874     26878     26881
     26877     26874     26878     26879     26877     26874     26878     26880
     26877     26874     26878     26881     26878     26881     26888     26884
     26879     26878     26881     26882     26879     26878     26881     26883
     26879     26878     26881     26888     26880     26878     26881     26882
     26880     26878     26881     26883     26880     26878     26881     26888
     26881     26888     26884     26885     26881     26888     26884     26886
     26881     26888     26884     26887     26882     26881     26888     26884
     26883     26881     26888     26884     26884     26887     26889     26890
     26884     26887     26889     26891     26884     26887     26889     26892
     26885     26884     26887     26889     26886     26884     26887     26889
     26887     26889     26892     26893     26887     26889     26892     26894
     26887     26889     26892     26900     26888     26884     26887     26889
     26889     26892     26894     26895     26889     26892     26900     26901
     26889     26892     26900     26902     26889     26892     26900     26903
     26890     26889     26892     26893     26890     26889     26892     26894
     26890     26889     26892     26900     26891     26889     26892     26893
     26891     26889     26892     26894     26891     26889     26892     26900
     26892     26894     26895     26896     26892     26894     26895     26897
     26892     26900     26903     26904     26893     26892     26894     26895
     26893     26892     26900     26901     26893     26892     26900     26902
     26893     26892     26900     26903     26894     26892     26900     26901
     26894     26892     26900     26902     26894     26892     26900     26903
     26894     26895     26897     26898     26894     26895     26897     26899
     26894     26895     26897     26909     26895     26894     26892     26900
     26895     26897     26909     26910     26895     26897     26909     26911
     26895     26897     26909     26912     26896     26895     26897     26898
     26896     26895     26897     26899     26896     26895     26897     26909
     26897     26909     26912     26913     26897     26909     26912     26914
     26897     26909     26912     26915     26898     26897     26909     26910
     26898     26897     26909     26911     26898     26897     26909     26912
     26899     26897     26909     26910     26899     26897     26909     26911
     26899     26897     26909     26912     26900     26903     26904     26905
     26900     26903     26904     26906     26901     26900     26903     26904
     26902     26900     26903     26904     26903     26904     26906     26907
     26903     26904     26906     26908     26903     26904     26906     26950
     26904     26906     26950     26951     26904     26906     26950     26952
     26904     26906     26950     26953     26905     26904     26906     26907
     26905     26904     26906     26908     26905     26904     26906     26950
     26906     26950     26953     26954     26906     26950     26953     26955
     26906     26950     26953     26956     26907     26906     26950     26951
     26907     26906     26950     26952     26907     26906     26950     26953
     26908     26906     26950     26951     26908     26906     26950     26952
     26908     26906     26950     26953     26909     26912     26915     26916
     26909     26912     26915     26917     26909     26912     26915     26918
     26910     26909     26912     26913     26910     26909     26912     26914
     26910     26909     26912     26915     26911     26909     26912     26913
     26911     26909     26912     26914     26911     26909     26912     26915
     26912     26915     26918     26919     26912     26915     26918     26920
     26912     26915     26918     26921     26913     26912     26915     26916
     26913     26912     26915     26917     26913     26912     26915     26918
     26914     26912     26915     26916     26914     26912     26915     26917
     26914     26912     26915     26918     26915     26918     26921     26922
     26915     26918     26921     26923     26915     26918     26921     26924
     26916     26915     26918     26919     26916     26915     26918     26920
     26916     26915     26918     26921     26917     26915     26918     26919
     26917     26915     26918     26920     26917     26915     26918     26921
     26918     26921     26924     26925     26918     26921     26924     26926
     26918     26921     26924     26927     26919     26918     26921     26922
     26919     26918     26921     26923     26919     26918     26921     26924
     26920     26918     26921     26922     26920     26918     26921     26923
     26920     26918     26921     26924     26921     26924     26927     26928
     26921     26924     26927     26929     26922     26921     26924     26925
     26922     26921     26924     26926     26922     26921     26924     26927
     26923     26921     26924     26925     26923     26921     26924     26926
     26923     26921     26924     26927     26924     26927     26929     26930
     26924     26927     26929     26931     26925     26924     26927     26928
     26925     26924     26927     26929     26926     26924     26927     26928
     26926     26924     26927     26929     26927     26929     26931     26932
     26927     26929     26931     26933     26927     26929     26931     26934
     26928     26927     26929     26930     26928     26927     26929     26931
     26929     26931     26934     26935     26929     26931     26934     26936
     26929     26931     26934     26937     26930     26929     26931     26932
     26930     26929     26931     26933     26930     26929     26931     26934
     26931     26934     26937     26938     26931     26934     26937     26939
     26931     26934     26937     26940     26932     26931     26934     26935
     26932     26931     26934     26936     26932     26931     26934     26937
     26933     26931     26934     26935     26933     26931     26934     26936
     26933     26931     26934     26937     26934     26937     26940     26941
     26934     26937     26940     26942     26934     26937     26940     26943
     26935     26934     26937     26938     26935     26934     26937     26939
     26935     26934     26937     26940     26936     26934     26937     26938
     26936     26934     26937     26939     26936     26934     26937     26940
     26937     26940     26943     26944     26937     26940     26943     26945
     26937     26940     26943     26946     26938     26937     26940     26941
     26938     26937     26940     26942     26938     26937     26940     26943
     26939     26937     26940     26941     26939     26937     26940     26942
     26939     26937     26940     26943     26940     26943     26946     26947
     26940     26943     26946     26948     26940     26943     26946     26949
     26941     26940     26943     26944     26941     26940     26943     26945
     26941     26940     26943     26946     26942     26940     26943     26944
     26942     26940     26943     26945     26942     26940     26943     26946
     26944     26943     26946     26947     26944     26943     26946     26948
     26944     26943     26946     26949     26945     26943     26946     26947
     26945     26943     26946     26948     26945     26943     26946     26949
     26950     26953     26956     26957     26950     26953     26956     26958
     26950     26953     26956     26959     26951     26950     26953     26954
     26951     26950     26953     26955     26951     26950     26953     26956
     26952     26950     26953     26954     26952     26950     26953     26955
     26952     26950     26953     26956     26953     26956     26959     26960
     26953     26956     26959     26961     26953     26956     26959     26962
     26954     26953     26956     26957     26954     26953     26956     26958
     26954     26953     26956     26959     26955     26953     26956     26957
     26955     26953     26956     26958     26955     26953     26956     26959
     26956     26959     26962     26963     26956     26959     26962     26964
     26956     26959     26962     26965     26957     26956     26959     26960
     26957     26956     26959     26961     26957     26956     26959     26962
     26958     26956     26959     26960     26958     26956     26959     26961
     26958     26956     26959     26962     26959     26962     26965     26966
     26959     26962     26965     26967     26959     26962     26965     26968
     26960     26959     26962     26963     26960     26959     26962     26964
     26960     26959     26962     26965     26961     26959     26962     26963
     26961     26959     26962     26964     26961     26959     26962     26965
     26962     26965     26968     26969     26962     26965     26968     26970
     26963     26962     26965     26966     26963     26962     26965     26967
     26963     26962     26965     26968     26964     26962     26965     26966
     26964     26962     26965     26967     26964     26962     26965     26968
     26965     26968     26970     26971     26965     26968     26970     26972
     26966     26965     26968     26969     26966     26965     26968     26970
     26967     26965     26968     26969     26967     26965     26968     26970
     26968     26970     26972     26973     26968     26970     26972     26974
     26968     26970     26972     26975     26969     26968     26970     26971
     26969     26968     26970     26972     26970     26972     26975     26976
     26970     26972     26975     26977     26970     26972     26975     26978
     26971     26970     26972     26973     26971     26970     26972     26974
     26971     26970     26972     26975     26972     26975     26978     26979
     26972     26975     26978     26980     26972     26975     26978     26981
     26973     26972     26975     26976     26973     26972     26975     26977
     26973     26972     26975     26978     26974     26972     26975     26976
     26974     26972     26975     26977     26974     26972     26975     26978
     26975     26978     26981     26982     26975     26978     26981     26983
     26975     26978     26981     26984     26976     26975     26978     26979
     26976     26975     26978     26980     26976     26975     26978     26981
     26977     26975     26978     26979     26977     26975     26978     26980
     26977     26975     26978     26981     26978     26981     26984     26985
     26978     26981     26984     26986     26978     26981     26984     26987
     26979     26978     26981     26982     26979     26978     26981     26983
     26979     26978     26981     26984     26980     26978     26981     26982
     26980     26978     26981     26983     26980     26978     26981     26984
     26981     26984     26987     26988     26981     26984     26987     26989
     26981     26984     26987     26990     26982     26981     26984     26985
     26982     26981     26984     26986     26982     26981     26984     26987
     26983     26981     26984     26985     26983     26981     26984     26986
     26983     26981     26984     26987     26984     26987     26990     26991
     26984     26987     26990     26992     26984     26987     26990     26993
     26985     26984     26987     26988     26985     26984     26987     26989
     26985     26984     26987     26990     26986     26984     26987     26988
     26986     26984     26987     26989     26986     26984     26987     26990
     26987     26990     26993     26994     26987     26990     26993     26995
     26987     26990     26993     26996     26988     26987     26990     26991
     26988     26987     26990     26992     26988     26987     26990     26993
     26989     26987     26990     26991     26989     26987     26990     26992
     26989     26987     26990     26993     26991     26990     26993     26994
     26991     26990     26993     26995     26991     26990     26993     26996
     26992     26990     26993     26994     26992     26990     26993     26995
     26992     26990     26993     26996     26997     27001     27004     27005
     26997     27001     27004     27006     26997     27001     27004     27011
     26998     26997     27001     27002     26998     26997     27001     27003
     26998     26997     27001     27004     26999     26997     27001     27002
     26999     26997     27001     27003     26999     26997     27001     27004
     27000     26997     27001     27002     27000     26997     27001     27003
     27000     26997     27001     27004     27001     27004     27011     27007
     27002     27001     27004     27005     27002     27001     27004     27006
     27002     27001     27004     27011     27003     27001     27004     27005
     27003     27001     27004     27006     27003     27001     27004     27011
     27004     27011     27007     27008     27004     27011     27007     27009
     27004     27011     27007     27010     27005     27004     27011     27007
     27006     27004     27011     27007     27007     27010     27012     27013
     27007     27010     27012     27014     27007     27010     27012     27015
     27008     27007     27010     27012     27009     27007     27010     27012
     27010     27012     27015     27016     27010     27012     27015     27017
     27010     27012     27015     27023     27011     27007     27010     27012
     27012     27015     27017     27018     27012     27015     27023     27024
     27012     27015     27023     27025     27012     27015     27023     27026
     27013     27012     27015     27016     27013     27012     27015     27017
     27013     27012     27015     27023     27014     27012     27015     27016
     27014     27012     27015     27017     27014     27012     27015     27023
     27015     27017     27018     27019     27015     27017     27018     27020
     27015     27023     27026     27027     27016     27015     27017     27018
     27016     27015     27023     27024     27016     27015     27023     27025
     27016     27015     27023     27026     27017     27015     27023     27024
     27017     27015     27023     27025     27017     27015     27023     27026
     27017     27018     27020     27021     27017     27018     27020     27022
     27017     27018     27020     27032     27018     27017     27015     27023
     27018     27020     27032     27033     27018     27020     27032     27034
     27018     27020     27032     27035     27019     27018     27020     27021
     27019     27018     27020     27022     27019     27018     27020     27032
     27020     27032     27035     27036     27020     27032     27035     27037
     27020     27032     27035     27038     27021     27020     27032     27033
     27021     27020     27032     27034     27021     27020     27032     27035
     27022     27020     27032     27033     27022     27020     27032     27034
     27022     27020     27032     27035     27023     27026     27027     27028
     27023     27026     27027     27029     27024     27023     27026     27027
     27025     27023     27026     27027     27026     27027     27029     27030
     27026     27027     27029     27031     27026     27027     27029     27076
     27027     27029     27076     27077     27027     27029     27076     27078
     27027     27029     27076     27079     27028     27027     27029     27030
     27028     27027     27029     27031     27028     27027     27029     27076
     27029     27076     27079     27080     27029     27076     27079     27081
     27029     27076     27079     27082     27030     27029     27076     27077
     27030     27029     27076     27078     27030     27029     27076     27079
     27031     27029     27076     27077     27031     27029     27076     27078
     27031     27029     27076     27079     27032     27035     27038     27039
     27032     27035     27038     27040     27032     27035     27038     27041
     27033     27032     27035     27036     27033     27032     27035     27037
     27033     27032     27035     27038     27034     27032     27035     27036
     27034     27032     27035     27037     27034     27032     27035     27038
     27035     27038     27041     27042     27035     27038     27041     27043
     27035     27038     27041     27044     27036     27035     27038     27039
     27036     27035     27038     27040     27036     27035     27038     27041
     27037     27035     27038     27039     27037     27035     27038     27040
     27037     27035     27038     27041     27038     27041     27044     27045
     27038     27041     27044     27046     27038     27041     27044     27047
     27039     27038     27041     27042     27039     27038     27041     27043
     27039     27038     27041     27044     27040     27038     27041     27042
     27040     27038     27041     27043     27040     27038     27041     27044
     27041     27044     27047     27048     27041     27044     27047     27049
     27041     27044     27047     27050     27042     27041     27044     27045
     27042     27041     27044     27046     27042     27041     27044     27047
     27043     27041     27044     27045     27043     27041     27044     27046
     27043     27041     27044     27047     27044     27047     27050     27051
     27044     27047     27050     27052     27044     27047     27050     27055
     27045     27044     27047     27048     27045     27044     27047     27049
     27045     27044     27047     27050     27046     27044     27047     27048
     27046     27044     27047     27049     27046     27044     27047     27050
     27047     27050     27052     27053     27047     27050     27052     27054
     27047     27050     27052     27055     27047     27050     27055     27052
     27047     27050     27055     27056     27047     27050     27055     27057
     27048     27047     27050     27051     27048     27047     27050     27052
     27048     27047     27050     27055     27049     27047     27050     27051
     27049     27047     27050     27052     27049     27047     27050     27055
     27050     27052     27055     27056     27050     27052     27055     27057
     27050     27055     27052     27053     27050     27055     27052     27054
     27050     27055     27057     27058     27050     27055     27057     27059
     27050     27055     27057     27060     27051     27050     27052     27053
     27051     27050     27052     27054     27051     27050     27052     27055
     27051     27050     27055     27052     27051     27050     27055     27056
     27051     27050     27055     27057     27052     27050     27055     27056
     27052     27050     27055     27057     27052     27055     27057     27058
     27052     27055     27057     27059     27052     27055     27057     27060
     27053     27052     27050     27055     27053     27052     27055     27056
     27053     27052     27055     27057     27054     27052     27050     27055
     27054     27052     27055     27056     27054     27052     27055     27057
     27055     27057     27060     27061     27055     27057     27060     27062
     27055     27057     27060     27063     27056     27055     27057     27058
     27056     27055     27057     27059     27056     27055     27057     27060
     27057     27060     27063     27064     27057     27060     27063     27065
     27057     27060     27063     27066     27058     27057     27060     27061
     27058     27057     27060     27062     27058     27057     27060     27063
     27059     27057     27060     27061     27059     27057     27060     27062
     27059     27057     27060     27063     27060     27063     27066     27067
     27060     27063     27066     27068     27060     27063     27066     27069
     27061     27060     27063     27064     27061     27060     27063     27065
     27061     27060     27063     27066     27062     27060     27063     27064
     27062     27060     27063     27065     27062     27060     27063     27066
     27063     27066     27069     27070     27063     27066     27069     27071
     27063     27066     27069     27072     27064     27063     27066     27067
     27064     27063     27066     27068     27064     27063     27066     27069
     27065     27063     27066     27067     27065     27063     27066     27068
     27065     27063     27066     27069     27066     27069     27072     27073
     27066     27069     27072     27074     27066     27069     27072     27075
     27067     27066     27069     27070     27067     27066     27069     27071
     27067     27066     27069     27072     27068     27066     27069     27070
     27068     27066     27069     27071     27068     27066     27069     27072
     27070     27069     27072     27073     27070     27069     27072     27074
     27070     27069     27072     27075     27071     27069     27072     27073
     27071     27069     27072     27074     27071     27069     27072     27075
     27076     27079     27082     27083     27076     27079     27082     27084
     27076     27079     27082     27085     27077     27076     27079     27080
     27077     27076     27079     27081     27077     27076     27079     27082
     27078     27076     27079     27080     27078     27076     27079     27081
     27078     27076     27079     27082     27079     27082     27085     27086
     27079     27082     27085     27087     27079     27082     27085     27088
     27080     27079     27082     27083     27080     27079     27082     27084
     27080     27079     27082     27085     27081     27079     27082     27083
     27081     27079     27082     27084     27081     27079     27082     27085
     27082     27085     27088     27089     27082     27085     27088     27090
     27082     27085     27088     27091     27083     27082     27085     27086
     27083     27082     27085     27087     27083     27082     27085     27088
     27084     27082     27085     27086     27084     27082     27085     27087
     27084     27082     27085     27088     27085     27088     27091     27092
     27085     27088     27091     27093     27085     27088     27091     27094
     27086     27085     27088     27089     27086     27085     27088     27090
     27086     27085     27088     27091     27087     27085     27088     27089
     27087     27085     27088     27090     27087     27085     27088     27091
     27088     27091     27094     27095     27088     27091     27094     27096
     27088     27091     27094     27097     27089     27088     27091     27092
     27089     27088     27091     27093     27089     27088     27091     27094
     27090     27088     27091     27092     27090     27088     27091     27093
     27090     27088     27091     27094     27091     27094     27097     27098
     27091     27094     27097     27099     27091     27094     27097     27100
     27092     27091     27094     27095     27092     27091     27094     27096
     27092     27091     27094     27097     27093     27091     27094     27095
     27093     27091     27094     27096     27093     27091     27094     27097
     27094     27097     27100     27101     27094     27097     27100     27102
     27094     27097     27100     27103     27095     27094     27097     27098
     27095     27094     27097     27099     27095     27094     27097     27100
     27096     27094     27097     27098     27096     27094     27097     27099
     27096     27094     27097     27100     27097     27100     27103     27104
     27097     27100     27103     27105     27097     27100     27103     27106
     27098     27097     27100     27101     27098     27097     27100     27102
     27098     27097     27100     27103     27099     27097     27100     27101
     27099     27097     27100     27102     27099     27097     27100     27103
     27100     27103     27106     27107     27100     27103     27106     27108
     27100     27103     27106     27109     27101     27100     27103     27104
     27101     27100     27103     27105     27101     27100     27103     27106
     27102     27100     27103     27104     27102     27100     27103     27105
     27102     27100     27103     27106     27103     27106     27109     27110
     27103     27106     27109     27111     27103     27106     27109     27112
     27104     27103     27106     27107     27104     27103     27106     27108
     27104     27103     27106     27109     27105     27103     27106     27107
     27105     27103     27106     27108     27105     27103     27106     27109
     27106     27109     27112     27113     27106     27109     27112     27114
     27106     27109     27112     27115     27107     27106     27109     27110
     27107     27106     27109     27111     27107     27106     27109     27112
     27108     27106     27109     27110     27108     27106     27109     27111
     27108     27106     27109     27112     27109     27112     27115     27116
     27109     27112     27115     27117     27109     27112     27115     27118
     27110     27109     27112     27113     27110     27109     27112     27114
     27110     27109     27112     27115     27111     27109     27112     27113
     27111     27109     27112     27114     27111     27109     27112     27115
     27113     27112     27115     27116     27113     27112     27115     27117
     27113     27112     27115     27118     27114     27112     27115     27116
     27114     27112     27115     27117     27114     27112     27115     27118
     27119     27124     27126     27127     27119     27124     27128     27129
     27119     27124     27128     27130     27119     27124     27128     27135
     27120     27119     27122     27123     27120     27119     27124     27125
     27120     27119     27124     27126     27120     27119     27124     27128
     27121     27119     27122     27123     27121     27119     27124     27125
     27121     27119     27124     27126     27121     27119     27124     27128
     27122     27119     27124     27125     27122     27119     27124     27126
     27122     27119     27124     27128     27123     27122     27119     27124
     27124     27128     27135     27131     27125     27124     27126     27127
     27125     27124     27128     27129     27125     27124     27128     27130
     27125     27124     27128     27135     27126     27124     27128     27129
     27126     27124     27128     27130     27126     27124     27128     27135
     27127     27126     27124     27128     27128     27135     27131     27132
     27128     27135     27131     27133     27128     27135     27131     27134
     27129     27128     27135     27131     27130     27128     27135     27131
     27131     27134     27136     27137     27131     27134     27136     27138
     27131     27134     27136     27139     27132     27131     27134     27136
     27133     27131     27134     27136     27134     27136     27139     27140
     27134     27136     27139     27141     27134     27136     27139     27147
     27135     27131     27134     27136     27136     27139     27141     27142
     27136     27139     27147     27148     27136     27139     27147     27149
     27136     27139     27147     27150     27137     27136     27139     27140
     27137     27136     27139     27141     27137     27136     27139     27147
     27138     27136     27139     27140     27138     27136     27139     27141
     27138     27136     27139     27147     27139     27141     27142     27143
     27139     27141     27142     27144     27139     27147     27150     27151
     27140     27139     27141     27142     27140     27139     27147     27148
     27140     27139     27147     27149     27140     27139     27147     27150
     27141     27139     27147     27148     27141     27139     27147     27149
     27141     27139     27147     27150     27141     27142     27144     27145
     27141     27142     27144     27146     27141     27142     27144     27156
     27142     27141     27139     27147     27142     27144     27156     27157
     27142     27144     27156     27158     27142     27144     27156     27159
     27143     27142     27144     27145     27143     27142     27144     27146
     27143     27142     27144     27156     27144     27156     27159     27160
     27144     27156     27159     27161     27144     27156     27159     27162
     27145     27144     27156     27157     27145     27144     27156     27158
     27145     27144     27156     27159     27146     27144     27156     27157
     27146     27144     27156     27158     27146     27144     27156     27159
     27147     27150     27151     27152     27147     27150     27151     27153
     27148     27147     27150     27151     27149     27147     27150     27151
     27150     27151     27153     27154     27150     27151     27153     27155
     27150     27151     27153     27200     27151     27153     27200     27201
     27151     27153     27200     27202     27151     27153     27200     27203
     27152     27151     27153     27154     27152     27151     27153     27155
     27152     27151     27153     27200     27153     27200     27203     27204
     27153     27200     27203     27205     27153     27200     27203     27206
     27154     27153     27200     27201     27154     27153     27200     27202
     27154     27153     27200     27203     27155     27153     27200     27201
     27155     27153     27200     27202     27155     27153     27200     27203
     27156     27159     27162     27163     27156     27159     27162     27164
     27156     27159     27162     27165     27157     27156     27159     27160
     27157     27156     27159     27161     27157     27156     27159     27162
     27158     27156     27159     27160     27158     27156     27159     27161
     27158     27156     27159     27162     27159     27162     27165     27166
     27159     27162     27165     27167     27159     27162     27165     27168
     27160     27159     27162     27163     27160     27159     27162     27164
     27160     27159     27162     27165     27161     27159     27162     27163
     27161     27159     27162     27164     27161     27159     27162     27165
     27162     27165     27168     27169     27162     27165     27168     27170
     27162     27165     27168     27171     27163     27162     27165     27166
     27163     27162     27165     27167     27163     27162     27165     27168
     27164     27162     27165     27166     27164     27162     27165     27167
     27164     27162     27165     27168     27165     27168     27171     27172
     27165     27168     27171     27173     27165     27168     27171     27174
     27166     27165     27168     27169     27166     27165     27168     27170
     27166     27165     27168     27171     27167     27165     27168     27169
     27167     27165     27168     27170     27167     27165     27168     27171
     27168     27171     27174     27175     27168     27171     27174     27176
     27168     27171     27174     27179     27169     27168     27171     27172
     27169     27168     27171     27173     27169     27168     27171     27174
     27170     27168     27171     27172     27170     27168     27171     27173
     27170     27168     27171     27174     27171     27174     27176     27177
     27171     27174     27176     27178     27171     27174     27176     27179
     27171     27174     27179     27176     27171     27174     27179     27180
     27171     27174     27179     27181     27172     27171     27174     27175
     27172     27171     27174     27176     27172     27171     27174     27179
     27173     27171     27174     27175     27173     27171     27174     27176
     27173     27171     27174     27179     27174     27176     27179     27180
     27174     27176     27179     27181     27174     27179     27176     27177
     27174     27179     27176     27178     27174     27179     27181     27182
     27174     27179     27181     27183     27174     27179     27181     27184
     27175     27174     27176     27177     27175     27174     27176     27178
     27175     27174     27176     27179     27175     27174     27179     27176
     27175     27174     27179     27180     27175     27174     27179     27181
     27176     27174     27179     27180     27176     27174     27179     27181
     27176     27179     27181     27182     27176     27179     27181     27183
     27176     27179     27181     27184     27177     27176     27174     27179
     27177     27176     27179     27180     27177     27176     27179     27181
     27178     27176     27174     27179     27178     27176     27179     27180
     27178     27176     27179     27181     27179     27181     27184     27185
     27179     27181     27184     27186     27179     27181     27184     27187
     27180     27179     27181     27182     27180     27179     27181     27183
     27180     27179     27181     27184     27181     27184     27187     27188
     27181     27184     27187     27189     27181     27184     27187     27190
     27182     27181     27184     27185     27182     27181     27184     27186
     27182     27181     27184     27187     27183     27181     27184     27185
     27183     27181     27184     27186     27183     27181     27184     27187
     27184     27187     27190     27191     27184     27187     27190     27192
     27184     27187     27190     27193     27185     27184     27187     27188
     27185     27184     27187     27189     27185     27184     27187     27190
     27186     27184     27187     27188     27186     27184     27187     27189
     27186     27184     27187     27190     27187     27190     27193     27194
     27187     27190     27193     27195     27187     27190     27193     27196
     27188     27187     27190     27191     27188     27187     27190     27192
     27188     27187     27190     27193     27189     27187     27190     27191
     27189     27187     27190     27192     27189     27187     27190     27193
     27190     27193     27196     27197     27190     27193     27196     27198
     27190     27193     27196     27199     27191     27190     27193     27194
     27191     27190     27193     27195     27191     27190     27193     27196
     27192     27190     27193     27194     27192     27190     27193     27195
     27192     27190     27193     27196     27194     27193     27196     27197
     27194     27193     27196     27198     27194     27193     27196     27199
     27195     27193     27196     27197     27195     27193     27196     27198
     27195     27193     27196     27199     27200     27203     27206     27207
     27200     27203     27206     27208     27200     27203     27206     27209
     27201     27200     27203     27204     27201     27200     27203     27205
     27201     27200     27203     27206     27202     27200     27203     27204
     27202     27200     27203     27205     27202     27200     27203     27206
     27203     27206     27209     27210     27203     27206     27209     27211
     27203     27206     27209     27212     27204     27203     27206     27207
     27204     27203     27206     27208     27204     27203     27206     27209
     27205     27203     27206     27207     27205     27203     27206     27208
     27205     27203     27206     27209     27206     27209     27212     27213
     27206     27209     27212     27214     27206     27209     27212     27215
     27207     27206     27209     27210     27207     27206     27209     27211
     27207     27206     27209     27212     27208     27206     27209     27210
     27208     27206     27209     27211     27208     27206     27209     27212
     27209     27212     27215     27216     27209     27212     27215     27217
     27209     27212     27215     27218     27210     27209     27212     27213
     27210     27209     27212     27214     27210     27209     27212     27215
     27211     27209     27212     27213     27211     27209     27212     27214
     27211     27209     27212     27215     27212     27215     27218     27219
     27212     27215     27218     27220     27212     27215     27218     27221
     27213     27212     27215     27216     27213     27212     27215     27217
     27213     27212     27215     27218     27214     27212     27215     27216
     27214     27212     27215     27217     27214     27212     27215     27218
     27215     27218     27221     27222     27215     27218     27221     27223
     27215     27218     27221     27224     27216     27215     27218     27219
     27216     27215     27218     27220     27216     27215     27218     27221
     27217     27215     27218     27219     27217     27215     27218     27220
     27217     27215     27218     27221     27218     27221     27224     27225
     27218     27221     27224     27226     27218     27221     27224     27227
     27219     27218     27221     27222     27219     27218     27221     27223
     27219     27218     27221     27224     27220     27218     27221     27222
     27220     27218     27221     27223     27220     27218     27221     27224
     27221     27224     27227     27228     27221     27224     27227     27229
     27221     27224     27227     27230     27222     27221     27224     27225
     27222     27221     27224     27226     27222     27221     27224     27227
     27223     27221     27224     27225     27223     27221     27224     27226
     27223     27221     27224     27227     27224     27227     27230     27231
     27224     27227     27230     27232     27224     27227     27230     27233
     27225     27224     27227     27228     27225     27224     27227     27229
     27225     27224     27227     27230     27226     27224     27227     27228
     27226     27224     27227     27229     27226     27224     27227     27230
     27227     27230     27233     27234     27227     27230     27233     27235
     27227     27230     27233     27236     27228     27227     27230     27231
     27228     27227     27230     27232     27228     27227     27230     27233
     27229     27227     27230     27231     27229     27227     27230     27232
     27229     27227     27230     27233     27230     27233     27236     27237
     27230     27233     27236     27238     27230     27233     27236     27239
     27231     27230     27233     27234     27231     27230     27233     27235
     27231     27230     27233     27236     27232     27230     27233     27234
     27232     27230     27233     27235     27232     27230     27233     27236
     27233     27236     27239     27240     27233     27236     27239     27241
     27233     27236     27239     27242     27234     27233     27236     27237
     27234     27233     27236     27238     27234     27233     27236     27239
     27235     27233     27236     27237     27235     27233     27236     27238
     27235     27233     27236     27239     27237     27236     27239     27240
     27237     27236     27239     27241     27237     27236     27239     27242
     27238     27236     27239     27240     27238     27236     27239     27241
     27238     27236     27239     27242     27243     27247     27250     27251
     27243     27247     27250     27252     27243     27247     27250     27257
     27244     27243     27247     27248     27244     27243     27247     27249
     27244     27243     27247     27250     27245     27243     27247     27248
     27245     27243     27247     27249     27245     27243     27247     27250
     27246     27243     27247     27248     27246     27243     27247     27249
     27246     27243     27247     27250     27247     27250     27257     27253
     27248     27247     27250     27251     27248     27247     27250     27252
     27248     27247     27250     27257     27249     27247     27250     27251
     27249     27247     27250     27252     27249     27247     27250     27257
     27250     27257     27253     27254     27250     27257     27253     27255
     27250     27257     27253     27256     27251     27250     27257     27253
     27252     27250     27257     27253     27253     27256     27258     27259
     27253     27256     27258     27260     27253     27256     27258     27261
     27254     27253     27256     27258     27255     27253     27256     27258
     27256     27258     27261     27262     27256     27258     27261     27263
     27256     27258     27261     27269     27257     27253     27256     27258
     27258     27261     27263     27264     27258     27261     27269     27270
     27258     27261     27269     27271     27258     27261     27269     27272
     27259     27258     27261     27262     27259     27258     27261     27263
     27259     27258     27261     27269     27260     27258     27261     27262
     27260     27258     27261     27263     27260     27258     27261     27269
     27261     27263     27264     27265     27261     27263     27264     27266
     27261     27269     27272     27273     27262     27261     27263     27264
     27262     27261     27269     27270     27262     27261     27269     27271
     27262     27261     27269     27272     27263     27261     27269     27270
     27263     27261     27269     27271     27263     27261     27269     27272
     27263     27264     27266     27267     27263     27264     27266     27268
     27263     27264     27266     27278     27264     27263     27261     27269
     27264     27266     27278     27279     27264     27266     27278     27280
     27264     27266     27278     27281     27265     27264     27266     27267
     27265     27264     27266     27268     27265     27264     27266     27278
     27266     27278     27281     27282     27266     27278     27281     27283
     27266     27278     27281     27284     27267     27266     27278     27279
     27267     27266     27278     27280     27267     27266     27278     27281
     27268     27266     27278     27279     27268     27266     27278     27280
     27268     27266     27278     27281     27269     27272     27273     27274
     27269     27272     27273     27275     27270     27269     27272     27273
     27271     27269     27272     27273     27272     27273     27275     27276
     27272     27273     27275     27277     27272     27273     27275     27322
     27273     27275     27322     27323     27273     27275     27322     27324
     27273     27275     27322     27325     27274     27273     27275     27276
     27274     27273     27275     27277     27274     27273     27275     27322
     27275     27322     27325     27326     27275     27322     27325     27327
     27275     27322     27325     27328     27276     27275     27322     27323
     27276     27275     27322     27324     27276     27275     27322     27325
     27277     27275     27322     27323     27277     27275     27322     27324
     27277     27275     27322     27325     27278     27281     27284     27285
     27278     27281     27284     27286     27278     27281     27284     27287
     27279     27278     27281     27282     27279     27278     27281     27283
     27279     27278     27281     27284     27280     27278     27281     27282
     27280     27278     27281     27283     27280     27278     27281     27284
     27281     27284     27287     27288     27281     27284     27287     27289
     27281     27284     27287     27290     27282     27281     27284     27285
     27282     27281     27284     27286     27282     27281     27284     27287
     27283     27281     27284     27285     27283     27281     27284     27286
     27283     27281     27284     27287     27284     27287     27290     27291
     27284     27287     27290     27292     27284     27287     27290     27293
     27285     27284     27287     27288     27285     27284     27287     27289
     27285     27284     27287     27290     27286     27284     27287     27288
     27286     27284     27287     27289     27286     27284     27287     27290
     27287     27290     27293     27294     27287     27290     27293     27295
     27287     27290     27293     27296     27288     27287     27290     27291
     27288     27287     27290     27292     27288     27287     27290     27293
     27289     27287     27290     27291     27289     27287     27290     27292
     27289     27287     27290     27293     27290     27293     27296     27297
     27290     27293     27296     27298     27290     27293     27296     27301
     27291     27290     27293     27294     27291     27290     27293     27295
     27291     27290     27293     27296     27292     27290     27293     27294
     27292     27290     27293     27295     27292     27290     27293     27296
     27293     27296     27298     27299     27293     27296     27298     27300
     27293     27296     27298     27301     27293     27296     27301     27298
     27293     27296     27301     27302     27293     27296     27301     27303
     27294     27293     27296     27297     27294     27293     27296     27298
     27294     27293     27296     27301     27295     27293     27296     27297
     27295     27293     27296     27298     27295     27293     27296     27301
     27296     27298     27301     27302     27296     27298     27301     27303
     27296     27301     27298     27299     27296     27301     27298     27300
     27296     27301     27303     27304     27296     27301     27303     27305
     27296     27301     27303     27306     27297     27296     27298     27299
     27297     27296     27298     27300     27297     27296     27298     27301
     27297     27296     27301     27298     27297     27296     27301     27302
     27297     27296     27301     27303     27298     27296     27301     27302
     27298     27296     27301     27303     27298     27301     27303     27304
     27298     27301     27303     27305     27298     27301     27303     27306
     27299     27298     27296     27301     27299     27298     27301     27302
     27299     27298     27301     27303     27300     27298     27296     27301
     27300     27298     27301     27302     27300     27298     27301     27303
     27301     27303     27306     27307     27301     27303     27306     27308
     27301     27303     27306     27309     27302     27301     27303     27304
     27302     27301     27303     27305     27302     27301     27303     27306
     27303     27306     27309     27310     27303     27306     27309     27311
     27303     27306     27309     27312     27304     27303     27306     27307
     27304     27303     27306     27308     27304     27303     27306     27309
     27305     27303     27306     27307     27305     27303     27306     27308
     27305     27303     27306     27309     27306     27309     27312     27313
     27306     27309     27312     27314     27306     27309     27312     27315
     27307     27306     27309     27310     27307     27306     27309     27311
     27307     27306     27309     27312     27308     27306     27309     27310
     27308     27306     27309     27311     27308     27306     27309     27312
     27309     27312     27315     27316     27309     27312     27315     27317
     27309     27312     27315     27318     27310     27309     27312     27313
     27310     27309     27312     27314     27310     27309     27312     27315
     27311     27309     27312     27313     27311     27309     27312     27314
     27311     27309     27312     27315     27312     27315     27318     27319
     27312     27315     27318     27320     27312     27315     27318     27321
     27313     27312     27315     27316     27313     27312     27315     27317
     27313     27312     27315     27318     27314     27312     27315     27316
     27314     27312     27315     27317     27314     27312     27315     27318
     27316     27315     27318     27319     27316     27315     27318     27320
     27316     27315     27318     27321     27317     27315     27318     27319
     27317     27315     27318     27320     27317     27315     27318     27321
     27322     27325     27328     27329     27322     27325     27328     27330
     27322     27325     27328     27331     27323     27322     27325     27326
     27323     27322     27325     27327     27323     27322     27325     27328
     27324     27322     27325     27326     27324     27322     27325     27327
     27324     27322     27325     27328     27325     27328     27331     27332
     27325     27328     27331     27333     27325     27328     27331     27334
     27326     27325     27328     27329     27326     27325     27328     27330
     27326     27325     27328     27331     27327     27325     27328     27329
     27327     27325     27328     27330     27327     27325     27328     27331
     27328     27331     27334     27335     27328     27331     27334     27336
     27328     27331     27334     27337     27329     27328     27331     27332
     27329     27328     27331     27333     27329     27328     27331     27334
     27330     27328     27331     27332     27330     27328     27331     27333
     27330     27328     27331     27334     27331     27334     27337     27338
     27331     27334     27337     27339     27331     27334     27337     27340
     27332     27331     27334     27335     27332     27331     27334     27336
     27332     27331     27334     27337     27333     27331     27334     27335
     27333     27331     27334     27336     27333     27331     27334     27337
     27334     27337     27340     27341     27334     27337     27340     27342
     27334     27337     27340     27343     27335     27334     27337     27338
     27335     27334     27337     27339     27335     27334     27337     27340
     27336     27334     27337     27338     27336     27334     27337     27339
     27336     27334     27337     27340     27337     27340     27343     27344
     27337     27340     27343     27345     27337     27340     27343     27346
     27338     27337     27340     27341     27338     27337     27340     27342
     27338     27337     27340     27343     27339     27337     27340     27341
     27339     27337     27340     27342     27339     27337     27340     27343
     27340     27343     27346     27347     27340     27343     27346     27348
     27340     27343     27346     27349     27341     27340     27343     27344
     27341     27340     27343     27345     27341     27340     27343     27346
     27342     27340     27343     27344     27342     27340     27343     27345
     27342     27340     27343     27346     27343     27346     27349     27350
     27343     27346     27349     27351     27343     27346     27349     27352
     27344     27343     27346     27347     27344     27343     27346     27348
     27344     27343     27346     27349     27345     27343     27346     27347
     27345     27343     27346     27348     27345     27343     27346     27349
     27346     27349     27352     27353     27346     27349     27352     27354
     27346     27349     27352     27355     27347     27346     27349     27350
     27347     27346     27349     27351     27347     27346     27349     27352
     27348     27346     27349     27350     27348     27346     27349     27351
     27348     27346     27349     27352     27349     27352     27355     27356
     27349     27352     27355     27357     27349     27352     27355     27358
     27350     27349     27352     27353     27350     27349     27352     27354
     27350     27349     27352     27355     27351     27349     27352     27353
     27351     27349     27352     27354     27351     27349     27352     27355
     27352     27355     27358     27359     27352     27355     27358     27360
     27352     27355     27358     27361     27353     27352     27355     27356
     27353     27352     27355     27357     27353     27352     27355     27358
     27354     27352     27355     27356     27354     27352     27355     27357
     27354     27352     27355     27358     27355     27358     27361     27362
     27355     27358     27361     27363     27355     27358     27361     27364
     27356     27355     27358     27359     27356     27355     27358     27360
     27356     27355     27358     27361     27357     27355     27358     27359
     27357     27355     27358     27360     27357     27355     27358     27361
     27359     27358     27361     27362     27359     27358     27361     27363
     27359     27358     27361     27364     27360     27358     27361     27362
     27360     27358     27361     27363     27360     27358     27361     27364
     27365     27369     27372     27373     27365     27369     27372     27374
     27365     27369     27372     27379     27366     27365     27369     27370
     27366     27365     27369     27371     27366     27365     27369     27372
     27367     27365     27369     27370     27367     27365     27369     27371
     27367     27365     27369     27372     27368     27365     27369     27370
     27368     27365     27369     27371     27368     27365     27369     27372
     27369     27372     27379     27375     27370     27369     27372     27373
     27370     27369     27372     27374     27370     27369     27372     27379
     27371     27369     27372     27373     27371     27369     27372     27374
     27371     27369     27372     27379     27372     27379     27375     27376
     27372     27379     27375     27377     27372     27379     27375     27378
     27373     27372     27379     27375     27374     27372     27379     27375
     27375     27378     27380     27381     27375     27378     27380     27382
     27375     27378     27380     27383     27376     27375     27378     27380
     27377     27375     27378     27380     27378     27380     27383     27384
     27378     27380     27383     27385     27378     27380     27383     27391
     27379     27375     27378     27380     27380     27383     27385     27386
     27380     27383     27391     27392     27380     27383     27391     27393
     27380     27383     27391     27394     27381     27380     27383     27384
     27381     27380     27383     27385     27381     27380     27383     27391
     27382     27380     27383     27384     27382     27380     27383     27385
     27382     27380     27383     27391     27383     27385     27386     27387
     27383     27385     27386     27388     27383     27391     27394     27395
     27384     27383     27385     27386     27384     27383     27391     27392
     27384     27383     27391     27393     27384     27383     27391     27394
     27385     27383     27391     27392     27385     27383     27391     27393
     27385     27383     27391     27394     27385     27386     27388     27389
     27385     27386     27388     27390     27385     27386     27388     27400
     27386     27385     27383     27391     27386     27388     27400     27401
     27386     27388     27400     27402     27386     27388     27400     27403
     27387     27386     27388     27389     27387     27386     27388     27390
     27387     27386     27388     27400     27388     27400     27403     27404
     27388     27400     27403     27405     27388     27400     27403     27406
     27389     27388     27400     27401     27389     27388     27400     27402
     27389     27388     27400     27403     27390     27388     27400     27401
     27390     27388     27400     27402     27390     27388     27400     27403
     27391     27394     27395     27396     27391     27394     27395     27397
     27392     27391     27394     27395     27393     27391     27394     27395
     27394     27395     27397     27398     27394     27395     27397     27399
     27394     27395     27397     27444     27395     27397     27444     27445
     27395     27397     27444     27446     27395     27397     27444     27447
     27396     27395     27397     27398     27396     27395     27397     27399
     27396     27395     27397     27444     27397     27444     27447     27448
     27397     27444     27447     27449     27397     27444     27447     27450
     27398     27397     27444     27445     27398     27397     27444     27446
     27398     27397     27444     27447     27399     27397     27444     27445
     27399     27397     27444     27446     27399     27397     27444     27447
     27400     27403     27406     27407     27400     27403     27406     27408
     27400     27403     27406     27409     27401     27400     27403     27404
     27401     27400     27403     27405     27401     27400     27403     27406
     27402     27400     27403     27404     27402     27400     27403     27405
     27402     27400     27403     27406     27403     27406     27409     27410
     27403     27406     27409     27411     27403     27406     27409     27412
     27404     27403     27406     27407     27404     27403     27406     27408
     27404     27403     27406     27409     27405     27403     27406     27407
     27405     27403     27406     27408     27405     27403     27406     27409
     27406     27409     27412     27413     27406     27409     27412     27414
     27406     27409     27412     27415     27407     27406     27409     27410
     27407     27406     27409     27411     27407     27406     27409     27412
     27408     27406     27409     27410     27408     27406     27409     27411
     27408     27406     27409     27412     27409     27412     27415     27416
     27409     27412     27415     27417     27409     27412     27415     27418
     27410     27409     27412     27413     27410     27409     27412     27414
     27410     27409     27412     27415     27411     27409     27412     27413
     27411     27409     27412     27414     27411     27409     27412     27415
     27412     27415     27418     27419     27412     27415     27418     27420
     27412     27415     27418     27423     27413     27412     27415     27416
     27413     27412     27415     27417     27413     27412     27415     27418
     27414     27412     27415     27416     27414     27412     27415     27417
     27414     27412     27415     27418     27415     27418     27420     27421
     27415     27418     27420     27422     27415     27418     27420     27423
     27415     27418     27423     27420     27415     27418     27423     27424
     27415     27418     27423     27425     27416     27415     27418     27419
     27416     27415     27418     27420     27416     27415     27418     27423
     27417     27415     27418     27419     27417     27415     27418     27420
     27417     27415     27418     27423     27418     27420     27423     27424
     27418     27420     27423     27425     27418     27423     27420     27421
     27418     27423     27420     27422     27418     27423     27425     27426
     27418     27423     27425     27427     27418     27423     27425     27428
     27419     27418     27420     27421     27419     27418     27420     27422
     27419     27418     27420     27423     27419     27418     27423     27420
     27419     27418     27423     27424     27419     27418     27423     27425
     27420     27418     27423     27424     27420     27418     27423     27425
     27420     27423     27425     27426     27420     27423     27425     27427
     27420     27423     27425     27428     27421     27420     27418     27423
     27421     27420     27423     27424     27421     27420     27423     27425
     27422     27420     27418     27423     27422     27420     27423     27424
     27422     27420     27423     27425     27423     27425     27428     27429
     27423     27425     27428     27430     27423     27425     27428     27431
     27424     27423     27425     27426     27424     27423     27425     27427
     27424     27423     27425     27428     27425     27428     27431     27432
     27425     27428     27431     27433     27425     27428     27431     27434
     27426     27425     27428     27429     27426     27425     27428     27430
     27426     27425     27428     27431     27427     27425     27428     27429
     27427     27425     27428     27430     27427     27425     27428     27431
     27428     27431     27434     27435     27428     27431     27434     27436
     27428     27431     27434     27437     27429     27428     27431     27432
     27429     27428     27431     27433     27429     27428     27431     27434
     27430     27428     27431     27432     27430     27428     27431     27433
     27430     27428     27431     27434     27431     27434     27437     27438
     27431     27434     27437     27439     27431     27434     27437     27440
     27432     27431     27434     27435     27432     27431     27434     27436
     27432     27431     27434     27437     27433     27431     27434     27435
     27433     27431     27434     27436     27433     27431     27434     27437
     27434     27437     27440     27441     27434     27437     27440     27442
     27434     27437     27440     27443     27435     27434     27437     27438
     27435     27434     27437     27439     27435     27434     27437     27440
     27436     27434     27437     27438     27436     27434     27437     27439
     27436     27434     27437     27440     27438     27437     27440     27441
     27438     27437     27440     27442     27438     27437     27440     27443
     27439     27437     27440     27441     27439     27437     27440     27442
     27439     27437     27440     27443     27444     27447     27450     27451
     27444     27447     27450     27452     27444     27447     27450     27453
     27445     27444     27447     27448     27445     27444     27447     27449
     27445     27444     27447     27450     27446     27444     27447     27448
     27446     27444     27447     27449     27446     27444     27447     27450
     27447     27450     27453     27454     27447     27450     27453     27455
     27447     27450     27453     27456     27448     27447     27450     27451
     27448     27447     27450     27452     27448     27447     27450     27453
     27449     27447     27450     27451     27449     27447     27450     27452
     27449     27447     27450     27453     27450     27453     27456     27457
     27450     27453     27456     27458     27450     27453     27456     27459
     27451     27450     27453     27454     27451     27450     27453     27455
     27451     27450     27453     27456     27452     27450     27453     27454
     27452     27450     27453     27455     27452     27450     27453     27456
     27453     27456     27459     27460     27453     27456     27459     27461
     27453     27456     27459     27462     27454     27453     27456     27457
     27454     27453     27456     27458     27454     27453     27456     27459
     27455     27453     27456     27457     27455     27453     27456     27458
     27455     27453     27456     27459     27456     27459     27462     27463
     27456     27459     27462     27464     27456     27459     27462     27465
     27457     27456     27459     27460     27457     27456     27459     27461
     27457     27456     27459     27462     27458     27456     27459     27460
     27458     27456     27459     27461     27458     27456     27459     27462
     27459     27462     27465     27466     27459     27462     27465     27467
     27459     27462     27465     27468     27460     27459     27462     27463
     27460     27459     27462     27464     27460     27459     27462     27465
     27461     27459     27462     27463     27461     27459     27462     27464
     27461     27459     27462     27465     27462     27465     27468     27469
     27462     27465     27468     27470     27462     27465     27468     27471
     27463     27462     27465     27466     27463     27462     27465     27467
     27463     27462     27465     27468     27464     27462     27465     27466
     27464     27462     27465     27467     27464     27462     27465     27468
     27465     27468     27471     27472     27465     27468     27471     27473
     27465     27468     27471     27474     27466     27465     27468     27469
     27466     27465     27468     27470     27466     27465     27468     27471
     27467     27465     27468     27469     27467     27465     27468     27470
     27467     27465     27468     27471     27468     27471     27474     27475
     27468     27471     27474     27476     27468     27471     27474     27477
     27469     27468     27471     27472     27469     27468     27471     27473
     27469     27468     27471     27474     27470     27468     27471     27472
     27470     27468     27471     27473     27470     27468     27471     27474
     27471     27474     27477     27478     27471     27474     27477     27479
     27471     27474     27477     27480     27472     27471     27474     27475
     27472     27471     27474     27476     27472     27471     27474     27477
     27473     27471     27474     27475     27473     27471     27474     27476
     27473     27471     27474     27477     27474     27477     27480     27481
     27474     27477     27480     27482     27474     27477     27480     27483
     27475     27474     27477     27478     27475     27474     27477     27479
     27475     27474     27477     27480     27476     27474     27477     27478
     27476     27474     27477     27479     27476     27474     27477     27480
     27477     27480     27483     27484     27477     27480     27483     27485
     27477     27480     27483     27486     27478     27477     27480     27481
     27478     27477     27480     27482     27478     27477     27480     27483
     27479     27477     27480     27481     27479     27477     27480     27482
     27479     27477     27480     27483     27481     27480     27483     27484
     27481     27480     27483     27485     27481     27480     27483     27486
     27482     27480     27483     27484     27482     27480     27483     27485
     27482     27480     27483     27486     27487     27491     27494     27495
     27487     27491     27494     27496     27487     27491     27494     27501
     27488     27487     27491     27492     27488     27487     27491     27493
     27488     27487     27491     27494     27489     27487     27491     27492
     27489     27487     27491     27493     27489     27487     27491     27494
     27490     27487     27491     27492     27490     27487     27491     27493
     27490     27487     27491     27494     27491     27494     27501     27497
     27492     27491     27494     27495     27492     27491     27494     27496
     27492     27491     27494     27501     27493     27491     27494     27495
     27493     27491     27494     27496     27493     27491     27494     27501
     27494     27501     27497     27498     27494     27501     27497     27499
     27494     27501     27497     27500     27495     27494     27501     27497
     27496     27494     27501     27497     27497     27500     27502     27503
     27497     27500     27502     27504     27497     27500     27502     27505
     27498     27497     27500     27502     27499     27497     27500     27502
     27500     27502     27505     27506     27500     27502     27505     27507
     27500     27502     27505     27513     27501     27497     27500     27502
     27502     27505     27507     27508     27502     27505     27513     27514
     27502     27505     27513     27515     27502     27505     27513     27516
     27503     27502     27505     27506     27503     27502     27505     27507
     27503     27502     27505     27513     27504     27502     27505     27506
     27504     27502     27505     27507     27504     27502     27505     27513
     27505     27507     27508     27509     27505     27507     27508     27510
     27505     27513     27516     27517     27506     27505     27507     27508
     27506     27505     27513     27514     27506     27505     27513     27515
     27506     27505     27513     27516     27507     27505     27513     27514
     27507     27505     27513     27515     27507     27505     27513     27516
     27507     27508     27510     27511     27507     27508     27510     27512
     27507     27508     27510     27522     27508     27507     27505     27513
     27508     27510     27522     27523     27508     27510     27522     27524
     27508     27510     27522     27525     27509     27508     27510     27511
     27509     27508     27510     27512     27509     27508     27510     27522
     27510     27522     27525     27526     27510     27522     27525     27527
     27510     27522     27525     27528     27511     27510     27522     27523
     27511     27510     27522     27524     27511     27510     27522     27525
     27512     27510     27522     27523     27512     27510     27522     27524
     27512     27510     27522     27525     27513     27516     27517     27518
     27513     27516     27517     27519     27514     27513     27516     27517
     27515     27513     27516     27517     27516     27517     27519     27520
     27516     27517     27519     27521     27516     27517     27519     27566
     27517     27519     27566     27567     27517     27519     27566     27568
     27517     27519     27566     27569     27518     27517     27519     27520
     27518     27517     27519     27521     27518     27517     27519     27566
     27519     27566     27569     27570     27519     27566     27569     27571
     27519     27566     27569     27572     27520     27519     27566     27567
     27520     27519     27566     27568     27520     27519     27566     27569
     27521     27519     27566     27567     27521     27519     27566     27568
     27521     27519     27566     27569     27522     27525     27528     27529
     27522     27525     27528     27530     27522     27525     27528     27531
     27523     27522     27525     27526     27523     27522     27525     27527
     27523     27522     27525     27528     27524     27522     27525     27526
     27524     27522     27525     27527     27524     27522     27525     27528
     27525     27528     27531     27532     27525     27528     27531     27533
     27525     27528     27531     27534     27526     27525     27528     27529
     27526     27525     27528     27530     27526     27525     27528     27531
     27527     27525     27528     27529     27527     27525     27528     27530
     27527     27525     27528     27531     27528     27531     27534     27535
     27528     27531     27534     27536     27528     27531     27534     27537
     27529     27528     27531     27532     27529     27528     27531     27533
     27529     27528     27531     27534     27530     27528     27531     27532
     27530     27528     27531     27533     27530     27528     27531     27534
     27531     27534     27537     27538     27531     27534     27537     27539
     27531     27534     27537     27540     27532     27531     27534     27535
     27532     27531     27534     27536     27532     27531     27534     27537
     27533     27531     27534     27535     27533     27531     27534     27536
     27533     27531     27534     27537     27534     27537     27540     27541
     27534     27537     27540     27542     27534     27537     27540     27545
     27535     27534     27537     27538     27535     27534     27537     27539
     27535     27534     27537     27540     27536     27534     27537     27538
     27536     27534     27537     27539     27536     27534     27537     27540
     27537     27540     27542     27543     27537     27540     27542     27544
     27537     27540     27542     27545     27537     27540     27545     27542
     27537     27540     27545     27546     27537     27540     27545     27547
     27538     27537     27540     27541     27538     27537     27540     27542
     27538     27537     27540     27545     27539     27537     27540     27541
     27539     27537     27540     27542     27539     27537     27540     27545
     27540     27542     27545     27546     27540     27542     27545     27547
     27540     27545     27542     27543     27540     27545     27542     27544
     27540     27545     27547     27548     27540     27545     27547     27549
     27540     27545     27547     27550     27541     27540     27542     27543
     27541     27540     27542     27544     27541     27540     27542     27545
     27541     27540     27545     27542     27541     27540     27545     27546
     27541     27540     27545     27547     27542     27540     27545     27546
     27542     27540     27545     27547     27542     27545     27547     27548
     27542     27545     27547     27549     27542     27545     27547     27550
     27543     27542     27540     27545     27543     27542     27545     27546
     27543     27542     27545     27547     27544     27542     27540     27545
     27544     27542     27545     27546     27544     27542     27545     27547
     27545     27547     27550     27551     27545     27547     27550     27552
     27545     27547     27550     27553     27546     27545     27547     27548
     27546     27545     27547     27549     27546     27545     27547     27550
     27547     27550     27553     27554     27547     27550     27553     27555
     27547     27550     27553     27556     27548     27547     27550     27551
     27548     27547     27550     27552     27548     27547     27550     27553
     27549     27547     27550     27551     27549     27547     27550     27552
     27549     27547     27550     27553     27550     27553     27556     27557
     27550     27553     27556     27558     27550     27553     27556     27559
     27551     27550     27553     27554     27551     27550     27553     27555
     27551     27550     27553     27556     27552     27550     27553     27554
     27552     27550     27553     27555     27552     27550     27553     27556
     27553     27556     27559     27560     27553     27556     27559     27561
     27553     27556     27559     27562     27554     27553     27556     27557
     27554     27553     27556     27558     27554     27553     27556     27559
     27555     27553     27556     27557     27555     27553     27556     27558
     27555     27553     27556     27559     27556     27559     27562     27563
     27556     27559     27562     27564     27556     27559     27562     27565
     27557     27556     27559     27560     27557     27556     27559     27561
     27557     27556     27559     27562     27558     27556     27559     27560
     27558     27556     27559     27561     27558     27556     27559     27562
     27560     27559     27562     27563     27560     27559     27562     27564
     27560     27559     27562     27565     27561     27559     27562     27563
     27561     27559     27562     27564     27561     27559     27562     27565
     27566     27569     27572     27573     27566     27569     27572     27574
     27566     27569     27572     27575     27567     27566     27569     27570
     27567     27566     27569     27571     27567     27566     27569     27572
     27568     27566     27569     27570     27568     27566     27569     27571
     27568     27566     27569     27572     27569     27572     27575     27576
     27569     27572     27575     27577     27569     27572     27575     27578
     27570     27569     27572     27573     27570     27569     27572     27574
     27570     27569     27572     27575     27571     27569     27572     27573
     27571     27569     27572     27574     27571     27569     27572     27575
     27572     27575     27578     27579     27572     27575     27578     27580
     27572     27575     27578     27581     27573     27572     27575     27576
     27573     27572     27575     27577     27573     27572     27575     27578
     27574     27572     27575     27576     27574     27572     27575     27577
     27574     27572     27575     27578     27575     27578     27581     27582
     27575     27578     27581     27583     27575     27578     27581     27584
     27576     27575     27578     27579     27576     27575     27578     27580
     27576     27575     27578     27581     27577     27575     27578     27579
     27577     27575     27578     27580     27577     27575     27578     27581
     27578     27581     27584     27585     27578     27581     27584     27586
     27578     27581     27584     27587     27579     27578     27581     27582
     27579     27578     27581     27583     27579     27578     27581     27584
     27580     27578     27581     27582     27580     27578     27581     27583
     27580     27578     27581     27584     27581     27584     27587     27588
     27581     27584     27587     27589     27581     27584     27587     27590
     27582     27581     27584     27585     27582     27581     27584     27586
     27582     27581     27584     27587     27583     27581     27584     27585
     27583     27581     27584     27586     27583     27581     27584     27587
     27584     27587     27590     27591     27584     27587     27590     27592
     27584     27587     27590     27593     27585     27584     27587     27588
     27585     27584     27587     27589     27585     27584     27587     27590
     27586     27584     27587     27588     27586     27584     27587     27589
     27586     27584     27587     27590     27587     27590     27593     27594
     27587     27590     27593     27595     27587     27590     27593     27596
     27588     27587     27590     27591     27588     27587     27590     27592
     27588     27587     27590     27593     27589     27587     27590     27591
     27589     27587     27590     27592     27589     27587     27590     27593
     27590     27593     27596     27597     27590     27593     27596     27598
     27590     27593     27596     27599     27591     27590     27593     27594
     27591     27590     27593     27595     27591     27590     27593     27596
     27592     27590     27593     27594     27592     27590     27593     27595
     27592     27590     27593     27596     27593     27596     27599     27600
     27593     27596     27599     27601     27593     27596     27599     27602
     27594     27593     27596     27597     27594     27593     27596     27598
     27594     27593     27596     27599     27595     27593     27596     27597
     27595     27593     27596     27598     27595     27593     27596     27599
     27596     27599     27602     27603     27596     27599     27602     27604
     27596     27599     27602     27605     27597     27596     27599     27600
     27597     27596     27599     27601     27597     27596     27599     27602
     27598     27596     27599     27600     27598     27596     27599     27601
     27598     27596     27599     27602     27599     27602     27605     27606
     27599     27602     27605     27607     27599     27602     27605     27608
     27600     27599     27602     27603     27600     27599     27602     27604
     27600     27599     27602     27605     27601     27599     27602     27603
     27601     27599     27602     27604     27601     27599     27602     27605
     27603     27602     27605     27606     27603     27602     27605     27607
     27603     27602     27605     27608     27604     27602     27605     27606
     27604     27602     27605     27607     27604     27602     27605     27608
     27609     27613     27616     27617     27609     27613     27616     27618
     27609     27613     27616     27623     27610     27609     27613     27614
     27610     27609     27613     27615     27610     27609     27613     27616
     27611     27609     27613     27614     27611     27609     27613     27615
     27611     27609     27613     27616     27612     27609     27613     27614
     27612     27609     27613     27615     27612     27609     27613     27616
     27613     27616     27623     27619     27614     27613     27616     27617
     27614     27613     27616     27618     27614     27613     27616     27623
     27615     27613     27616     27617     27615     27613     27616     27618
     27615     27613     27616     27623     27616     27623     27619     27620
     27616     27623     27619     27621     27616     27623     27619     27622
     27617     27616     27623     27619     27618     27616     27623     27619
     27619     27622     27624     27625     27619     27622     27624     27626
     27619     27622     27624     27627     27620     27619     27622     27624
     27621     27619     27622     27624     27622     27624     27627     27628
     27622     27624     27627     27629     27622     27624     27627     27635
     27623     27619     27622     27624     27624     27627     27629     27630
     27624     27627     27635     27636     27624     27627     27635     27637
     27624     27627     27635     27638     27625     27624     27627     27628
     27625     27624     27627     27629     27625     27624     27627     27635
     27626     27624     27627     27628     27626     27624     27627     27629
     27626     27624     27627     27635     27627     27629     27630     27631
     27627     27629     27630     27632     27627     27635     27638     27639
     27628     27627     27629     27630     27628     27627     27635     27636
     27628     27627     27635     27637     27628     27627     27635     27638
     27629     27627     27635     27636     27629     27627     27635     27637
     27629     27627     27635     27638     27629     27630     27632     27633
     27629     27630     27632     27634     27629     27630     27632     27644
     27630     27629     27627     27635     27630     27632     27644     27645
     27630     27632     27644     27646     27630     27632     27644     27647
     27631     27630     27632     27633     27631     27630     27632     27634
     27631     27630     27632     27644     27632     27644     27647     27648
     27632     27644     27647     27649     27632     27644     27647     27650
     27633     27632     27644     27645     27633     27632     27644     27646
     27633     27632     27644     27647     27634     27632     27644     27645
     27634     27632     27644     27646     27634     27632     27644     27647
     27635     27638     27639     27640     27635     27638     27639     27641
     27636     27635     27638     27639     27637     27635     27638     27639
     27638     27639     27641     27642     27638     27639     27641     27643
     27638     27639     27641     27688     27639     27641     27688     27689
     27639     27641     27688     27690     27639     27641     27688     27691
     27640     27639     27641     27642     27640     27639     27641     27643
     27640     27639     27641     27688     27641     27688     27691     27692
     27641     27688     27691     27693     27641     27688     27691     27694
     27642     27641     27688     27689     27642     27641     27688     27690
     27642     27641     27688     27691     27643     27641     27688     27689
     27643     27641     27688     27690     27643     27641     27688     27691
     27644     27647     27650     27651     27644     27647     27650     27652
     27644     27647     27650     27653     27645     27644     27647     27648
     27645     27644     27647     27649     27645     27644     27647     27650
     27646     27644     27647     27648     27646     27644     27647     27649
     27646     27644     27647     27650     27647     27650     27653     27654
     27647     27650     27653     27655     27647     27650     27653     27656
     27648     27647     27650     27651     27648     27647     27650     27652
     27648     27647     27650     27653     27649     27647     27650     27651
     27649     27647     27650     27652     27649     27647     27650     27653
     27650     27653     27656     27657     27650     27653     27656     27658
     27650     27653     27656     27659     27651     27650     27653     27654
     27651     27650     27653     27655     27651     27650     27653     27656
     27652     27650     27653     27654     27652     27650     27653     27655
     27652     27650     27653     27656     27653     27656     27659     27660
     27653     27656     27659     27661     27653     27656     27659     27662
     27654     27653     27656     27657     27654     27653     27656     27658
     27654     27653     27656     27659     27655     27653     27656     27657
     27655     27653     27656     27658     27655     27653     27656     27659
     27656     27659     27662     27663     27656     27659     27662     27664
     27656     27659     27662     27667     27657     27656     27659     27660
     27657     27656     27659     27661     27657     27656     27659     27662
     27658     27656     27659     27660     27658     27656     27659     27661
     27658     27656     27659     27662     27659     27662     27664     27665
     27659     27662     27664     27666     27659     27662     27664     27667
     27659     27662     27667     27664     27659     27662     27667     27668
     27659     27662     27667     27669     27660     27659     27662     27663
     27660     27659     27662     27664     27660     27659     27662     27667
     27661     27659     27662     27663     27661     27659     27662     27664
     27661     27659     27662     27667     27662     27664     27667     27668
     27662     27664     27667     27669     27662     27667     27664     27665
     27662     27667     27664     27666     27662     27667     27669     27670
     27662     27667     27669     27671     27662     27667     27669     27672
     27663     27662     27664     27665     27663     27662     27664     27666
     27663     27662     27664     27667     27663     27662     27667     27664
     27663     27662     27667     27668     27663     27662     27667     27669
     27664     27662     27667     27668     27664     27662     27667     27669
     27664     27667     27669     27670     27664     27667     27669     27671
     27664     27667     27669     27672     27665     27664     27662     27667
     27665     27664     27667     27668     27665     27664     27667     27669
     27666     27664     27662     27667     27666     27664     27667     27668
     27666     27664     27667     27669     27667     27669     27672     27673
     27667     27669     27672     27674     27667     27669     27672     27675
     27668     27667     27669     27670     27668     27667     27669     27671
     27668     27667     27669     27672     27669     27672     27675     27676
     27669     27672     27675     27677     27669     27672     27675     27678
     27670     27669     27672     27673     27670     27669     27672     27674
     27670     27669     27672     27675     27671     27669     27672     27673
     27671     27669     27672     27674     27671     27669     27672     27675
     27672     27675     27678     27679     27672     27675     27678     27680
     27672     27675     27678     27681     27673     27672     27675     27676
     27673     27672     27675     27677     27673     27672     27675     27678
     27674     27672     27675     27676     27674     27672     27675     27677
     27674     27672     27675     27678     27675     27678     27681     27682
     27675     27678     27681     27683     27675     27678     27681     27684
     27676     27675     27678     27679     27676     27675     27678     27680
     27676     27675     27678     27681     27677     27675     27678     27679
     27677     27675     27678     27680     27677     27675     27678     27681
     27678     27681     27684     27685     27678     27681     27684     27686
     27678     27681     27684     27687     27679     27678     27681     27682
     27679     27678     27681     27683     27679     27678     27681     27684
     27680     27678     27681     27682     27680     27678     27681     27683
     27680     27678     27681     27684     27682     27681     27684     27685
     27682     27681     27684     27686     27682     27681     27684     27687
     27683     27681     27684     27685     27683     27681     27684     27686
     27683     27681     27684     27687     27688     27691     27694     27695
     27688     27691     27694     27696     27688     27691     27694     27697
     27689     27688     27691     27692     27689     27688     27691     27693
     27689     27688     27691     27694     27690     27688     27691     27692
     27690     27688     27691     27693     27690     27688     27691     27694
     27691     27694     27697     27698     27691     27694     27697     27699
     27691     27694     27697     27700     27692     27691     27694     27695
     27692     27691     27694     27696     27692     27691     27694     27697
     27693     27691     27694     27695     27693     27691     27694     27696
     27693     27691     27694     27697     27694     27697     27700     27701
     27694     27697     27700     27702     27694     27697     27700     27703
     27695     27694     27697     27698     27695     27694     27697     27699
     27695     27694     27697     27700     27696     27694     27697     27698
     27696     27694     27697     27699     27696     27694     27697     27700
     27697     27700     27703     27704     27697     27700     27703     27705
     27697     27700     27703     27706     27698     27697     27700     27701
     27698     27697     27700     27702     27698     27697     27700     27703
     27699     27697     27700     27701     27699     27697     27700     27702
     27699     27697     27700     27703     27700     27703     27706     27707
     27700     27703     27706     27708     27700     27703     27706     27709
     27701     27700     27703     27704     27701     27700     27703     27705
     27701     27700     27703     27706     27702     27700     27703     27704
     27702     27700     27703     27705     27702     27700     27703     27706
     27703     27706     27709     27710     27703     27706     27709     27711
     27703     27706     27709     27712     27704     27703     27706     27707
     27704     27703     27706     27708     27704     27703     27706     27709
     27705     27703     27706     27707     27705     27703     27706     27708
     27705     27703     27706     27709     27706     27709     27712     27713
     27706     27709     27712     27714     27706     27709     27712     27715
     27707     27706     27709     27710     27707     27706     27709     27711
     27707     27706     27709     27712     27708     27706     27709     27710
     27708     27706     27709     27711     27708     27706     27709     27712
     27709     27712     27715     27716     27709     27712     27715     27717
     27709     27712     27715     27718     27710     27709     27712     27713
     27710     27709     27712     27714     27710     27709     27712     27715
     27711     27709     27712     27713     27711     27709     27712     27714
     27711     27709     27712     27715     27712     27715     27718     27719
     27712     27715     27718     27720     27712     27715     27718     27721
     27713     27712     27715     27716     27713     27712     27715     27717
     27713     27712     27715     27718     27714     27712     27715     27716
     27714     27712     27715     27717     27714     27712     27715     27718
     27715     27718     27721     27722     27715     27718     27721     27723
     27715     27718     27721     27724     27716     27715     27718     27719
     27716     27715     27718     27720     27716     27715     27718     27721
     27717     27715     27718     27719     27717     27715     27718     27720
     27717     27715     27718     27721     27718     27721     27724     27725
     27718     27721     27724     27726     27718     27721     27724     27727
     27719     27718     27721     27722     27719     27718     27721     27723
     27719     27718     27721     27724     27720     27718     27721     27722
     27720     27718     27721     27723     27720     27718     27721     27724
     27721     27724     27727     27728     27721     27724     27727     27729
     27721     27724     27727     27730     27722     27721     27724     27725
     27722     27721     27724     27726     27722     27721     27724     27727
     27723     27721     27724     27725     27723     27721     27724     27726
     27723     27721     27724     27727     27725     27724     27727     27728
     27725     27724     27727     27729     27725     27724     27727     27730
     27726     27724     27727     27728     27726     27724     27727     27729
     27726     27724     27727     27730     27731     27735     27738     27739
     27731     27735     27738     27740     27731     27735     27738     27745
     27732     27731     27735     27736     27732     27731     27735     27737
     27732     27731     27735     27738     27733     27731     27735     27736
     27733     27731     27735     27737     27733     27731     27735     27738
     27734     27731     27735     27736     27734     27731     27735     27737
     27734     27731     27735     27738     27735     27738     27745     27741
     27736     27735     27738     27739     27736     27735     27738     27740
     27736     27735     27738     27745     27737     27735     27738     27739
     27737     27735     27738     27740     27737     27735     27738     27745
     27738     27745     27741     27742     27738     27745     27741     27743
     27738     27745     27741     27744     27739     27738     27745     27741
     27740     27738     27745     27741     27741     27744     27746     27747
     27741     27744     27746     27748     27741     27744     27746     27749
     27742     27741     27744     27746     27743     27741     27744     27746
     27744     27746     27749     27750     27744     27746     27749     27751
     27744     27746     27749     27757     27745     27741     27744     27746
     27746     27749     27751     27752     27746     27749     27757     27758
     27746     27749     27757     27759     27746     27749     27757     27760
     27747     27746     27749     27750     27747     27746     27749     27751
     27747     27746     27749     27757     27748     27746     27749     27750
     27748     27746     27749     27751     27748     27746     27749     27757
     27749     27751     27752     27753     27749     27751     27752     27754
     27749     27757     27760     27761     27750     27749     27751     27752
     27750     27749     27757     27758     27750     27749     27757     27759
     27750     27749     27757     27760     27751     27749     27757     27758
     27751     27749     27757     27759     27751     27749     27757     27760
     27751     27752     27754     27755     27751     27752     27754     27756
     27751     27752     27754     27766     27752     27751     27749     27757
     27752     27754     27766     27767     27752     27754     27766     27768
     27752     27754     27766     27769     27753     27752     27754     27755
     27753     27752     27754     27756     27753     27752     27754     27766
     27754     27766     27769     27770     27754     27766     27769     27771
     27754     27766     27769     27772     27755     27754     27766     27767
     27755     27754     27766     27768     27755     27754     27766     27769
     27756     27754     27766     27767     27756     27754     27766     27768
     27756     27754     27766     27769     27757     27760     27761     27762
     27757     27760     27761     27763     27758     27757     27760     27761
     27759     27757     27760     27761     27760     27761     27763     27764
     27760     27761     27763     27765     27760     27761     27763     27813
     27761     27763     27813     27814     27761     27763     27813     27815
     27761     27763     27813     27816     27762     27761     27763     27764
     27762     27761     27763     27765     27762     27761     27763     27813
     27763     27813     27816     27817     27763     27813     27816     27818
     27763     27813     27816     27819     27764     27763     27813     27814
     27764     27763     27813     27815     27764     27763     27813     27816
     27765     27763     27813     27814     27765     27763     27813     27815
     27765     27763     27813     27816     27766     27769     27772     27773
     27766     27769     27772     27774     27766     27769     27772     27775
     27767     27766     27769     27770     27767     27766     27769     27771
     27767     27766     27769     27772     27768     27766     27769     27770
     27768     27766     27769     27771     27768     27766     27769     27772
     27769     27772     27775     27776     27769     27772     27775     27777
     27769     27772     27775     27778     27770     27769     27772     27773
     27770     27769     27772     27774     27770     27769     27772     27775
     27771     27769     27772     27773     27771     27769     27772     27774
     27771     27769     27772     27775     27772     27775     27778     27779
     27772     27775     27778     27780     27772     27775     27778     27781
     27773     27772     27775     27776     27773     27772     27775     27777
     27773     27772     27775     27778     27774     27772     27775     27776
     27774     27772     27775     27777     27774     27772     27775     27778
     27775     27778     27781     27782     27775     27778     27781     27783
     27775     27778     27781     27784     27776     27775     27778     27779
     27776     27775     27778     27780     27776     27775     27778     27781
     27777     27775     27778     27779     27777     27775     27778     27780
     27777     27775     27778     27781     27778     27781     27784     27785
     27778     27781     27784     27786     27779     27778     27781     27782
     27779     27778     27781     27783     27779     27778     27781     27784
     27780     27778     27781     27782     27780     27778     27781     27783
     27780     27778     27781     27784     27781     27784     27786     27787
     27781     27784     27786     27788     27782     27781     27784     27785
     27782     27781     27784     27786     27783     27781     27784     27785
     27783     27781     27784     27786     27784     27786     27788     27789
     27784     27786     27788     27790     27784     27786     27788     27791
     27785     27784     27786     27787     27785     27784     27786     27788
     27786     27788     27791     27792     27786     27788     27791     27793
     27786     27788     27791     27794     27787     27786     27788     27789
     27787     27786     27788     27790     27787     27786     27788     27791
     27788     27791     27794     27795     27788     27791     27794     27796
     27788     27791     27794     27797     27789     27788     27791     27792
     27789     27788     27791     27793     27789     27788     27791     27794
     27790     27788     27791     27792     27790     27788     27791     27793
     27790     27788     27791     27794     27791     27794     27797     27798
     27791     27794     27797     27799     27791     27794     27797     27800
     27792     27791     27794     27795     27792     27791     27794     27796
     27792     27791     27794     27797     27793     27791     27794     27795
     27793     27791     27794     27796     27793     27791     27794     27797
     27794     27797     27800     27801     27794     27797     27800     27802
     27794     27797     27800     27803     27795     27794     27797     27798
     27795     27794     27797     27799     27795     27794     27797     27800
     27796     27794     27797     27798     27796     27794     27797     27799
     27796     27794     27797     27800     27797     27800     27803     27804
     27797     27800     27803     27805     27797     27800     27803     27806
     27798     27797     27800     27801     27798     27797     27800     27802
     27798     27797     27800     27803     27799     27797     27800     27801
     27799     27797     27800     27802     27799     27797     27800     27803
     27800     27803     27806     27807     27800     27803     27806     27808
     27800     27803     27806     27809     27801     27800     27803     27804
     27801     27800     27803     27805     27801     27800     27803     27806
     27802     27800     27803     27804     27802     27800     27803     27805
     27802     27800     27803     27806     27803     27806     27809     27810
     27803     27806     27809     27811     27803     27806     27809     27812
     27804     27803     27806     27807     27804     27803     27806     27808
     27804     27803     27806     27809     27805     27803     27806     27807
     27805     27803     27806     27808     27805     27803     27806     27809
     27807     27806     27809     27810     27807     27806     27809     27811
     27807     27806     27809     27812     27808     27806     27809     27810
     27808     27806     27809     27811     27808     27806     27809     27812
     27813     27816     27819     27820     27813     27816     27819     27821
     27813     27816     27819     27822     27814     27813     27816     27817
     27814     27813     27816     27818     27814     27813     27816     27819
     27815     27813     27816     27817     27815     27813     27816     27818
     27815     27813     27816     27819     27816     27819     27822     27823
     27816     27819     27822     27824     27816     27819     27822     27825
     27817     27816     27819     27820     27817     27816     27819     27821
     27817     27816     27819     27822     27818     27816     27819     27820
     27818     27816     27819     27821     27818     27816     27819     27822
     27819     27822     27825     27826     27819     27822     27825     27827
     27819     27822     27825     27828     27820     27819     27822     27823
     27820     27819     27822     27824     27820     27819     27822     27825
     27821     27819     27822     27823     27821     27819     27822     27824
     27821     27819     27822     27825     27822     27825     27828     27829
     27822     27825     27828     27830     27822     27825     27828     27831
     27823     27822     27825     27826     27823     27822     27825     27827
     27823     27822     27825     27828     27824     27822     27825     27826
     27824     27822     27825     27827     27824     27822     27825     27828
     27825     27828     27831     27832     27825     27828     27831     27833
     27825     27828     27831     27834     27826     27825     27828     27829
     27826     27825     27828     27830     27826     27825     27828     27831
     27827     27825     27828     27829     27827     27825     27828     27830
     27827     27825     27828     27831     27828     27831     27834     27835
     27828     27831     27834     27836     27828     27831     27834     27837
     27829     27828     27831     27832     27829     27828     27831     27833
     27829     27828     27831     27834     27830     27828     27831     27832
     27830     27828     27831     27833     27830     27828     27831     27834
     27831     27834     27837     27838     27831     27834     27837     27839
     27831     27834     27837     27840     27832     27831     27834     27835
     27832     27831     27834     27836     27832     27831     27834     27837
     27833     27831     27834     27835     27833     27831     27834     27836
     27833     27831     27834     27837     27834     27837     27840     27841
     27834     27837     27840     27842     27834     27837     27840     27843
     27835     27834     27837     27838     27835     27834     27837     27839
     27835     27834     27837     27840     27836     27834     27837     27838
     27836     27834     27837     27839     27836     27834     27837     27840
     27837     27840     27843     27844     27837     27840     27843     27845
     27837     27840     27843     27846     27838     27837     27840     27841
     27838     27837     27840     27842     27838     27837     27840     27843
     27839     27837     27840     27841     27839     27837     27840     27842
     27839     27837     27840     27843     27840     27843     27846     27847
     27840     27843     27846     27848     27840     27843     27846     27849
     27841     27840     27843     27844     27841     27840     27843     27845
     27841     27840     27843     27846     27842     27840     27843     27844
     27842     27840     27843     27845     27842     27840     27843     27846
     27843     27846     27849     27850     27843     27846     27849     27851
     27843     27846     27849     27852     27844     27843     27846     27847
     27844     27843     27846     27848     27844     27843     27846     27849
     27845     27843     27846     27847     27845     27843     27846     27848
     27845     27843     27846     27849     27846     27849     27852     27853
     27846     27849     27852     27854     27846     27849     27852     27855
     27847     27846     27849     27850     27847     27846     27849     27851
     27847     27846     27849     27852     27848     27846     27849     27850
     27848     27846     27849     27851     27848     27846     27849     27852
     27850     27849     27852     27853     27850     27849     27852     27854
     27850     27849     27852     27855     27851     27849     27852     27853
     27851     27849     27852     27854     27851     27849     27852     27855
     27856     27862     27859     27860     27856     27862     27859     27861
     27856     27862     27859     27863     27856     27867     27869     27870
     27856     27867     27871     27872     27856     27867     27871     27873
     27856     27867     27871     27877     27857     27856     27862     27859
     27857     27856     27867     27868     27857     27856     27867     27869
     27857     27856     27867     27871     27858     27856     27862     27859
     27858     27856     27867     27868     27858     27856     27867     27869
     27858     27856     27867     27871     27859     27862     27856     27867
     27859     27863     27864     27865     27859     27863     27864     27866
     27859     27863     27864     27899     27860     27859     27863     27864
     27861     27859     27863     27864     27862     27856     27867     27868
     27862     27856     27867     27869     27862     27856     27867     27871
     27862     27859     27863     27864     27863     27864     27899     27900
     27863     27864     27899     27901     27863     27864     27899     27907
     27864     27899     27901     27902     27864     27899     27907     27908
     27864     27899     27907     27909     27864     27899     27907     27910
     27865     27864     27899     27900     27865     27864     27899     27901
     27865     27864     27899     27907     27866     27864     27899     27900
     27866     27864     27899     27901     27866     27864     27899     27907
     27867     27871     27877     27874     27868     27867     27869     27870
     27868     27867     27871     27872     27868     27867     27871     27873
     27868     27867     27871     27877     27869     27867     27871     27872
     27869     27867     27871     27873     27869     27867     27871     27877
     27870     27869     27867     27871     27871     27877     27874     27875
     27871     27877     27874     27876     27871     27877     27874     27878
     27872     27871     27877     27874     27873     27871     27877     27874
     27874     27878     27879     27880     27874     27878     27879     27881
     27874     27878     27879     27882     27875     27874     27878     27879
     27876     27874     27878     27879     27877     27874     27878     27879
     27878     27879     27882     27883     27878     27879     27882     27884
     27878     27879     27882     27890     27879     27882     27884     27885
     27879     27882     27890     27891     27879     27882     27890     27892
     27879     27882     27890     27893     27880     27879     27882     27883
     27880     27879     27882     27884     27880     27879     27882     27890
     27881     27879     27882     27883     27881     27879     27882     27884
     27881     27879     27882     27890     27882     27884     27885     27886
     27882     27884     27885     27887     27882     27890     27893     27894
     27883     27882     27884     27885     27883     27882     27890     27891
     27883     27882     27890     27892     27883     27882     27890     27893
     27884     27882     27890     27891     27884     27882     27890     27892
     27884     27882     27890     27893     27884     27885     27887     27888
     27884     27885     27887     27889     27884     27885     27887     27916
     27885     27884     27882     27890     27885     27887     27916     27917
     27885     27887     27916     27918     27885     27887     27916     27919
     27886     27885     27887     27888     27886     27885     27887     27889
     27886     27885     27887     27916     27887     27916     27919     27920
     27887     27916     27919     27921     27887     27916     27919     27922
     27888     27887     27916     27917     27888     27887     27916     27918
     27888     27887     27916     27919     27889     27887     27916     27917
     27889     27887     27916     27918     27889     27887     27916     27919
     27890     27893     27894     27895     27890     27893     27894     27896
     27891     27890     27893     27894     27892     27890     27893     27894
     27893     27894     27896     27897     27893     27894     27896     27898
     27893     27894     27896     27963     27894     27896     27963     27964
     27894     27896     27963     27965     27894     27896     27963     27966
     27895     27894     27896     27897     27895     27894     27896     27898
     27895     27894     27896     27963     27896     27963     27966     27967
     27896     27963     27966     27968     27896     27963     27966     27969
     27897     27896     27963     27964     27897     27896     27963     27965
     27897     27896     27963     27966     27898     27896     27963     27964
     27898     27896     27963     27965     27898     27896     27963     27966
     27899     27901     27902     27903     27899     27901     27902     27904
     27899     27907     27910     27911     27900     27899     27901     27902
     27900     27899     27907     27908     27900     27899     27907     27909
     27900     27899     27907     27910     27901     27899     27907     27908
     27901     27899     27907     27909     27901     27899     27907     27910
     27901     27902     27904     27905     27901     27902     27904     27906
     27901     27902     27904     28006     27902     27901     27899     27907
     27902     27904     28006     28007     27902     27904     28006     28008
     27902     27904     28006     28009     27903     27902     27904     27905
     27903     27902     27904     27906     27903     27902     27904     28006
     27904     28006     28009     28010     27904     28006     28009     28011
     27904     28006     28009     28012     27905     27904     28006     28007
     27905     27904     28006     28008     27905     27904     28006     28009
     27906     27904     28006     28007     27906     27904     28006     28008
     27906     27904     28006     28009     27907     27910     27911     27912
     27907     27910     27911     27913     27908     27907     27910     27911
     27909     27907     27910     27911     27910     27911     27913     27914
     27910     27911     27913     27915     27910     27911     27913     28053
     27911     27913     28053     28054     27911     27913     28053     28055
     27911     27913     28053     28056     27912     27911     27913     27914
     27912     27911     27913     27915     27912     27911     27913     28053
     27913     28053     28056     28057     27913     28053     28056     28058
     27913     28053     28056     28059     27914     27913     28053     28054
     27914     27913     28053     28055     27914     27913     28053     28056
     27915     27913     28053     28054     27915     27913     28053     28055
     27915     27913     28053     28056     27916     27919     27922     27923
     27916     27919     27922     27924     27916     27919     27922     27925
     27917     27916     27919     27920     27917     27916     27919     27921
     27917     27916     27919     27922     27918     27916     27919     27920
     27918     27916     27919     27921     27918     27916     27919     27922
     27919     27922     27925     27926     27919     27922     27925     27927
     27919     27922     27925     27928     27920     27919     27922     27923
     27920     27919     27922     27924     27920     27919     27922     27925
     27921     27919     27922     27923     27921     27919     27922     27924
     27921     27919     27922     27925     27922     27925     27928     27929
     27922     27925     27928     27930     27922     27925     27928     27931
     27923     27922     27925     27926     27923     27922     27925     27927
     27923     27922     27925     27928     27924     27922     27925     27926
     27924     27922     27925     27927     27924     27922     27925     27928
     27925     27928     27931     27932     27925     27928     27931     27933
     27925     27928     27931     27934     27926     27925     27928     27929
     27926     27925     27928     27930     27926     27925     27928     27931
     27927     27925     27928     27929     27927     27925     27928     27930
     27927     27925     27928     27931     27928     27931     27934     27935
     27928     27931     27934     27936     27928     27931     27934     27937
     27929     27928     27931     27932     27929     27928     27931     27933
     27929     27928     27931     27934     27930     27928     27931     27932
     27930     27928     27931     27933     27930     27928     27931     27934
     27931     27934     27937     27938     27931     27934     27937     27939
     27931     27934     27937     27940     27932     27931     27934     27935
     27932     27931     27934     27936     27932     27931     27934     27937
     27933     27931     27934     27935     27933     27931     27934     27936
     27933     27931     27934     27937     27934     27937     27940     27941
     27934     27937     27940     27942     27935     27934     27937     27938
     27935     27934     27937     27939     27935     27934     27937     27940
     27936     27934     27937     27938     27936     27934     27937     27939
     27936     27934     27937     27940     27937     27940     27942     27943
     27937     27940     27942     27944     27938     27937     27940     27941
     27938     27937     27940     27942     27939     27937     27940     27941
     27939     27937     27940     27942     27940     27942     27944     27945
     27940     27942     27944     27946     27940     27942     27944     27947
     27941     27940     27942     27943     27941     27940     27942     27944
     27942     27944     27947     27948     27942     27944     27947     27949
     27942     27944     27947     27950     27943     27942     27944     27945
     27943     27942     27944     27946     27943     27942     27944     27947
     27944     27947     27950     27951     27944     27947     27950     27952
     27944     27947     27950     27953     27945     27944     27947     27948
     27945     27944     27947     27949     27945     27944     27947     27950
     27946     27944     27947     27948     27946     27944     27947     27949
     27946     27944     27947     27950     27947     27950     27953     27954
     27947     27950     27953     27955     27947     27950     27953     27956
     27948     27947     27950     27951     27948     27947     27950     27952
     27948     27947     27950     27953     27949     27947     27950     27951
     27949     27947     27950     27952     27949     27947     27950     27953
     27950     27953     27956     27957     27950     27953     27956     27958
     27950     27953     27956     27959     27951     27950     27953     27954
     27951     27950     27953     27955     27951     27950     27953     27956
     27952     27950     27953     27954     27952     27950     27953     27955
     27952     27950     27953     27956     27953     27956     27959     27960
     27953     27956     27959     27961     27953     27956     27959     27962
     27954     27953     27956     27957     27954     27953     27956     27958
     27954     27953     27956     27959     27955     27953     27956     27957
     27955     27953     27956     27958     27955     27953     27956     27959
     27957     27956     27959     27960     27957     27956     27959     27961
     27957     27956     27959     27962     27958     27956     27959     27960
     27958     27956     27959     27961     27958     27956     27959     27962
     27963     27966     27969     27970     27963     27966     27969     27971
     27963     27966     27969     27972     27964     27963     27966     27967
     27964     27963     27966     27968     27964     27963     27966     27969
     27965     27963     27966     27967     27965     27963     27966     27968
     27965     27963     27966     27969     27966     27969     27972     27973
     27966     27969     27972     27974     27966     27969     27972     27975
     27967     27966     27969     27970     27967     27966     27969     27971
     27967     27966     27969     27972     27968     27966     27969     27970
     27968     27966     27969     27971     27968     27966     27969     27972
     27969     27972     27975     27976     27969     27972     27975     27977
     27969     27972     27975     27978     27970     27969     27972     27973
     27970     27969     27972     27974     27970     27969     27972     27975
     27971     27969     27972     27973     27971     27969     27972     27974
     27971     27969     27972     27975     27972     27975     27978     27979
     27972     27975     27978     27980     27972     27975     27978     27981
     27973     27972     27975     27976     27973     27972     27975     27977
     27973     27972     27975     27978     27974     27972     27975     27976
     27974     27972     27975     27977     27974     27972     27975     27978
     27975     27978     27981     27982     27975     27978     27981     27983
     27975     27978     27981     27984     27976     27975     27978     27979
     27976     27975     27978     27980     27976     27975     27978     27981
     27977     27975     27978     27979     27977     27975     27978     27980
     27977     27975     27978     27981     27978     27981     27984     27985
     27978     27981     27984     27986     27978     27981     27984     27987
     27979     27978     27981     27982     27979     27978     27981     27983
     27979     27978     27981     27984     27980     27978     27981     27982
     27980     27978     27981     27983     27980     27978     27981     27984
     27981     27984     27987     27988     27981     27984     27987     27989
     27981     27984     27987     27990     27982     27981     27984     27985
     27982     27981     27984     27986     27982     27981     27984     27987
     27983     27981     27984     27985     27983     27981     27984     27986
     27983     27981     27984     27987     27984     27987     27990     27991
     27984     27987     27990     27992     27984     27987     27990     27993
     27985     27984     27987     27988     27985     27984     27987     27989
     27985     27984     27987     27990     27986     27984     27987     27988
     27986     27984     27987     27989     27986     27984     27987     27990
     27987     27990     27993     27994     27987     27990     27993     27995
     27987     27990     27993     27996     27988     27987     27990     27991
     27988     27987     27990     27992     27988     27987     27990     27993
     27989     27987     27990     27991     27989     27987     27990     27992
     27989     27987     27990     27993     27990     27993     27996     27997
     27990     27993     27996     27998     27990     27993     27996     27999
     27991     27990     27993     27994     27991     27990     27993     27995
     27991     27990     27993     27996     27992     27990     27993     27994
     27992     27990     27993     27995     27992     27990     27993     27996
     27993     27996     27999     28000     27993     27996     27999     28001
     27993     27996     27999     28002     27994     27993     27996     27997
     27994     27993     27996     27998     27994     27993     27996     27999
     27995     27993     27996     27997     27995     27993     27996     27998
     27995     27993     27996     27999     27996     27999     28002     28003
     27996     27999     28002     28004     27996     27999     28002     28005
     27997     27996     27999     28000     27997     27996     27999     28001
     27997     27996     27999     28002     27998     27996     27999     28000
     27998     27996     27999     28001     27998     27996     27999     28002
     28000     27999     28002     28003     28000     27999     28002     28004
     28000     27999     28002     28005     28001     27999     28002     28003
     28001     27999     28002     28004     28001     27999     28002     28005
     28006     28009     28012     28013     28006     28009     28012     28014
     28006     28009     28012     28015     28007     28006     28009     28010
     28007     28006     28009     28011     28007     28006     28009     28012
     28008     28006     28009     28010     28008     28006     28009     28011
     28008     28006     28009     28012     28009     28012     28015     28016
     28009     28012     28015     28017     28009     28012     28015     28018
     28010     28009     28012     28013     28010     28009     28012     28014
     28010     28009     28012     28015     28011     28009     28012     28013
     28011     28009     28012     28014     28011     28009     28012     28015
     28012     28015     28018     28019     28012     28015     28018     28020
     28012     28015     28018     28021     28013     28012     28015     28016
     28013     28012     28015     28017     28013     28012     28015     28018
     28014     28012     28015     28016     28014     28012     28015     28017
     28014     28012     28015     28018     28015     28018     28021     28022
     28015     28018     28021     28023     28015     28018     28021     28024
     28016     28015     28018     28019     28016     28015     28018     28020
     28016     28015     28018     28021     28017     28015     28018     28019
     28017     28015     28018     28020     28017     28015     28018     28021
     28018     28021     28024     28025     28018     28021     28024     28026
     28018     28021     28024     28027     28019     28018     28021     28022
     28019     28018     28021     28023     28019     28018     28021     28024
     28020     28018     28021     28022     28020     28018     28021     28023
     28020     28018     28021     28024     28021     28024     28027     28028
     28021     28024     28027     28029     28021     28024     28027     28030
     28022     28021     28024     28025     28022     28021     28024     28026
     28022     28021     28024     28027     28023     28021     28024     28025
     28023     28021     28024     28026     28023     28021     28024     28027
     28024     28027     28030     28031     28024     28027     28030     28032
     28025     28024     28027     28028     28025     28024     28027     28029
     28025     28024     28027     28030     28026     28024     28027     28028
     28026     28024     28027     28029     28026     28024     28027     28030
     28027     28030     28032     28033     28027     28030     28032     28034
     28028     28027     28030     28031     28028     28027     28030     28032
     28029     28027     28030     28031     28029     28027     28030     28032
     28030     28032     28034     28035     28030     28032     28034     28036
     28030     28032     28034     28037     28031     28030     28032     28033
     28031     28030     28032     28034     28032     28034     28037     28038
     28032     28034     28037     28039     28032     28034     28037     28040
     28033     28032     28034     28035     28033     28032     28034     28036
     28033     28032     28034     28037     28034     28037     28040     28041
     28034     28037     28040     28042     28034     28037     28040     28043
     28035     28034     28037     28038     28035     28034     28037     28039
     28035     28034     28037     28040     28036     28034     28037     28038
     28036     28034     28037     28039     28036     28034     28037     28040
     28037     28040     28043     28044     28037     28040     28043     28045
     28037     28040     28043     28046     28038     28037     28040     28041
     28038     28037     28040     28042     28038     28037     28040     28043
     28039     28037     28040     28041     28039     28037     28040     28042
     28039     28037     28040     28043     28040     28043     28046     28047
     28040     28043     28046     28048     28040     28043     28046     28049
     28041     28040     28043     28044     28041     28040     28043     28045
     28041     28040     28043     28046     28042     28040     28043     28044
     28042     28040     28043     28045     28042     28040     28043     28046
     28043     28046     28049     28050     28043     28046     28049     28051
     28043     28046     28049     28052     28044     28043     28046     28047
     28044     28043     28046     28048     28044     28043     28046     28049
     28045     28043     28046     28047     28045     28043     28046     28048
     28045     28043     28046     28049     28047     28046     28049     28050
     28047     28046     28049     28051     28047     28046     28049     28052
     28048     28046     28049     28050     28048     28046     28049     28051
     28048     28046     28049     28052     28053     28056     28059     28060
     28053     28056     28059     28061     28053     28056     28059     28062
     28054     28053     28056     28057     28054     28053     28056     28058
     28054     28053     28056     28059     28055     28053     28056     28057
     28055     28053     28056     28058     28055     28053     28056     28059
     28056     28059     28062     28063     28056     28059     28062     28064
     28056     28059     28062     28065     28057     28056     28059     28060
     28057     28056     28059     28061     28057     28056     28059     28062
     28058     28056     28059     28060     28058     28056     28059     28061
     28058     28056     28059     28062     28059     28062     28065     28066
     28059     28062     28065     28067     28059     28062     28065     28068
     28060     28059     28062     28063     28060     28059     28062     28064
     28060     28059     28062     28065     28061     28059     28062     28063
     28061     28059     28062     28064     28061     28059     28062     28065
     28062     28065     28068     28069     28062     28065     28068     28070
     28062     28065     28068     28071     28063     28062     28065     28066
     28063     28062     28065     28067     28063     28062     28065     28068
     28064     28062     28065     28066     28064     28062     28065     28067
     28064     28062     28065     28068     28065     28068     28071     28072
     28065     28068     28071     28073     28065     28068     28071     28074
     28066     28065     28068     28069     28066     28065     28068     28070
     28066     28065     28068     28071     28067     28065     28068     28069
     28067     28065     28068     28070     28067     28065     28068     28071
     28068     28071     28074     28075     28068     28071     28074     28076
     28068     28071     28074     28077     28069     28068     28071     28072
     28069     28068     28071     28073     28069     28068     28071     28074
     28070     28068     28071     28072     28070     28068     28071     28073
     28070     28068     28071     28074     28071     28074     28077     28078
     28071     28074     28077     28079     28071     28074     28077     28080
     28072     28071     28074     28075     28072     28071     28074     28076
     28072     28071     28074     28077     28073     28071     28074     28075
     28073     28071     28074     28076     28073     28071     28074     28077
     28074     28077     28080     28081     28074     28077     28080     28082
     28074     28077     28080     28083     28075     28074     28077     28078
     28075     28074     28077     28079     28075     28074     28077     28080
     28076     28074     28077     28078     28076     28074     28077     28079
     28076     28074     28077     28080     28077     28080     28083     28084
     28077     28080     28083     28085     28077     28080     28083     28086
     28078     28077     28080     28081     28078     28077     28080     28082
     28078     28077     28080     28083     28079     28077     28080     28081
     28079     28077     28080     28082     28079     28077     28080     28083
     28080     28083     28086     28087     28080     28083     28086     28088
     28080     28083     28086     28089     28081     28080     28083     28084
     28081     28080     28083     28085     28081     28080     28083     28086
     28082     28080     28083     28084     28082     28080     28083     28085
     28082     28080     28083     28086     28083     28086     28089     28090
     28083     28086     28089     28091     28083     28086     28089     28092
     28084     28083     28086     28087     28084     28083     28086     28088
     28084     28083     28086     28089     28085     28083     28086     28087
     28085     28083     28086     28088     28085     28083     28086     28089
     28086     28089     28092     28093     28086     28089     28092     28094
     28086     28089     28092     28095     28087     28086     28089     28090
     28087     28086     28089     28091     28087     28086     28089     28092
     28088     28086     28089     28090     28088     28086     28089     28091
     28088     28086     28089     28092     28090     28089     28092     28093
     28090     28089     28092     28094     28090     28089     28092     28095
     28091     28089     28092     28093     28091     28089     28092     28094
     28091     28089     28092     28095     28096     28100     28103     28104
     28096     28100     28103     28105     28096     28100     28103     28110
     28097     28096     28100     28101     28097     28096     28100     28102
     28097     28096     28100     28103     28098     28096     28100     28101
     28098     28096     28100     28102     28098     28096     28100     28103
     28099     28096     28100     28101     28099     28096     28100     28102
     28099     28096     28100     28103     28100     28103     28110     28106
     28101     28100     28103     28104     28101     28100     28103     28105
     28101     28100     28103     28110     28102     28100     28103     28104
     28102     28100     28103     28105     28102     28100     28103     28110
     28103     28110     28106     28107     28103     28110     28106     28108
     28103     28110     28106     28109     28104     28103     28110     28106
     28105     28103     28110     28106     28106     28109     28111     28112
     28106     28109     28111     28113     28106     28109     28111     28114
     28107     28106     28109     28111     28108     28106     28109     28111
     28109     28111     28114     28115     28109     28111     28114     28116
     28109     28111     28114     28122     28110     28106     28109     28111
     28111     28114     28116     28117     28111     28114     28122     28123
     28111     28114     28122     28124     28111     28114     28122     28125
     28112     28111     28114     28115     28112     28111     28114     28116
     28112     28111     28114     28122     28113     28111     28114     28115
     28113     28111     28114     28116     28113     28111     28114     28122
     28114     28116     28117     28118     28114     28116     28117     28119
     28114     28122     28125     28126     28115     28114     28116     28117
     28115     28114     28122     28123     28115     28114     28122     28124
     28115     28114     28122     28125     28116     28114     28122     28123
     28116     28114     28122     28124     28116     28114     28122     28125
     28116     28117     28119     28120     28116     28117     28119     28121
     28116     28117     28119     28131     28117     28116     28114     28122
     28117     28119     28131     28132     28117     28119     28131     28133
     28117     28119     28131     28134     28118     28117     28119     28120
     28118     28117     28119     28121     28118     28117     28119     28131
     28119     28131     28134     28135     28119     28131     28134     28136
     28119     28131     28134     28137     28120     28119     28131     28132
     28120     28119     28131     28133     28120     28119     28131     28134
     28121     28119     28131     28132     28121     28119     28131     28133
     28121     28119     28131     28134     28122     28125     28126     28127
     28122     28125     28126     28128     28123     28122     28125     28126
     28124     28122     28125     28126     28125     28126     28128     28129
     28125     28126     28128     28130     28125     28126     28128     28172
     28126     28128     28172     28173     28126     28128     28172     28174
     28126     28128     28172     28175     28127     28126     28128     28129
     28127     28126     28128     28130     28127     28126     28128     28172
     28128     28172     28175     28176     28128     28172     28175     28177
     28128     28172     28175     28178     28129     28128     28172     28173
     28129     28128     28172     28174     28129     28128     28172     28175
     28130     28128     28172     28173     28130     28128     28172     28174
     28130     28128     28172     28175     28131     28134     28137     28138
     28131     28134     28137     28139     28131     28134     28137     28140
     28132     28131     28134     28135     28132     28131     28134     28136
     28132     28131     28134     28137     28133     28131     28134     28135
     28133     28131     28134     28136     28133     28131     28134     28137
     28134     28137     28140     28141     28134     28137     28140     28142
     28134     28137     28140     28143     28135     28134     28137     28138
     28135     28134     28137     28139     28135     28134     28137     28140
     28136     28134     28137     28138     28136     28134     28137     28139
     28136     28134     28137     28140     28137     28140     28143     28144
     28137     28140     28143     28145     28137     28140     28143     28146
     28138     28137     28140     28141     28138     28137     28140     28142
     28138     28137     28140     28143     28139     28137     28140     28141
     28139     28137     28140     28142     28139     28137     28140     28143
     28140     28143     28146     28147     28140     28143     28146     28148
     28140     28143     28146     28149     28141     28140     28143     28144
     28141     28140     28143     28145     28141     28140     28143     28146
     28142     28140     28143     28144     28142     28140     28143     28145
     28142     28140     28143     28146     28143     28146     28149     28150
     28143     28146     28149     28151     28144     28143     28146     28147
     28144     28143     28146     28148     28144     28143     28146     28149
     28145     28143     28146     28147     28145     28143     28146     28148
     28145     28143     28146     28149     28146     28149     28151     28152
     28146     28149     28151     28153     28147     28146     28149     28150
     28147     28146     28149     28151     28148     28146     28149     28150
     28148     28146     28149     28151     28149     28151     28153     28154
     28149     28151     28153     28155     28149     28151     28153     28156
     28150     28149     28151     28152     28150     28149     28151     28153
     28151     28153     28156     28157     28151     28153     28156     28158
     28151     28153     28156     28159     28152     28151     28153     28154
     28152     28151     28153     28155     28152     28151     28153     28156
     28153     28156     28159     28160     28153     28156     28159     28161
     28153     28156     28159     28162     28154     28153     28156     28157
     28154     28153     28156     28158     28154     28153     28156     28159
     28155     28153     28156     28157     28155     28153     28156     28158
     28155     28153     28156     28159     28156     28159     28162     28163
     28156     28159     28162     28164     28156     28159     28162     28165
     28157     28156     28159     28160     28157     28156     28159     28161
     28157     28156     28159     28162     28158     28156     28159     28160
     28158     28156     28159     28161     28158     28156     28159     28162
     28159     28162     28165     28166     28159     28162     28165     28167
     28159     28162     28165     28168     28160     28159     28162     28163
     28160     28159     28162     28164     28160     28159     28162     28165
     28161     28159     28162     28163     28161     28159     28162     28164
     28161     28159     28162     28165     28162     28165     28168     28169
     28162     28165     28168     28170     28162     28165     28168     28171
     28163     28162     28165     28166     28163     28162     28165     28167
     28163     28162     28165     28168     28164     28162     28165     28166
     28164     28162     28165     28167     28164     28162     28165     28168
     28166     28165     28168     28169     28166     28165     28168     28170
     28166     28165     28168     28171     28167     28165     28168     28169
     28167     28165     28168     28170     28167     28165     28168     28171
     28172     28175     28178     28179     28172     28175     28178     28180
     28172     28175     28178     28181     28173     28172     28175     28176
     28173     28172     28175     28177     28173     28172     28175     28178
     28174     28172     28175     28176     28174     28172     28175     28177
     28174     28172     28175     28178     28175     28178     28181     28182
     28175     28178     28181     28183     28175     28178     28181     28184
     28176     28175     28178     28179     28176     28175     28178     28180
     28176     28175     28178     28181     28177     28175     28178     28179
     28177     28175     28178     28180     28177     28175     28178     28181
     28178     28181     28184     28185     28178     28181     28184     28186
     28178     28181     28184     28187     28179     28178     28181     28182
     28179     28178     28181     28183     28179     28178     28181     28184
     28180     28178     28181     28182     28180     28178     28181     28183
     28180     28178     28181     28184     28181     28184     28187     28188
     28181     28184     28187     28189     28181     28184     28187     28190
     28182     28181     28184     28185     28182     28181     28184     28186
     28182     28181     28184     28187     28183     28181     28184     28185
     28183     28181     28184     28186     28183     28181     28184     28187
     28184     28187     28190     28191     28184     28187     28190     28192
     28185     28184     28187     28188     28185     28184     28187     28189
     28185     28184     28187     28190     28186     28184     28187     28188
     28186     28184     28187     28189     28186     28184     28187     28190
     28187     28190     28192     28193     28187     28190     28192     28194
     28188     28187     28190     28191     28188     28187     28190     28192
     28189     28187     28190     28191     28189     28187     28190     28192
     28190     28192     28194     28195     28190     28192     28194     28196
     28190     28192     28194     28197     28191     28190     28192     28193
     28191     28190     28192     28194     28192     28194     28197     28198
     28192     28194     28197     28199     28192     28194     28197     28200
     28193     28192     28194     28195     28193     28192     28194     28196
     28193     28192     28194     28197     28194     28197     28200     28201
     28194     28197     28200     28202     28194     28197     28200     28203
     28195     28194     28197     28198     28195     28194     28197     28199
     28195     28194     28197     28200     28196     28194     28197     28198
     28196     28194     28197     28199     28196     28194     28197     28200
     28197     28200     28203     28204     28197     28200     28203     28205
     28197     28200     28203     28206     28198     28197     28200     28201
     28198     28197     28200     28202     28198     28197     28200     28203
     28199     28197     28200     28201     28199     28197     28200     28202
     28199     28197     28200     28203     28200     28203     28206     28207
     28200     28203     28206     28208     28200     28203     28206     28209
     28201     28200     28203     28204     28201     28200     28203     28205
     28201     28200     28203     28206     28202     28200     28203     28204
     28202     28200     28203     28205     28202     28200     28203     28206
     28203     28206     28209     28210     28203     28206     28209     28211
     28203     28206     28209     28212     28204     28203     28206     28207
     28204     28203     28206     28208     28204     28203     28206     28209
     28205     28203     28206     28207     28205     28203     28206     28208
     28205     28203     28206     28209     28206     28209     28212     28213
     28206     28209     28212     28214     28206     28209     28212     28215
     28207     28206     28209     28210     28207     28206     28209     28211
     28207     28206     28209     28212     28208     28206     28209     28210
     28208     28206     28209     28211     28208     28206     28209     28212
     28209     28212     28215     28216     28209     28212     28215     28217
     28209     28212     28215     28218     28210     28209     28212     28213
     28210     28209     28212     28214     28210     28209     28212     28215
     28211     28209     28212     28213     28211     28209     28212     28214
     28211     28209     28212     28215     28213     28212     28215     28216
     28213     28212     28215     28217     28213     28212     28215     28218
     28214     28212     28215     28216     28214     28212     28215     28217
     28214     28212     28215     28218     28219     28223     28226     28227
     28219     28223     28226     28228     28219     28223     28226     28233
     28220     28219     28223     28224     28220     28219     28223     28225
     28220     28219     28223     28226     28221     28219     28223     28224
     28221     28219     28223     28225     28221     28219     28223     28226
     28222     28219     28223     28224     28222     28219     28223     28225
     28222     28219     28223     28226     28223     28226     28233     28229
     28224     28223     28226     28227     28224     28223     28226     28228
     28224     28223     28226     28233     28225     28223     28226     28227
     28225     28223     28226     28228     28225     28223     28226     28233
     28226     28233     28229     28230     28226     28233     28229     28231
     28226     28233     28229     28232     28227     28226     28233     28229
     28228     28226     28233     28229     28229     28232     28234     28235
     28229     28232     28234     28236     28229     28232     28234     28237
     28230     28229     28232     28234     28231     28229     28232     28234
     28232     28234     28237     28238     28232     28234     28237     28239
     28232     28234     28237     28245     28233     28229     28232     28234
     28234     28237     28239     28240     28234     28237     28245     28246
     28234     28237     28245     28247     28234     28237     28245     28248
     28235     28234     28237     28238     28235     28234     28237     28239
     28235     28234     28237     28245     28236     28234     28237     28238
     28236     28234     28237     28239     28236     28234     28237     28245
     28237     28239     28240     28241     28237     28239     28240     28242
     28237     28245     28248     28249     28238     28237     28239     28240
     28238     28237     28245     28246     28238     28237     28245     28247
     28238     28237     28245     28248     28239     28237     28245     28246
     28239     28237     28245     28247     28239     28237     28245     28248
     28239     28240     28242     28243     28239     28240     28242     28244
     28239     28240     28242     28254     28240     28239     28237     28245
     28240     28242     28254     28255     28240     28242     28254     28256
     28240     28242     28254     28257     28241     28240     28242     28243
     28241     28240     28242     28244     28241     28240     28242     28254
     28242     28254     28257     28258     28242     28254     28257     28259
     28242     28254     28257     28260     28243     28242     28254     28255
     28243     28242     28254     28256     28243     28242     28254     28257
     28244     28242     28254     28255     28244     28242     28254     28256
     28244     28242     28254     28257     28245     28248     28249     28250
     28245     28248     28249     28251     28246     28245     28248     28249
     28247     28245     28248     28249     28248     28249     28251     28252
     28248     28249     28251     28253     28248     28249     28251     28298
     28249     28251     28298     28299     28249     28251     28298     28300
     28249     28251     28298     28301     28250     28249     28251     28252
     28250     28249     28251     28253     28250     28249     28251     28298
     28251     28298     28301     28302     28251     28298     28301     28303
     28251     28298     28301     28304     28252     28251     28298     28299
     28252     28251     28298     28300     28252     28251     28298     28301
     28253     28251     28298     28299     28253     28251     28298     28300
     28253     28251     28298     28301     28254     28257     28260     28261
     28254     28257     28260     28262     28254     28257     28260     28263
     28255     28254     28257     28258     28255     28254     28257     28259
     28255     28254     28257     28260     28256     28254     28257     28258
     28256     28254     28257     28259     28256     28254     28257     28260
     28257     28260     28263     28264     28257     28260     28263     28265
     28257     28260     28263     28266     28258     28257     28260     28261
     28258     28257     28260     28262     28258     28257     28260     28263
     28259     28257     28260     28261     28259     28257     28260     28262
     28259     28257     28260     28263     28260     28263     28266     28267
     28260     28263     28266     28268     28260     28263     28266     28269
     28261     28260     28263     28264     28261     28260     28263     28265
     28261     28260     28263     28266     28262     28260     28263     28264
     28262     28260     28263     28265     28262     28260     28263     28266
     28263     28266     28269     28270     28263     28266     28269     28271
     28263     28266     28269     28272     28264     28263     28266     28267
     28264     28263     28266     28268     28264     28263     28266     28269
     28265     28263     28266     28267     28265     28263     28266     28268
     28265     28263     28266     28269     28266     28269     28272     28273
     28266     28269     28272     28274     28266     28269     28272     28277
     28267     28266     28269     28270     28267     28266     28269     28271
     28267     28266     28269     28272     28268     28266     28269     28270
     28268     28266     28269     28271     28268     28266     28269     28272
     28269     28272     28274     28275     28269     28272     28274     28276
     28269     28272     28274     28277     28269     28272     28277     28274
     28269     28272     28277     28278     28269     28272     28277     28279
     28270     28269     28272     28273     28270     28269     28272     28274
     28270     28269     28272     28277     28271     28269     28272     28273
     28271     28269     28272     28274     28271     28269     28272     28277
     28272     28274     28277     28278     28272     28274     28277     28279
     28272     28277     28274     28275     28272     28277     28274     28276
     28272     28277     28279     28280     28272     28277     28279     28281
     28272     28277     28279     28282     28273     28272     28274     28275
     28273     28272     28274     28276     28273     28272     28274     28277
     28273     28272     28277     28274     28273     28272     28277     28278
     28273     28272     28277     28279     28274     28272     28277     28278
     28274     28272     28277     28279     28274     28277     28279     28280
     28274     28277     28279     28281     28274     28277     28279     28282
     28275     28274     28272     28277     28275     28274     28277     28278
     28275     28274     28277     28279     28276     28274     28272     28277
     28276     28274     28277     28278     28276     28274     28277     28279
     28277     28279     28282     28283     28277     28279     28282     28284
     28277     28279     28282     28285     28278     28277     28279     28280
     28278     28277     28279     28281     28278     28277     28279     28282
     28279     28282     28285     28286     28279     28282     28285     28287
     28279     28282     28285     28288     28280     28279     28282     28283
     28280     28279     28282     28284     28280     28279     28282     28285
     28281     28279     28282     28283     28281     28279     28282     28284
     28281     28279     28282     28285     28282     28285     28288     28289
     28282     28285     28288     28290     28282     28285     28288     28291
     28283     28282     28285     28286     28283     28282     28285     28287
     28283     28282     28285     28288     28284     28282     28285     28286
     28284     28282     28285     28287     28284     28282     28285     28288
     28285     28288     28291     28292     28285     28288     28291     28293
     28285     28288     28291     28294     28286     28285     28288     28289
     28286     28285     28288     28290     28286     28285     28288     28291
     28287     28285     28288     28289     28287     28285     28288     28290
     28287     28285     28288     28291     28288     28291     28294     28295
     28288     28291     28294     28296     28288     28291     28294     28297
     28289     28288     28291     28292     28289     28288     28291     28293
     28289     28288     28291     28294     28290     28288     28291     28292
     28290     28288     28291     28293     28290     28288     28291     28294
     28292     28291     28294     28295     28292     28291     28294     28296
     28292     28291     28294     28297     28293     28291     28294     28295
     28293     28291     28294     28296     28293     28291     28294     28297
     28298     28301     28304     28305     28298     28301     28304     28306
     28298     28301     28304     28307     28299     28298     28301     28302
     28299     28298     28301     28303     28299     28298     28301     28304
     28300     28298     28301     28302     28300     28298     28301     28303
     28300     28298     28301     28304     28301     28304     28307     28308
     28301     28304     28307     28309     28301     28304     28307     28310
     28302     28301     28304     28305     28302     28301     28304     28306
     28302     28301     28304     28307     28303     28301     28304     28305
     28303     28301     28304     28306     28303     28301     28304     28307
     28304     28307     28310     28311     28304     28307     28310     28312
     28304     28307     28310     28313     28305     28304     28307     28308
     28305     28304     28307     28309     28305     28304     28307     28310
     28306     28304     28307     28308     28306     28304     28307     28309
     28306     28304     28307     28310     28307     28310     28313     28314
     28307     28310     28313     28315     28307     28310     28313     28316
     28308     28307     28310     28311     28308     28307     28310     28312
     28308     28307     28310     28313     28309     28307     28310     28311
     28309     28307     28310     28312     28309     28307     28310     28313
     28310     28313     28316     28317     28310     28313     28316     28318
     28310     28313     28316     28319     28311     28310     28313     28314
     28311     28310     28313     28315     28311     28310     28313     28316
     28312     28310     28313     28314     28312     28310     28313     28315
     28312     28310     28313     28316     28313     28316     28319     28320
     28313     28316     28319     28321     28313     28316     28319     28322
     28314     28313     28316     28317     28314     28313     28316     28318
     28314     28313     28316     28319     28315     28313     28316     28317
     28315     28313     28316     28318     28315     28313     28316     28319
     28316     28319     28322     28323     28316     28319     28322     28324
     28316     28319     28322     28325     28317     28316     28319     28320
     28317     28316     28319     28321     28317     28316     28319     28322
     28318     28316     28319     28320     28318     28316     28319     28321
     28318     28316     28319     28322     28319     28322     28325     28326
     28319     28322     28325     28327     28319     28322     28325     28328
     28320     28319     28322     28323     28320     28319     28322     28324
     28320     28319     28322     28325     28321     28319     28322     28323
     28321     28319     28322     28324     28321     28319     28322     28325
     28322     28325     28328     28329     28322     28325     28328     28330
     28322     28325     28328     28331     28323     28322     28325     28326
     28323     28322     28325     28327     28323     28322     28325     28328
     28324     28322     28325     28326     28324     28322     28325     28327
     28324     28322     28325     28328     28325     28328     28331     28332
     28325     28328     28331     28333     28325     28328     28331     28334
     28326     28325     28328     28329     28326     28325     28328     28330
     28326     28325     28328     28331     28327     28325     28328     28329
     28327     28325     28328     28330     28327     28325     28328     28331
     28328     28331     28334     28335     28328     28331     28334     28336
     28328     28331     28334     28337     28329     28328     28331     28332
     28329     28328     28331     28333     28329     28328     28331     28334
     28330     28328     28331     28332     28330     28328     28331     28333
     28330     28328     28331     28334     28332     28331     28334     28335
     28332     28331     28334     28336     28332     28331     28334     28337
     28333     28331     28334     28335     28333     28331     28334     28336
     28333     28331     28334     28337     28338     28342     28345     28346
     28338     28342     28345     28347     28338     28342     28345     28352
     28339     28338     28342     28343     28339     28338     28342     28344
     28339     28338     28342     28345     28340     28338     28342     28343
     28340     28338     28342     28344     28340     28338     28342     28345
     28341     28338     28342     28343     28341     28338     28342     28344
     28341     28338     28342     28345     28342     28345     28352     28348
     28343     28342     28345     28346     28343     28342     28345     28347
     28343     28342     28345     28352     28344     28342     28345     28346
     28344     28342     28345     28347     28344     28342     28345     28352
     28345     28352     28348     28349     28345     28352     28348     28350
     28345     28352     28348     28351     28346     28345     28352     28348
     28347     28345     28352     28348     28348     28351     28353     28354
     28348     28351     28353     28355     28348     28351     28353     28356
     28349     28348     28351     28353     28350     28348     28351     28353
     28351     28353     28356     28357     28351     28353     28356     28358
     28351     28353     28356     28364     28352     28348     28351     28353
     28353     28356     28358     28359     28353     28356     28364     28365
     28353     28356     28364     28366     28353     28356     28364     28367
     28354     28353     28356     28357     28354     28353     28356     28358
     28354     28353     28356     28364     28355     28353     28356     28357
     28355     28353     28356     28358     28355     28353     28356     28364
     28356     28358     28359     28360     28356     28358     28359     28361
     28356     28364     28367     28368     28357     28356     28358     28359
     28357     28356     28364     28365     28357     28356     28364     28366
     28357     28356     28364     28367     28358     28356     28364     28365
     28358     28356     28364     28366     28358     28356     28364     28367
     28358     28359     28361     28362     28358     28359     28361     28363
     28358     28359     28361     28373     28359     28358     28356     28364
     28359     28361     28373     28374     28359     28361     28373     28375
     28359     28361     28373     28376     28360     28359     28361     28362
     28360     28359     28361     28363     28360     28359     28361     28373
     28361     28373     28376     28377     28361     28373     28376     28378
     28361     28373     28376     28379     28362     28361     28373     28374
     28362     28361     28373     28375     28362     28361     28373     28376
     28363     28361     28373     28374     28363     28361     28373     28375
     28363     28361     28373     28376     28364     28367     28368     28369
     28364     28367     28368     28370     28365     28364     28367     28368
     28366     28364     28367     28368     28367     28368     28370     28371
     28367     28368     28370     28372     28367     28368     28370     28417
     28368     28370     28417     28418     28368     28370     28417     28419
     28368     28370     28417     28420     28369     28368     28370     28371
     28369     28368     28370     28372     28369     28368     28370     28417
     28370     28417     28420     28421     28370     28417     28420     28422
     28370     28417     28420     28423     28371     28370     28417     28418
     28371     28370     28417     28419     28371     28370     28417     28420
     28372     28370     28417     28418     28372     28370     28417     28419
     28372     28370     28417     28420     28373     28376     28379     28380
     28373     28376     28379     28381     28373     28376     28379     28382
     28374     28373     28376     28377     28374     28373     28376     28378
     28374     28373     28376     28379     28375     28373     28376     28377
     28375     28373     28376     28378     28375     28373     28376     28379
     28376     28379     28382     28383     28376     28379     28382     28384
     28376     28379     28382     28385     28377     28376     28379     28380
     28377     28376     28379     28381     28377     28376     28379     28382
     28378     28376     28379     28380     28378     28376     28379     28381
     28378     28376     28379     28382     28379     28382     28385     28386
     28379     28382     28385     28387     28379     28382     28385     28388
     28380     28379     28382     28383     28380     28379     28382     28384
     28380     28379     28382     28385     28381     28379     28382     28383
     28381     28379     28382     28384     28381     28379     28382     28385
     28382     28385     28388     28389     28382     28385     28388     28390
     28382     28385     28388     28391     28383     28382     28385     28386
     28383     28382     28385     28387     28383     28382     28385     28388
     28384     28382     28385     28386     28384     28382     28385     28387
     28384     28382     28385     28388     28385     28388     28391     28392
     28385     28388     28391     28393     28385     28388     28391     28396
     28386     28385     28388     28389     28386     28385     28388     28390
     28386     28385     28388     28391     28387     28385     28388     28389
     28387     28385     28388     28390     28387     28385     28388     28391
     28388     28391     28393     28394     28388     28391     28393     28395
     28388     28391     28393     28396     28388     28391     28396     28393
     28388     28391     28396     28397     28388     28391     28396     28398
     28389     28388     28391     28392     28389     28388     28391     28393
     28389     28388     28391     28396     28390     28388     28391     28392
     28390     28388     28391     28393     28390     28388     28391     28396
     28391     28393     28396     28397     28391     28393     28396     28398
     28391     28396     28393     28394     28391     28396     28393     28395
     28391     28396     28398     28399     28391     28396     28398     28400
     28391     28396     28398     28401     28392     28391     28393     28394
     28392     28391     28393     28395     28392     28391     28393     28396
     28392     28391     28396     28393     28392     28391     28396     28397
     28392     28391     28396     28398     28393     28391     28396     28397
     28393     28391     28396     28398     28393     28396     28398     28399
     28393     28396     28398     28400     28393     28396     28398     28401
     28394     28393     28391     28396     28394     28393     28396     28397
     28394     28393     28396     28398     28395     28393     28391     28396
     28395     28393     28396     28397     28395     28393     28396     28398
     28396     28398     28401     28402     28396     28398     28401     28403
     28396     28398     28401     28404     28397     28396     28398     28399
     28397     28396     28398     28400     28397     28396     28398     28401
     28398     28401     28404     28405     28398     28401     28404     28406
     28398     28401     28404     28407     28399     28398     28401     28402
     28399     28398     28401     28403     28399     28398     28401     28404
     28400     28398     28401     28402     28400     28398     28401     28403
     28400     28398     28401     28404     28401     28404     28407     28408
     28401     28404     28407     28409     28401     28404     28407     28410
     28402     28401     28404     28405     28402     28401     28404     28406
     28402     28401     28404     28407     28403     28401     28404     28405
     28403     28401     28404     28406     28403     28401     28404     28407
     28404     28407     28410     28411     28404     28407     28410     28412
     28404     28407     28410     28413     28405     28404     28407     28408
     28405     28404     28407     28409     28405     28404     28407     28410
     28406     28404     28407     28408     28406     28404     28407     28409
     28406     28404     28407     28410     28407     28410     28413     28414
     28407     28410     28413     28415     28407     28410     28413     28416
     28408     28407     28410     28411     28408     28407     28410     28412
     28408     28407     28410     28413     28409     28407     28410     28411
     28409     28407     28410     28412     28409     28407     28410     28413
     28411     28410     28413     28414     28411     28410     28413     28415
     28411     28410     28413     28416     28412     28410     28413     28414
     28412     28410     28413     28415     28412     28410     28413     28416
     28417     28420     28423     28424     28417     28420     28423     28425
     28417     28420     28423     28426     28418     28417     28420     28421
     28418     28417     28420     28422     28418     28417     28420     28423
     28419     28417     28420     28421     28419     28417     28420     28422
     28419     28417     28420     28423     28420     28423     28426     28427
     28420     28423     28426     28428     28420     28423     28426     28429
     28421     28420     28423     28424     28421     28420     28423     28425
     28421     28420     28423     28426     28422     28420     28423     28424
     28422     28420     28423     28425     28422     28420     28423     28426
     28423     28426     28429     28430     28423     28426     28429     28431
     28423     28426     28429     28432     28424     28423     28426     28427
     28424     28423     28426     28428     28424     28423     28426     28429
     28425     28423     28426     28427     28425     28423     28426     28428
     28425     28423     28426     28429     28426     28429     28432     28433
     28426     28429     28432     28434     28426     28429     28432     28435
     28427     28426     28429     28430     28427     28426     28429     28431
     28427     28426     28429     28432     28428     28426     28429     28430
     28428     28426     28429     28431     28428     28426     28429     28432
     28429     28432     28435     28436     28429     28432     28435     28437
     28429     28432     28435     28438     28430     28429     28432     28433
     28430     28429     28432     28434     28430     28429     28432     28435
     28431     28429     28432     28433     28431     28429     28432     28434
     28431     28429     28432     28435     28432     28435     28438     28439
     28432     28435     28438     28440     28432     28435     28438     28441
     28433     28432     28435     28436     28433     28432     28435     28437
     28433     28432     28435     28438     28434     28432     28435     28436
     28434     28432     28435     28437     28434     28432     28435     28438
     28435     28438     28441     28442     28435     28438     28441     28443
     28435     28438     28441     28444     28436     28435     28438     28439
     28436     28435     28438     28440     28436     28435     28438     28441
     28437     28435     28438     28439     28437     28435     28438     28440
     28437     28435     28438     28441     28438     28441     28444     28445
     28438     28441     28444     28446     28438     28441     28444     28447
     28439     28438     28441     28442     28439     28438     28441     28443
     28439     28438     28441     28444     28440     28438     28441     28442
     28440     28438     28441     28443     28440     28438     28441     28444
     28441     28444     28447     28448     28441     28444     28447     28449
     28441     28444     28447     28450     28442     28441     28444     28445
     28442     28441     28444     28446     28442     28441     28444     28447
     28443     28441     28444     28445     28443     28441     28444     28446
     28443     28441     28444     28447     28444     28447     28450     28451
     28444     28447     28450     28452     28444     28447     28450     28453
     28445     28444     28447     28448     28445     28444     28447     28449
     28445     28444     28447     28450     28446     28444     28447     28448
     28446     28444     28447     28449     28446     28444     28447     28450
     28447     28450     28453     28454     28447     28450     28453     28455
     28447     28450     28453     28456     28448     28447     28450     28451
     28448     28447     28450     28452     28448     28447     28450     28453
     28449     28447     28450     28451     28449     28447     28450     28452
     28449     28447     28450     28453     28451     28450     28453     28454
     28451     28450     28453     28455     28451     28450     28453     28456
     28452     28450     28453     28454     28452     28450     28453     28455
     28452     28450     28453     28456     28457     28461     28464     28465
     28457     28461     28464     28466     28457     28461     28464     28471
     28458     28457     28461     28462     28458     28457     28461     28463
     28458     28457     28461     28464     28459     28457     28461     28462
     28459     28457     28461     28463     28459     28457     28461     28464
     28460     28457     28461     28462     28460     28457     28461     28463
     28460     28457     28461     28464     28461     28464     28471     28467
     28462     28461     28464     28465     28462     28461     28464     28466
     28462     28461     28464     28471     28463     28461     28464     28465
     28463     28461     28464     28466     28463     28461     28464     28471
     28464     28471     28467     28468     28464     28471     28467     28469
     28464     28471     28467     28470     28465     28464     28471     28467
     28466     28464     28471     28467     28467     28470     28472     28473
     28467     28470     28472     28474     28467     28470     28472     28475
     28468     28467     28470     28472     28469     28467     28470     28472
     28470     28472     28475     28476     28470     28472     28475     28477
     28470     28472     28475     28483     28471     28467     28470     28472
     28472     28475     28477     28478     28472     28475     28483     28484
     28472     28475     28483     28485     28472     28475     28483     28486
     28473     28472     28475     28476     28473     28472     28475     28477
     28473     28472     28475     28483     28474     28472     28475     28476
     28474     28472     28475     28477     28474     28472     28475     28483
     28475     28477     28478     28479     28475     28477     28478     28480
     28475     28483     28486     28487     28476     28475     28477     28478
     28476     28475     28483     28484     28476     28475     28483     28485
     28476     28475     28483     28486     28477     28475     28483     28484
     28477     28475     28483     28485     28477     28475     28483     28486
     28477     28478     28480     28481     28477     28478     28480     28482
     28477     28478     28480     28492     28478     28477     28475     28483
     28478     28480     28492     28493     28478     28480     28492     28494
     28478     28480     28492     28495     28479     28478     28480     28481
     28479     28478     28480     28482     28479     28478     28480     28492
     28480     28492     28495     28496     28480     28492     28495     28497
     28480     28492     28495     28498     28481     28480     28492     28493
     28481     28480     28492     28494     28481     28480     28492     28495
     28482     28480     28492     28493     28482     28480     28492     28494
     28482     28480     28492     28495     28483     28486     28487     28488
     28483     28486     28487     28489     28484     28483     28486     28487
     28485     28483     28486     28487     28486     28487     28489     28490
     28486     28487     28489     28491     28486     28487     28489     28536
     28487     28489     28536     28537     28487     28489     28536     28538
     28487     28489     28536     28539     28488     28487     28489     28490
     28488     28487     28489     28491     28488     28487     28489     28536
     28489     28536     28539     28540     28489     28536     28539     28541
     28489     28536     28539     28542     28490     28489     28536     28537
     28490     28489     28536     28538     28490     28489     28536     28539
     28491     28489     28536     28537     28491     28489     28536     28538
     28491     28489     28536     28539     28492     28495     28498     28499
     28492     28495     28498     28500     28492     28495     28498     28501
     28493     28492     28495     28496     28493     28492     28495     28497
     28493     28492     28495     28498     28494     28492     28495     28496
     28494     28492     28495     28497     28494     28492     28495     28498
     28495     28498     28501     28502     28495     28498     28501     28503
     28495     28498     28501     28504     28496     28495     28498     28499
     28496     28495     28498     28500     28496     28495     28498     28501
     28497     28495     28498     28499     28497     28495     28498     28500
     28497     28495     28498     28501     28498     28501     28504     28505
     28498     28501     28504     28506     28498     28501     28504     28507
     28499     28498     28501     28502     28499     28498     28501     28503
     28499     28498     28501     28504     28500     28498     28501     28502
     28500     28498     28501     28503     28500     28498     28501     28504
     28501     28504     28507     28508     28501     28504     28507     28509
     28501     28504     28507     28510     28502     28501     28504     28505
     28502     28501     28504     28506     28502     28501     28504     28507
     28503     28501     28504     28505     28503     28501     28504     28506
     28503     28501     28504     28507     28504     28507     28510     28511
     28504     28507     28510     28512     28504     28507     28510     28515
     28505     28504     28507     28508     28505     28504     28507     28509
     28505     28504     28507     28510     28506     28504     28507     28508
     28506     28504     28507     28509     28506     28504     28507     28510
     28507     28510     28512     28513     28507     28510     28512     28514
     28507     28510     28512     28515     28507     28510     28515     28512
     28507     28510     28515     28516     28507     28510     28515     28517
     28508     28507     28510     28511     28508     28507     28510     28512
     28508     28507     28510     28515     28509     28507     28510     28511
     28509     28507     28510     28512     28509     28507     28510     28515
     28510     28512     28515     28516     28510     28512     28515     28517
     28510     28515     28512     28513     28510     28515     28512     28514
     28510     28515     28517     28518     28510     28515     28517     28519
     28510     28515     28517     28520     28511     28510     28512     28513
     28511     28510     28512     28514     28511     28510     28512     28515
     28511     28510     28515     28512     28511     28510     28515     28516
     28511     28510     28515     28517     28512     28510     28515     28516
     28512     28510     28515     28517     28512     28515     28517     28518
     28512     28515     28517     28519     28512     28515     28517     28520
     28513     28512     28510     28515     28513     28512     28515     28516
     28513     28512     28515     28517     28514     28512     28510     28515
     28514     28512     28515     28516     28514     28512     28515     28517
     28515     28517     28520     28521     28515     28517     28520     28522
     28515     28517     28520     28523     28516     28515     28517     28518
     28516     28515     28517     28519     28516     28515     28517     28520
     28517     28520     28523     28524     28517     28520     28523     28525
     28517     28520     28523     28526     28518     28517     28520     28521
     28518     28517     28520     28522     28518     28517     28520     28523
     28519     28517     28520     28521     28519     28517     28520     28522
     28519     28517     28520     28523     28520     28523     28526     28527
     28520     28523     28526     28528     28520     28523     28526     28529
     28521     28520     28523     28524     28521     28520     28523     28525
     28521     28520     28523     28526     28522     28520     28523     28524
     28522     28520     28523     28525     28522     28520     28523     28526
     28523     28526     28529     28530     28523     28526     28529     28531
     28523     28526     28529     28532     28524     28523     28526     28527
     28524     28523     28526     28528     28524     28523     28526     28529
     28525     28523     28526     28527     28525     28523     28526     28528
     28525     28523     28526     28529     28526     28529     28532     28533
     28526     28529     28532     28534     28526     28529     28532     28535
     28527     28526     28529     28530     28527     28526     28529     28531
     28527     28526     28529     28532     28528     28526     28529     28530
     28528     28526     28529     28531     28528     28526     28529     28532
     28530     28529     28532     28533     28530     28529     28532     28534
     28530     28529     28532     28535     28531     28529     28532     28533
     28531     28529     28532     28534     28531     28529     28532     28535
     28536     28539     28542     28543     28536     28539     28542     28544
     28536     28539     28542     28545     28537     28536     28539     28540
     28537     28536     28539     28541     28537     28536     28539     28542
     28538     28536     28539     28540     28538     28536     28539     28541
     28538     28536     28539     28542     28539     28542     28545     28546
     28539     28542     28545     28547     28539     28542     28545     28548
     28540     28539     28542     28543     28540     28539     28542     28544
     28540     28539     28542     28545     28541     28539     28542     28543
     28541     28539     28542     28544     28541     28539     28542     28545
     28542     28545     28548     28549     28542     28545     28548     28550
     28542     28545     28548     28551     28543     28542     28545     28546
     28543     28542     28545     28547     28543     28542     28545     28548
     28544     28542     28545     28546     28544     28542     28545     28547
     28544     28542     28545     28548     28545     28548     28551     28552
     28545     28548     28551     28553     28545     28548     28551     28554
     28546     28545     28548     28549     28546     28545     28548     28550
     28546     28545     28548     28551     28547     28545     28548     28549
     28547     28545     28548     28550     28547     28545     28548     28551
     28548     28551     28554     28555     28548     28551     28554     28556
     28548     28551     28554     28557     28549     28548     28551     28552
     28549     28548     28551     28553     28549     28548     28551     28554
     28550     28548     28551     28552     28550     28548     28551     28553
     28550     28548     28551     28554     28551     28554     28557     28558
     28551     28554     28557     28559     28551     28554     28557     28560
     28552     28551     28554     28555     28552     28551     28554     28556
     28552     28551     28554     28557     28553     28551     28554     28555
     28553     28551     28554     28556     28553     28551     28554     28557
     28554     28557     28560     28561     28554     28557     28560     28562
     28554     28557     28560     28563     28555     28554     28557     28558
     28555     28554     28557     28559     28555     28554     28557     28560
     28556     28554     28557     28558     28556     28554     28557     28559
     28556     28554     28557     28560     28557     28560     28563     28564
     28557     28560     28563     28565     28557     28560     28563     28566
     28558     28557     28560     28561     28558     28557     28560     28562
     28558     28557     28560     28563     28559     28557     28560     28561
     28559     28557     28560     28562     28559     28557     28560     28563
     28560     28563     28566     28567     28560     28563     28566     28568
     28560     28563     28566     28569     28561     28560     28563     28564
     28561     28560     28563     28565     28561     28560     28563     28566
     28562     28560     28563     28564     28562     28560     28563     28565
     28562     28560     28563     28566     28563     28566     28569     28570
     28563     28566     28569     28571     28563     28566     28569     28572
     28564     28563     28566     28567     28564     28563     28566     28568
     28564     28563     28566     28569     28565     28563     28566     28567
     28565     28563     28566     28568     28565     28563     28566     28569
     28566     28569     28572     28573     28566     28569     28572     28574
     28566     28569     28572     28575     28567     28566     28569     28570
     28567     28566     28569     28571     28567     28566     28569     28572
     28568     28566     28569     28570     28568     28566     28569     28571
     28568     28566     28569     28572     28569     28572     28575     28576
     28569     28572     28575     28577     28569     28572     28575     28578
     28570     28569     28572     28573     28570     28569     28572     28574
     28570     28569     28572     28575     28571     28569     28572     28573
     28571     28569     28572     28574     28571     28569     28572     28575
     28573     28572     28575     28576     28573     28572     28575     28577
     28573     28572     28575     28578     28574     28572     28575     28576
     28574     28572     28575     28577     28574     28572     28575     28578
     28579     28583     28586     28587     28579     28583     28586     28588
     28579     28583     28586     28593     28580     28579     28583     28584
     28580     28579     28583     28585     28580     28579     28583     28586
     28581     28579     28583     28584     28581     28579     28583     28585
     28581     28579     28583     28586     28582     28579     28583     28584
     28582     28579     28583     28585     28582     28579     28583     28586
     28583     28586     28593     28589     28584     28583     28586     28587
     28584     28583     28586     28588     28584     28583     28586     28593
     28585     28583     28586     28587     28585     28583     28586     28588
     28585     28583     28586     28593     28586     28593     28589     28590
     28586     28593     28589     28591     28586     28593     28589     28592
     28587     28586     28593     28589     28588     28586     28593     28589
     28589     28592     28594     28595     28589     28592     28594     28596
     28589     28592     28594     28597     28590     28589     28592     28594
     28591     28589     28592     28594     28592     28594     28597     28598
     28592     28594     28597     28599     28592     28594     28597     28605
     28593     28589     28592     28594     28594     28597     28599     28600
     28594     28597     28605     28606     28594     28597     28605     28607
     28594     28597     28605     28608     28595     28594     28597     28598
     28595     28594     28597     28599     28595     28594     28597     28605
     28596     28594     28597     28598     28596     28594     28597     28599
     28596     28594     28597     28605     28597     28599     28600     28601
     28597     28599     28600     28602     28597     28605     28608     28609
     28598     28597     28599     28600     28598     28597     28605     28606
     28598     28597     28605     28607     28598     28597     28605     28608
     28599     28597     28605     28606     28599     28597     28605     28607
     28599     28597     28605     28608     28599     28600     28602     28603
     28599     28600     28602     28604     28599     28600     28602     28614
     28600     28599     28597     28605     28600     28602     28614     28615
     28600     28602     28614     28616     28600     28602     28614     28617
     28601     28600     28602     28603     28601     28600     28602     28604
     28601     28600     28602     28614     28602     28614     28617     28618
     28602     28614     28617     28619     28602     28614     28617     28620
     28603     28602     28614     28615     28603     28602     28614     28616
     28603     28602     28614     28617     28604     28602     28614     28615
     28604     28602     28614     28616     28604     28602     28614     28617
     28605     28608     28609     28610     28605     28608     28609     28611
     28606     28605     28608     28609     28607     28605     28608     28609
     28608     28609     28611     28612     28608     28609     28611     28613
     28608     28609     28611     28658     28609     28611     28658     28659
     28609     28611     28658     28660     28609     28611     28658     28661
     28610     28609     28611     28612     28610     28609     28611     28613
     28610     28609     28611     28658     28611     28658     28661     28662
     28611     28658     28661     28663     28611     28658     28661     28664
     28612     28611     28658     28659     28612     28611     28658     28660
     28612     28611     28658     28661     28613     28611     28658     28659
     28613     28611     28658     28660     28613     28611     28658     28661
     28614     28617     28620     28621     28614     28617     28620     28622
     28614     28617     28620     28623     28615     28614     28617     28618
     28615     28614     28617     28619     28615     28614     28617     28620
     28616     28614     28617     28618     28616     28614     28617     28619
     28616     28614     28617     28620     28617     28620     28623     28624
     28617     28620     28623     28625     28617     28620     28623     28626
     28618     28617     28620     28621     28618     28617     28620     28622
     28618     28617     28620     28623     28619     28617     28620     28621
     28619     28617     28620     28622     28619     28617     28620     28623
     28620     28623     28626     28627     28620     28623     28626     28628
     28620     28623     28626     28629     28621     28620     28623     28624
     28621     28620     28623     28625     28621     28620     28623     28626
     28622     28620     28623     28624     28622     28620     28623     28625
     28622     28620     28623     28626     28623     28626     28629     28630
     28623     28626     28629     28631     28623     28626     28629     28632
     28624     28623     28626     28627     28624     28623     28626     28628
     28624     28623     28626     28629     28625     28623     28626     28627
     28625     28623     28626     28628     28625     28623     28626     28629
     28626     28629     28632     28633     28626     28629     28632     28634
     28626     28629     28632     28637     28627     28626     28629     28630
     28627     28626     28629     28631     28627     28626     28629     28632
     28628     28626     28629     28630     28628     28626     28629     28631
     28628     28626     28629     28632     28629     28632     28634     28635
     28629     28632     28634     28636     28629     28632     28634     28637
     28629     28632     28637     28634     28629     28632     28637     28638
     28629     28632     28637     28639     28630     28629     28632     28633
     28630     28629     28632     28634     28630     28629     28632     28637
     28631     28629     28632     28633     28631     28629     28632     28634
     28631     28629     28632     28637     28632     28634     28637     28638
     28632     28634     28637     28639     28632     28637     28634     28635
     28632     28637     28634     28636     28632     28637     28639     28640
     28632     28637     28639     28641     28632     28637     28639     28642
     28633     28632     28634     28635     28633     28632     28634     28636
     28633     28632     28634     28637     28633     28632     28637     28634
     28633     28632     28637     28638     28633     28632     28637     28639
     28634     28632     28637     28638     28634     28632     28637     28639
     28634     28637     28639     28640     28634     28637     28639     28641
     28634     28637     28639     28642     28635     28634     28632     28637
     28635     28634     28637     28638     28635     28634     28637     28639
     28636     28634     28632     28637     28636     28634     28637     28638
     28636     28634     28637     28639     28637     28639     28642     28643
     28637     28639     28642     28644     28637     28639     28642     28645
     28638     28637     28639     28640     28638     28637     28639     28641
     28638     28637     28639     28642     28639     28642     28645     28646
     28639     28642     28645     28647     28639     28642     28645     28648
     28640     28639     28642     28643     28640     28639     28642     28644
     28640     28639     28642     28645     28641     28639     28642     28643
     28641     28639     28642     28644     28641     28639     28642     28645
     28642     28645     28648     28649     28642     28645     28648     28650
     28642     28645     28648     28651     28643     28642     28645     28646
     28643     28642     28645     28647     28643     28642     28645     28648
     28644     28642     28645     28646     28644     28642     28645     28647
     28644     28642     28645     28648     28645     28648     28651     28652
     28645     28648     28651     28653     28645     28648     28651     28654
     28646     28645     28648     28649     28646     28645     28648     28650
     28646     28645     28648     28651     28647     28645     28648     28649
     28647     28645     28648     28650     28647     28645     28648     28651
     28648     28651     28654     28655     28648     28651     28654     28656
     28648     28651     28654     28657     28649     28648     28651     28652
     28649     28648     28651     28653     28649     28648     28651     28654
     28650     28648     28651     28652     28650     28648     28651     28653
     28650     28648     28651     28654     28652     28651     28654     28655
     28652     28651     28654     28656     28652     28651     28654     28657
     28653     28651     28654     28655     28653     28651     28654     28656
     28653     28651     28654     28657     28658     28661     28664     28665
     28658     28661     28664     28666     28658     28661     28664     28667
     28659     28658     28661     28662     28659     28658     28661     28663
     28659     28658     28661     28664     28660     28658     28661     28662
     28660     28658     28661     28663     28660     28658     28661     28664
     28661     28664     28667     28668     28661     28664     28667     28669
     28661     28664     28667     28670     28662     28661     28664     28665
     28662     28661     28664     28666     28662     28661     28664     28667
     28663     28661     28664     28665     28663     28661     28664     28666
     28663     28661     28664     28667     28664     28667     28670     28671
     28664     28667     28670     28672     28664     28667     28670     28673
     28665     28664     28667     28668     28665     28664     28667     28669
     28665     28664     28667     28670     28666     28664     28667     28668
     28666     28664     28667     28669     28666     28664     28667     28670
     28667     28670     28673     28674     28667     28670     28673     28675
     28667     28670     28673     28676     28668     28667     28670     28671
     28668     28667     28670     28672     28668     28667     28670     28673
     28669     28667     28670     28671     28669     28667     28670     28672
     28669     28667     28670     28673     28670     28673     28676     28677
     28670     28673     28676     28678     28670     28673     28676     28679
     28671     28670     28673     28674     28671     28670     28673     28675
     28671     28670     28673     28676     28672     28670     28673     28674
     28672     28670     28673     28675     28672     28670     28673     28676
     28673     28676     28679     28680     28673     28676     28679     28681
     28673     28676     28679     28682     28674     28673     28676     28677
     28674     28673     28676     28678     28674     28673     28676     28679
     28675     28673     28676     28677     28675     28673     28676     28678
     28675     28673     28676     28679     28676     28679     28682     28683
     28676     28679     28682     28684     28676     28679     28682     28685
     28677     28676     28679     28680     28677     28676     28679     28681
     28677     28676     28679     28682     28678     28676     28679     28680
     28678     28676     28679     28681     28678     28676     28679     28682
     28679     28682     28685     28686     28679     28682     28685     28687
     28679     28682     28685     28688     28680     28679     28682     28683
     28680     28679     28682     28684     28680     28679     28682     28685
     28681     28679     28682     28683     28681     28679     28682     28684
     28681     28679     28682     28685     28682     28685     28688     28689
     28682     28685     28688     28690     28682     28685     28688     28691
     28683     28682     28685     28686     28683     28682     28685     28687
     28683     28682     28685     28688     28684     28682     28685     28686
     28684     28682     28685     28687     28684     28682     28685     28688
     28685     28688     28691     28692     28685     28688     28691     28693
     28685     28688     28691     28694     28686     28685     28688     28689
     28686     28685     28688     28690     28686     28685     28688     28691
     28687     28685     28688     28689     28687     28685     28688     28690
     28687     28685     28688     28691     28688     28691     28694     28695
     28688     28691     28694     28696     28688     28691     28694     28697
     28689     28688     28691     28692     28689     28688     28691     28693
     28689     28688     28691     28694     28690     28688     28691     28692
     28690     28688     28691     28693     28690     28688     28691     28694
     28691     28694     28697     28698     28691     28694     28697     28699
     28691     28694     28697     28700     28692     28691     28694     28695
     28692     28691     28694     28696     28692     28691     28694     28697
     28693     28691     28694     28695     28693     28691     28694     28696
     28693     28691     28694     28697     28695     28694     28697     28698
     28695     28694     28697     28699     28695     28694     28697     28700
     28696     28694     28697     28698     28696     28694     28697     28699
     28696     28694     28697     28700     28701     28706     28708     28709
     28701     28706     28710     28711     28701     28706     28710     28712
     28701     28706     28710     28717     28702     28701     28704     28705
     28702     28701     28706     28707     28702     28701     28706     28708
     28702     28701     28706     28710     28703     28701     28704     28705
     28703     28701     28706     28707     28703     28701     28706     28708
     28703     28701     28706     28710     28704     28701     28706     28707
     28704     28701     28706     28708     28704     28701     28706     28710
     28705     28704     28701     28706     28706     28710     28717     28713
     28707     28706     28708     28709     28707     28706     28710     28711
     28707     28706     28710     28712     28707     28706     28710     28717
     28708     28706     28710     28711     28708     28706     28710     28712
     28708     28706     28710     28717     28709     28708     28706     28710
     28710     28717     28713     28714     28710     28717     28713     28715
     28710     28717     28713     28716     28711     28710     28717     28713
     28712     28710     28717     28713     28713     28716     28718     28719
     28713     28716     28718     28720     28713     28716     28718     28721
     28714     28713     28716     28718     28715     28713     28716     28718
     28716     28718     28721     28722     28716     28718     28721     28723
     28716     28718     28721     28729     28717     28713     28716     28718
     28718     28721     28723     28724     28718     28721     28729     28730
     28718     28721     28729     28731     28718     28721     28729     28732
     28719     28718     28721     28722     28719     28718     28721     28723
     28719     28718     28721     28729     28720     28718     28721     28722
     28720     28718     28721     28723     28720     28718     28721     28729
     28721     28723     28724     28725     28721     28723     28724     28726
     28721     28729     28732     28733     28722     28721     28723     28724
     28722     28721     28729     28730     28722     28721     28729     28731
     28722     28721     28729     28732     28723     28721     28729     28730
     28723     28721     28729     28731     28723     28721     28729     28732
     28723     28724     28726     28727     28723     28724     28726     28728
     28723     28724     28726     28738     28724     28723     28721     28729
     28724     28726     28738     28739     28724     28726     28738     28740
     28724     28726     28738     28741     28725     28724     28726     28727
     28725     28724     28726     28728     28725     28724     28726     28738
     28726     28738     28741     28742     28726     28738     28741     28743
     28726     28738     28741     28744     28727     28726     28738     28739
     28727     28726     28738     28740     28727     28726     28738     28741
     28728     28726     28738     28739     28728     28726     28738     28740
     28728     28726     28738     28741     28729     28732     28733     28734
     28729     28732     28733     28735     28730     28729     28732     28733
     28731     28729     28732     28733     28732     28733     28735     28736
     28732     28733     28735     28737     28732     28733     28735     28782
     28733     28735     28782     28783     28733     28735     28782     28784
     28733     28735     28782     28785     28734     28733     28735     28736
     28734     28733     28735     28737     28734     28733     28735     28782
     28735     28782     28785     28786     28735     28782     28785     28787
     28735     28782     28785     28788     28736     28735     28782     28783
     28736     28735     28782     28784     28736     28735     28782     28785
     28737     28735     28782     28783     28737     28735     28782     28784
     28737     28735     28782     28785     28738     28741     28744     28745
     28738     28741     28744     28746     28738     28741     28744     28747
     28739     28738     28741     28742     28739     28738     28741     28743
     28739     28738     28741     28744     28740     28738     28741     28742
     28740     28738     28741     28743     28740     28738     28741     28744
     28741     28744     28747     28748     28741     28744     28747     28749
     28741     28744     28747     28750     28742     28741     28744     28745
     28742     28741     28744     28746     28742     28741     28744     28747
     28743     28741     28744     28745     28743     28741     28744     28746
     28743     28741     28744     28747     28744     28747     28750     28751
     28744     28747     28750     28752     28744     28747     28750     28753
     28745     28744     28747     28748     28745     28744     28747     28749
     28745     28744     28747     28750     28746     28744     28747     28748
     28746     28744     28747     28749     28746     28744     28747     28750
     28747     28750     28753     28754     28747     28750     28753     28755
     28747     28750     28753     28756     28748     28747     28750     28751
     28748     28747     28750     28752     28748     28747     28750     28753
     28749     28747     28750     28751     28749     28747     28750     28752
     28749     28747     28750     28753     28750     28753     28756     28757
     28750     28753     28756     28758     28750     28753     28756     28761
     28751     28750     28753     28754     28751     28750     28753     28755
     28751     28750     28753     28756     28752     28750     28753     28754
     28752     28750     28753     28755     28752     28750     28753     28756
     28753     28756     28758     28759     28753     28756     28758     28760
     28753     28756     28758     28761     28753     28756     28761     28758
     28753     28756     28761     28762     28753     28756     28761     28763
     28754     28753     28756     28757     28754     28753     28756     28758
     28754     28753     28756     28761     28755     28753     28756     28757
     28755     28753     28756     28758     28755     28753     28756     28761
     28756     28758     28761     28762     28756     28758     28761     28763
     28756     28761     28758     28759     28756     28761     28758     28760
     28756     28761     28763     28764     28756     28761     28763     28765
     28756     28761     28763     28766     28757     28756     28758     28759
     28757     28756     28758     28760     28757     28756     28758     28761
     28757     28756     28761     28758     28757     28756     28761     28762
     28757     28756     28761     28763     28758     28756     28761     28762
     28758     28756     28761     28763     28758     28761     28763     28764
     28758     28761     28763     28765     28758     28761     28763     28766
     28759     28758     28756     28761     28759     28758     28761     28762
     28759     28758     28761     28763     28760     28758     28756     28761
     28760     28758     28761     28762     28760     28758     28761     28763
     28761     28763     28766     28767     28761     28763     28766     28768
     28761     28763     28766     28769     28762     28761     28763     28764
     28762     28761     28763     28765     28762     28761     28763     28766
     28763     28766     28769     28770     28763     28766     28769     28771
     28763     28766     28769     28772     28764     28763     28766     28767
     28764     28763     28766     28768     28764     28763     28766     28769
     28765     28763     28766     28767     28765     28763     28766     28768
     28765     28763     28766     28769     28766     28769     28772     28773
     28766     28769     28772     28774     28766     28769     28772     28775
     28767     28766     28769     28770     28767     28766     28769     28771
     28767     28766     28769     28772     28768     28766     28769     28770
     28768     28766     28769     28771     28768     28766     28769     28772
     28769     28772     28775     28776     28769     28772     28775     28777
     28769     28772     28775     28778     28770     28769     28772     28773
     28770     28769     28772     28774     28770     28769     28772     28775
     28771     28769     28772     28773     28771     28769     28772     28774
     28771     28769     28772     28775     28772     28775     28778     28779
     28772     28775     28778     28780     28772     28775     28778     28781
     28773     28772     28775     28776     28773     28772     28775     28777
     28773     28772     28775     28778     28774     28772     28775     28776
     28774     28772     28775     28777     28774     28772     28775     28778
     28776     28775     28778     28779     28776     28775     28778     28780
     28776     28775     28778     28781     28777     28775     28778     28779
     28777     28775     28778     28780     28777     28775     28778     28781
     28782     28785     28788     28789     28782     28785     28788     28790
     28782     28785     28788     28791     28783     28782     28785     28786
     28783     28782     28785     28787     28783     28782     28785     28788
     28784     28782     28785     28786     28784     28782     28785     28787
     28784     28782     28785     28788     28785     28788     28791     28792
     28785     28788     28791     28793     28785     28788     28791     28794
     28786     28785     28788     28789     28786     28785     28788     28790
     28786     28785     28788     28791     28787     28785     28788     28789
     28787     28785     28788     28790     28787     28785     28788     28791
     28788     28791     28794     28795     28788     28791     28794     28796
     28788     28791     28794     28797     28789     28788     28791     28792
     28789     28788     28791     28793     28789     28788     28791     28794
     28790     28788     28791     28792     28790     28788     28791     28793
     28790     28788     28791     28794     28791     28794     28797     28798
     28791     28794     28797     28799     28791     28794     28797     28800
     28792     28791     28794     28795     28792     28791     28794     28796
     28792     28791     28794     28797     28793     28791     28794     28795
     28793     28791     28794     28796     28793     28791     28794     28797
     28794     28797     28800     28801     28794     28797     28800     28802
     28794     28797     28800     28803     28795     28794     28797     28798
     28795     28794     28797     28799     28795     28794     28797     28800
     28796     28794     28797     28798     28796     28794     28797     28799
     28796     28794     28797     28800     28797     28800     28803     28804
     28797     28800     28803     28805     28797     28800     28803     28806
     28798     28797     28800     28801     28798     28797     28800     28802
     28798     28797     28800     28803     28799     28797     28800     28801
     28799     28797     28800     28802     28799     28797     28800     28803
     28800     28803     28806     28807     28800     28803     28806     28808
     28800     28803     28806     28809     28801     28800     28803     28804
     28801     28800     28803     28805     28801     28800     28803     28806
     28802     28800     28803     28804     28802     28800     28803     28805
     28802     28800     28803     28806     28803     28806     28809     28810
     28803     28806     28809     28811     28803     28806     28809     28812
     28804     28803     28806     28807     28804     28803     28806     28808
     28804     28803     28806     28809     28805     28803     28806     28807
     28805     28803     28806     28808     28805     28803     28806     28809
     28806     28809     28812     28813     28806     28809     28812     28814
     28806     28809     28812     28815     28807     28806     28809     28810
     28807     28806     28809     28811     28807     28806     28809     28812
     28808     28806     28809     28810     28808     28806     28809     28811
     28808     28806     28809     28812     28809     28812     28815     28816
     28809     28812     28815     28817     28809     28812     28815     28818
     28810     28809     28812     28813     28810     28809     28812     28814
     28810     28809     28812     28815     28811     28809     28812     28813
     28811     28809     28812     28814     28811     28809     28812     28815
     28812     28815     28818     28819     28812     28815     28818     28820
     28812     28815     28818     28821     28813     28812     28815     28816
     28813     28812     28815     28817     28813     28812     28815     28818
     28814     28812     28815     28816     28814     28812     28815     28817
     28814     28812     28815     28818     28815     28818     28821     28822
     28815     28818     28821     28823     28815     28818     28821     28824
     28816     28815     28818     28819     28816     28815     28818     28820
     28816     28815     28818     28821     28817     28815     28818     28819
     28817     28815     28818     28820     28817     28815     28818     28821
     28819     28818     28821     28822     28819     28818     28821     28823
     28819     28818     28821     28824     28820     28818     28821     28822
     28820     28818     28821     28823     28820     28818     28821     28824
     28825     28829     28832     28833     28825     28829     28832     28834
     28825     28829     28832     28839     28826     28825     28829     28830
     28826     28825     28829     28831     28826     28825     28829     28832
     28827     28825     28829     28830     28827     28825     28829     28831
     28827     28825     28829     28832     28828     28825     28829     28830
     28828     28825     28829     28831     28828     28825     28829     28832
     28829     28832     28839     28835     28830     28829     28832     28833
     28830     28829     28832     28834     28830     28829     28832     28839
     28831     28829     28832     28833     28831     28829     28832     28834
     28831     28829     28832     28839     28832     28839     28835     28836
     28832     28839     28835     28837     28832     28839     28835     28838
     28833     28832     28839     28835     28834     28832     28839     28835
     28835     28838     28840     28841     28835     28838     28840     28842
     28835     28838     28840     28843     28836     28835     28838     28840
     28837     28835     28838     28840     28838     28840     28843     28844
     28838     28840     28843     28845     28838     28840     28843     28851
     28839     28835     28838     28840     28840     28843     28845     28846
     28840     28843     28851     28852     28840     28843     28851     28853
     28840     28843     28851     28854     28841     28840     28843     28844
     28841     28840     28843     28845     28841     28840     28843     28851
     28842     28840     28843     28844     28842     28840     28843     28845
     28842     28840     28843     28851     28843     28845     28846     28847
     28843     28845     28846     28848     28843     28851     28854     28855
     28844     28843     28845     28846     28844     28843     28851     28852
     28844     28843     28851     28853     28844     28843     28851     28854
     28845     28843     28851     28852     28845     28843     28851     28853
     28845     28843     28851     28854     28845     28846     28848     28849
     28845     28846     28848     28850     28845     28846     28848     28860
     28846     28845     28843     28851     28846     28848     28860     28861
     28846     28848     28860     28862     28846     28848     28860     28863
     28847     28846     28848     28849     28847     28846     28848     28850
     28847     28846     28848     28860     28848     28860     28863     28864
     28848     28860     28863     28865     28848     28860     28863     28866
     28849     28848     28860     28861     28849     28848     28860     28862
     28849     28848     28860     28863     28850     28848     28860     28861
     28850     28848     28860     28862     28850     28848     28860     28863
     28851     28854     28855     28856     28851     28854     28855     28857
     28852     28851     28854     28855     28853     28851     28854     28855
     28854     28855     28857     28858     28854     28855     28857     28859
     28854     28855     28857     28904     28855     28857     28904     28905
     28855     28857     28904     28906     28855     28857     28904     28907
     28856     28855     28857     28858     28856     28855     28857     28859
     28856     28855     28857     28904     28857     28904     28907     28908
     28857     28904     28907     28909     28857     28904     28907     28910
     28858     28857     28904     28905     28858     28857     28904     28906
     28858     28857     28904     28907     28859     28857     28904     28905
     28859     28857     28904     28906     28859     28857     28904     28907
     28860     28863     28866     28867     28860     28863     28866     28868
     28860     28863     28866     28869     28861     28860     28863     28864
     28861     28860     28863     28865     28861     28860     28863     28866
     28862     28860     28863     28864     28862     28860     28863     28865
     28862     28860     28863     28866     28863     28866     28869     28870
     28863     28866     28869     28871     28863     28866     28869     28872
     28864     28863     28866     28867     28864     28863     28866     28868
     28864     28863     28866     28869     28865     28863     28866     28867
     28865     28863     28866     28868     28865     28863     28866     28869
     28866     28869     28872     28873     28866     28869     28872     28874
     28866     28869     28872     28875     28867     28866     28869     28870
     28867     28866     28869     28871     28867     28866     28869     28872
     28868     28866     28869     28870     28868     28866     28869     28871
     28868     28866     28869     28872     28869     28872     28875     28876
     28869     28872     28875     28877     28869     28872     28875     28878
     28870     28869     28872     28873     28870     28869     28872     28874
     28870     28869     28872     28875     28871     28869     28872     28873
     28871     28869     28872     28874     28871     28869     28872     28875
     28872     28875     28878     28879     28872     28875     28878     28880
     28872     28875     28878     28883     28873     28872     28875     28876
     28873     28872     28875     28877     28873     28872     28875     28878
     28874     28872     28875     28876     28874     28872     28875     28877
     28874     28872     28875     28878     28875     28878     28880     28881
     28875     28878     28880     28882     28875     28878     28880     28883
     28875     28878     28883     28880     28875     28878     28883     28884
     28875     28878     28883     28885     28876     28875     28878     28879
     28876     28875     28878     28880     28876     28875     28878     28883
     28877     28875     28878     28879     28877     28875     28878     28880
     28877     28875     28878     28883     28878     28880     28883     28884
     28878     28880     28883     28885     28878     28883     28880     28881
     28878     28883     28880     28882     28878     28883     28885     28886
     28878     28883     28885     28887     28878     28883     28885     28888
     28879     28878     28880     28881     28879     28878     28880     28882
     28879     28878     28880     28883     28879     28878     28883     28880
     28879     28878     28883     28884     28879     28878     28883     28885
     28880     28878     28883     28884     28880     28878     28883     28885
     28880     28883     28885     28886     28880     28883     28885     28887
     28880     28883     28885     28888     28881     28880     28878     28883
     28881     28880     28883     28884     28881     28880     28883     28885
     28882     28880     28878     28883     28882     28880     28883     28884
     28882     28880     28883     28885     28883     28885     28888     28889
     28883     28885     28888     28890     28883     28885     28888     28891
     28884     28883     28885     28886     28884     28883     28885     28887
     28884     28883     28885     28888     28885     28888     28891     28892
     28885     28888     28891     28893     28885     28888     28891     28894
     28886     28885     28888     28889     28886     28885     28888     28890
     28886     28885     28888     28891     28887     28885     28888     28889
     28887     28885     28888     28890     28887     28885     28888     28891
     28888     28891     28894     28895     28888     28891     28894     28896
     28888     28891     28894     28897     28889     28888     28891     28892
     28889     28888     28891     28893     28889     28888     28891     28894
     28890     28888     28891     28892     28890     28888     28891     28893
     28890     28888     28891     28894     28891     28894     28897     28898
     28891     28894     28897     28899     28891     28894     28897     28900
     28892     28891     28894     28895     28892     28891     28894     28896
     28892     28891     28894     28897     28893     28891     28894     28895
     28893     28891     28894     28896     28893     28891     28894     28897
     28894     28897     28900     28901     28894     28897     28900     28902
     28894     28897     28900     28903     28895     28894     28897     28898
     28895     28894     28897     28899     28895     28894     28897     28900
     28896     28894     28897     28898     28896     28894     28897     28899
     28896     28894     28897     28900     28898     28897     28900     28901
     28898     28897     28900     28902     28898     28897     28900     28903
     28899     28897     28900     28901     28899     28897     28900     28902
     28899     28897     28900     28903     28904     28907     28910     28911
     28904     28907     28910     28912     28904     28907     28910     28913
     28905     28904     28907     28908     28905     28904     28907     28909
     28905     28904     28907     28910     28906     28904     28907     28908
     28906     28904     28907     28909     28906     28904     28907     28910
     28907     28910     28913     28914     28907     28910     28913     28915
     28907     28910     28913     28916     28908     28907     28910     28911
     28908     28907     28910     28912     28908     28907     28910     28913
     28909     28907     28910     28911     28909     28907     28910     28912
     28909     28907     28910     28913     28910     28913     28916     28917
     28910     28913     28916     28918     28910     28913     28916     28919
     28911     28910     28913     28914     28911     28910     28913     28915
     28911     28910     28913     28916     28912     28910     28913     28914
     28912     28910     28913     28915     28912     28910     28913     28916
     28913     28916     28919     28920     28913     28916     28919     28921
     28913     28916     28919     28922     28914     28913     28916     28917
     28914     28913     28916     28918     28914     28913     28916     28919
     28915     28913     28916     28917     28915     28913     28916     28918
     28915     28913     28916     28919     28916     28919     28922     28923
     28916     28919     28922     28924     28916     28919     28922     28925
     28917     28916     28919     28920     28917     28916     28919     28921
     28917     28916     28919     28922     28918     28916     28919     28920
     28918     28916     28919     28921     28918     28916     28919     28922
     28919     28922     28925     28926     28919     28922     28925     28927
     28919     28922     28925     28928     28920     28919     28922     28923
     28920     28919     28922     28924     28920     28919     28922     28925
     28921     28919     28922     28923     28921     28919     28922     28924
     28921     28919     28922     28925     28922     28925     28928     28929
     28922     28925     28928     28930     28922     28925     28928     28931
     28923     28922     28925     28926     28923     28922     28925     28927
     28923     28922     28925     28928     28924     28922     28925     28926
     28924     28922     28925     28927     28924     28922     28925     28928
     28925     28928     28931     28932     28925     28928     28931     28933
     28925     28928     28931     28934     28926     28925     28928     28929
     28926     28925     28928     28930     28926     28925     28928     28931
     28927     28925     28928     28929     28927     28925     28928     28930
     28927     28925     28928     28931     28928     28931     28934     28935
     28928     28931     28934     28936     28928     28931     28934     28937
     28929     28928     28931     28932     28929     28928     28931     28933
     28929     28928     28931     28934     28930     28928     28931     28932
     28930     28928     28931     28933     28930     28928     28931     28934
     28931     28934     28937     28938     28931     28934     28937     28939
     28931     28934     28937     28940     28932     28931     28934     28935
     28932     28931     28934     28936     28932     28931     28934     28937
     28933     28931     28934     28935     28933     28931     28934     28936
     28933     28931     28934     28937     28934     28937     28940     28941
     28934     28937     28940     28942     28934     28937     28940     28943
     28935     28934     28937     28938     28935     28934     28937     28939
     28935     28934     28937     28940     28936     28934     28937     28938
     28936     28934     28937     28939     28936     28934     28937     28940
     28937     28940     28943     28944     28937     28940     28943     28945
     28937     28940     28943     28946     28938     28937     28940     28941
     28938     28937     28940     28942     28938     28937     28940     28943
     28939     28937     28940     28941     28939     28937     28940     28942
     28939     28937     28940     28943     28941     28940     28943     28944
     28941     28940     28943     28945     28941     28940     28943     28946
     28942     28940     28943     28944     28942     28940     28943     28945
     28942     28940     28943     28946     28947     28951     28954     28955
     28947     28951     28954     28956     28947     28951     28954     28961
     28948     28947     28951     28952     28948     28947     28951     28953
     28948     28947     28951     28954     28949     28947     28951     28952
     28949     28947     28951     28953     28949     28947     28951     28954
     28950     28947     28951     28952     28950     28947     28951     28953
     28950     28947     28951     28954     28951     28954     28961     28957
     28952     28951     28954     28955     28952     28951     28954     28956
     28952     28951     28954     28961     28953     28951     28954     28955
     28953     28951     28954     28956     28953     28951     28954     28961
     28954     28961     28957     28958     28954     28961     28957     28959
     28954     28961     28957     28960     28955     28954     28961     28957
     28956     28954     28961     28957     28957     28960     28962     28963
     28957     28960     28962     28964     28957     28960     28962     28965
     28958     28957     28960     28962     28959     28957     28960     28962
     28960     28962     28965     28966     28960     28962     28965     28967
     28960     28962     28965     28973     28961     28957     28960     28962
     28962     28965     28967     28968     28962     28965     28973     28974
     28962     28965     28973     28975     28962     28965     28973     28976
     28963     28962     28965     28966     28963     28962     28965     28967
     28963     28962     28965     28973     28964     28962     28965     28966
     28964     28962     28965     28967     28964     28962     28965     28973
     28965     28967     28968     28969     28965     28967     28968     28970
     28965     28973     28976     28977     28966     28965     28967     28968
     28966     28965     28973     28974     28966     28965     28973     28975
     28966     28965     28973     28976     28967     28965     28973     28974
     28967     28965     28973     28975     28967     28965     28973     28976
     28967     28968     28970     28971     28967     28968     28970     28972
     28967     28968     28970     28982     28968     28967     28965     28973
     28968     28970     28982     28983     28968     28970     28982     28984
     28968     28970     28982     28985     28969     28968     28970     28971
     28969     28968     28970     28972     28969     28968     28970     28982
     28970     28982     28985     28986     28970     28982     28985     28987
     28970     28982     28985     28988     28971     28970     28982     28983
     28971     28970     28982     28984     28971     28970     28982     28985
     28972     28970     28982     28983     28972     28970     28982     28984
     28972     28970     28982     28985     28973     28976     28977     28978
     28973     28976     28977     28979     28974     28973     28976     28977
     28975     28973     28976     28977     28976     28977     28979     28980
     28976     28977     28979     28981     28976     28977     28979     29026
     28977     28979     29026     29027     28977     28979     29026     29028
     28977     28979     29026     29029     28978     28977     28979     28980
     28978     28977     28979     28981     28978     28977     28979     29026
     28979     29026     29029     29030     28979     29026     29029     29031
     28979     29026     29029     29032     28980     28979     29026     29027
     28980     28979     29026     29028     28980     28979     29026     29029
     28981     28979     29026     29027     28981     28979     29026     29028
     28981     28979     29026     29029     28982     28985     28988     28989
     28982     28985     28988     28990     28982     28985     28988     28991
     28983     28982     28985     28986     28983     28982     28985     28987
     28983     28982     28985     28988     28984     28982     28985     28986
     28984     28982     28985     28987     28984     28982     28985     28988
     28985     28988     28991     28992     28985     28988     28991     28993
     28985     28988     28991     28994     28986     28985     28988     28989
     28986     28985     28988     28990     28986     28985     28988     28991
     28987     28985     28988     28989     28987     28985     28988     28990
     28987     28985     28988     28991     28988     28991     28994     28995
     28988     28991     28994     28996     28988     28991     28994     28997
     28989     28988     28991     28992     28989     28988     28991     28993
     28989     28988     28991     28994     28990     28988     28991     28992
     28990     28988     28991     28993     28990     28988     28991     28994
     28991     28994     28997     28998     28991     28994     28997     28999
     28991     28994     28997     29000     28992     28991     28994     28995
     28992     28991     28994     28996     28992     28991     28994     28997
     28993     28991     28994     28995     28993     28991     28994     28996
     28993     28991     28994     28997     28994     28997     29000     29001
     28994     28997     29000     29002     28994     28997     29000     29005
     28995     28994     28997     28998     28995     28994     28997     28999
     28995     28994     28997     29000     28996     28994     28997     28998
     28996     28994     28997     28999     28996     28994     28997     29000
     28997     29000     29002     29003     28997     29000     29002     29004
     28997     29000     29002     29005     28997     29000     29005     29002
     28997     29000     29005     29006     28997     29000     29005     29007
     28998     28997     29000     29001     28998     28997     29000     29002
     28998     28997     29000     29005     28999     28997     29000     29001
     28999     28997     29000     29002     28999     28997     29000     29005
     29000     29002     29005     29006     29000     29002     29005     29007
     29000     29005     29002     29003     29000     29005     29002     29004
     29000     29005     29007     29008     29000     29005     29007     29009
     29000     29005     29007     29010     29001     29000     29002     29003
     29001     29000     29002     29004     29001     29000     29002     29005
     29001     29000     29005     29002     29001     29000     29005     29006
     29001     29000     29005     29007     29002     29000     29005     29006
     29002     29000     29005     29007     29002     29005     29007     29008
     29002     29005     29007     29009     29002     29005     29007     29010
     29003     29002     29000     29005     29003     29002     29005     29006
     29003     29002     29005     29007     29004     29002     29000     29005
     29004     29002     29005     29006     29004     29002     29005     29007
     29005     29007     29010     29011     29005     29007     29010     29012
     29005     29007     29010     29013     29006     29005     29007     29008
     29006     29005     29007     29009     29006     29005     29007     29010
     29007     29010     29013     29014     29007     29010     29013     29015
     29007     29010     29013     29016     29008     29007     29010     29011
     29008     29007     29010     29012     29008     29007     29010     29013
     29009     29007     29010     29011     29009     29007     29010     29012
     29009     29007     29010     29013     29010     29013     29016     29017
     29010     29013     29016     29018     29010     29013     29016     29019
     29011     29010     29013     29014     29011     29010     29013     29015
     29011     29010     29013     29016     29012     29010     29013     29014
     29012     29010     29013     29015     29012     29010     29013     29016
     29013     29016     29019     29020     29013     29016     29019     29021
     29013     29016     29019     29022     29014     29013     29016     29017
     29014     29013     29016     29018     29014     29013     29016     29019
     29015     29013     29016     29017     29015     29013     29016     29018
     29015     29013     29016     29019     29016     29019     29022     29023
     29016     29019     29022     29024     29016     29019     29022     29025
     29017     29016     29019     29020     29017     29016     29019     29021
     29017     29016     29019     29022     29018     29016     29019     29020
     29018     29016     29019     29021     29018     29016     29019     29022
     29020     29019     29022     29023     29020     29019     29022     29024
     29020     29019     29022     29025     29021     29019     29022     29023
     29021     29019     29022     29024     29021     29019     29022     29025
     29026     29029     29032     29033     29026     29029     29032     29034
     29026     29029     29032     29035     29027     29026     29029     29030
     29027     29026     29029     29031     29027     29026     29029     29032
     29028     29026     29029     29030     29028     29026     29029     29031
     29028     29026     29029     29032     29029     29032     29035     29036
     29029     29032     29035     29037     29029     29032     29035     29038
     29030     29029     29032     29033     29030     29029     29032     29034
     29030     29029     29032     29035     29031     29029     29032     29033
     29031     29029     29032     29034     29031     29029     29032     29035
     29032     29035     29038     29039     29032     29035     29038     29040
     29032     29035     29038     29041     29033     29032     29035     29036
     29033     29032     29035     29037     29033     29032     29035     29038
     29034     29032     29035     29036     29034     29032     29035     29037
     29034     29032     29035     29038     29035     29038     29041     29042
     29035     29038     29041     29043     29035     29038     29041     29044
     29036     29035     29038     29039     29036     29035     29038     29040
     29036     29035     29038     29041     29037     29035     29038     29039
     29037     29035     29038     29040     29037     29035     29038     29041
     29038     29041     29044     29045     29038     29041     29044     29046
     29038     29041     29044     29047     29039     29038     29041     29042
     29039     29038     29041     29043     29039     29038     29041     29044
     29040     29038     29041     29042     29040     29038     29041     29043
     29040     29038     29041     29044     29041     29044     29047     29048
     29041     29044     29047     29049     29041     29044     29047     29050
     29042     29041     29044     29045     29042     29041     29044     29046
     29042     29041     29044     29047     29043     29041     29044     29045
     29043     29041     29044     29046     29043     29041     29044     29047
     29044     29047     29050     29051     29044     29047     29050     29052
     29044     29047     29050     29053     29045     29044     29047     29048
     29045     29044     29047     29049     29045     29044     29047     29050
     29046     29044     29047     29048     29046     29044     29047     29049
     29046     29044     29047     29050     29047     29050     29053     29054
     29047     29050     29053     29055     29047     29050     29053     29056
     29048     29047     29050     29051     29048     29047     29050     29052
     29048     29047     29050     29053     29049     29047     29050     29051
     29049     29047     29050     29052     29049     29047     29050     29053
     29050     29053     29056     29057     29050     29053     29056     29058
     29050     29053     29056     29059     29051     29050     29053     29054
     29051     29050     29053     29055     29051     29050     29053     29056
     29052     29050     29053     29054     29052     29050     29053     29055
     29052     29050     29053     29056     29053     29056     29059     29060
     29053     29056     29059     29061     29053     29056     29059     29062
     29054     29053     29056     29057     29054     29053     29056     29058
     29054     29053     29056     29059     29055     29053     29056     29057
     29055     29053     29056     29058     29055     29053     29056     29059
     29056     29059     29062     29063     29056     29059     29062     29064
     29056     29059     29062     29065     29057     29056     29059     29060
     29057     29056     29059     29061     29057     29056     29059     29062
     29058     29056     29059     29060     29058     29056     29059     29061
     29058     29056     29059     29062     29060     29059     29062     29063
     29060     29059     29062     29064     29060     29059     29062     29065
     29061     29059     29062     29063     29061     29059     29062     29064
     29061     29059     29062     29065     29066     29071     29073     29074
     29066     29071     29075     29076     29066     29071     29075     29077
     29066     29071     29075     29082     29067     29066     29069     29070
     29067     29066     29071     29072     29067     29066     29071     29073
     29067     29066     29071     29075     29068     29066     29069     29070
     29068     29066     29071     29072     29068     29066     29071     29073
     29068     29066     29071     29075     29069     29066     29071     29072
     29069     29066     29071     29073     29069     29066     29071     29075
     29070     29069     29066     29071     29071     29075     29082     29078
     29072     29071     29073     29074     29072     29071     29075     29076
     29072     29071     29075     29077     29072     29071     29075     29082
     29073     29071     29075     29076     29073     29071     29075     29077
     29073     29071     29075     29082     29074     29073     29071     29075
     29075     29082     29078     29079     29075     29082     29078     29080
     29075     29082     29078     29081     29076     29075     29082     29078
     29077     29075     29082     29078     29078     29081     29083     29084
     29078     29081     29083     29085     29078     29081     29083     29086
     29079     29078     29081     29083     29080     29078     29081     29083
     29081     29083     29086     29087     29081     29083     29086     29088
     29081     29083     29086     29094     29082     29078     29081     29083
     29083     29086     29088     29089     29083     29086     29094     29095
     29083     29086     29094     29096     29083     29086     29094     29097
     29084     29083     29086     29087     29084     29083     29086     29088
     29084     29083     29086     29094     29085     29083     29086     29087
     29085     29083     29086     29088     29085     29083     29086     29094
     29086     29088     29089     29090     29086     29088     29089     29091
     29086     29094     29097     29098     29087     29086     29088     29089
     29087     29086     29094     29095     29087     29086     29094     29096
     29087     29086     29094     29097     29088     29086     29094     29095
     29088     29086     29094     29096     29088     29086     29094     29097
     29088     29089     29091     29092     29088     29089     29091     29093
     29088     29089     29091     29103     29089     29088     29086     29094
     29089     29091     29103     29104     29089     29091     29103     29105
     29089     29091     29103     29106     29090     29089     29091     29092
     29090     29089     29091     29093     29090     29089     29091     29103
     29091     29103     29106     29107     29091     29103     29106     29108
     29091     29103     29106     29109     29092     29091     29103     29104
     29092     29091     29103     29105     29092     29091     29103     29106
     29093     29091     29103     29104     29093     29091     29103     29105
     29093     29091     29103     29106     29094     29097     29098     29099
     29094     29097     29098     29100     29095     29094     29097     29098
     29096     29094     29097     29098     29097     29098     29100     29101
     29097     29098     29100     29102     29097     29098     29100     29147
     29098     29100     29147     29148     29098     29100     29147     29149
     29098     29100     29147     29150     29099     29098     29100     29101
     29099     29098     29100     29102     29099     29098     29100     29147
     29100     29147     29150     29151     29100     29147     29150     29152
     29100     29147     29150     29153     29101     29100     29147     29148
     29101     29100     29147     29149     29101     29100     29147     29150
     29102     29100     29147     29148     29102     29100     29147     29149
     29102     29100     29147     29150     29103     29106     29109     29110
     29103     29106     29109     29111     29103     29106     29109     29112
     29104     29103     29106     29107     29104     29103     29106     29108
     29104     29103     29106     29109     29105     29103     29106     29107
     29105     29103     29106     29108     29105     29103     29106     29109
     29106     29109     29112     29113     29106     29109     29112     29114
     29106     29109     29112     29115     29107     29106     29109     29110
     29107     29106     29109     29111     29107     29106     29109     29112
     29108     29106     29109     29110     29108     29106     29109     29111
     29108     29106     29109     29112     29109     29112     29115     29116
     29109     29112     29115     29117     29109     29112     29115     29118
     29110     29109     29112     29113     29110     29109     29112     29114
     29110     29109     29112     29115     29111     29109     29112     29113
     29111     29109     29112     29114     29111     29109     29112     29115
     29112     29115     29118     29119     29112     29115     29118     29120
     29112     29115     29118     29121     29113     29112     29115     29116
     29113     29112     29115     29117     29113     29112     29115     29118
     29114     29112     29115     29116     29114     29112     29115     29117
     29114     29112     29115     29118     29115     29118     29121     29122
     29115     29118     29121     29123     29115     29118     29121     29126
     29116     29115     29118     29119     29116     29115     29118     29120
     29116     29115     29118     29121     29117     29115     29118     29119
     29117     29115     29118     29120     29117     29115     29118     29121
     29118     29121     29123     29124     29118     29121     29123     29125
     29118     29121     29123     29126     29118     29121     29126     29123
     29118     29121     29126     29127     29118     29121     29126     29128
     29119     29118     29121     29122     29119     29118     29121     29123
     29119     29118     29121     29126     29120     29118     29121     29122
     29120     29118     29121     29123     29120     29118     29121     29126
     29121     29123     29126     29127     29121     29123     29126     29128
     29121     29126     29123     29124     29121     29126     29123     29125
     29121     29126     29128     29129     29121     29126     29128     29130
     29121     29126     29128     29131     29122     29121     29123     29124
     29122     29121     29123     29125     29122     29121     29123     29126
     29122     29121     29126     29123     29122     29121     29126     29127
     29122     29121     29126     29128     29123     29121     29126     29127
     29123     29121     29126     29128     29123     29126     29128     29129
     29123     29126     29128     29130     29123     29126     29128     29131
     29124     29123     29121     29126     29124     29123     29126     29127
     29124     29123     29126     29128     29125     29123     29121     29126
     29125     29123     29126     29127     29125     29123     29126     29128
     29126     29128     29131     29132     29126     29128     29131     29133
     29126     29128     29131     29134     29127     29126     29128     29129
     29127     29126     29128     29130     29127     29126     29128     29131
     29128     29131     29134     29135     29128     29131     29134     29136
     29128     29131     29134     29137     29129     29128     29131     29132
     29129     29128     29131     29133     29129     29128     29131     29134
     29130     29128     29131     29132     29130     29128     29131     29133
     29130     29128     29131     29134     29131     29134     29137     29138
     29131     29134     29137     29139     29131     29134     29137     29140
     29132     29131     29134     29135     29132     29131     29134     29136
     29132     29131     29134     29137     29133     29131     29134     29135
     29133     29131     29134     29136     29133     29131     29134     29137
     29134     29137     29140     29141     29134     29137     29140     29142
     29134     29137     29140     29143     29135     29134     29137     29138
     29135     29134     29137     29139     29135     29134     29137     29140
     29136     29134     29137     29138     29136     29134     29137     29139
     29136     29134     29137     29140     29137     29140     29143     29144
     29137     29140     29143     29145     29137     29140     29143     29146
     29138     29137     29140     29141     29138     29137     29140     29142
     29138     29137     29140     29143     29139     29137     29140     29141
     29139     29137     29140     29142     29139     29137     29140     29143
     29141     29140     29143     29144     29141     29140     29143     29145
     29141     29140     29143     29146     29142     29140     29143     29144
     29142     29140     29143     29145     29142     29140     29143     29146
     29147     29150     29153     29154     29147     29150     29153     29155
     29147     29150     29153     29156     29148     29147     29150     29151
     29148     29147     29150     29152     29148     29147     29150     29153
     29149     29147     29150     29151     29149     29147     29150     29152
     29149     29147     29150     29153     29150     29153     29156     29157
     29150     29153     29156     29158     29150     29153     29156     29159
     29151     29150     29153     29154     29151     29150     29153     29155
     29151     29150     29153     29156     29152     29150     29153     29154
     29152     29150     29153     29155     29152     29150     29153     29156
     29153     29156     29159     29160     29153     29156     29159     29161
     29153     29156     29159     29162     29154     29153     29156     29157
     29154     29153     29156     29158     29154     29153     29156     29159
     29155     29153     29156     29157     29155     29153     29156     29158
     29155     29153     29156     29159     29156     29159     29162     29163
     29156     29159     29162     29164     29156     29159     29162     29165
     29157     29156     29159     29160     29157     29156     29159     29161
     29157     29156     29159     29162     29158     29156     29159     29160
     29158     29156     29159     29161     29158     29156     29159     29162
     29159     29162     29165     29166     29159     29162     29165     29167
     29159     29162     29165     29168     29160     29159     29162     29163
     29160     29159     29162     29164     29160     29159     29162     29165
     29161     29159     29162     29163     29161     29159     29162     29164
     29161     29159     29162     29165     29162     29165     29168     29169
     29162     29165     29168     29170     29162     29165     29168     29171
     29163     29162     29165     29166     29163     29162     29165     29167
     29163     29162     29165     29168     29164     29162     29165     29166
     29164     29162     29165     29167     29164     29162     29165     29168
     29165     29168     29171     29172     29165     29168     29171     29173
     29165     29168     29171     29174     29166     29165     29168     29169
     29166     29165     29168     29170     29166     29165     29168     29171
     29167     29165     29168     29169     29167     29165     29168     29170
     29167     29165     29168     29171     29168     29171     29174     29175
     29168     29171     29174     29176     29168     29171     29174     29177
     29169     29168     29171     29172     29169     29168     29171     29173
     29169     29168     29171     29174     29170     29168     29171     29172
     29170     29168     29171     29173     29170     29168     29171     29174
     29171     29174     29177     29178     29171     29174     29177     29179
     29171     29174     29177     29180     29172     29171     29174     29175
     29172     29171     29174     29176     29172     29171     29174     29177
     29173     29171     29174     29175     29173     29171     29174     29176
     29173     29171     29174     29177     29174     29177     29180     29181
     29174     29177     29180     29182     29174     29177     29180     29183
     29175     29174     29177     29178     29175     29174     29177     29179
     29175     29174     29177     29180     29176     29174     29177     29178
     29176     29174     29177     29179     29176     29174     29177     29180
     29177     29180     29183     29184     29177     29180     29183     29185
     29177     29180     29183     29186     29178     29177     29180     29181
     29178     29177     29180     29182     29178     29177     29180     29183
     29179     29177     29180     29181     29179     29177     29180     29182
     29179     29177     29180     29183     29180     29183     29186     29187
     29180     29183     29186     29188     29180     29183     29186     29189
     29181     29180     29183     29184     29181     29180     29183     29185
     29181     29180     29183     29186     29182     29180     29183     29184
     29182     29180     29183     29185     29182     29180     29183     29186
     29184     29183     29186     29187     29184     29183     29186     29188
     29184     29183     29186     29189     29185     29183     29186     29187
     29185     29183     29186     29188     29185     29183     29186     29189
     29190     29194     29197     29198     29190     29194     29197     29199
     29190     29194     29197     29204     29191     29190     29194     29195
     29191     29190     29194     29196     29191     29190     29194     29197
     29192     29190     29194     29195     29192     29190     29194     29196
     29192     29190     29194     29197     29193     29190     29194     29195
     29193     29190     29194     29196     29193     29190     29194     29197
     29194     29197     29204     29200     29195     29194     29197     29198
     29195     29194     29197     29199     29195     29194     29197     29204
     29196     29194     29197     29198     29196     29194     29197     29199
     29196     29194     29197     29204     29197     29204     29200     29201
     29197     29204     29200     29202     29197     29204     29200     29203
     29198     29197     29204     29200     29199     29197     29204     29200
     29200     29203     29205     29206     29200     29203     29205     29207
     29200     29203     29205     29208     29201     29200     29203     29205
     29202     29200     29203     29205     29203     29205     29208     29209
     29203     29205     29208     29210     29203     29205     29208     29216
     29204     29200     29203     29205     29205     29208     29210     29211
     29205     29208     29216     29217     29205     29208     29216     29218
     29205     29208     29216     29219     29206     29205     29208     29209
     29206     29205     29208     29210     29206     29205     29208     29216
     29207     29205     29208     29209     29207     29205     29208     29210
     29207     29205     29208     29216     29208     29210     29211     29212
     29208     29210     29211     29213     29208     29216     29219     29220
     29209     29208     29210     29211     29209     29208     29216     29217
     29209     29208     29216     29218     29209     29208     29216     29219
     29210     29208     29216     29217     29210     29208     29216     29218
     29210     29208     29216     29219     29210     29211     29213     29214
     29210     29211     29213     29215     29210     29211     29213     29225
     29211     29210     29208     29216     29211     29213     29225     29226
     29211     29213     29225     29227     29211     29213     29225     29228
     29212     29211     29213     29214     29212     29211     29213     29215
     29212     29211     29213     29225     29213     29225     29228     29229
     29213     29225     29228     29230     29213     29225     29228     29231
     29214     29213     29225     29226     29214     29213     29225     29227
     29214     29213     29225     29228     29215     29213     29225     29226
     29215     29213     29225     29227     29215     29213     29225     29228
     29216     29219     29220     29221     29216     29219     29220     29222
     29217     29216     29219     29220     29218     29216     29219     29220
     29219     29220     29222     29223     29219     29220     29222     29224
     29219     29220     29222     29269     29220     29222     29269     29270
     29220     29222     29269     29271     29220     29222     29269     29272
     29221     29220     29222     29223     29221     29220     29222     29224
     29221     29220     29222     29269     29222     29269     29272     29273
     29222     29269     29272     29274     29222     29269     29272     29275
     29223     29222     29269     29270     29223     29222     29269     29271
     29223     29222     29269     29272     29224     29222     29269     29270
     29224     29222     29269     29271     29224     29222     29269     29272
     29225     29228     29231     29232     29225     29228     29231     29233
     29225     29228     29231     29234     29226     29225     29228     29229
     29226     29225     29228     29230     29226     29225     29228     29231
     29227     29225     29228     29229     29227     29225     29228     29230
     29227     29225     29228     29231     29228     29231     29234     29235
     29228     29231     29234     29236     29228     29231     29234     29237
     29229     29228     29231     29232     29229     29228     29231     29233
     29229     29228     29231     29234     29230     29228     29231     29232
     29230     29228     29231     29233     29230     29228     29231     29234
     29231     29234     29237     29238     29231     29234     29237     29239
     29231     29234     29237     29240     29232     29231     29234     29235
     29232     29231     29234     29236     29232     29231     29234     29237
     29233     29231     29234     29235     29233     29231     29234     29236
     29233     29231     29234     29237     29234     29237     29240     29241
     29234     29237     29240     29242     29234     29237     29240     29243
     29235     29234     29237     29238     29235     29234     29237     29239
     29235     29234     29237     29240     29236     29234     29237     29238
     29236     29234     29237     29239     29236     29234     29237     29240
     29237     29240     29243     29244     29237     29240     29243     29245
     29237     29240     29243     29248     29238     29237     29240     29241
     29238     29237     29240     29242     29238     29237     29240     29243
     29239     29237     29240     29241     29239     29237     29240     29242
     29239     29237     29240     29243     29240     29243     29245     29246
     29240     29243     29245     29247     29240     29243     29245     29248
     29240     29243     29248     29245     29240     29243     29248     29249
     29240     29243     29248     29250     29241     29240     29243     29244
     29241     29240     29243     29245     29241     29240     29243     29248
     29242     29240     29243     29244     29242     29240     29243     29245
     29242     29240     29243     29248     29243     29245     29248     29249
     29243     29245     29248     29250     29243     29248     29245     29246
     29243     29248     29245     29247     29243     29248     29250     29251
     29243     29248     29250     29252     29243     29248     29250     29253
     29244     29243     29245     29246     29244     29243     29245     29247
     29244     29243     29245     29248     29244     29243     29248     29245
     29244     29243     29248     29249     29244     29243     29248     29250
     29245     29243     29248     29249     29245     29243     29248     29250
     29245     29248     29250     29251     29245     29248     29250     29252
     29245     29248     29250     29253     29246     29245     29243     29248
     29246     29245     29248     29249     29246     29245     29248     29250
     29247     29245     29243     29248     29247     29245     29248     29249
     29247     29245     29248     29250     29248     29250     29253     29254
     29248     29250     29253     29255     29248     29250     29253     29256
     29249     29248     29250     29251     29249     29248     29250     29252
     29249     29248     29250     29253     29250     29253     29256     29257
     29250     29253     29256     29258     29250     29253     29256     29259
     29251     29250     29253     29254     29251     29250     29253     29255
     29251     29250     29253     29256     29252     29250     29253     29254
     29252     29250     29253     29255     29252     29250     29253     29256
     29253     29256     29259     29260     29253     29256     29259     29261
     29253     29256     29259     29262     29254     29253     29256     29257
     29254     29253     29256     29258     29254     29253     29256     29259
     29255     29253     29256     29257     29255     29253     29256     29258
     29255     29253     29256     29259     29256     29259     29262     29263
     29256     29259     29262     29264     29256     29259     29262     29265
     29257     29256     29259     29260     29257     29256     29259     29261
     29257     29256     29259     29262     29258     29256     29259     29260
     29258     29256     29259     29261     29258     29256     29259     29262
     29259     29262     29265     29266     29259     29262     29265     29267
     29259     29262     29265     29268     29260     29259     29262     29263
     29260     29259     29262     29264     29260     29259     29262     29265
     29261     29259     29262     29263     29261     29259     29262     29264
     29261     29259     29262     29265     29263     29262     29265     29266
     29263     29262     29265     29267     29263     29262     29265     29268
     29264     29262     29265     29266     29264     29262     29265     29267
     29264     29262     29265     29268     29269     29272     29275     29276
     29269     29272     29275     29277     29269     29272     29275     29278
     29270     29269     29272     29273     29270     29269     29272     29274
     29270     29269     29272     29275     29271     29269     29272     29273
     29271     29269     29272     29274     29271     29269     29272     29275
     29272     29275     29278     29279     29272     29275     29278     29280
     29272     29275     29278     29281     29273     29272     29275     29276
     29273     29272     29275     29277     29273     29272     29275     29278
     29274     29272     29275     29276     29274     29272     29275     29277
     29274     29272     29275     29278     29275     29278     29281     29282
     29275     29278     29281     29283     29275     29278     29281     29284
     29276     29275     29278     29279     29276     29275     29278     29280
     29276     29275     29278     29281     29277     29275     29278     29279
     29277     29275     29278     29280     29277     29275     29278     29281
     29278     29281     29284     29285     29278     29281     29284     29286
     29278     29281     29284     29287     29279     29278     29281     29282
     29279     29278     29281     29283     29279     29278     29281     29284
     29280     29278     29281     29282     29280     29278     29281     29283
     29280     29278     29281     29284     29281     29284     29287     29288
     29281     29284     29287     29289     29281     29284     29287     29290
     29282     29281     29284     29285     29282     29281     29284     29286
     29282     29281     29284     29287     29283     29281     29284     29285
     29283     29281     29284     29286     29283     29281     29284     29287
     29284     29287     29290     29291     29284     29287     29290     29292
     29284     29287     29290     29293     29285     29284     29287     29288
     29285     29284     29287     29289     29285     29284     29287     29290
     29286     29284     29287     29288     29286     29284     29287     29289
     29286     29284     29287     29290     29287     29290     29293     29294
     29287     29290     29293     29295     29287     29290     29293     29296
     29288     29287     29290     29291     29288     29287     29290     29292
     29288     29287     29290     29293     29289     29287     29290     29291
     29289     29287     29290     29292     29289     29287     29290     29293
     29290     29293     29296     29297     29290     29293     29296     29298
     29290     29293     29296     29299     29291     29290     29293     29294
     29291     29290     29293     29295     29291     29290     29293     29296
     29292     29290     29293     29294     29292     29290     29293     29295
     29292     29290     29293     29296     29293     29296     29299     29300
     29293     29296     29299     29301     29293     29296     29299     29302
     29294     29293     29296     29297     29294     29293     29296     29298
     29294     29293     29296     29299     29295     29293     29296     29297
     29295     29293     29296     29298     29295     29293     29296     29299
     29296     29299     29302     29303     29296     29299     29302     29304
     29296     29299     29302     29305     29297     29296     29299     29300
     29297     29296     29299     29301     29297     29296     29299     29302
     29298     29296     29299     29300     29298     29296     29299     29301
     29298     29296     29299     29302     29299     29302     29305     29306
     29299     29302     29305     29307     29299     29302     29305     29308
     29300     29299     29302     29303     29300     29299     29302     29304
     29300     29299     29302     29305     29301     29299     29302     29303
     29301     29299     29302     29304     29301     29299     29302     29305
     29302     29305     29308     29309     29302     29305     29308     29310
     29302     29305     29308     29311     29303     29302     29305     29306
     29303     29302     29305     29307     29303     29302     29305     29308
     29304     29302     29305     29306     29304     29302     29305     29307
     29304     29302     29305     29308     29306     29305     29308     29309
     29306     29305     29308     29310     29306     29305     29308     29311
     29307     29305     29308     29309     29307     29305     29308     29310
     29307     29305     29308     29311     29312     29316     29319     29320
     29312     29316     29319     29321     29312     29316     29319     29326
     29313     29312     29316     29317     29313     29312     29316     29318
     29313     29312     29316     29319     29314     29312     29316     29317
     29314     29312     29316     29318     29314     29312     29316     29319
     29315     29312     29316     29317     29315     29312     29316     29318
     29315     29312     29316     29319     29316     29319     29326     29322
     29317     29316     29319     29320     29317     29316     29319     29321
     29317     29316     29319     29326     29318     29316     29319     29320
     29318     29316     29319     29321     29318     29316     29319     29326
     29319     29326     29322     29323     29319     29326     29322     29324
     29319     29326     29322     29325     29320     29319     29326     29322
     29321     29319     29326     29322     29322     29325     29327     29328
     29322     29325     29327     29329     29322     29325     29327     29330
     29323     29322     29325     29327     29324     29322     29325     29327
     29325     29327     29330     29331     29325     29327     29330     29332
     29325     29327     29330     29338     29326     29322     29325     29327
     29327     29330     29332     29333     29327     29330     29338     29339
     29327     29330     29338     29340     29327     29330     29338     29341
     29328     29327     29330     29331     29328     29327     29330     29332
     29328     29327     29330     29338     29329     29327     29330     29331
     29329     29327     29330     29332     29329     29327     29330     29338
     29330     29332     29333     29334     29330     29332     29333     29335
     29330     29338     29341     29342     29331     29330     29332     29333
     29331     29330     29338     29339     29331     29330     29338     29340
     29331     29330     29338     29341     29332     29330     29338     29339
     29332     29330     29338     29340     29332     29330     29338     29341
     29332     29333     29335     29336     29332     29333     29335     29337
     29332     29333     29335     29347     29333     29332     29330     29338
     29333     29335     29347     29348     29333     29335     29347     29349
     29333     29335     29347     29350     29334     29333     29335     29336
     29334     29333     29335     29337     29334     29333     29335     29347
     29335     29347     29350     29351     29335     29347     29350     29352
     29335     29347     29350     29353     29336     29335     29347     29348
     29336     29335     29347     29349     29336     29335     29347     29350
     29337     29335     29347     29348     29337     29335     29347     29349
     29337     29335     29347     29350     29338     29341     29342     29343
     29338     29341     29342     29344     29339     29338     29341     29342
     29340     29338     29341     29342     29341     29342     29344     29345
     29341     29342     29344     29346     29341     29342     29344     29391
     29342     29344     29391     29392     29342     29344     29391     29393
     29342     29344     29391     29394     29343     29342     29344     29345
     29343     29342     29344     29346     29343     29342     29344     29391
     29344     29391     29394     29395     29344     29391     29394     29396
     29344     29391     29394     29397     29345     29344     29391     29392
     29345     29344     29391     29393     29345     29344     29391     29394
     29346     29344     29391     29392     29346     29344     29391     29393
     29346     29344     29391     29394     29347     29350     29353     29354
     29347     29350     29353     29355     29347     29350     29353     29356
     29348     29347     29350     29351     29348     29347     29350     29352
     29348     29347     29350     29353     29349     29347     29350     29351
     29349     29347     29350     29352     29349     29347     29350     29353
     29350     29353     29356     29357     29350     29353     29356     29358
     29350     29353     29356     29359     29351     29350     29353     29354
     29351     29350     29353     29355     29351     29350     29353     29356
     29352     29350     29353     29354     29352     29350     29353     29355
     29352     29350     29353     29356     29353     29356     29359     29360
     29353     29356     29359     29361     29353     29356     29359     29362
     29354     29353     29356     29357     29354     29353     29356     29358
     29354     29353     29356     29359     29355     29353     29356     29357
     29355     29353     29356     29358     29355     29353     29356     29359
     29356     29359     29362     29363     29356     29359     29362     29364
     29356     29359     29362     29365     29357     29356     29359     29360
     29357     29356     29359     29361     29357     29356     29359     29362
     29358     29356     29359     29360     29358     29356     29359     29361
     29358     29356     29359     29362     29359     29362     29365     29366
     29359     29362     29365     29367     29359     29362     29365     29370
     29360     29359     29362     29363     29360     29359     29362     29364
     29360     29359     29362     29365     29361     29359     29362     29363
     29361     29359     29362     29364     29361     29359     29362     29365
     29362     29365     29367     29368     29362     29365     29367     29369
     29362     29365     29367     29370     29362     29365     29370     29367
     29362     29365     29370     29371     29362     29365     29370     29372
     29363     29362     29365     29366     29363     29362     29365     29367
     29363     29362     29365     29370     29364     29362     29365     29366
     29364     29362     29365     29367     29364     29362     29365     29370
     29365     29367     29370     29371     29365     29367     29370     29372
     29365     29370     29367     29368     29365     29370     29367     29369
     29365     29370     29372     29373     29365     29370     29372     29374
     29365     29370     29372     29375     29366     29365     29367     29368
     29366     29365     29367     29369     29366     29365     29367     29370
     29366     29365     29370     29367     29366     29365     29370     29371
     29366     29365     29370     29372     29367     29365     29370     29371
     29367     29365     29370     29372     29367     29370     29372     29373
     29367     29370     29372     29374     29367     29370     29372     29375
     29368     29367     29365     29370     29368     29367     29370     29371
     29368     29367     29370     29372     29369     29367     29365     29370
     29369     29367     29370     29371     29369     29367     29370     29372
     29370     29372     29375     29376     29370     29372     29375     29377
     29370     29372     29375     29378     29371     29370     29372     29373
     29371     29370     29372     29374     29371     29370     29372     29375
     29372     29375     29378     29379     29372     29375     29378     29380
     29372     29375     29378     29381     29373     29372     29375     29376
     29373     29372     29375     29377     29373     29372     29375     29378
     29374     29372     29375     29376     29374     29372     29375     29377
     29374     29372     29375     29378     29375     29378     29381     29382
     29375     29378     29381     29383     29375     29378     29381     29384
     29376     29375     29378     29379     29376     29375     29378     29380
     29376     29375     29378     29381     29377     29375     29378     29379
     29377     29375     29378     29380     29377     29375     29378     29381
     29378     29381     29384     29385     29378     29381     29384     29386
     29378     29381     29384     29387     29379     29378     29381     29382
     29379     29378     29381     29383     29379     29378     29381     29384
     29380     29378     29381     29382     29380     29378     29381     29383
     29380     29378     29381     29384     29381     29384     29387     29388
     29381     29384     29387     29389     29381     29384     29387     29390
     29382     29381     29384     29385     29382     29381     29384     29386
     29382     29381     29384     29387     29383     29381     29384     29385
     29383     29381     29384     29386     29383     29381     29384     29387
     29385     29384     29387     29388     29385     29384     29387     29389
     29385     29384     29387     29390     29386     29384     29387     29388
     29386     29384     29387     29389     29386     29384     29387     29390
     29391     29394     29397     29398     29391     29394     29397     29399
     29391     29394     29397     29400     29392     29391     29394     29395
     29392     29391     29394     29396     29392     29391     29394     29397
     29393     29391     29394     29395     29393     29391     29394     29396
     29393     29391     29394     29397     29394     29397     29400     29401
     29394     29397     29400     29402     29394     29397     29400     29403
     29395     29394     29397     29398     29395     29394     29397     29399
     29395     29394     29397     29400     29396     29394     29397     29398
     29396     29394     29397     29399     29396     29394     29397     29400
     29397     29400     29403     29404     29397     29400     29403     29405
     29397     29400     29403     29406     29398     29397     29400     29401
     29398     29397     29400     29402     29398     29397     29400     29403
     29399     29397     29400     29401     29399     29397     29400     29402
     29399     29397     29400     29403     29400     29403     29406     29407
     29400     29403     29406     29408     29400     29403     29406     29409
     29401     29400     29403     29404     29401     29400     29403     29405
     29401     29400     29403     29406     29402     29400     29403     29404
     29402     29400     29403     29405     29402     29400     29403     29406
     29403     29406     29409     29410     29403     29406     29409     29411
     29403     29406     29409     29412     29404     29403     29406     29407
     29404     29403     29406     29408     29404     29403     29406     29409
     29405     29403     29406     29407     29405     29403     29406     29408
     29405     29403     29406     29409     29406     29409     29412     29413
     29406     29409     29412     29414     29406     29409     29412     29415
     29407     29406     29409     29410     29407     29406     29409     29411
     29407     29406     29409     29412     29408     29406     29409     29410
     29408     29406     29409     29411     29408     29406     29409     29412
     29409     29412     29415     29416     29409     29412     29415     29417
     29409     29412     29415     29418     29410     29409     29412     29413
     29410     29409     29412     29414     29410     29409     29412     29415
     29411     29409     29412     29413     29411     29409     29412     29414
     29411     29409     29412     29415     29412     29415     29418     29419
     29412     29415     29418     29420     29412     29415     29418     29421
     29413     29412     29415     29416     29413     29412     29415     29417
     29413     29412     29415     29418     29414     29412     29415     29416
     29414     29412     29415     29417     29414     29412     29415     29418
     29415     29418     29421     29422     29415     29418     29421     29423
     29415     29418     29421     29424     29416     29415     29418     29419
     29416     29415     29418     29420     29416     29415     29418     29421
     29417     29415     29418     29419     29417     29415     29418     29420
     29417     29415     29418     29421     29418     29421     29424     29425
     29418     29421     29424     29426     29418     29421     29424     29427
     29419     29418     29421     29422     29419     29418     29421     29423
     29419     29418     29421     29424     29420     29418     29421     29422
     29420     29418     29421     29423     29420     29418     29421     29424
     29421     29424     29427     29428     29421     29424     29427     29429
     29421     29424     29427     29430     29422     29421     29424     29425
     29422     29421     29424     29426     29422     29421     29424     29427
     29423     29421     29424     29425     29423     29421     29424     29426
     29423     29421     29424     29427     29424     29427     29430     29431
     29424     29427     29430     29432     29424     29427     29430     29433
     29425     29424     29427     29428     29425     29424     29427     29429
     29425     29424     29427     29430     29426     29424     29427     29428
     29426     29424     29427     29429     29426     29424     29427     29430
     29428     29427     29430     29431     29428     29427     29430     29432
     29428     29427     29430     29433     29429     29427     29430     29431
     29429     29427     29430     29432     29429     29427     29430     29433
     29434     29438     29441     29442     29434     29438     29441     29443
     29434     29438     29441     29448     29435     29434     29438     29439
     29435     29434     29438     29440     29435     29434     29438     29441
     29436     29434     29438     29439     29436     29434     29438     29440
     29436     29434     29438     29441     29437     29434     29438     29439
     29437     29434     29438     29440     29437     29434     29438     29441
     29438     29441     29448     29444     29439     29438     29441     29442
     29439     29438     29441     29443     29439     29438     29441     29448
     29440     29438     29441     29442     29440     29438     29441     29443
     29440     29438     29441     29448     29441     29448     29444     29445
     29441     29448     29444     29446     29441     29448     29444     29447
     29442     29441     29448     29444     29443     29441     29448     29444
     29444     29447     29449     29450     29444     29447     29449     29451
     29444     29447     29449     29452     29445     29444     29447     29449
     29446     29444     29447     29449     29447     29449     29452     29453
     29447     29449     29452     29454     29447     29449     29452     29460
     29448     29444     29447     29449     29449     29452     29454     29455
     29449     29452     29460     29461     29449     29452     29460     29462
     29449     29452     29460     29463     29450     29449     29452     29453
     29450     29449     29452     29454     29450     29449     29452     29460
     29451     29449     29452     29453     29451     29449     29452     29454
     29451     29449     29452     29460     29452     29454     29455     29456
     29452     29454     29455     29457     29452     29460     29463     29464
     29453     29452     29454     29455     29453     29452     29460     29461
     29453     29452     29460     29462     29453     29452     29460     29463
     29454     29452     29460     29461     29454     29452     29460     29462
     29454     29452     29460     29463     29454     29455     29457     29458
     29454     29455     29457     29459     29454     29455     29457     29469
     29455     29454     29452     29460     29455     29457     29469     29470
     29455     29457     29469     29471     29455     29457     29469     29472
     29456     29455     29457     29458     29456     29455     29457     29459
     29456     29455     29457     29469     29457     29469     29472     29473
     29457     29469     29472     29474     29457     29469     29472     29475
     29458     29457     29469     29470     29458     29457     29469     29471
     29458     29457     29469     29472     29459     29457     29469     29470
     29459     29457     29469     29471     29459     29457     29469     29472
     29460     29463     29464     29465     29460     29463     29464     29466
     29461     29460     29463     29464     29462     29460     29463     29464
     29463     29464     29466     29467     29463     29464     29466     29468
     29463     29464     29466     29513     29464     29466     29513     29514
     29464     29466     29513     29515     29464     29466     29513     29516
     29465     29464     29466     29467     29465     29464     29466     29468
     29465     29464     29466     29513     29466     29513     29516     29517
     29466     29513     29516     29518     29466     29513     29516     29519
     29467     29466     29513     29514     29467     29466     29513     29515
     29467     29466     29513     29516     29468     29466     29513     29514
     29468     29466     29513     29515     29468     29466     29513     29516
     29469     29472     29475     29476     29469     29472     29475     29477
     29469     29472     29475     29478     29470     29469     29472     29473
     29470     29469     29472     29474     29470     29469     29472     29475
     29471     29469     29472     29473     29471     29469     29472     29474
     29471     29469     29472     29475     29472     29475     29478     29479
     29472     29475     29478     29480     29472     29475     29478     29481
     29473     29472     29475     29476     29473     29472     29475     29477
     29473     29472     29475     29478     29474     29472     29475     29476
     29474     29472     29475     29477     29474     29472     29475     29478
     29475     29478     29481     29482     29475     29478     29481     29483
     29475     29478     29481     29484     29476     29475     29478     29479
     29476     29475     29478     29480     29476     29475     29478     29481
     29477     29475     29478     29479     29477     29475     29478     29480
     29477     29475     29478     29481     29478     29481     29484     29485
     29478     29481     29484     29486     29478     29481     29484     29487
     29479     29478     29481     29482     29479     29478     29481     29483
     29479     29478     29481     29484     29480     29478     29481     29482
     29480     29478     29481     29483     29480     29478     29481     29484
     29481     29484     29487     29488     29481     29484     29487     29489
     29481     29484     29487     29492     29482     29481     29484     29485
     29482     29481     29484     29486     29482     29481     29484     29487
     29483     29481     29484     29485     29483     29481     29484     29486
     29483     29481     29484     29487     29484     29487     29489     29490
     29484     29487     29489     29491     29484     29487     29489     29492
     29484     29487     29492     29489     29484     29487     29492     29493
     29484     29487     29492     29494     29485     29484     29487     29488
     29485     29484     29487     29489     29485     29484     29487     29492
     29486     29484     29487     29488     29486     29484     29487     29489
     29486     29484     29487     29492     29487     29489     29492     29493
     29487     29489     29492     29494     29487     29492     29489     29490
     29487     29492     29489     29491     29487     29492     29494     29495
     29487     29492     29494     29496     29487     29492     29494     29497
     29488     29487     29489     29490     29488     29487     29489     29491
     29488     29487     29489     29492     29488     29487     29492     29489
     29488     29487     29492     29493     29488     29487     29492     29494
     29489     29487     29492     29493     29489     29487     29492     29494
     29489     29492     29494     29495     29489     29492     29494     29496
     29489     29492     29494     29497     29490     29489     29487     29492
     29490     29489     29492     29493     29490     29489     29492     29494
     29491     29489     29487     29492     29491     29489     29492     29493
     29491     29489     29492     29494     29492     29494     29497     29498
     29492     29494     29497     29499     29492     29494     29497     29500
     29493     29492     29494     29495     29493     29492     29494     29496
     29493     29492     29494     29497     29494     29497     29500     29501
     29494     29497     29500     29502     29494     29497     29500     29503
     29495     29494     29497     29498     29495     29494     29497     29499
     29495     29494     29497     29500     29496     29494     29497     29498
     29496     29494     29497     29499     29496     29494     29497     29500
     29497     29500     29503     29504     29497     29500     29503     29505
     29497     29500     29503     29506     29498     29497     29500     29501
     29498     29497     29500     29502     29498     29497     29500     29503
     29499     29497     29500     29501     29499     29497     29500     29502
     29499     29497     29500     29503     29500     29503     29506     29507
     29500     29503     29506     29508     29500     29503     29506     29509
     29501     29500     29503     29504     29501     29500     29503     29505
     29501     29500     29503     29506     29502     29500     29503     29504
     29502     29500     29503     29505     29502     29500     29503     29506
     29503     29506     29509     29510     29503     29506     29509     29511
     29503     29506     29509     29512     29504     29503     29506     29507
     29504     29503     29506     29508     29504     29503     29506     29509
     29505     29503     29506     29507     29505     29503     29506     29508
     29505     29503     29506     29509     29507     29506     29509     29510
     29507     29506     29509     29511     29507     29506     29509     29512
     29508     29506     29509     29510     29508     29506     29509     29511
     29508     29506     29509     29512     29513     29516     29519     29520
     29513     29516     29519     29521     29513     29516     29519     29522
     29514     29513     29516     29517     29514     29513     29516     29518
     29514     29513     29516     29519     29515     29513     29516     29517
     29515     29513     29516     29518     29515     29513     29516     29519
     29516     29519     29522     29523     29516     29519     29522     29524
     29516     29519     29522     29525     29517     29516     29519     29520
     29517     29516     29519     29521     29517     29516     29519     29522
     29518     29516     29519     29520     29518     29516     29519     29521
     29518     29516     29519     29522     29519     29522     29525     29526
     29519     29522     29525     29527     29519     29522     29525     29528
     29520     29519     29522     29523     29520     29519     29522     29524
     29520     29519     29522     29525     29521     29519     29522     29523
     29521     29519     29522     29524     29521     29519     29522     29525
     29522     29525     29528     29529     29522     29525     29528     29530
     29522     29525     29528     29531     29523     29522     29525     29526
     29523     29522     29525     29527     29523     29522     29525     29528
     29524     29522     29525     29526     29524     29522     29525     29527
     29524     29522     29525     29528     29525     29528     29531     29532
     29525     29528     29531     29533     29525     29528     29531     29534
     29526     29525     29528     29529     29526     29525     29528     29530
     29526     29525     29528     29531     29527     29525     29528     29529
     29527     29525     29528     29530     29527     29525     29528     29531
     29528     29531     29534     29535     29528     29531     29534     29536
     29528     29531     29534     29537     29529     29528     29531     29532
     29529     29528     29531     29533     29529     29528     29531     29534
     29530     29528     29531     29532     29530     29528     29531     29533
     29530     29528     29531     29534     29531     29534     29537     29538
     29531     29534     29537     29539     29531     29534     29537     29540
     29532     29531     29534     29535     29532     29531     29534     29536
     29532     29531     29534     29537     29533     29531     29534     29535
     29533     29531     29534     29536     29533     29531     29534     29537
     29534     29537     29540     29541     29534     29537     29540     29542
     29534     29537     29540     29543     29535     29534     29537     29538
     29535     29534     29537     29539     29535     29534     29537     29540
     29536     29534     29537     29538     29536     29534     29537     29539
     29536     29534     29537     29540     29537     29540     29543     29544
     29537     29540     29543     29545     29537     29540     29543     29546
     29538     29537     29540     29541     29538     29537     29540     29542
     29538     29537     29540     29543     29539     29537     29540     29541
     29539     29537     29540     29542     29539     29537     29540     29543
     29540     29543     29546     29547     29540     29543     29546     29548
     29540     29543     29546     29549     29541     29540     29543     29544
     29541     29540     29543     29545     29541     29540     29543     29546
     29542     29540     29543     29544     29542     29540     29543     29545
     29542     29540     29543     29546     29543     29546     29549     29550
     29543     29546     29549     29551     29543     29546     29549     29552
     29544     29543     29546     29547     29544     29543     29546     29548
     29544     29543     29546     29549     29545     29543     29546     29547
     29545     29543     29546     29548     29545     29543     29546     29549
     29546     29549     29552     29553     29546     29549     29552     29554
     29546     29549     29552     29555     29547     29546     29549     29550
     29547     29546     29549     29551     29547     29546     29549     29552
     29548     29546     29549     29550     29548     29546     29549     29551
     29548     29546     29549     29552     29550     29549     29552     29553
     29550     29549     29552     29554     29550     29549     29552     29555
     29551     29549     29552     29553     29551     29549     29552     29554
     29551     29549     29552     29555     29556     29560     29563     29564
     29556     29560     29563     29565     29556     29560     29563     29570
     29557     29556     29560     29561     29557     29556     29560     29562
     29557     29556     29560     29563     29558     29556     29560     29561
     29558     29556     29560     29562     29558     29556     29560     29563
     29559     29556     29560     29561     29559     29556     29560     29562
     29559     29556     29560     29563     29560     29563     29570     29566
     29561     29560     29563     29564     29561     29560     29563     29565
     29561     29560     29563     29570     29562     29560     29563     29564
     29562     29560     29563     29565     29562     29560     29563     29570
     29563     29570     29566     29567     29563     29570     29566     29568
     29563     29570     29566     29569     29564     29563     29570     29566
     29565     29563     29570     29566     29566     29569     29571     29572
     29566     29569     29571     29573     29566     29569     29571     29574
     29567     29566     29569     29571     29568     29566     29569     29571
     29569     29571     29574     29575     29569     29571     29574     29576
     29569     29571     29574     29582     29570     29566     29569     29571
     29571     29574     29576     29577     29571     29574     29582     29583
     29571     29574     29582     29584     29571     29574     29582     29585
     29572     29571     29574     29575     29572     29571     29574     29576
     29572     29571     29574     29582     29573     29571     29574     29575
     29573     29571     29574     29576     29573     29571     29574     29582
     29574     29576     29577     29578     29574     29576     29577     29579
     29574     29582     29585     29586     29575     29574     29576     29577
     29575     29574     29582     29583     29575     29574     29582     29584
     29575     29574     29582     29585     29576     29574     29582     29583
     29576     29574     29582     29584     29576     29574     29582     29585
     29576     29577     29579     29580     29576     29577     29579     29581
     29576     29577     29579     29591     29577     29576     29574     29582
     29577     29579     29591     29592     29577     29579     29591     29593
     29577     29579     29591     29594     29578     29577     29579     29580
     29578     29577     29579     29581     29578     29577     29579     29591
     29579     29591     29594     29595     29579     29591     29594     29596
     29579     29591     29594     29597     29580     29579     29591     29592
     29580     29579     29591     29593     29580     29579     29591     29594
     29581     29579     29591     29592     29581     29579     29591     29593
     29581     29579     29591     29594     29582     29585     29586     29587
     29582     29585     29586     29588     29583     29582     29585     29586
     29584     29582     29585     29586     29585     29586     29588     29589
     29585     29586     29588     29590     29585     29586     29588     29635
     29586     29588     29635     29636     29586     29588     29635     29637
     29586     29588     29635     29638     29587     29586     29588     29589
     29587     29586     29588     29590     29587     29586     29588     29635
     29588     29635     29638     29639     29588     29635     29638     29640
     29588     29635     29638     29641     29589     29588     29635     29636
     29589     29588     29635     29637     29589     29588     29635     29638
     29590     29588     29635     29636     29590     29588     29635     29637
     29590     29588     29635     29638     29591     29594     29597     29598
     29591     29594     29597     29599     29591     29594     29597     29600
     29592     29591     29594     29595     29592     29591     29594     29596
     29592     29591     29594     29597     29593     29591     29594     29595
     29593     29591     29594     29596     29593     29591     29594     29597
     29594     29597     29600     29601     29594     29597     29600     29602
     29594     29597     29600     29603     29595     29594     29597     29598
     29595     29594     29597     29599     29595     29594     29597     29600
     29596     29594     29597     29598     29596     29594     29597     29599
     29596     29594     29597     29600     29597     29600     29603     29604
     29597     29600     29603     29605     29597     29600     29603     29606
     29598     29597     29600     29601     29598     29597     29600     29602
     29598     29597     29600     29603     29599     29597     29600     29601
     29599     29597     29600     29602     29599     29597     29600     29603
     29600     29603     29606     29607     29600     29603     29606     29608
     29600     29603     29606     29609     29601     29600     29603     29604
     29601     29600     29603     29605     29601     29600     29603     29606
     29602     29600     29603     29604     29602     29600     29603     29605
     29602     29600     29603     29606     29603     29606     29609     29610
     29603     29606     29609     29611     29603     29606     29609     29614
     29604     29603     29606     29607     29604     29603     29606     29608
     29604     29603     29606     29609     29605     29603     29606     29607
     29605     29603     29606     29608     29605     29603     29606     29609
     29606     29609     29611     29612     29606     29609     29611     29613
     29606     29609     29611     29614     29606     29609     29614     29611
     29606     29609     29614     29615     29606     29609     29614     29616
     29607     29606     29609     29610     29607     29606     29609     29611
     29607     29606     29609     29614     29608     29606     29609     29610
     29608     29606     29609     29611     29608     29606     29609     29614
     29609     29611     29614     29615     29609     29611     29614     29616
     29609     29614     29611     29612     29609     29614     29611     29613
     29609     29614     29616     29617     29609     29614     29616     29618
     29609     29614     29616     29619     29610     29609     29611     29612
     29610     29609     29611     29613     29610     29609     29611     29614
     29610     29609     29614     29611     29610     29609     29614     29615
     29610     29609     29614     29616     29611     29609     29614     29615
     29611     29609     29614     29616     29611     29614     29616     29617
     29611     29614     29616     29618     29611     29614     29616     29619
     29612     29611     29609     29614     29612     29611     29614     29615
     29612     29611     29614     29616     29613     29611     29609     29614
     29613     29611     29614     29615     29613     29611     29614     29616
     29614     29616     29619     29620     29614     29616     29619     29621
     29614     29616     29619     29622     29615     29614     29616     29617
     29615     29614     29616     29618     29615     29614     29616     29619
     29616     29619     29622     29623     29616     29619     29622     29624
     29616     29619     29622     29625     29617     29616     29619     29620
     29617     29616     29619     29621     29617     29616     29619     29622
     29618     29616     29619     29620     29618     29616     29619     29621
     29618     29616     29619     29622     29619     29622     29625     29626
     29619     29622     29625     29627     29619     29622     29625     29628
     29620     29619     29622     29623     29620     29619     29622     29624
     29620     29619     29622     29625     29621     29619     29622     29623
     29621     29619     29622     29624     29621     29619     29622     29625
     29622     29625     29628     29629     29622     29625     29628     29630
     29622     29625     29628     29631     29623     29622     29625     29626
     29623     29622     29625     29627     29623     29622     29625     29628
     29624     29622     29625     29626     29624     29622     29625     29627
     29624     29622     29625     29628     29625     29628     29631     29632
     29625     29628     29631     29633     29625     29628     29631     29634
     29626     29625     29628     29629     29626     29625     29628     29630
     29626     29625     29628     29631     29627     29625     29628     29629
     29627     29625     29628     29630     29627     29625     29628     29631
     29629     29628     29631     29632     29629     29628     29631     29633
     29629     29628     29631     29634     29630     29628     29631     29632
     29630     29628     29631     29633     29630     29628     29631     29634
     29635     29638     29641     29642     29635     29638     29641     29643
     29635     29638     29641     29644     29636     29635     29638     29639
     29636     29635     29638     29640     29636     29635     29638     29641
     29637     29635     29638     29639     29637     29635     29638     29640
     29637     29635     29638     29641     29638     29641     29644     29645
     29638     29641     29644     29646     29638     29641     29644     29647
     29639     29638     29641     29642     29639     29638     29641     29643
     29639     29638     29641     29644     29640     29638     29641     29642
     29640     29638     29641     29643     29640     29638     29641     29644
     29641     29644     29647     29648     29641     29644     29647     29649
     29641     29644     29647     29650     29642     29641     29644     29645
     29642     29641     29644     29646     29642     29641     29644     29647
     29643     29641     29644     29645     29643     29641     29644     29646
     29643     29641     29644     29647     29644     29647     29650     29651
     29644     29647     29650     29652     29644     29647     29650     29653
     29645     29644     29647     29648     29645     29644     29647     29649
     29645     29644     29647     29650     29646     29644     29647     29648
     29646     29644     29647     29649     29646     29644     29647     29650
     29647     29650     29653     29654     29647     29650     29653     29655
     29647     29650     29653     29656     29648     29647     29650     29651
     29648     29647     29650     29652     29648     29647     29650     29653
     29649     29647     29650     29651     29649     29647     29650     29652
     29649     29647     29650     29653     29650     29653     29656     29657
     29650     29653     29656     29658     29650     29653     29656     29659
     29651     29650     29653     29654     29651     29650     29653     29655
     29651     29650     29653     29656     29652     29650     29653     29654
     29652     29650     29653     29655     29652     29650     29653     29656
     29653     29656     29659     29660     29653     29656     29659     29661
     29653     29656     29659     29662     29654     29653     29656     29657
     29654     29653     29656     29658     29654     29653     29656     29659
     29655     29653     29656     29657     29655     29653     29656     29658
     29655     29653     29656     29659     29656     29659     29662     29663
     29656     29659     29662     29664     29656     29659     29662     29665
     29657     29656     29659     29660     29657     29656     29659     29661
     29657     29656     29659     29662     29658     29656     29659     29660
     29658     29656     29659     29661     29658     29656     29659     29662
     29659     29662     29665     29666     29659     29662     29665     29667
     29659     29662     29665     29668     29660     29659     29662     29663
     29660     29659     29662     29664     29660     29659     29662     29665
     29661     29659     29662     29663     29661     29659     29662     29664
     29661     29659     29662     29665     29662     29665     29668     29669
     29662     29665     29668     29670     29662     29665     29668     29671
     29663     29662     29665     29666     29663     29662     29665     29667
     29663     29662     29665     29668     29664     29662     29665     29666
     29664     29662     29665     29667     29664     29662     29665     29668
     29665     29668     29671     29672     29665     29668     29671     29673
     29665     29668     29671     29674     29666     29665     29668     29669
     29666     29665     29668     29670     29666     29665     29668     29671
     29667     29665     29668     29669     29667     29665     29668     29670
     29667     29665     29668     29671     29668     29671     29674     29675
     29668     29671     29674     29676     29668     29671     29674     29677
     29669     29668     29671     29672     29669     29668     29671     29673
     29669     29668     29671     29674     29670     29668     29671     29672
     29670     29668     29671     29673     29670     29668     29671     29674
     29672     29671     29674     29675     29672     29671     29674     29676
     29672     29671     29674     29677     29673     29671     29674     29675
     29673     29671     29674     29676     29673     29671     29674     29677
     29678     29683     29685     29686     29678     29683     29687     29688
     29678     29683     29687     29689     29678     29683     29687     29694
     29679     29678     29681     29682     29679     29678     29683     29684
     29679     29678     29683     29685     29679     29678     29683     29687
     29680     29678     29681     29682     29680     29678     29683     29684
     29680     29678     29683     29685     29680     29678     29683     29687
     29681     29678     29683     29684     29681     29678     29683     29685
     29681     29678     29683     29687     29682     29681     29678     29683
     29683     29687     29694     29690     29684     29683     29685     29686
     29684     29683     29687     29688     29684     29683     29687     29689
     29684     29683     29687     29694     29685     29683     29687     29688
     29685     29683     29687     29689     29685     29683     29687     29694
     29686     29685     29683     29687     29687     29694     29690     29691
     29687     29694     29690     29692     29687     29694     29690     29693
     29688     29687     29694     29690     29689     29687     29694     29690
     29690     29693     29695     29696     29690     29693     29695     29697
     29690     29693     29695     29698     29691     29690     29693     29695
     29692     29690     29693     29695     29693     29695     29698     29699
     29693     29695     29698     29700     29693     29695     29698     29706
     29694     29690     29693     29695     29695     29698     29700     29701
     29695     29698     29706     29707     29695     29698     29706     29708
     29695     29698     29706     29709     29696     29695     29698     29699
     29696     29695     29698     29700     29696     29695     29698     29706
     29697     29695     29698     29699     29697     29695     29698     29700
     29697     29695     29698     29706     29698     29700     29701     29702
     29698     29700     29701     29703     29698     29706     29709     29710
     29699     29698     29700     29701     29699     29698     29706     29707
     29699     29698     29706     29708     29699     29698     29706     29709
     29700     29698     29706     29707     29700     29698     29706     29708
     29700     29698     29706     29709     29700     29701     29703     29704
     29700     29701     29703     29705     29700     29701     29703     29715
     29701     29700     29698     29706     29701     29703     29715     29716
     29701     29703     29715     29717     29701     29703     29715     29718
     29702     29701     29703     29704     29702     29701     29703     29705
     29702     29701     29703     29715     29703     29715     29718     29719
     29703     29715     29718     29720     29703     29715     29718     29721
     29704     29703     29715     29716     29704     29703     29715     29717
     29704     29703     29715     29718     29705     29703     29715     29716
     29705     29703     29715     29717     29705     29703     29715     29718
     29706     29709     29710     29711     29706     29709     29710     29712
     29707     29706     29709     29710     29708     29706     29709     29710
     29709     29710     29712     29713     29709     29710     29712     29714
     29709     29710     29712     29759     29710     29712     29759     29760
     29710     29712     29759     29761     29710     29712     29759     29762
     29711     29710     29712     29713     29711     29710     29712     29714
     29711     29710     29712     29759     29712     29759     29762     29763
     29712     29759     29762     29764     29712     29759     29762     29765
     29713     29712     29759     29760     29713     29712     29759     29761
     29713     29712     29759     29762     29714     29712     29759     29760
     29714     29712     29759     29761     29714     29712     29759     29762
     29715     29718     29721     29722     29715     29718     29721     29723
     29715     29718     29721     29724     29716     29715     29718     29719
     29716     29715     29718     29720     29716     29715     29718     29721
     29717     29715     29718     29719     29717     29715     29718     29720
     29717     29715     29718     29721     29718     29721     29724     29725
     29718     29721     29724     29726     29718     29721     29724     29727
     29719     29718     29721     29722     29719     29718     29721     29723
     29719     29718     29721     29724     29720     29718     29721     29722
     29720     29718     29721     29723     29720     29718     29721     29724
     29721     29724     29727     29728     29721     29724     29727     29729
     29721     29724     29727     29730     29722     29721     29724     29725
     29722     29721     29724     29726     29722     29721     29724     29727
     29723     29721     29724     29725     29723     29721     29724     29726
     29723     29721     29724     29727     29724     29727     29730     29731
     29724     29727     29730     29732     29724     29727     29730     29733
     29725     29724     29727     29728     29725     29724     29727     29729
     29725     29724     29727     29730     29726     29724     29727     29728
     29726     29724     29727     29729     29726     29724     29727     29730
     29727     29730     29733     29734     29727     29730     29733     29735
     29727     29730     29733     29738     29728     29727     29730     29731
     29728     29727     29730     29732     29728     29727     29730     29733
     29729     29727     29730     29731     29729     29727     29730     29732
     29729     29727     29730     29733     29730     29733     29735     29736
     29730     29733     29735     29737     29730     29733     29735     29738
     29730     29733     29738     29735     29730     29733     29738     29739
     29730     29733     29738     29740     29731     29730     29733     29734
     29731     29730     29733     29735     29731     29730     29733     29738
     29732     29730     29733     29734     29732     29730     29733     29735
     29732     29730     29733     29738     29733     29735     29738     29739
     29733     29735     29738     29740     29733     29738     29735     29736
     29733     29738     29735     29737     29733     29738     29740     29741
     29733     29738     29740     29742     29733     29738     29740     29743
     29734     29733     29735     29736     29734     29733     29735     29737
     29734     29733     29735     29738     29734     29733     29738     29735
     29734     29733     29738     29739     29734     29733     29738     29740
     29735     29733     29738     29739     29735     29733     29738     29740
     29735     29738     29740     29741     29735     29738     29740     29742
     29735     29738     29740     29743     29736     29735     29733     29738
     29736     29735     29738     29739     29736     29735     29738     29740
     29737     29735     29733     29738     29737     29735     29738     29739
     29737     29735     29738     29740     29738     29740     29743     29744
     29738     29740     29743     29745     29738     29740     29743     29746
     29739     29738     29740     29741     29739     29738     29740     29742
     29739     29738     29740     29743     29740     29743     29746     29747
     29740     29743     29746     29748     29740     29743     29746     29749
     29741     29740     29743     29744     29741     29740     29743     29745
     29741     29740     29743     29746     29742     29740     29743     29744
     29742     29740     29743     29745     29742     29740     29743     29746
     29743     29746     29749     29750     29743     29746     29749     29751
     29743     29746     29749     29752     29744     29743     29746     29747
     29744     29743     29746     29748     29744     29743     29746     29749
     29745     29743     29746     29747     29745     29743     29746     29748
     29745     29743     29746     29749     29746     29749     29752     29753
     29746     29749     29752     29754     29746     29749     29752     29755
     29747     29746     29749     29750     29747     29746     29749     29751
     29747     29746     29749     29752     29748     29746     29749     29750
     29748     29746     29749     29751     29748     29746     29749     29752
     29749     29752     29755     29756     29749     29752     29755     29757
     29749     29752     29755     29758     29750     29749     29752     29753
     29750     29749     29752     29754     29750     29749     29752     29755
     29751     29749     29752     29753     29751     29749     29752     29754
     29751     29749     29752     29755     29753     29752     29755     29756
     29753     29752     29755     29757     29753     29752     29755     29758
     29754     29752     29755     29756     29754     29752     29755     29757
     29754     29752     29755     29758     29759     29762     29765     29766
     29759     29762     29765     29767     29759     29762     29765     29768
     29760     29759     29762     29763     29760     29759     29762     29764
     29760     29759     29762     29765     29761     29759     29762     29763
     29761     29759     29762     29764     29761     29759     29762     29765
     29762     29765     29768     29769     29762     29765     29768     29770
     29762     29765     29768     29771     29763     29762     29765     29766
     29763     29762     29765     29767     29763     29762     29765     29768
     29764     29762     29765     29766     29764     29762     29765     29767
     29764     29762     29765     29768     29765     29768     29771     29772
     29765     29768     29771     29773     29765     29768     29771     29774
     29766     29765     29768     29769     29766     29765     29768     29770
     29766     29765     29768     29771     29767     29765     29768     29769
     29767     29765     29768     29770     29767     29765     29768     29771
     29768     29771     29774     29775     29768     29771     29774     29776
     29768     29771     29774     29777     29769     29768     29771     29772
     29769     29768     29771     29773     29769     29768     29771     29774
     29770     29768     29771     29772     29770     29768     29771     29773
     29770     29768     29771     29774     29771     29774     29777     29778
     29771     29774     29777     29779     29771     29774     29777     29780
     29772     29771     29774     29775     29772     29771     29774     29776
     29772     29771     29774     29777     29773     29771     29774     29775
     29773     29771     29774     29776     29773     29771     29774     29777
     29774     29777     29780     29781     29774     29777     29780     29782
     29774     29777     29780     29783     29775     29774     29777     29778
     29775     29774     29777     29779     29775     29774     29777     29780
     29776     29774     29777     29778     29776     29774     29777     29779
     29776     29774     29777     29780     29777     29780     29783     29784
     29777     29780     29783     29785     29777     29780     29783     29786
     29778     29777     29780     29781     29778     29777     29780     29782
     29778     29777     29780     29783     29779     29777     29780     29781
     29779     29777     29780     29782     29779     29777     29780     29783
     29780     29783     29786     29787     29780     29783     29786     29788
     29780     29783     29786     29789     29781     29780     29783     29784
     29781     29780     29783     29785     29781     29780     29783     29786
     29782     29780     29783     29784     29782     29780     29783     29785
     29782     29780     29783     29786     29783     29786     29789     29790
     29783     29786     29789     29791     29783     29786     29789     29792
     29784     29783     29786     29787     29784     29783     29786     29788
     29784     29783     29786     29789     29785     29783     29786     29787
     29785     29783     29786     29788     29785     29783     29786     29789
     29786     29789     29792     29793     29786     29789     29792     29794
     29786     29789     29792     29795     29787     29786     29789     29790
     29787     29786     29789     29791     29787     29786     29789     29792
     29788     29786     29789     29790     29788     29786     29789     29791
     29788     29786     29789     29792     29789     29792     29795     29796
     29789     29792     29795     29797     29789     29792     29795     29798
     29790     29789     29792     29793     29790     29789     29792     29794
     29790     29789     29792     29795     29791     29789     29792     29793
     29791     29789     29792     29794     29791     29789     29792     29795
     29792     29795     29798     29799     29792     29795     29798     29800
     29792     29795     29798     29801     29793     29792     29795     29796
     29793     29792     29795     29797     29793     29792     29795     29798
     29794     29792     29795     29796     29794     29792     29795     29797
     29794     29792     29795     29798     29796     29795     29798     29799
     29796     29795     29798     29800     29796     29795     29798     29801
     29797     29795     29798     29799     29797     29795     29798     29800
     29797     29795     29798     29801     29802     29806     29809     29810
     29802     29806     29809     29811     29802     29806     29809     29816
     29803     29802     29806     29807     29803     29802     29806     29808
     29803     29802     29806     29809     29804     29802     29806     29807
     29804     29802     29806     29808     29804     29802     29806     29809
     29805     29802     29806     29807     29805     29802     29806     29808
     29805     29802     29806     29809     29806     29809     29816     29812
     29807     29806     29809     29810     29807     29806     29809     29811
     29807     29806     29809     29816     29808     29806     29809     29810
     29808     29806     29809     29811     29808     29806     29809     29816
     29809     29816     29812     29813     29809     29816     29812     29814
     29809     29816     29812     29815     29810     29809     29816     29812
     29811     29809     29816     29812     29812     29815     29817     29818
     29812     29815     29817     29819     29812     29815     29817     29820
     29813     29812     29815     29817     29814     29812     29815     29817
     29815     29817     29820     29821     29815     29817     29820     29822
     29815     29817     29820     29828     29816     29812     29815     29817
     29817     29820     29822     29823     29817     29820     29828     29829
     29817     29820     29828     29830     29817     29820     29828     29831
     29818     29817     29820     29821     29818     29817     29820     29822
     29818     29817     29820     29828     29819     29817     29820     29821
     29819     29817     29820     29822     29819     29817     29820     29828
     29820     29822     29823     29824     29820     29822     29823     29825
     29820     29828     29831     29832     29821     29820     29822     29823
     29821     29820     29828     29829     29821     29820     29828     29830
     29821     29820     29828     29831     29822     29820     29828     29829
     29822     29820     29828     29830     29822     29820     29828     29831
     29822     29823     29825     29826     29822     29823     29825     29827
     29822     29823     29825     29837     29823     29822     29820     29828
     29823     29825     29837     29838     29823     29825     29837     29839
     29823     29825     29837     29840     29824     29823     29825     29826
     29824     29823     29825     29827     29824     29823     29825     29837
     29825     29837     29840     29841     29825     29837     29840     29842
     29825     29837     29840     29843     29826     29825     29837     29838
     29826     29825     29837     29839     29826     29825     29837     29840
     29827     29825     29837     29838     29827     29825     29837     29839
     29827     29825     29837     29840     29828     29831     29832     29833
     29828     29831     29832     29834     29829     29828     29831     29832
     29830     29828     29831     29832     29831     29832     29834     29835
     29831     29832     29834     29836     29831     29832     29834     29881
     29832     29834     29881     29882     29832     29834     29881     29883
     29832     29834     29881     29884     29833     29832     29834     29835
     29833     29832     29834     29836     29833     29832     29834     29881
     29834     29881     29884     29885     29834     29881     29884     29886
     29834     29881     29884     29887     29835     29834     29881     29882
     29835     29834     29881     29883     29835     29834     29881     29884
     29836     29834     29881     29882     29836     29834     29881     29883
     29836     29834     29881     29884     29837     29840     29843     29844
     29837     29840     29843     29845     29837     29840     29843     29846
     29838     29837     29840     29841     29838     29837     29840     29842
     29838     29837     29840     29843     29839     29837     29840     29841
     29839     29837     29840     29842     29839     29837     29840     29843
     29840     29843     29846     29847     29840     29843     29846     29848
     29840     29843     29846     29849     29841     29840     29843     29844
     29841     29840     29843     29845     29841     29840     29843     29846
     29842     29840     29843     29844     29842     29840     29843     29845
     29842     29840     29843     29846     29843     29846     29849     29850
     29843     29846     29849     29851     29843     29846     29849     29852
     29844     29843     29846     29847     29844     29843     29846     29848
     29844     29843     29846     29849     29845     29843     29846     29847
     29845     29843     29846     29848     29845     29843     29846     29849
     29846     29849     29852     29853     29846     29849     29852     29854
     29846     29849     29852     29855     29847     29846     29849     29850
     29847     29846     29849     29851     29847     29846     29849     29852
     29848     29846     29849     29850     29848     29846     29849     29851
     29848     29846     29849     29852     29849     29852     29855     29856
     29849     29852     29855     29857     29849     29852     29855     29860
     29850     29849     29852     29853     29850     29849     29852     29854
     29850     29849     29852     29855     29851     29849     29852     29853
     29851     29849     29852     29854     29851     29849     29852     29855
     29852     29855     29857     29858     29852     29855     29857     29859
     29852     29855     29857     29860     29852     29855     29860     29857
     29852     29855     29860     29861     29852     29855     29860     29862
     29853     29852     29855     29856     29853     29852     29855     29857
     29853     29852     29855     29860     29854     29852     29855     29856
     29854     29852     29855     29857     29854     29852     29855     29860
     29855     29857     29860     29861     29855     29857     29860     29862
     29855     29860     29857     29858     29855     29860     29857     29859
     29855     29860     29862     29863     29855     29860     29862     29864
     29855     29860     29862     29865     29856     29855     29857     29858
     29856     29855     29857     29859     29856     29855     29857     29860
     29856     29855     29860     29857     29856     29855     29860     29861
     29856     29855     29860     29862     29857     29855     29860     29861
     29857     29855     29860     29862     29857     29860     29862     29863
     29857     29860     29862     29864     29857     29860     29862     29865
     29858     29857     29855     29860     29858     29857     29860     29861
     29858     29857     29860     29862     29859     29857     29855     29860
     29859     29857     29860     29861     29859     29857     29860     29862
     29860     29862     29865     29866     29860     29862     29865     29867
     29860     29862     29865     29868     29861     29860     29862     29863
     29861     29860     29862     29864     29861     29860     29862     29865
     29862     29865     29868     29869     29862     29865     29868     29870
     29862     29865     29868     29871     29863     29862     29865     29866
     29863     29862     29865     29867     29863     29862     29865     29868
     29864     29862     29865     29866     29864     29862     29865     29867
     29864     29862     29865     29868     29865     29868     29871     29872
     29865     29868     29871     29873     29865     29868     29871     29874
     29866     29865     29868     29869     29866     29865     29868     29870
     29866     29865     29868     29871     29867     29865     29868     29869
     29867     29865     29868     29870     29867     29865     29868     29871
     29868     29871     29874     29875     29868     29871     29874     29876
     29868     29871     29874     29877     29869     29868     29871     29872
     29869     29868     29871     29873     29869     29868     29871     29874
     29870     29868     29871     29872     29870     29868     29871     29873
     29870     29868     29871     29874     29871     29874     29877     29878
     29871     29874     29877     29879     29871     29874     29877     29880
     29872     29871     29874     29875     29872     29871     29874     29876
     29872     29871     29874     29877     29873     29871     29874     29875
     29873     29871     29874     29876     29873     29871     29874     29877
     29875     29874     29877     29878     29875     29874     29877     29879
     29875     29874     29877     29880     29876     29874     29877     29878
     29876     29874     29877     29879     29876     29874     29877     29880
     29881     29884     29887     29888     29881     29884     29887     29889
     29881     29884     29887     29890     29882     29881     29884     29885
     29882     29881     29884     29886     29882     29881     29884     29887
     29883     29881     29884     29885     29883     29881     29884     29886
     29883     29881     29884     29887     29884     29887     29890     29891
     29884     29887     29890     29892     29884     29887     29890     29893
     29885     29884     29887     29888     29885     29884     29887     29889
     29885     29884     29887     29890     29886     29884     29887     29888
     29886     29884     29887     29889     29886     29884     29887     29890
     29887     29890     29893     29894     29887     29890     29893     29895
     29887     29890     29893     29896     29888     29887     29890     29891
     29888     29887     29890     29892     29888     29887     29890     29893
     29889     29887     29890     29891     29889     29887     29890     29892
     29889     29887     29890     29893     29890     29893     29896     29897
     29890     29893     29896     29898     29890     29893     29896     29899
     29891     29890     29893     29894     29891     29890     29893     29895
     29891     29890     29893     29896     29892     29890     29893     29894
     29892     29890     29893     29895     29892     29890     29893     29896
     29893     29896     29899     29900     29893     29896     29899     29901
     29893     29896     29899     29902     29894     29893     29896     29897
     29894     29893     29896     29898     29894     29893     29896     29899
     29895     29893     29896     29897     29895     29893     29896     29898
     29895     29893     29896     29899     29896     29899     29902     29903
     29896     29899     29902     29904     29896     29899     29902     29905
     29897     29896     29899     29900     29897     29896     29899     29901
     29897     29896     29899     29902     29898     29896     29899     29900
     29898     29896     29899     29901     29898     29896     29899     29902
     29899     29902     29905     29906     29899     29902     29905     29907
     29899     29902     29905     29908     29900     29899     29902     29903
     29900     29899     29902     29904     29900     29899     29902     29905
     29901     29899     29902     29903     29901     29899     29902     29904
     29901     29899     29902     29905     29902     29905     29908     29909
     29902     29905     29908     29910     29902     29905     29908     29911
     29903     29902     29905     29906     29903     29902     29905     29907
     29903     29902     29905     29908     29904     29902     29905     29906
     29904     29902     29905     29907     29904     29902     29905     29908
     29905     29908     29911     29912     29905     29908     29911     29913
     29905     29908     29911     29914     29906     29905     29908     29909
     29906     29905     29908     29910     29906     29905     29908     29911
     29907     29905     29908     29909     29907     29905     29908     29910
     29907     29905     29908     29911     29908     29911     29914     29915
     29908     29911     29914     29916     29908     29911     29914     29917
     29909     29908     29911     29912     29909     29908     29911     29913
     29909     29908     29911     29914     29910     29908     29911     29912
     29910     29908     29911     29913     29910     29908     29911     29914
     29911     29914     29917     29918     29911     29914     29917     29919
     29911     29914     29917     29920     29912     29911     29914     29915
     29912     29911     29914     29916     29912     29911     29914     29917
     29913     29911     29914     29915     29913     29911     29914     29916
     29913     29911     29914     29917     29914     29917     29920     29921
     29914     29917     29920     29922     29914     29917     29920     29923
     29915     29914     29917     29918     29915     29914     29917     29919
     29915     29914     29917     29920     29916     29914     29917     29918
     29916     29914     29917     29919     29916     29914     29917     29920
     29918     29917     29920     29921     29918     29917     29920     29922
     29918     29917     29920     29923     29919     29917     29920     29921
     29919     29917     29920     29922     29919     29917     29920     29923
     29924     29928     29931     29932     29924     29928     29931     29933
     29924     29928     29931     29938     29925     29924     29928     29929
     29925     29924     29928     29930     29925     29924     29928     29931
     29926     29924     29928     29929     29926     29924     29928     29930
     29926     29924     29928     29931     29927     29924     29928     29929
     29927     29924     29928     29930     29927     29924     29928     29931
     29928     29931     29938     29934     29929     29928     29931     29932
     29929     29928     29931     29933     29929     29928     29931     29938
     29930     29928     29931     29932     29930     29928     29931     29933
     29930     29928     29931     29938     29931     29938     29934     29935
     29931     29938     29934     29936     29931     29938     29934     29937
     29932     29931     29938     29934     29933     29931     29938     29934
     29934     29937     29939     29940     29934     29937     29939     29941
     29934     29937     29939     29942     29935     29934     29937     29939
     29936     29934     29937     29939     29937     29939     29942     29943
     29937     29939     29942     29944     29937     29939     29942     29950
     29938     29934     29937     29939     29939     29942     29944     29945
     29939     29942     29950     29951     29939     29942     29950     29952
     29939     29942     29950     29953     29940     29939     29942     29943
     29940     29939     29942     29944     29940     29939     29942     29950
     29941     29939     29942     29943     29941     29939     29942     29944
     29941     29939     29942     29950     29942     29944     29945     29946
     29942     29944     29945     29947     29942     29950     29953     29954
     29943     29942     29944     29945     29943     29942     29950     29951
     29943     29942     29950     29952     29943     29942     29950     29953
     29944     29942     29950     29951     29944     29942     29950     29952
     29944     29942     29950     29953     29944     29945     29947     29948
     29944     29945     29947     29949     29944     29945     29947     29959
     29945     29944     29942     29950     29945     29947     29959     29960
     29945     29947     29959     29961     29945     29947     29959     29962
     29946     29945     29947     29948     29946     29945     29947     29949
     29946     29945     29947     29959     29947     29959     29962     29963
     29947     29959     29962     29964     29947     29959     29962     29965
     29948     29947     29959     29960     29948     29947     29959     29961
     29948     29947     29959     29962     29949     29947     29959     29960
     29949     29947     29959     29961     29949     29947     29959     29962
     29950     29953     29954     29955     29950     29953     29954     29956
     29951     29950     29953     29954     29952     29950     29953     29954
     29953     29954     29956     29957     29953     29954     29956     29958
     29953     29954     29956     30006     29954     29956     30006     30007
     29954     29956     30006     30008     29954     29956     30006     30009
     29955     29954     29956     29957     29955     29954     29956     29958
     29955     29954     29956     30006     29956     30006     30009     30010
     29956     30006     30009     30011     29956     30006     30009     30012
     29957     29956     30006     30007     29957     29956     30006     30008
     29957     29956     30006     30009     29958     29956     30006     30007
     29958     29956     30006     30008     29958     29956     30006     30009
     29959     29962     29965     29966     29959     29962     29965     29967
     29959     29962     29965     29968     29960     29959     29962     29963
     29960     29959     29962     29964     29960     29959     29962     29965
     29961     29959     29962     29963     29961     29959     29962     29964
     29961     29959     29962     29965     29962     29965     29968     29969
     29962     29965     29968     29970     29962     29965     29968     29971
     29963     29962     29965     29966     29963     29962     29965     29967
     29963     29962     29965     29968     29964     29962     29965     29966
     29964     29962     29965     29967     29964     29962     29965     29968
     29965     29968     29971     29972     29965     29968     29971     29973
     29965     29968     29971     29974     29966     29965     29968     29969
     29966     29965     29968     29970     29966     29965     29968     29971
     29967     29965     29968     29969     29967     29965     29968     29970
     29967     29965     29968     29971     29968     29971     29974     29975
     29968     29971     29974     29976     29968     29971     29974     29977
     29969     29968     29971     29972     29969     29968     29971     29973
     29969     29968     29971     29974     29970     29968     29971     29972
     29970     29968     29971     29973     29970     29968     29971     29974
     29971     29974     29977     29978     29971     29974     29977     29979
     29972     29971     29974     29975     29972     29971     29974     29976
     29972     29971     29974     29977     29973     29971     29974     29975
     29973     29971     29974     29976     29973     29971     29974     29977
     29974     29977     29979     29980     29974     29977     29979     29981
     29975     29974     29977     29978     29975     29974     29977     29979
     29976     29974     29977     29978     29976     29974     29977     29979
     29977     29979     29981     29982     29977     29979     29981     29983
     29977     29979     29981     29984     29978     29977     29979     29980
     29978     29977     29979     29981     29979     29981     29984     29985
     29979     29981     29984     29986     29979     29981     29984     29987
     29980     29979     29981     29982     29980     29979     29981     29983
     29980     29979     29981     29984     29981     29984     29987     29988
     29981     29984     29987     29989     29981     29984     29987     29990
     29982     29981     29984     29985     29982     29981     29984     29986
     29982     29981     29984     29987     29983     29981     29984     29985
     29983     29981     29984     29986     29983     29981     29984     29987
     29984     29987     29990     29991     29984     29987     29990     29992
     29984     29987     29990     29993     29985     29984     29987     29988
     29985     29984     29987     29989     29985     29984     29987     29990
     29986     29984     29987     29988     29986     29984     29987     29989
     29986     29984     29987     29990     29987     29990     29993     29994
     29987     29990     29993     29995     29987     29990     29993     29996
     29988     29987     29990     29991     29988     29987     29990     29992
     29988     29987     29990     29993     29989     29987     29990     29991
     29989     29987     29990     29992     29989     29987     29990     29993
     29990     29993     29996     29997     29990     29993     29996     29998
     29990     29993     29996     29999     29991     29990     29993     29994
     29991     29990     29993     29995     29991     29990     29993     29996
     29992     29990     29993     29994     29992     29990     29993     29995
     29992     29990     29993     29996     29993     29996     29999     30000
     29993     29996     29999     30001     29993     29996     29999     30002
     29994     29993     29996     29997     29994     29993     29996     29998
     29994     29993     29996     29999     29995     29993     29996     29997
     29995     29993     29996     29998     29995     29993     29996     29999
     29996     29999     30002     30003     29996     29999     30002     30004
     29996     29999     30002     30005     29997     29996     29999     30000
     29997     29996     29999     30001     29997     29996     29999     30002
     29998     29996     29999     30000     29998     29996     29999     30001
     29998     29996     29999     30002     30000     29999     30002     30003
     30000     29999     30002     30004     30000     29999     30002     30005
     30001     29999     30002     30003     30001     29999     30002     30004
     30001     29999     30002     30005     30006     30009     30012     30013
     30006     30009     30012     30014     30006     30009     30012     30015
     30007     30006     30009     30010     30007     30006     30009     30011
     30007     30006     30009     30012     30008     30006     30009     30010
     30008     30006     30009     30011     30008     30006     30009     30012
     30009     30012     30015     30016     30009     30012     30015     30017
     30009     30012     30015     30018     30010     30009     30012     30013
     30010     30009     30012     30014     30010     30009     30012     30015
     30011     30009     30012     30013     30011     30009     30012     30014
     30011     30009     30012     30015     30012     30015     30018     30019
     30012     30015     30018     30020     30012     30015     30018     30021
     30013     30012     30015     30016     30013     30012     30015     30017
     30013     30012     30015     30018     30014     30012     30015     30016
     30014     30012     30015     30017     30014     30012     30015     30018
     30015     30018     30021     30022     30015     30018     30021     30023
     30015     30018     30021     30024     30016     30015     30018     30019
     30016     30015     30018     30020     30016     30015     30018     30021
     30017     30015     30018     30019     30017     30015     30018     30020
     30017     30015     30018     30021     30018     30021     30024     30025
     30018     30021     30024     30026     30018     30021     30024     30027
     30019     30018     30021     30022     30019     30018     30021     30023
     30019     30018     30021     30024     30020     30018     30021     30022
     30020     30018     30021     30023     30020     30018     30021     30024
     30021     30024     30027     30028     30021     30024     30027     30029
     30021     30024     30027     30030     30022     30021     30024     30025
     30022     30021     30024     30026     30022     30021     30024     30027
     30023     30021     30024     30025     30023     30021     30024     30026
     30023     30021     30024     30027     30024     30027     30030     30031
     30024     30027     30030     30032     30024     30027     30030     30033
     30025     30024     30027     30028     30025     30024     30027     30029
     30025     30024     30027     30030     30026     30024     30027     30028
     30026     30024     30027     30029     30026     30024     30027     30030
     30027     30030     30033     30034     30027     30030     30033     30035
     30027     30030     30033     30036     30028     30027     30030     30031
     30028     30027     30030     30032     30028     30027     30030     30033
     30029     30027     30030     30031     30029     30027     30030     30032
     30029     30027     30030     30033     30030     30033     30036     30037
     30030     30033     30036     30038     30030     30033     30036     30039
     30031     30030     30033     30034     30031     30030     30033     30035
     30031     30030     30033     30036     30032     30030     30033     30034
     30032     30030     30033     30035     30032     30030     30033     30036
     30033     30036     30039     30040     30033     30036     30039     30041
     30033     30036     30039     30042     30034     30033     30036     30037
     30034     30033     30036     30038     30034     30033     30036     30039
     30035     30033     30036     30037     30035     30033     30036     30038
     30035     30033     30036     30039     30036     30039     30042     30043
     30036     30039     30042     30044     30036     30039     30042     30045
     30037     30036     30039     30040     30037     30036     30039     30041
     30037     30036     30039     30042     30038     30036     30039     30040
     30038     30036     30039     30041     30038     30036     30039     30042
     30039     30042     30045     30046     30039     30042     30045     30047
     30039     30042     30045     30048     30040     30039     30042     30043
     30040     30039     30042     30044     30040     30039     30042     30045
     30041     30039     30042     30043     30041     30039     30042     30044
     30041     30039     30042     30045     30043     30042     30045     30046
     30043     30042     30045     30047     30043     30042     30045     30048
     30044     30042     30045     30046     30044     30042     30045     30047
     30044     30042     30045     30048     30049     30053     30056     30057
     30049     30053     30056     30058     30049     30053     30056     30063
     30050     30049     30053     30054     30050     30049     30053     30055
     30050     30049     30053     30056     30051     30049     30053     30054
     30051     30049     30053     30055     30051     30049     30053     30056
     30052     30049     30053     30054     30052     30049     30053     30055
     30052     30049     30053     30056     30053     30056     30063     30059
     30054     30053     30056     30057     30054     30053     30056     30058
     30054     30053     30056     30063     30055     30053     30056     30057
     30055     30053     30056     30058     30055     30053     30056     30063
     30056     30063     30059     30060     30056     30063     30059     30061
     30056     30063     30059     30062     30057     30056     30063     30059
     30058     30056     30063     30059     30059     30062     30064     30065
     30059     30062     30064     30066     30059     30062     30064     30067
     30060     30059     30062     30064     30061     30059     30062     30064
     30062     30064     30067     30068     30062     30064     30067     30069
     30062     30064     30067     30075     30063     30059     30062     30064
     30064     30067     30069     30070     30064     30067     30075     30076
     30064     30067     30075     30077     30064     30067     30075     30078
     30065     30064     30067     30068     30065     30064     30067     30069
     30065     30064     30067     30075     30066     30064     30067     30068
     30066     30064     30067     30069     30066     30064     30067     30075
     30067     30069     30070     30071     30067     30069     30070     30072
     30067     30075     30078     30079     30068     30067     30069     30070
     30068     30067     30075     30076     30068     30067     30075     30077
     30068     30067     30075     30078     30069     30067     30075     30076
     30069     30067     30075     30077     30069     30067     30075     30078
     30069     30070     30072     30073     30069     30070     30072     30074
     30069     30070     30072     30084     30070     30069     30067     30075
     30070     30072     30084     30085     30070     30072     30084     30086
     30070     30072     30084     30087     30071     30070     30072     30073
     30071     30070     30072     30074     30071     30070     30072     30084
     30072     30084     30087     30088     30072     30084     30087     30089
     30072     30084     30087     30090     30073     30072     30084     30085
     30073     30072     30084     30086     30073     30072     30084     30087
     30074     30072     30084     30085     30074     30072     30084     30086
     30074     30072     30084     30087     30075     30078     30079     30080
     30075     30078     30079     30081     30076     30075     30078     30079
     30077     30075     30078     30079     30078     30079     30081     30082
     30078     30079     30081     30083     30078     30079     30081     30131
     30079     30081     30131     30132     30079     30081     30131     30133
     30079     30081     30131     30134     30080     30079     30081     30082
     30080     30079     30081     30083     30080     30079     30081     30131
     30081     30131     30134     30135     30081     30131     30134     30136
     30081     30131     30134     30137     30082     30081     30131     30132
     30082     30081     30131     30133     30082     30081     30131     30134
     30083     30081     30131     30132     30083     30081     30131     30133
     30083     30081     30131     30134     30084     30087     30090     30091
     30084     30087     30090     30092     30084     30087     30090     30093
     30085     30084     30087     30088     30085     30084     30087     30089
     30085     30084     30087     30090     30086     30084     30087     30088
     30086     30084     30087     30089     30086     30084     30087     30090
     30087     30090     30093     30094     30087     30090     30093     30095
     30087     30090     30093     30096     30088     30087     30090     30091
     30088     30087     30090     30092     30088     30087     30090     30093
     30089     30087     30090     30091     30089     30087     30090     30092
     30089     30087     30090     30093     30090     30093     30096     30097
     30090     30093     30096     30098     30090     30093     30096     30099
     30091     30090     30093     30094     30091     30090     30093     30095
     30091     30090     30093     30096     30092     30090     30093     30094
     30092     30090     30093     30095     30092     30090     30093     30096
     30093     30096     30099     30100     30093     30096     30099     30101
     30093     30096     30099     30102     30094     30093     30096     30097
     30094     30093     30096     30098     30094     30093     30096     30099
     30095     30093     30096     30097     30095     30093     30096     30098
     30095     30093     30096     30099     30096     30099     30102     30103
     30096     30099     30102     30104     30097     30096     30099     30100
     30097     30096     30099     30101     30097     30096     30099     30102
     30098     30096     30099     30100     30098     30096     30099     30101
     30098     30096     30099     30102     30099     30102     30104     30105
     30099     30102     30104     30106     30100     30099     30102     30103
     30100     30099     30102     30104     30101     30099     30102     30103
     30101     30099     30102     30104     30102     30104     30106     30107
     30102     30104     30106     30108     30102     30104     30106     30109
     30103     30102     30104     30105     30103     30102     30104     30106
     30104     30106     30109     30110     30104     30106     30109     30111
     30104     30106     30109     30112     30105     30104     30106     30107
     30105     30104     30106     30108     30105     30104     30106     30109
     30106     30109     30112     30113     30106     30109     30112     30114
     30106     30109     30112     30115     30107     30106     30109     30110
     30107     30106     30109     30111     30107     30106     30109     30112
     30108     30106     30109     30110     30108     30106     30109     30111
     30108     30106     30109     30112     30109     30112     30115     30116
     30109     30112     30115     30117     30109     30112     30115     30118
     30110     30109     30112     30113     30110     30109     30112     30114
     30110     30109     30112     30115     30111     30109     30112     30113
     30111     30109     30112     30114     30111     30109     30112     30115
     30112     30115     30118     30119     30112     30115     30118     30120
     30112     30115     30118     30121     30113     30112     30115     30116
     30113     30112     30115     30117     30113     30112     30115     30118
     30114     30112     30115     30116     30114     30112     30115     30117
     30114     30112     30115     30118     30115     30118     30121     30122
     30115     30118     30121     30123     30115     30118     30121     30124
     30116     30115     30118     30119     30116     30115     30118     30120
     30116     30115     30118     30121     30117     30115     30118     30119
     30117     30115     30118     30120     30117     30115     30118     30121
     30118     30121     30124     30125     30118     30121     30124     30126
     30118     30121     30124     30127     30119     30118     30121     30122
     30119     30118     30121     30123     30119     30118     30121     30124
     30120     30118     30121     30122     30120     30118     30121     30123
     30120     30118     30121     30124     30121     30124     30127     30128
     30121     30124     30127     30129     30121     30124     30127     30130
     30122     30121     30124     30125     30122     30121     30124     30126
     30122     30121     30124     30127     30123     30121     30124     30125
     30123     30121     30124     30126     30123     30121     30124     30127
     30125     30124     30127     30128     30125     30124     30127     30129
     30125     30124     30127     30130     30126     30124     30127     30128
     30126     30124     30127     30129     30126     30124     30127     30130
     30131     30134     30137     30138     30131     30134     30137     30139
     30131     30134     30137     30140     30132     30131     30134     30135
     30132     30131     30134     30136     30132     30131     30134     30137
     30133     30131     30134     30135     30133     30131     30134     30136
     30133     30131     30134     30137     30134     30137     30140     30141
     30134     30137     30140     30142     30134     30137     30140     30143
     30135     30134     30137     30138     30135     30134     30137     30139
     30135     30134     30137     30140     30136     30134     30137     30138
     30136     30134     30137     30139     30136     30134     30137     30140
     30137     30140     30143     30144     30137     30140     30143     30145
     30137     30140     30143     30146     30138     30137     30140     30141
     30138     30137     30140     30142     30138     30137     30140     30143
     30139     30137     30140     30141     30139     30137     30140     30142
     30139     30137     30140     30143     30140     30143     30146     30147
     30140     30143     30146     30148     30140     30143     30146     30149
     30141     30140     30143     30144     30141     30140     30143     30145
     30141     30140     30143     30146     30142     30140     30143     30144
     30142     30140     30143     30145     30142     30140     30143     30146
     30143     30146     30149     30150     30143     30146     30149     30151
     30143     30146     30149     30152     30144     30143     30146     30147
     30144     30143     30146     30148     30144     30143     30146     30149
     30145     30143     30146     30147     30145     30143     30146     30148
     30145     30143     30146     30149     30146     30149     30152     30153
     30146     30149     30152     30154     30146     30149     30152     30155
     30147     30146     30149     30150     30147     30146     30149     30151
     30147     30146     30149     30152     30148     30146     30149     30150
     30148     30146     30149     30151     30148     30146     30149     30152
     30149     30152     30155     30156     30149     30152     30155     30157
     30149     30152     30155     30158     30150     30149     30152     30153
     30150     30149     30152     30154     30150     30149     30152     30155
     30151     30149     30152     30153     30151     30149     30152     30154
     30151     30149     30152     30155     30152     30155     30158     30159
     30152     30155     30158     30160     30152     30155     30158     30161
     30153     30152     30155     30156     30153     30152     30155     30157
     30153     30152     30155     30158     30154     30152     30155     30156
     30154     30152     30155     30157     30154     30152     30155     30158
     30155     30158     30161     30162     30155     30158     30161     30163
     30155     30158     30161     30164     30156     30155     30158     30159
     30156     30155     30158     30160     30156     30155     30158     30161
     30157     30155     30158     30159     30157     30155     30158     30160
     30157     30155     30158     30161     30158     30161     30164     30165
     30158     30161     30164     30166     30158     30161     30164     30167
     30159     30158     30161     30162     30159     30158     30161     30163
     30159     30158     30161     30164     30160     30158     30161     30162
     30160     30158     30161     30163     30160     30158     30161     30164
     30161     30164     30167     30168     30161     30164     30167     30169
     30161     30164     30167     30170     30162     30161     30164     30165
     30162     30161     30164     30166     30162     30161     30164     30167
     30163     30161     30164     30165     30163     30161     30164     30166
     30163     30161     30164     30167     30164     30167     30170     30171
     30164     30167     30170     30172     30164     30167     30170     30173
     30165     30164     30167     30168     30165     30164     30167     30169
     30165     30164     30167     30170     30166     30164     30167     30168
     30166     30164     30167     30169     30166     30164     30167     30170
     30168     30167     30170     30171     30168     30167     30170     30172
     30168     30167     30170     30173     30169     30167     30170     30171
     30169     30167     30170     30172     30169     30167     30170     30173
     30174     30178     30181     30182     30174     30178     30181     30183
     30174     30178     30181     30188     30175     30174     30178     30179
     30175     30174     30178     30180     30175     30174     30178     30181
     30176     30174     30178     30179     30176     30174     30178     30180
     30176     30174     30178     30181     30177     30174     30178     30179
     30177     30174     30178     30180     30177     30174     30178     30181
     30178     30181     30188     30184     30179     30178     30181     30182
     30179     30178     30181     30183     30179     30178     30181     30188
     30180     30178     30181     30182     30180     30178     30181     30183
     30180     30178     30181     30188     30181     30188     30184     30185
     30181     30188     30184     30186     30181     30188     30184     30187
     30182     30181     30188     30184     30183     30181     30188     30184
     30184     30187     30189     30190     30184     30187     30189     30191
     30184     30187     30189     30192     30185     30184     30187     30189
     30186     30184     30187     30189     30187     30189     30192     30193
     30187     30189     30192     30194     30187     30189     30192     30200
     30188     30184     30187     30189     30189     30192     30194     30195
     30189     30192     30200     30201     30189     30192     30200     30202
     30189     30192     30200     30203     30190     30189     30192     30193
     30190     30189     30192     30194     30190     30189     30192     30200
     30191     30189     30192     30193     30191     30189     30192     30194
     30191     30189     30192     30200     30192     30194     30195     30196
     30192     30194     30195     30197     30192     30200     30203     30204
     30193     30192     30194     30195     30193     30192     30200     30201
     30193     30192     30200     30202     30193     30192     30200     30203
     30194     30192     30200     30201     30194     30192     30200     30202
     30194     30192     30200     30203     30194     30195     30197     30198
     30194     30195     30197     30199     30194     30195     30197     30209
     30195     30194     30192     30200     30195     30197     30209     30210
     30195     30197     30209     30211     30195     30197     30209     30212
     30196     30195     30197     30198     30196     30195     30197     30199
     30196     30195     30197     30209     30197     30209     30212     30213
     30197     30209     30212     30214     30197     30209     30212     30215
     30198     30197     30209     30210     30198     30197     30209     30211
     30198     30197     30209     30212     30199     30197     30209     30210
     30199     30197     30209     30211     30199     30197     30209     30212
     30200     30203     30204     30205     30200     30203     30204     30206
     30201     30200     30203     30204     30202     30200     30203     30204
     30203     30204     30206     30207     30203     30204     30206     30208
     30203     30204     30206     30250     30204     30206     30250     30251
     30204     30206     30250     30252     30204     30206     30250     30253
     30205     30204     30206     30207     30205     30204     30206     30208
     30205     30204     30206     30250     30206     30250     30253     30254
     30206     30250     30253     30255     30206     30250     30253     30256
     30207     30206     30250     30251     30207     30206     30250     30252
     30207     30206     30250     30253     30208     30206     30250     30251
     30208     30206     30250     30252     30208     30206     30250     30253
     30209     30212     30215     30216     30209     30212     30215     30217
     30209     30212     30215     30218     30210     30209     30212     30213
     30210     30209     30212     30214     30210     30209     30212     30215
     30211     30209     30212     30213     30211     30209     30212     30214
     30211     30209     30212     30215     30212     30215     30218     30219
     30212     30215     30218     30220     30212     30215     30218     30221
     30213     30212     30215     30216     30213     30212     30215     30217
     30213     30212     30215     30218     30214     30212     30215     30216
     30214     30212     30215     30217     30214     30212     30215     30218
     30215     30218     30221     30222     30215     30218     30221     30223
     30215     30218     30221     30224     30216     30215     30218     30219
     30216     30215     30218     30220     30216     30215     30218     30221
     30217     30215     30218     30219     30217     30215     30218     30220
     30217     30215     30218     30221     30218     30221     30224     30225
     30218     30221     30224     30226     30218     30221     30224     30227
     30219     30218     30221     30222     30219     30218     30221     30223
     30219     30218     30221     30224     30220     30218     30221     30222
     30220     30218     30221     30223     30220     30218     30221     30224
     30221     30224     30227     30228     30221     30224     30227     30229
     30222     30221     30224     30225     30222     30221     30224     30226
     30222     30221     30224     30227     30223     30221     30224     30225
     30223     30221     30224     30226     30223     30221     30224     30227
     30224     30227     30229     30230     30224     30227     30229     30231
     30225     30224     30227     30228     30225     30224     30227     30229
     30226     30224     30227     30228     30226     30224     30227     30229
     30227     30229     30231     30232     30227     30229     30231     30233
     30227     30229     30231     30234     30228     30227     30229     30230
     30228     30227     30229     30231     30229     30231     30234     30235
     30229     30231     30234     30236     30229     30231     30234     30237
     30230     30229     30231     30232     30230     30229     30231     30233
     30230     30229     30231     30234     30231     30234     30237     30238
     30231     30234     30237     30239     30231     30234     30237     30240
     30232     30231     30234     30235     30232     30231     30234     30236
     30232     30231     30234     30237     30233     30231     30234     30235
     30233     30231     30234     30236     30233     30231     30234     30237
     30234     30237     30240     30241     30234     30237     30240     30242
     30234     30237     30240     30243     30235     30234     30237     30238
     30235     30234     30237     30239     30235     30234     30237     30240
     30236     30234     30237     30238     30236     30234     30237     30239
     30236     30234     30237     30240     30237     30240     30243     30244
     30237     30240     30243     30245     30237     30240     30243     30246
     30238     30237     30240     30241     30238     30237     30240     30242
     30238     30237     30240     30243     30239     30237     30240     30241
     30239     30237     30240     30242     30239     30237     30240     30243
     30240     30243     30246     30247     30240     30243     30246     30248
     30240     30243     30246     30249     30241     30240     30243     30244
     30241     30240     30243     30245     30241     30240     30243     30246
     30242     30240     30243     30244     30242     30240     30243     30245
     30242     30240     30243     30246     30244     30243     30246     30247
     30244     30243     30246     30248     30244     30243     30246     30249
     30245     30243     30246     30247     30245     30243     30246     30248
     30245     30243     30246     30249     30250     30253     30256     30257
     30250     30253     30256     30258     30250     30253     30256     30259
     30251     30250     30253     30254     30251     30250     30253     30255
     30251     30250     30253     30256     30252     30250     30253     30254
     30252     30250     30253     30255     30252     30250     30253     30256
     30253     30256     30259     30260     30253     30256     30259     30261
     30253     30256     30259     30262     30254     30253     30256     30257
     30254     30253     30256     30258     30254     30253     30256     30259
     30255     30253     30256     30257     30255     30253     30256     30258
     30255     30253     30256     30259     30256     30259     30262     30263
     30256     30259     30262     30264     30256     30259     30262     30265
     30257     30256     30259     30260     30257     30256     30259     30261
     30257     30256     30259     30262     30258     30256     30259     30260
     30258     30256     30259     30261     30258     30256     30259     30262
     30259     30262     30265     30266     30259     30262     30265     30267
     30259     30262     30265     30268     30260     30259     30262     30263
     30260     30259     30262     30264     30260     30259     30262     30265
     30261     30259     30262     30263     30261     30259     30262     30264
     30261     30259     30262     30265     30262     30265     30268     30269
     30262     30265     30268     30270     30263     30262     30265     30266
     30263     30262     30265     30267     30263     30262     30265     30268
     30264     30262     30265     30266     30264     30262     30265     30267
     30264     30262     30265     30268     30265     30268     30270     30271
     30265     30268     30270     30272     30266     30265     30268     30269
     30266     30265     30268     30270     30267     30265     30268     30269
     30267     30265     30268     30270     30268     30270     30272     30273
     30268     30270     30272     30274     30268     30270     30272     30275
     30269     30268     30270     30271     30269     30268     30270     30272
     30270     30272     30275     30276     30270     30272     30275     30277
     30270     30272     30275     30278     30271     30270     30272     30273
     30271     30270     30272     30274     30271     30270     30272     30275
     30272     30275     30278     30279     30272     30275     30278     30280
     30272     30275     30278     30281     30273     30272     30275     30276
     30273     30272     30275     30277     30273     30272     30275     30278
     30274     30272     30275     30276     30274     30272     30275     30277
     30274     30272     30275     30278     30275     30278     30281     30282
     30275     30278     30281     30283     30275     30278     30281     30284
     30276     30275     30278     30279     30276     30275     30278     30280
     30276     30275     30278     30281     30277     30275     30278     30279
     30277     30275     30278     30280     30277     30275     30278     30281
     30278     30281     30284     30285     30278     30281     30284     30286
     30278     30281     30284     30287     30279     30278     30281     30282
     30279     30278     30281     30283     30279     30278     30281     30284
     30280     30278     30281     30282     30280     30278     30281     30283
     30280     30278     30281     30284     30281     30284     30287     30288
     30281     30284     30287     30289     30281     30284     30287     30290
     30282     30281     30284     30285     30282     30281     30284     30286
     30282     30281     30284     30287     30283     30281     30284     30285
     30283     30281     30284     30286     30283     30281     30284     30287
     30284     30287     30290     30291     30284     30287     30290     30292
     30284     30287     30290     30293     30285     30284     30287     30288
     30285     30284     30287     30289     30285     30284     30287     30290
     30286     30284     30287     30288     30286     30284     30287     30289
     30286     30284     30287     30290     30287     30290     30293     30294
     30287     30290     30293     30295     30287     30290     30293     30296
     30288     30287     30290     30291     30288     30287     30290     30292
     30288     30287     30290     30293     30289     30287     30290     30291
     30289     30287     30290     30292     30289     30287     30290     30293
     30291     30290     30293     30294     30291     30290     30293     30295
     30291     30290     30293     30296     30292     30290     30293     30294
     30292     30290     30293     30295     30292     30290     30293     30296
     30297     30301     30304     30305     30297     30301     30304     30306
     30297     30301     30304     30311     30298     30297     30301     30302
     30298     30297     30301     30303     30298     30297     30301     30304
     30299     30297     30301     30302     30299     30297     30301     30303
     30299     30297     30301     30304     30300     30297     30301     30302
     30300     30297     30301     30303     30300     30297     30301     30304
     30301     30304     30311     30307     30302     30301     30304     30305
     30302     30301     30304     30306     30302     30301     30304     30311
     30303     30301     30304     30305     30303     30301     30304     30306
     30303     30301     30304     30311     30304     30311     30307     30308
     30304     30311     30307     30309     30304     30311     30307     30310
     30305     30304     30311     30307     30306     30304     30311     30307
     30307     30310     30312     30313     30307     30310     30312     30314
     30307     30310     30312     30315     30308     30307     30310     30312
     30309     30307     30310     30312     30310     30312     30315     30316
     30310     30312     30315     30317     30310     30312     30315     30323
     30311     30307     30310     30312     30312     30315     30317     30318
     30312     30315     30323     30324     30312     30315     30323     30325
     30312     30315     30323     30326     30313     30312     30315     30316
     30313     30312     30315     30317     30313     30312     30315     30323
     30314     30312     30315     30316     30314     30312     30315     30317
     30314     30312     30315     30323     30315     30317     30318     30319
     30315     30317     30318     30320     30315     30323     30326     30327
     30316     30315     30317     30318     30316     30315     30323     30324
     30316     30315     30323     30325     30316     30315     30323     30326
     30317     30315     30323     30324     30317     30315     30323     30325
     30317     30315     30323     30326     30317     30318     30320     30321
     30317     30318     30320     30322     30317     30318     30320     30332
     30318     30317     30315     30323     30318     30320     30332     30333
     30318     30320     30332     30334     30318     30320     30332     30335
     30319     30318     30320     30321     30319     30318     30320     30322
     30319     30318     30320     30332     30320     30332     30335     30336
     30320     30332     30335     30337     30320     30332     30335     30338
     30321     30320     30332     30333     30321     30320     30332     30334
     30321     30320     30332     30335     30322     30320     30332     30333
     30322     30320     30332     30334     30322     30320     30332     30335
     30323     30326     30327     30328     30323     30326     30327     30329
     30324     30323     30326     30327     30325     30323     30326     30327
     30326     30327     30329     30330     30326     30327     30329     30331
     30326     30327     30329     30376     30327     30329     30376     30377
     30327     30329     30376     30378     30327     30329     30376     30379
     30328     30327     30329     30330     30328     30327     30329     30331
     30328     30327     30329     30376     30329     30376     30379     30380
     30329     30376     30379     30381     30329     30376     30379     30382
     30330     30329     30376     30377     30330     30329     30376     30378
     30330     30329     30376     30379     30331     30329     30376     30377
     30331     30329     30376     30378     30331     30329     30376     30379
     30332     30335     30338     30339     30332     30335     30338     30340
     30332     30335     30338     30341     30333     30332     30335     30336
     30333     30332     30335     30337     30333     30332     30335     30338
     30334     30332     30335     30336     30334     30332     30335     30337
     30334     30332     30335     30338     30335     30338     30341     30342
     30335     30338     30341     30343     30335     30338     30341     30344
     30336     30335     30338     30339     30336     30335     30338     30340
     30336     30335     30338     30341     30337     30335     30338     30339
     30337     30335     30338     30340     30337     30335     30338     30341
     30338     30341     30344     30345     30338     30341     30344     30346
     30338     30341     30344     30347     30339     30338     30341     30342
     30339     30338     30341     30343     30339     30338     30341     30344
     30340     30338     30341     30342     30340     30338     30341     30343
     30340     30338     30341     30344     30341     30344     30347     30348
     30341     30344     30347     30349     30341     30344     30347     30350
     30342     30341     30344     30345     30342     30341     30344     30346
     30342     30341     30344     30347     30343     30341     30344     30345
     30343     30341     30344     30346     30343     30341     30344     30347
     30344     30347     30350     30351     30344     30347     30350     30352
     30344     30347     30350     30355     30345     30344     30347     30348
     30345     30344     30347     30349     30345     30344     30347     30350
     30346     30344     30347     30348     30346     30344     30347     30349
     30346     30344     30347     30350     30347     30350     30352     30353
     30347     30350     30352     30354     30347     30350     30352     30355
     30347     30350     30355     30352     30347     30350     30355     30356
     30347     30350     30355     30357     30348     30347     30350     30351
     30348     30347     30350     30352     30348     30347     30350     30355
     30349     30347     30350     30351     30349     30347     30350     30352
     30349     30347     30350     30355     30350     30352     30355     30356
     30350     30352     30355     30357     30350     30355     30352     30353
     30350     30355     30352     30354     30350     30355     30357     30358
     30350     30355     30357     30359     30350     30355     30357     30360
     30351     30350     30352     30353     30351     30350     30352     30354
     30351     30350     30352     30355     30351     30350     30355     30352
     30351     30350     30355     30356     30351     30350     30355     30357
     30352     30350     30355     30356     30352     30350     30355     30357
     30352     30355     30357     30358     30352     30355     30357     30359
     30352     30355     30357     30360     30353     30352     30350     30355
     30353     30352     30355     30356     30353     30352     30355     30357
     30354     30352     30350     30355     30354     30352     30355     30356
     30354     30352     30355     30357     30355     30357     30360     30361
     30355     30357     30360     30362     30355     30357     30360     30363
     30356     30355     30357     30358     30356     30355     30357     30359
     30356     30355     30357     30360     30357     30360     30363     30364
     30357     30360     30363     30365     30357     30360     30363     30366
     30358     30357     30360     30361     30358     30357     30360     30362
     30358     30357     30360     30363     30359     30357     30360     30361
     30359     30357     30360     30362     30359     30357     30360     30363
     30360     30363     30366     30367     30360     30363     30366     30368
     30360     30363     30366     30369     30361     30360     30363     30364
     30361     30360     30363     30365     30361     30360     30363     30366
     30362     30360     30363     30364     30362     30360     30363     30365
     30362     30360     30363     30366     30363     30366     30369     30370
     30363     30366     30369     30371     30363     30366     30369     30372
     30364     30363     30366     30367     30364     30363     30366     30368
     30364     30363     30366     30369     30365     30363     30366     30367
     30365     30363     30366     30368     30365     30363     30366     30369
     30366     30369     30372     30373     30366     30369     30372     30374
     30366     30369     30372     30375     30367     30366     30369     30370
     30367     30366     30369     30371     30367     30366     30369     30372
     30368     30366     30369     30370     30368     30366     30369     30371
     30368     30366     30369     30372     30370     30369     30372     30373
     30370     30369     30372     30374     30370     30369     30372     30375
     30371     30369     30372     30373     30371     30369     30372     30374
     30371     30369     30372     30375     30376     30379     30382     30383
     30376     30379     30382     30384     30376     30379     30382     30385
     30377     30376     30379     30380     30377     30376     30379     30381
     30377     30376     30379     30382     30378     30376     30379     30380
     30378     30376     30379     30381     30378     30376     30379     30382
     30379     30382     30385     30386     30379     30382     30385     30387
     30379     30382     30385     30388     30380     30379     30382     30383
     30380     30379     30382     30384     30380     30379     30382     30385
     30381     30379     30382     30383     30381     30379     30382     30384
     30381     30379     30382     30385     30382     30385     30388     30389
     30382     30385     30388     30390     30382     30385     30388     30391
     30383     30382     30385     30386     30383     30382     30385     30387
     30383     30382     30385     30388     30384     30382     30385     30386
     30384     30382     30385     30387     30384     30382     30385     30388
     30385     30388     30391     30392     30385     30388     30391     30393
     30385     30388     30391     30394     30386     30385     30388     30389
     30386     30385     30388     30390     30386     30385     30388     30391
     30387     30385     30388     30389     30387     30385     30388     30390
     30387     30385     30388     30391     30388     30391     30394     30395
     30388     30391     30394     30396     30388     30391     30394     30397
     30389     30388     30391     30392     30389     30388     30391     30393
     30389     30388     30391     30394     30390     30388     30391     30392
     30390     30388     30391     30393     30390     30388     30391     30394
     30391     30394     30397     30398     30391     30394     30397     30399
     30391     30394     30397     30400     30392     30391     30394     30395
     30392     30391     30394     30396     30392     30391     30394     30397
     30393     30391     30394     30395     30393     30391     30394     30396
     30393     30391     30394     30397     30394     30397     30400     30401
     30394     30397     30400     30402     30394     30397     30400     30403
     30395     30394     30397     30398     30395     30394     30397     30399
     30395     30394     30397     30400     30396     30394     30397     30398
     30396     30394     30397     30399     30396     30394     30397     30400
     30397     30400     30403     30404     30397     30400     30403     30405
     30397     30400     30403     30406     30398     30397     30400     30401
     30398     30397     30400     30402     30398     30397     30400     30403
     30399     30397     30400     30401     30399     30397     30400     30402
     30399     30397     30400     30403     30400     30403     30406     30407
     30400     30403     30406     30408     30400     30403     30406     30409
     30401     30400     30403     30404     30401     30400     30403     30405
     30401     30400     30403     30406     30402     30400     30403     30404
     30402     30400     30403     30405     30402     30400     30403     30406
     30403     30406     30409     30410     30403     30406     30409     30411
     30403     30406     30409     30412     30404     30403     30406     30407
     30404     30403     30406     30408     30404     30403     30406     30409
     30405     30403     30406     30407     30405     30403     30406     30408
     30405     30403     30406     30409     30406     30409     30412     30413
     30406     30409     30412     30414     30406     30409     30412     30415
     30407     30406     30409     30410     30407     30406     30409     30411
     30407     30406     30409     30412     30408     30406     30409     30410
     30408     30406     30409     30411     30408     30406     30409     30412
     30410     30409     30412     30413     30410     30409     30412     30414
     30410     30409     30412     30415     30411     30409     30412     30413
     30411     30409     30412     30414     30411     30409     30412     30415
     30416     30420     30423     30424     30416     30420     30423     30425
     30416     30420     30423     30430     30417     30416     30420     30421
     30417     30416     30420     30422     30417     30416     30420     30423
     30418     30416     30420     30421     30418     30416     30420     30422
     30418     30416     30420     30423     30419     30416     30420     30421
     30419     30416     30420     30422     30419     30416     30420     30423
     30420     30423     30430     30426     30421     30420     30423     30424
     30421     30420     30423     30425     30421     30420     30423     30430
     30422     30420     30423     30424     30422     30420     30423     30425
     30422     30420     30423     30430     30423     30430     30426     30427
     30423     30430     30426     30428     30423     30430     30426     30429
     30424     30423     30430     30426     30425     30423     30430     30426
     30426     30429     30431     30432     30426     30429     30431     30433
     30426     30429     30431     30434     30427     30426     30429     30431
     30428     30426     30429     30431     30429     30431     30434     30435
     30429     30431     30434     30436     30429     30431     30434     30442
     30430     30426     30429     30431     30431     30434     30436     30437
     30431     30434     30442     30443     30431     30434     30442     30444
     30431     30434     30442     30445     30432     30431     30434     30435
     30432     30431     30434     30436     30432     30431     30434     30442
     30433     30431     30434     30435     30433     30431     30434     30436
     30433     30431     30434     30442     30434     30436     30437     30438
     30434     30436     30437     30439     30434     30442     30445     30446
     30435     30434     30436     30437     30435     30434     30442     30443
     30435     30434     30442     30444     30435     30434     30442     30445
     30436     30434     30442     30443     30436     30434     30442     30444
     30436     30434     30442     30445     30436     30437     30439     30440
     30436     30437     30439     30441     30436     30437     30439     30451
     30437     30436     30434     30442     30437     30439     30451     30452
     30437     30439     30451     30453     30437     30439     30451     30454
     30438     30437     30439     30440     30438     30437     30439     30441
     30438     30437     30439     30451     30439     30451     30454     30455
     30439     30451     30454     30456     30439     30451     30454     30457
     30440     30439     30451     30452     30440     30439     30451     30453
     30440     30439     30451     30454     30441     30439     30451     30452
     30441     30439     30451     30453     30441     30439     30451     30454
     30442     30445     30446     30447     30442     30445     30446     30448
     30443     30442     30445     30446     30444     30442     30445     30446
     30445     30446     30448     30449     30445     30446     30448     30450
     30445     30446     30448     30495     30446     30448     30495     30496
     30446     30448     30495     30497     30446     30448     30495     30498
     30447     30446     30448     30449     30447     30446     30448     30450
     30447     30446     30448     30495     30448     30495     30498     30499
     30448     30495     30498     30500     30448     30495     30498     30501
     30449     30448     30495     30496     30449     30448     30495     30497
     30449     30448     30495     30498     30450     30448     30495     30496
     30450     30448     30495     30497     30450     30448     30495     30498
     30451     30454     30457     30458     30451     30454     30457     30459
     30451     30454     30457     30460     30452     30451     30454     30455
     30452     30451     30454     30456     30452     30451     30454     30457
     30453     30451     30454     30455     30453     30451     30454     30456
     30453     30451     30454     30457     30454     30457     30460     30461
     30454     30457     30460     30462     30454     30457     30460     30463
     30455     30454     30457     30458     30455     30454     30457     30459
     30455     30454     30457     30460     30456     30454     30457     30458
     30456     30454     30457     30459     30456     30454     30457     30460
     30457     30460     30463     30464     30457     30460     30463     30465
     30457     30460     30463     30466     30458     30457     30460     30461
     30458     30457     30460     30462     30458     30457     30460     30463
     30459     30457     30460     30461     30459     30457     30460     30462
     30459     30457     30460     30463     30460     30463     30466     30467
     30460     30463     30466     30468     30460     30463     30466     30469
     30461     30460     30463     30464     30461     30460     30463     30465
     30461     30460     30463     30466     30462     30460     30463     30464
     30462     30460     30463     30465     30462     30460     30463     30466
     30463     30466     30469     30470     30463     30466     30469     30471
     30463     30466     30469     30474     30464     30463     30466     30467
     30464     30463     30466     30468     30464     30463     30466     30469
     30465     30463     30466     30467     30465     30463     30466     30468
     30465     30463     30466     30469     30466     30469     30471     30472
     30466     30469     30471     30473     30466     30469     30471     30474
     30466     30469     30474     30471     30466     30469     30474     30475
     30466     30469     30474     30476     30467     30466     30469     30470
     30467     30466     30469     30471     30467     30466     30469     30474
     30468     30466     30469     30470     30468     30466     30469     30471
     30468     30466     30469     30474     30469     30471     30474     30475
     30469     30471     30474     30476     30469     30474     30471     30472
     30469     30474     30471     30473     30469     30474     30476     30477
     30469     30474     30476     30478     30469     30474     30476     30479
     30470     30469     30471     30472     30470     30469     30471     30473
     30470     30469     30471     30474     30470     30469     30474     30471
     30470     30469     30474     30475     30470     30469     30474     30476
     30471     30469     30474     30475     30471     30469     30474     30476
     30471     30474     30476     30477     30471     30474     30476     30478
     30471     30474     30476     30479     30472     30471     30469     30474
     30472     30471     30474     30475     30472     30471     30474     30476
     30473     30471     30469     30474     30473     30471     30474     30475
     30473     30471     30474     30476     30474     30476     30479     30480
     30474     30476     30479     30481     30474     30476     30479     30482
     30475     30474     30476     30477     30475     30474     30476     30478
     30475     30474     30476     30479     30476     30479     30482     30483
     30476     30479     30482     30484     30476     30479     30482     30485
     30477     30476     30479     30480     30477     30476     30479     30481
     30477     30476     30479     30482     30478     30476     30479     30480
     30478     30476     30479     30481     30478     30476     30479     30482
     30479     30482     30485     30486     30479     30482     30485     30487
     30479     30482     30485     30488     30480     30479     30482     30483
     30480     30479     30482     30484     30480     30479     30482     30485
     30481     30479     30482     30483     30481     30479     30482     30484
     30481     30479     30482     30485     30482     30485     30488     30489
     30482     30485     30488     30490     30482     30485     30488     30491
     30483     30482     30485     30486     30483     30482     30485     30487
     30483     30482     30485     30488     30484     30482     30485     30486
     30484     30482     30485     30487     30484     30482     30485     30488
     30485     30488     30491     30492     30485     30488     30491     30493
     30485     30488     30491     30494     30486     30485     30488     30489
     30486     30485     30488     30490     30486     30485     30488     30491
     30487     30485     30488     30489     30487     30485     30488     30490
     30487     30485     30488     30491     30489     30488     30491     30492
     30489     30488     30491     30493     30489     30488     30491     30494
     30490     30488     30491     30492     30490     30488     30491     30493
     30490     30488     30491     30494     30495     30498     30501     30502
     30495     30498     30501     30503     30495     30498     30501     30504
     30496     30495     30498     30499     30496     30495     30498     30500
     30496     30495     30498     30501     30497     30495     30498     30499
     30497     30495     30498     30500     30497     30495     30498     30501
     30498     30501     30504     30505     30498     30501     30504     30506
     30498     30501     30504     30507     30499     30498     30501     30502
     30499     30498     30501     30503     30499     30498     30501     30504
     30500     30498     30501     30502     30500     30498     30501     30503
     30500     30498     30501     30504     30501     30504     30507     30508
     30501     30504     30507     30509     30501     30504     30507     30510
     30502     30501     30504     30505     30502     30501     30504     30506
     30502     30501     30504     30507     30503     30501     30504     30505
     30503     30501     30504     30506     30503     30501     30504     30507
     30504     30507     30510     30511     30504     30507     30510     30512
     30504     30507     30510     30513     30505     30504     30507     30508
     30505     30504     30507     30509     30505     30504     30507     30510
     30506     30504     30507     30508     30506     30504     30507     30509
     30506     30504     30507     30510     30507     30510     30513     30514
     30507     30510     30513     30515     30507     30510     30513     30516
     30508     30507     30510     30511     30508     30507     30510     30512
     30508     30507     30510     30513     30509     30507     30510     30511
     30509     30507     30510     30512     30509     30507     30510     30513
     30510     30513     30516     30517     30510     30513     30516     30518
     30510     30513     30516     30519     30511     30510     30513     30514
     30511     30510     30513     30515     30511     30510     30513     30516
     30512     30510     30513     30514     30512     30510     30513     30515
     30512     30510     30513     30516     30513     30516     30519     30520
     30513     30516     30519     30521     30513     30516     30519     30522
     30514     30513     30516     30517     30514     30513     30516     30518
     30514     30513     30516     30519     30515     30513     30516     30517
     30515     30513     30516     30518     30515     30513     30516     30519
     30516     30519     30522     30523     30516     30519     30522     30524
     30516     30519     30522     30525     30517     30516     30519     30520
     30517     30516     30519     30521     30517     30516     30519     30522
     30518     30516     30519     30520     30518     30516     30519     30521
     30518     30516     30519     30522     30519     30522     30525     30526
     30519     30522     30525     30527     30519     30522     30525     30528
     30520     30519     30522     30523     30520     30519     30522     30524
     30520     30519     30522     30525     30521     30519     30522     30523
     30521     30519     30522     30524     30521     30519     30522     30525
     30522     30525     30528     30529     30522     30525     30528     30530
     30522     30525     30528     30531     30523     30522     30525     30526
     30523     30522     30525     30527     30523     30522     30525     30528
     30524     30522     30525     30526     30524     30522     30525     30527
     30524     30522     30525     30528     30525     30528     30531     30532
     30525     30528     30531     30533     30525     30528     30531     30534
     30526     30525     30528     30529     30526     30525     30528     30530
     30526     30525     30528     30531     30527     30525     30528     30529
     30527     30525     30528     30530     30527     30525     30528     30531
     30528     30531     30534     30535     30528     30531     30534     30536
     30528     30531     30534     30537     30529     30528     30531     30532
     30529     30528     30531     30533     30529     30528     30531     30534
     30530     30528     30531     30532     30530     30528     30531     30533
     30530     30528     30531     30534     30532     30531     30534     30535
     30532     30531     30534     30536     30532     30531     30534     30537
     30533     30531     30534     30535     30533     30531     30534     30536
     30533     30531     30534     30537     30538     30542     30545     30546
     30538     30542     30545     30547     30538     30542     30545     30552
     30539     30538     30542     30543     30539     30538     30542     30544
     30539     30538     30542     30545     30540     30538     30542     30543
     30540     30538     30542     30544     30540     30538     30542     30545
     30541     30538     30542     30543     30541     30538     30542     30544
     30541     30538     30542     30545     30542     30545     30552     30548
     30543     30542     30545     30546     30543     30542     30545     30547
     30543     30542     30545     30552     30544     30542     30545     30546
     30544     30542     30545     30547     30544     30542     30545     30552
     30545     30552     30548     30549     30545     30552     30548     30550
     30545     30552     30548     30551     30546     30545     30552     30548
     30547     30545     30552     30548     30548     30551     30553     30554
     30548     30551     30553     30555     30548     30551     30553     30556
     30549     30548     30551     30553     30550     30548     30551     30553
     30551     30553     30556     30557     30551     30553     30556     30558
     30551     30553     30556     30564     30552     30548     30551     30553
     30553     30556     30558     30559     30553     30556     30564     30565
     30553     30556     30564     30566     30553     30556     30564     30567
     30554     30553     30556     30557     30554     30553     30556     30558
     30554     30553     30556     30564     30555     30553     30556     30557
     30555     30553     30556     30558     30555     30553     30556     30564
     30556     30558     30559     30560     30556     30558     30559     30561
     30556     30564     30567     30568     30557     30556     30558     30559
     30557     30556     30564     30565     30557     30556     30564     30566
     30557     30556     30564     30567     30558     30556     30564     30565
     30558     30556     30564     30566     30558     30556     30564     30567
     30558     30559     30561     30562     30558     30559     30561     30563
     30558     30559     30561     30573     30559     30558     30556     30564
     30559     30561     30573     30574     30559     30561     30573     30575
     30559     30561     30573     30576     30560     30559     30561     30562
     30560     30559     30561     30563     30560     30559     30561     30573
     30561     30573     30576     30577     30561     30573     30576     30578
     30561     30573     30576     30579     30562     30561     30573     30574
     30562     30561     30573     30575     30562     30561     30573     30576
     30563     30561     30573     30574     30563     30561     30573     30575
     30563     30561     30573     30576     30564     30567     30568     30569
     30564     30567     30568     30570     30565     30564     30567     30568
     30566     30564     30567     30568     30567     30568     30570     30571
     30567     30568     30570     30572     30567     30568     30570     30617
     30568     30570     30617     30618     30568     30570     30617     30619
     30568     30570     30617     30620     30569     30568     30570     30571
     30569     30568     30570     30572     30569     30568     30570     30617
     30570     30617     30620     30621     30570     30617     30620     30622
     30570     30617     30620     30623     30571     30570     30617     30618
     30571     30570     30617     30619     30571     30570     30617     30620
     30572     30570     30617     30618     30572     30570     30617     30619
     30572     30570     30617     30620     30573     30576     30579     30580
     30573     30576     30579     30581     30573     30576     30579     30582
     30574     30573     30576     30577     30574     30573     30576     30578
     30574     30573     30576     30579     30575     30573     30576     30577
     30575     30573     30576     30578     30575     30573     30576     30579
     30576     30579     30582     30583     30576     30579     30582     30584
     30576     30579     30582     30585     30577     30576     30579     30580
     30577     30576     30579     30581     30577     30576     30579     30582
     30578     30576     30579     30580     30578     30576     30579     30581
     30578     30576     30579     30582     30579     30582     30585     30586
     30579     30582     30585     30587     30579     30582     30585     30588
     30580     30579     30582     30583     30580     30579     30582     30584
     30580     30579     30582     30585     30581     30579     30582     30583
     30581     30579     30582     30584     30581     30579     30582     30585
     30582     30585     30588     30589     30582     30585     30588     30590
     30582     30585     30588     30591     30583     30582     30585     30586
     30583     30582     30585     30587     30583     30582     30585     30588
     30584     30582     30585     30586     30584     30582     30585     30587
     30584     30582     30585     30588     30585     30588     30591     30592
     30585     30588     30591     30593     30585     30588     30591     30596
     30586     30585     30588     30589     30586     30585     30588     30590
     30586     30585     30588     30591     30587     30585     30588     30589
     30587     30585     30588     30590     30587     30585     30588     30591
     30588     30591     30593     30594     30588     30591     30593     30595
     30588     30591     30593     30596     30588     30591     30596     30593
     30588     30591     30596     30597     30588     30591     30596     30598
     30589     30588     30591     30592     30589     30588     30591     30593
     30589     30588     30591     30596     30590     30588     30591     30592
     30590     30588     30591     30593     30590     30588     30591     30596
     30591     30593     30596     30597     30591     30593     30596     30598
     30591     30596     30593     30594     30591     30596     30593     30595
     30591     30596     30598     30599     30591     30596     30598     30600
     30591     30596     30598     30601     30592     30591     30593     30594
     30592     30591     30593     30595     30592     30591     30593     30596
     30592     30591     30596     30593     30592     30591     30596     30597
     30592     30591     30596     30598     30593     30591     30596     30597
     30593     30591     30596     30598     30593     30596     30598     30599
     30593     30596     30598     30600     30593     30596     30598     30601
     30594     30593     30591     30596     30594     30593     30596     30597
     30594     30593     30596     30598     30595     30593     30591     30596
     30595     30593     30596     30597     30595     30593     30596     30598
     30596     30598     30601     30602     30596     30598     30601     30603
     30596     30598     30601     30604     30597     30596     30598     30599
     30597     30596     30598     30600     30597     30596     30598     30601
     30598     30601     30604     30605     30598     30601     30604     30606
     30598     30601     30604     30607     30599     30598     30601     30602
     30599     30598     30601     30603     30599     30598     30601     30604
     30600     30598     30601     30602     30600     30598     30601     30603
     30600     30598     30601     30604     30601     30604     30607     30608
     30601     30604     30607     30609     30601     30604     30607     30610
     30602     30601     30604     30605     30602     30601     30604     30606
     30602     30601     30604     30607     30603     30601     30604     30605
     30603     30601     30604     30606     30603     30601     30604     30607
     30604     30607     30610     30611     30604     30607     30610     30612
     30604     30607     30610     30613     30605     30604     30607     30608
     30605     30604     30607     30609     30605     30604     30607     30610
     30606     30604     30607     30608     30606     30604     30607     30609
     30606     30604     30607     30610     30607     30610     30613     30614
     30607     30610     30613     30615     30607     30610     30613     30616
     30608     30607     30610     30611     30608     30607     30610     30612
     30608     30607     30610     30613     30609     30607     30610     30611
     30609     30607     30610     30612     30609     30607     30610     30613
     30611     30610     30613     30614     30611     30610     30613     30615
     30611     30610     30613     30616     30612     30610     30613     30614
     30612     30610     30613     30615     30612     30610     30613     30616
     30617     30620     30623     30624     30617     30620     30623     30625
     30617     30620     30623     30626     30618     30617     30620     30621
     30618     30617     30620     30622     30618     30617     30620     30623
     30619     30617     30620     30621     30619     30617     30620     30622
     30619     30617     30620     30623     30620     30623     30626     30627
     30620     30623     30626     30628     30620     30623     30626     30629
     30621     30620     30623     30624     30621     30620     30623     30625
     30621     30620     30623     30626     30622     30620     30623     30624
     30622     30620     30623     30625     30622     30620     30623     30626
     30623     30626     30629     30630     30623     30626     30629     30631
     30623     30626     30629     30632     30624     30623     30626     30627
     30624     30623     30626     30628     30624     30623     30626     30629
     30625     30623     30626     30627     30625     30623     30626     30628
     30625     30623     30626     30629     30626     30629     30632     30633
     30626     30629     30632     30634     30626     30629     30632     30635
     30627     30626     30629     30630     30627     30626     30629     30631
     30627     30626     30629     30632     30628     30626     30629     30630
     30628     30626     30629     30631     30628     30626     30629     30632
     30629     30632     30635     30636     30629     30632     30635     30637
     30629     30632     30635     30638     30630     30629     30632     30633
     30630     30629     30632     30634     30630     30629     30632     30635
     30631     30629     30632     30633     30631     30629     30632     30634
     30631     30629     30632     30635     30632     30635     30638     30639
     30632     30635     30638     30640     30632     30635     30638     30641
     30633     30632     30635     30636     30633     30632     30635     30637
     30633     30632     30635     30638     30634     30632     30635     30636
     30634     30632     30635     30637     30634     30632     30635     30638
     30635     30638     30641     30642     30635     30638     30641     30643
     30635     30638     30641     30644     30636     30635     30638     30639
     30636     30635     30638     30640     30636     30635     30638     30641
     30637     30635     30638     30639     30637     30635     30638     30640
     30637     30635     30638     30641     30638     30641     30644     30645
     30638     30641     30644     30646     30638     30641     30644     30647
     30639     30638     30641     30642     30639     30638     30641     30643
     30639     30638     30641     30644     30640     30638     30641     30642
     30640     30638     30641     30643     30640     30638     30641     30644
     30641     30644     30647     30648     30641     30644     30647     30649
     30641     30644     30647     30650     30642     30641     30644     30645
     30642     30641     30644     30646     30642     30641     30644     30647
     30643     30641     30644     30645     30643     30641     30644     30646
     30643     30641     30644     30647     30644     30647     30650     30651
     30644     30647     30650     30652     30644     30647     30650     30653
     30645     30644     30647     30648     30645     30644     30647     30649
     30645     30644     30647     30650     30646     30644     30647     30648
     30646     30644     30647     30649     30646     30644     30647     30650
     30647     30650     30653     30654     30647     30650     30653     30655
     30647     30650     30653     30656     30648     30647     30650     30651
     30648     30647     30650     30652     30648     30647     30650     30653
     30649     30647     30650     30651     30649     30647     30650     30652
     30649     30647     30650     30653     30651     30650     30653     30654
     30651     30650     30653     30655     30651     30650     30653     30656
     30652     30650     30653     30654     30652     30650     30653     30655
     30652     30650     30653     30656     30657     30661     30664     30665
     30657     30661     30664     30666     30657     30661     30664     30671
     30658     30657     30661     30662     30658     30657     30661     30663
     30658     30657     30661     30664     30659     30657     30661     30662
     30659     30657     30661     30663     30659     30657     30661     30664
     30660     30657     30661     30662     30660     30657     30661     30663
     30660     30657     30661     30664     30661     30664     30671     30667
     30662     30661     30664     30665     30662     30661     30664     30666
     30662     30661     30664     30671     30663     30661     30664     30665
     30663     30661     30664     30666     30663     30661     30664     30671
     30664     30671     30667     30668     30664     30671     30667     30669
     30664     30671     30667     30670     30665     30664     30671     30667
     30666     30664     30671     30667     30667     30670     30672     30673
     30667     30670     30672     30674     30667     30670     30672     30675
     30668     30667     30670     30672     30669     30667     30670     30672
     30670     30672     30675     30676     30670     30672     30675     30677
     30670     30672     30675     30683     30671     30667     30670     30672
     30672     30675     30677     30678     30672     30675     30683     30684
     30672     30675     30683     30685     30672     30675     30683     30686
     30673     30672     30675     30676     30673     30672     30675     30677
     30673     30672     30675     30683     30674     30672     30675     30676
     30674     30672     30675     30677     30674     30672     30675     30683
     30675     30677     30678     30679     30675     30677     30678     30680
     30675     30683     30686     30687     30676     30675     30677     30678
     30676     30675     30683     30684     30676     30675     30683     30685
     30676     30675     30683     30686     30677     30675     30683     30684
     30677     30675     30683     30685     30677     30675     30683     30686
     30677     30678     30680     30681     30677     30678     30680     30682
     30677     30678     30680     30692     30678     30677     30675     30683
     30678     30680     30692     30693     30678     30680     30692     30694
     30678     30680     30692     30695     30679     30678     30680     30681
     30679     30678     30680     30682     30679     30678     30680     30692
     30680     30692     30695     30696     30680     30692     30695     30697
     30680     30692     30695     30698     30681     30680     30692     30693
     30681     30680     30692     30694     30681     30680     30692     30695
     30682     30680     30692     30693     30682     30680     30692     30694
     30682     30680     30692     30695     30683     30686     30687     30688
     30683     30686     30687     30689     30684     30683     30686     30687
     30685     30683     30686     30687     30686     30687     30689     30690
     30686     30687     30689     30691     30686     30687     30689     30736
     30687     30689     30736     30737     30687     30689     30736     30738
     30687     30689     30736     30739     30688     30687     30689     30690
     30688     30687     30689     30691     30688     30687     30689     30736
     30689     30736     30739     30740     30689     30736     30739     30741
     30689     30736     30739     30742     30690     30689     30736     30737
     30690     30689     30736     30738     30690     30689     30736     30739
     30691     30689     30736     30737     30691     30689     30736     30738
     30691     30689     30736     30739     30692     30695     30698     30699
     30692     30695     30698     30700     30692     30695     30698     30701
     30693     30692     30695     30696     30693     30692     30695     30697
     30693     30692     30695     30698     30694     30692     30695     30696
     30694     30692     30695     30697     30694     30692     30695     30698
     30695     30698     30701     30702     30695     30698     30701     30703
     30695     30698     30701     30704     30696     30695     30698     30699
     30696     30695     30698     30700     30696     30695     30698     30701
     30697     30695     30698     30699     30697     30695     30698     30700
     30697     30695     30698     30701     30698     30701     30704     30705
     30698     30701     30704     30706     30698     30701     30704     30707
     30699     30698     30701     30702     30699     30698     30701     30703
     30699     30698     30701     30704     30700     30698     30701     30702
     30700     30698     30701     30703     30700     30698     30701     30704
     30701     30704     30707     30708     30701     30704     30707     30709
     30701     30704     30707     30710     30702     30701     30704     30705
     30702     30701     30704     30706     30702     30701     30704     30707
     30703     30701     30704     30705     30703     30701     30704     30706
     30703     30701     30704     30707     30704     30707     30710     30711
     30704     30707     30710     30712     30704     30707     30710     30715
     30705     30704     30707     30708     30705     30704     30707     30709
     30705     30704     30707     30710     30706     30704     30707     30708
     30706     30704     30707     30709     30706     30704     30707     30710
     30707     30710     30712     30713     30707     30710     30712     30714
     30707     30710     30712     30715     30707     30710     30715     30712
     30707     30710     30715     30716     30707     30710     30715     30717
     30708     30707     30710     30711     30708     30707     30710     30712
     30708     30707     30710     30715     30709     30707     30710     30711
     30709     30707     30710     30712     30709     30707     30710     30715
     30710     30712     30715     30716     30710     30712     30715     30717
     30710     30715     30712     30713     30710     30715     30712     30714
     30710     30715     30717     30718     30710     30715     30717     30719
     30710     30715     30717     30720     30711     30710     30712     30713
     30711     30710     30712     30714     30711     30710     30712     30715
     30711     30710     30715     30712     30711     30710     30715     30716
     30711     30710     30715     30717     30712     30710     30715     30716
     30712     30710     30715     30717     30712     30715     30717     30718
     30712     30715     30717     30719     30712     30715     30717     30720
     30713     30712     30710     30715     30713     30712     30715     30716
     30713     30712     30715     30717     30714     30712     30710     30715
     30714     30712     30715     30716     30714     30712     30715     30717
     30715     30717     30720     30721     30715     30717     30720     30722
     30715     30717     30720     30723     30716     30715     30717     30718
     30716     30715     30717     30719     30716     30715     30717     30720
     30717     30720     30723     30724     30717     30720     30723     30725
     30717     30720     30723     30726     30718     30717     30720     30721
     30718     30717     30720     30722     30718     30717     30720     30723
     30719     30717     30720     30721     30719     30717     30720     30722
     30719     30717     30720     30723     30720     30723     30726     30727
     30720     30723     30726     30728     30720     30723     30726     30729
     30721     30720     30723     30724     30721     30720     30723     30725
     30721     30720     30723     30726     30722     30720     30723     30724
     30722     30720     30723     30725     30722     30720     30723     30726
     30723     30726     30729     30730     30723     30726     30729     30731
     30723     30726     30729     30732     30724     30723     30726     30727
     30724     30723     30726     30728     30724     30723     30726     30729
     30725     30723     30726     30727     30725     30723     30726     30728
     30725     30723     30726     30729     30726     30729     30732     30733
     30726     30729     30732     30734     30726     30729     30732     30735
     30727     30726     30729     30730     30727     30726     30729     30731
     30727     30726     30729     30732     30728     30726     30729     30730
     30728     30726     30729     30731     30728     30726     30729     30732
     30730     30729     30732     30733     30730     30729     30732     30734
     30730     30729     30732     30735     30731     30729     30732     30733
     30731     30729     30732     30734     30731     30729     30732     30735
     30736     30739     30742     30743     30736     30739     30742     30744
     30736     30739     30742     30745     30737     30736     30739     30740
     30737     30736     30739     30741     30737     30736     30739     30742
     30738     30736     30739     30740     30738     30736     30739     30741
     30738     30736     30739     30742     30739     30742     30745     30746
     30739     30742     30745     30747     30739     30742     30745     30748
     30740     30739     30742     30743     30740     30739     30742     30744
     30740     30739     30742     30745     30741     30739     30742     30743
     30741     30739     30742     30744     30741     30739     30742     30745
     30742     30745     30748     30749     30742     30745     30748     30750
     30742     30745     30748     30751     30743     30742     30745     30746
     30743     30742     30745     30747     30743     30742     30745     30748
     30744     30742     30745     30746     30744     30742     30745     30747
     30744     30742     30745     30748     30745     30748     30751     30752
     30745     30748     30751     30753     30745     30748     30751     30754
     30746     30745     30748     30749     30746     30745     30748     30750
     30746     30745     30748     30751     30747     30745     30748     30749
     30747     30745     30748     30750     30747     30745     30748     30751
     30748     30751     30754     30755     30748     30751     30754     30756
     30748     30751     30754     30757     30749     30748     30751     30752
     30749     30748     30751     30753     30749     30748     30751     30754
     30750     30748     30751     30752     30750     30748     30751     30753
     30750     30748     30751     30754     30751     30754     30757     30758
     30751     30754     30757     30759     30751     30754     30757     30760
     30752     30751     30754     30755     30752     30751     30754     30756
     30752     30751     30754     30757     30753     30751     30754     30755
     30753     30751     30754     30756     30753     30751     30754     30757
     30754     30757     30760     30761     30754     30757     30760     30762
     30754     30757     30760     30763     30755     30754     30757     30758
     30755     30754     30757     30759     30755     30754     30757     30760
     30756     30754     30757     30758     30756     30754     30757     30759
     30756     30754     30757     30760     30757     30760     30763     30764
     30757     30760     30763     30765     30757     30760     30763     30766
     30758     30757     30760     30761     30758     30757     30760     30762
     30758     30757     30760     30763     30759     30757     30760     30761
     30759     30757     30760     30762     30759     30757     30760     30763
     30760     30763     30766     30767     30760     30763     30766     30768
     30760     30763     30766     30769     30761     30760     30763     30764
     30761     30760     30763     30765     30761     30760     30763     30766
     30762     30760     30763     30764     30762     30760     30763     30765
     30762     30760     30763     30766     30763     30766     30769     30770
     30763     30766     30769     30771     30763     30766     30769     30772
     30764     30763     30766     30767     30764     30763     30766     30768
     30764     30763     30766     30769     30765     30763     30766     30767
     30765     30763     30766     30768     30765     30763     30766     30769
     30766     30769     30772     30773     30766     30769     30772     30774
     30766     30769     30772     30775     30767     30766     30769     30770
     30767     30766     30769     30771     30767     30766     30769     30772
     30768     30766     30769     30770     30768     30766     30769     30771
     30768     30766     30769     30772     30769     30772     30775     30776
     30769     30772     30775     30777     30769     30772     30775     30778
     30770     30769     30772     30773     30770     30769     30772     30774
     30770     30769     30772     30775     30771     30769     30772     30773
     30771     30769     30772     30774     30771     30769     30772     30775
     30773     30772     30775     30776     30773     30772     30775     30777
     30773     30772     30775     30778     30774     30772     30775     30776
     30774     30772     30775     30777     30774     30772     30775     30778
     30779     30783     30786     30787     30779     30783     30786     30788
     30779     30783     30786     30793     30780     30779     30783     30784
     30780     30779     30783     30785     30780     30779     30783     30786
     30781     30779     30783     30784     30781     30779     30783     30785
     30781     30779     30783     30786     30782     30779     30783     30784
     30782     30779     30783     30785     30782     30779     30783     30786
     30783     30786     30793     30789     30784     30783     30786     30787
     30784     30783     30786     30788     30784     30783     30786     30793
     30785     30783     30786     30787     30785     30783     30786     30788
     30785     30783     30786     30793     30786     30793     30789     30790
     30786     30793     30789     30791     30786     30793     30789     30792
     30787     30786     30793     30789     30788     30786     30793     30789
     30789     30792     30794     30795     30789     30792     30794     30796
     30789     30792     30794     30797     30790     30789     30792     30794
     30791     30789     30792     30794     30792     30794     30797     30798
     30792     30794     30797     30799     30792     30794     30797     30805
     30793     30789     30792     30794     30794     30797     30799     30800
     30794     30797     30805     30806     30794     30797     30805     30807
     30794     30797     30805     30808     30795     30794     30797     30798
     30795     30794     30797     30799     30795     30794     30797     30805
     30796     30794     30797     30798     30796     30794     30797     30799
     30796     30794     30797     30805     30797     30799     30800     30801
     30797     30799     30800     30802     30797     30805     30808     30809
     30798     30797     30799     30800     30798     30797     30805     30806
     30798     30797     30805     30807     30798     30797     30805     30808
     30799     30797     30805     30806     30799     30797     30805     30807
     30799     30797     30805     30808     30799     30800     30802     30803
     30799     30800     30802     30804     30799     30800     30802     30814
     30800     30799     30797     30805     30800     30802     30814     30815
     30800     30802     30814     30816     30800     30802     30814     30817
     30801     30800     30802     30803     30801     30800     30802     30804
     30801     30800     30802     30814     30802     30814     30817     30818
     30802     30814     30817     30819     30802     30814     30817     30820
     30803     30802     30814     30815     30803     30802     30814     30816
     30803     30802     30814     30817     30804     30802     30814     30815
     30804     30802     30814     30816     30804     30802     30814     30817
     30805     30808     30809     30810     30805     30808     30809     30811
     30806     30805     30808     30809     30807     30805     30808     30809
     30808     30809     30811     30812     30808     30809     30811     30813
     30808     30809     30811     30858     30809     30811     30858     30859
     30809     30811     30858     30860     30809     30811     30858     30861
     30810     30809     30811     30812     30810     30809     30811     30813
     30810     30809     30811     30858     30811     30858     30861     30862
     30811     30858     30861     30863     30811     30858     30861     30864
     30812     30811     30858     30859     30812     30811     30858     30860
     30812     30811     30858     30861     30813     30811     30858     30859
     30813     30811     30858     30860     30813     30811     30858     30861
     30814     30817     30820     30821     30814     30817     30820     30822
     30814     30817     30820     30823     30815     30814     30817     30818
     30815     30814     30817     30819     30815     30814     30817     30820
     30816     30814     30817     30818     30816     30814     30817     30819
     30816     30814     30817     30820     30817     30820     30823     30824
     30817     30820     30823     30825     30817     30820     30823     30826
     30818     30817     30820     30821     30818     30817     30820     30822
     30818     30817     30820     30823     30819     30817     30820     30821
     30819     30817     30820     30822     30819     30817     30820     30823
     30820     30823     30826     30827     30820     30823     30826     30828
     30820     30823     30826     30829     30821     30820     30823     30824
     30821     30820     30823     30825     30821     30820     30823     30826
     30822     30820     30823     30824     30822     30820     30823     30825
     30822     30820     30823     30826     30823     30826     30829     30830
     30823     30826     30829     30831     30823     30826     30829     30832
     30824     30823     30826     30827     30824     30823     30826     30828
     30824     30823     30826     30829     30825     30823     30826     30827
     30825     30823     30826     30828     30825     30823     30826     30829
     30826     30829     30832     30833     30826     30829     30832     30834
     30826     30829     30832     30837     30827     30826     30829     30830
     30827     30826     30829     30831     30827     30826     30829     30832
     30828     30826     30829     30830     30828     30826     30829     30831
     30828     30826     30829     30832     30829     30832     30834     30835
     30829     30832     30834     30836     30829     30832     30834     30837
     30829     30832     30837     30834     30829     30832     30837     30838
     30829     30832     30837     30839     30830     30829     30832     30833
     30830     30829     30832     30834     30830     30829     30832     30837
     30831     30829     30832     30833     30831     30829     30832     30834
     30831     30829     30832     30837     30832     30834     30837     30838
     30832     30834     30837     30839     30832     30837     30834     30835
     30832     30837     30834     30836     30832     30837     30839     30840
     30832     30837     30839     30841     30832     30837     30839     30842
     30833     30832     30834     30835     30833     30832     30834     30836
     30833     30832     30834     30837     30833     30832     30837     30834
     30833     30832     30837     30838     30833     30832     30837     30839
     30834     30832     30837     30838     30834     30832     30837     30839
     30834     30837     30839     30840     30834     30837     30839     30841
     30834     30837     30839     30842     30835     30834     30832     30837
     30835     30834     30837     30838     30835     30834     30837     30839
     30836     30834     30832     30837     30836     30834     30837     30838
     30836     30834     30837     30839     30837     30839     30842     30843
     30837     30839     30842     30844     30837     30839     30842     30845
     30838     30837     30839     30840     30838     30837     30839     30841
     30838     30837     30839     30842     30839     30842     30845     30846
     30839     30842     30845     30847     30839     30842     30845     30848
     30840     30839     30842     30843     30840     30839     30842     30844
     30840     30839     30842     30845     30841     30839     30842     30843
     30841     30839     30842     30844     30841     30839     30842     30845
     30842     30845     30848     30849     30842     30845     30848     30850
     30842     30845     30848     30851     30843     30842     30845     30846
     30843     30842     30845     30847     30843     30842     30845     30848
     30844     30842     30845     30846     30844     30842     30845     30847
     30844     30842     30845     30848     30845     30848     30851     30852
     30845     30848     30851     30853     30845     30848     30851     30854
     30846     30845     30848     30849     30846     30845     30848     30850
     30846     30845     30848     30851     30847     30845     30848     30849
     30847     30845     30848     30850     30847     30845     30848     30851
     30848     30851     30854     30855     30848     30851     30854     30856
     30848     30851     30854     30857     30849     30848     30851     30852
     30849     30848     30851     30853     30849     30848     30851     30854
     30850     30848     30851     30852     30850     30848     30851     30853
     30850     30848     30851     30854     30852     30851     30854     30855
     30852     30851     30854     30856     30852     30851     30854     30857
     30853     30851     30854     30855     30853     30851     30854     30856
     30853     30851     30854     30857     30858     30861     30864     30865
     30858     30861     30864     30866     30858     30861     30864     30867
     30859     30858     30861     30862     30859     30858     30861     30863
     30859     30858     30861     30864     30860     30858     30861     30862
     30860     30858     30861     30863     30860     30858     30861     30864
     30861     30864     30867     30868     30861     30864     30867     30869
     30861     30864     30867     30870     30862     30861     30864     30865
     30862     30861     30864     30866     30862     30861     30864     30867
     30863     30861     30864     30865     30863     30861     30864     30866
     30863     30861     30864     30867     30864     30867     30870     30871
     30864     30867     30870     30872     30864     30867     30870     30873
     30865     30864     30867     30868     30865     30864     30867     30869
     30865     30864     30867     30870     30866     30864     30867     30868
     30866     30864     30867     30869     30866     30864     30867     30870
     30867     30870     30873     30874     30867     30870     30873     30875
     30867     30870     30873     30876     30868     30867     30870     30871
     30868     30867     30870     30872     30868     30867     30870     30873
     30869     30867     30870     30871     30869     30867     30870     30872
     30869     30867     30870     30873     30870     30873     30876     30877
     30870     30873     30876     30878     30870     30873     30876     30879
     30871     30870     30873     30874     30871     30870     30873     30875
     30871     30870     30873     30876     30872     30870     30873     30874
     30872     30870     30873     30875     30872     30870     30873     30876
     30873     30876     30879     30880     30873     30876     30879     30881
     30873     30876     30879     30882     30874     30873     30876     30877
     30874     30873     30876     30878     30874     30873     30876     30879
     30875     30873     30876     30877     30875     30873     30876     30878
     30875     30873     30876     30879     30876     30879     30882     30883
     30876     30879     30882     30884     30876     30879     30882     30885
     30877     30876     30879     30880     30877     30876     30879     30881
     30877     30876     30879     30882     30878     30876     30879     30880
     30878     30876     30879     30881     30878     30876     30879     30882
     30879     30882     30885     30886     30879     30882     30885     30887
     30879     30882     30885     30888     30880     30879     30882     30883
     30880     30879     30882     30884     30880     30879     30882     30885
     30881     30879     30882     30883     30881     30879     30882     30884
     30881     30879     30882     30885     30882     30885     30888     30889
     30882     30885     30888     30890     30882     30885     30888     30891
     30883     30882     30885     30886     30883     30882     30885     30887
     30883     30882     30885     30888     30884     30882     30885     30886
     30884     30882     30885     30887     30884     30882     30885     30888
     30885     30888     30891     30892     30885     30888     30891     30893
     30885     30888     30891     30894     30886     30885     30888     30889
     30886     30885     30888     30890     30886     30885     30888     30891
     30887     30885     30888     30889     30887     30885     30888     30890
     30887     30885     30888     30891     30888     30891     30894     30895
     30888     30891     30894     30896     30888     30891     30894     30897
     30889     30888     30891     30892     30889     30888     30891     30893
     30889     30888     30891     30894     30890     30888     30891     30892
     30890     30888     30891     30893     30890     30888     30891     30894
     30891     30894     30897     30898     30891     30894     30897     30899
     30891     30894     30897     30900     30892     30891     30894     30895
     30892     30891     30894     30896     30892     30891     30894     30897
     30893     30891     30894     30895     30893     30891     30894     30896
     30893     30891     30894     30897     30895     30894     30897     30898
     30895     30894     30897     30899     30895     30894     30897     30900
     30896     30894     30897     30898     30896     30894     30897     30899
     30896     30894     30897     30900     30901     30905     30908     30909
     30901     30905     30908     30910     30901     30905     30908     30915
     30902     30901     30905     30906     30902     30901     30905     30907
     30902     30901     30905     30908     30903     30901     30905     30906
     30903     30901     30905     30907     30903     30901     30905     30908
     30904     30901     30905     30906     30904     30901     30905     30907
     30904     30901     30905     30908     30905     30908     30915     30911
     30906     30905     30908     30909     30906     30905     30908     30910
     30906     30905     30908     30915     30907     30905     30908     30909
     30907     30905     30908     30910     30907     30905     30908     30915
     30908     30915     30911     30912     30908     30915     30911     30913
     30908     30915     30911     30914     30909     30908     30915     30911
     30910     30908     30915     30911     30911     30914     30916     30917
     30911     30914     30916     30918     30911     30914     30916     30919
     30912     30911     30914     30916     30913     30911     30914     30916
     30914     30916     30919     30920     30914     30916     30919     30921
     30914     30916     30919     30927     30915     30911     30914     30916
     30916     30919     30921     30922     30916     30919     30927     30928
     30916     30919     30927     30929     30916     30919     30927     30930
     30917     30916     30919     30920     30917     30916     30919     30921
     30917     30916     30919     30927     30918     30916     30919     30920
     30918     30916     30919     30921     30918     30916     30919     30927
     30919     30921     30922     30923     30919     30921     30922     30924
     30919     30927     30930     30931     30920     30919     30921     30922
     30920     30919     30927     30928     30920     30919     30927     30929
     30920     30919     30927     30930     30921     30919     30927     30928
     30921     30919     30927     30929     30921     30919     30927     30930
     30921     30922     30924     30925     30921     30922     30924     30926
     30921     30922     30924     30936     30922     30921     30919     30927
     30922     30924     30936     30937     30922     30924     30936     30938
     30922     30924     30936     30939     30923     30922     30924     30925
     30923     30922     30924     30926     30923     30922     30924     30936
     30924     30936     30939     30940     30924     30936     30939     30941
     30924     30936     30939     30942     30925     30924     30936     30937
     30925     30924     30936     30938     30925     30924     30936     30939
     30926     30924     30936     30937     30926     30924     30936     30938
     30926     30924     30936     30939     30927     30930     30931     30932
     30927     30930     30931     30933     30928     30927     30930     30931
     30929     30927     30930     30931     30930     30931     30933     30934
     30930     30931     30933     30935     30930     30931     30933     30980
     30931     30933     30980     30981     30931     30933     30980     30982
     30931     30933     30980     30983     30932     30931     30933     30934
     30932     30931     30933     30935     30932     30931     30933     30980
     30933     30980     30983     30984     30933     30980     30983     30985
     30933     30980     30983     30986     30934     30933     30980     30981
     30934     30933     30980     30982     30934     30933     30980     30983
     30935     30933     30980     30981     30935     30933     30980     30982
     30935     30933     30980     30983     30936     30939     30942     30943
     30936     30939     30942     30944     30936     30939     30942     30945
     30937     30936     30939     30940     30937     30936     30939     30941
     30937     30936     30939     30942     30938     30936     30939     30940
     30938     30936     30939     30941     30938     30936     30939     30942
     30939     30942     30945     30946     30939     30942     30945     30947
     30939     30942     30945     30948     30940     30939     30942     30943
     30940     30939     30942     30944     30940     30939     30942     30945
     30941     30939     30942     30943     30941     30939     30942     30944
     30941     30939     30942     30945     30942     30945     30948     30949
     30942     30945     30948     30950     30942     30945     30948     30951
     30943     30942     30945     30946     30943     30942     30945     30947
     30943     30942     30945     30948     30944     30942     30945     30946
     30944     30942     30945     30947     30944     30942     30945     30948
     30945     30948     30951     30952     30945     30948     30951     30953
     30945     30948     30951     30954     30946     30945     30948     30949
     30946     30945     30948     30950     30946     30945     30948     30951
     30947     30945     30948     30949     30947     30945     30948     30950
     30947     30945     30948     30951     30948     30951     30954     30955
     30948     30951     30954     30956     30948     30951     30954     30959
     30949     30948     30951     30952     30949     30948     30951     30953
     30949     30948     30951     30954     30950     30948     30951     30952
     30950     30948     30951     30953     30950     30948     30951     30954
     30951     30954     30956     30957     30951     30954     30956     30958
     30951     30954     30956     30959     30951     30954     30959     30956
     30951     30954     30959     30960     30951     30954     30959     30961
     30952     30951     30954     30955     30952     30951     30954     30956
     30952     30951     30954     30959     30953     30951     30954     30955
     30953     30951     30954     30956     30953     30951     30954     30959
     30954     30956     30959     30960     30954     30956     30959     30961
     30954     30959     30956     30957     30954     30959     30956     30958
     30954     30959     30961     30962     30954     30959     30961     30963
     30954     30959     30961     30964     30955     30954     30956     30957
     30955     30954     30956     30958     30955     30954     30956     30959
     30955     30954     30959     30956     30955     30954     30959     30960
     30955     30954     30959     30961     30956     30954     30959     30960
     30956     30954     30959     30961     30956     30959     30961     30962
     30956     30959     30961     30963     30956     30959     30961     30964
     30957     30956     30954     30959     30957     30956     30959     30960
     30957     30956     30959     30961     30958     30956     30954     30959
     30958     30956     30959     30960     30958     30956     30959     30961
     30959     30961     30964     30965     30959     30961     30964     30966
     30959     30961     30964     30967     30960     30959     30961     30962
     30960     30959     30961     30963     30960     30959     30961     30964
     30961     30964     30967     30968     30961     30964     30967     30969
     30961     30964     30967     30970     30962     30961     30964     30965
     30962     30961     30964     30966     30962     30961     30964     30967
     30963     30961     30964     30965     30963     30961     30964     30966
     30963     30961     30964     30967     30964     30967     30970     30971
     30964     30967     30970     30972     30964     30967     30970     30973
     30965     30964     30967     30968     30965     30964     30967     30969
     30965     30964     30967     30970     30966     30964     30967     30968
     30966     30964     30967     30969     30966     30964     30967     30970
     30967     30970     30973     30974     30967     30970     30973     30975
     30967     30970     30973     30976     30968     30967     30970     30971
     30968     30967     30970     30972     30968     30967     30970     30973
     30969     30967     30970     30971     30969     30967     30970     30972
     30969     30967     30970     30973     30970     30973     30976     30977
     30970     30973     30976     30978     30970     30973     30976     30979
     30971     30970     30973     30974     30971     30970     30973     30975
     30971     30970     30973     30976     30972     30970     30973     30974
     30972     30970     30973     30975     30972     30970     30973     30976
     30974     30973     30976     30977     30974     30973     30976     30978
     30974     30973     30976     30979     30975     30973     30976     30977
     30975     30973     30976     30978     30975     30973     30976     30979
     30980     30983     30986     30987     30980     30983     30986     30988
     30980     30983     30986     30989     30981     30980     30983     30984
     30981     30980     30983     30985     30981     30980     30983     30986
     30982     30980     30983     30984     30982     30980     30983     30985
     30982     30980     30983     30986     30983     30986     30989     30990
     30983     30986     30989     30991     30983     30986     30989     30992
     30984     30983     30986     30987     30984     30983     30986     30988
     30984     30983     30986     30989     30985     30983     30986     30987
     30985     30983     30986     30988     30985     30983     30986     30989
     30986     30989     30992     30993     30986     30989     30992     30994
     30986     30989     30992     30995     30987     30986     30989     30990
     30987     30986     30989     30991     30987     30986     30989     30992
     30988     30986     30989     30990     30988     30986     30989     30991
     30988     30986     30989     30992     30989     30992     30995     30996
     30989     30992     30995     30997     30989     30992     30995     30998
     30990     30989     30992     30993     30990     30989     30992     30994
     30990     30989     30992     30995     30991     30989     30992     30993
     30991     30989     30992     30994     30991     30989     30992     30995
     30992     30995     30998     30999     30992     30995     30998     31000
     30992     30995     30998     31001     30993     30992     30995     30996
     30993     30992     30995     30997     30993     30992     30995     30998
     30994     30992     30995     30996     30994     30992     30995     30997
     30994     30992     30995     30998     30995     30998     31001     31002
     30995     30998     31001     31003     30995     30998     31001     31004
     30996     30995     30998     30999     30996     30995     30998     31000
     30996     30995     30998     31001     30997     30995     30998     30999
     30997     30995     30998     31000     30997     30995     30998     31001
     30998     31001     31004     31005     30998     31001     31004     31006
     30998     31001     31004     31007     30999     30998     31001     31002
     30999     30998     31001     31003     30999     30998     31001     31004
     31000     30998     31001     31002     31000     30998     31001     31003
     31000     30998     31001     31004     31001     31004     31007     31008
     31001     31004     31007     31009     31001     31004     31007     31010
     31002     31001     31004     31005     31002     31001     31004     31006
     31002     31001     31004     31007     31003     31001     31004     31005
     31003     31001     31004     31006     31003     31001     31004     31007
     31004     31007     31010     31011     31004     31007     31010     31012
     31004     31007     31010     31013     31005     31004     31007     31008
     31005     31004     31007     31009     31005     31004     31007     31010
     31006     31004     31007     31008     31006     31004     31007     31009
     31006     31004     31007     31010     31007     31010     31013     31014
     31007     31010     31013     31015     31007     31010     31013     31016
     31008     31007     31010     31011     31008     31007     31010     31012
     31008     31007     31010     31013     31009     31007     31010     31011
     31009     31007     31010     31012     31009     31007     31010     31013
     31010     31013     31016     31017     31010     31013     31016     31018
     31010     31013     31016     31019     31011     31010     31013     31014
     31011     31010     31013     31015     31011     31010     31013     31016
     31012     31010     31013     31014     31012     31010     31013     31015
     31012     31010     31013     31016     31013     31016     31019     31020
     31013     31016     31019     31021     31013     31016     31019     31022
     31014     31013     31016     31017     31014     31013     31016     31018
     31014     31013     31016     31019     31015     31013     31016     31017
     31015     31013     31016     31018     31015     31013     31016     31019
     31017     31016     31019     31020     31017     31016     31019     31021
     31017     31016     31019     31022     31018     31016     31019     31020
     31018     31016     31019     31021     31018     31016     31019     31022
     31023     31027     31030     31031     31023     31027     31030     31032
     31023     31027     31030     31037     31024     31023     31027     31028
     31024     31023     31027     31029     31024     31023     31027     31030
     31025     31023     31027     31028     31025     31023     31027     31029
     31025     31023     31027     31030     31026     31023     31027     31028
     31026     31023     31027     31029     31026     31023     31027     31030
     31027     31030     31037     31033     31028     31027     31030     31031
     31028     31027     31030     31032     31028     31027     31030     31037
     31029     31027     31030     31031     31029     31027     31030     31032
     31029     31027     31030     31037     31030     31037     31033     31034
     31030     31037     31033     31035     31030     31037     31033     31036
     31031     31030     31037     31033     31032     31030     31037     31033
     31033     31036     31038     31039     31033     31036     31038     31040
     31033     31036     31038     31041     31034     31033     31036     31038
     31035     31033     31036     31038     31036     31038     31041     31042
     31036     31038     31041     31043     31036     31038     31041     31049
     31037     31033     31036     31038     31038     31041     31043     31044
     31038     31041     31049     31050     31038     31041     31049     31051
     31038     31041     31049     31052     31039     31038     31041     31042
     31039     31038     31041     31043     31039     31038     31041     31049
     31040     31038     31041     31042     31040     31038     31041     31043
     31040     31038     31041     31049     31041     31043     31044     31045
     31041     31043     31044     31046     31041     31049     31052     31053
     31042     31041     31043     31044     31042     31041     31049     31050
     31042     31041     31049     31051     31042     31041     31049     31052
     31043     31041     31049     31050     31043     31041     31049     31051
     31043     31041     31049     31052     31043     31044     31046     31047
     31043     31044     31046     31048     31043     31044     31046     31058
     31044     31043     31041     31049     31044     31046     31058     31059
     31044     31046     31058     31060     31044     31046     31058     31061
     31045     31044     31046     31047     31045     31044     31046     31048
     31045     31044     31046     31058     31046     31058     31061     31062
     31046     31058     31061     31063     31046     31058     31061     31064
     31047     31046     31058     31059     31047     31046     31058     31060
     31047     31046     31058     31061     31048     31046     31058     31059
     31048     31046     31058     31060     31048     31046     31058     31061
     31049     31052     31053     31054     31049     31052     31053     31055
     31050     31049     31052     31053     31051     31049     31052     31053
     31052     31053     31055     31056     31052     31053     31055     31057
     31052     31053     31055     31105     31053     31055     31105     31106
     31053     31055     31105     31107     31053     31055     31105     31108
     31054     31053     31055     31056     31054     31053     31055     31057
     31054     31053     31055     31105     31055     31105     31108     31109
     31055     31105     31108     31110     31055     31105     31108     31111
     31056     31055     31105     31106     31056     31055     31105     31107
     31056     31055     31105     31108     31057     31055     31105     31106
     31057     31055     31105     31107     31057     31055     31105     31108
     31058     31061     31064     31065     31058     31061     31064     31066
     31058     31061     31064     31067     31059     31058     31061     31062
     31059     31058     31061     31063     31059     31058     31061     31064
     31060     31058     31061     31062     31060     31058     31061     31063
     31060     31058     31061     31064     31061     31064     31067     31068
     31061     31064     31067     31069     31061     31064     31067     31070
     31062     31061     31064     31065     31062     31061     31064     31066
     31062     31061     31064     31067     31063     31061     31064     31065
     31063     31061     31064     31066     31063     31061     31064     31067
     31064     31067     31070     31071     31064     31067     31070     31072
     31064     31067     31070     31073     31065     31064     31067     31068
     31065     31064     31067     31069     31065     31064     31067     31070
     31066     31064     31067     31068     31066     31064     31067     31069
     31066     31064     31067     31070     31067     31070     31073     31074
     31067     31070     31073     31075     31067     31070     31073     31076
     31068     31067     31070     31071     31068     31067     31070     31072
     31068     31067     31070     31073     31069     31067     31070     31071
     31069     31067     31070     31072     31069     31067     31070     31073
     31070     31073     31076     31077     31070     31073     31076     31078
     31071     31070     31073     31074     31071     31070     31073     31075
     31071     31070     31073     31076     31072     31070     31073     31074
     31072     31070     31073     31075     31072     31070     31073     31076
     31073     31076     31078     31079     31073     31076     31078     31080
     31074     31073     31076     31077     31074     31073     31076     31078
     31075     31073     31076     31077     31075     31073     31076     31078
     31076     31078     31080     31081     31076     31078     31080     31082
     31076     31078     31080     31083     31077     31076     31078     31079
     31077     31076     31078     31080     31078     31080     31083     31084
     31078     31080     31083     31085     31078     31080     31083     31086
     31079     31078     31080     31081     31079     31078     31080     31082
     31079     31078     31080     31083     31080     31083     31086     31087
     31080     31083     31086     31088     31080     31083     31086     31089
     31081     31080     31083     31084     31081     31080     31083     31085
     31081     31080     31083     31086     31082     31080     31083     31084
     31082     31080     31083     31085     31082     31080     31083     31086
     31083     31086     31089     31090     31083     31086     31089     31091
     31083     31086     31089     31092     31084     31083     31086     31087
     31084     31083     31086     31088     31084     31083     31086     31089
     31085     31083     31086     31087     31085     31083     31086     31088
     31085     31083     31086     31089     31086     31089     31092     31093
     31086     31089     31092     31094     31086     31089     31092     31095
     31087     31086     31089     31090     31087     31086     31089     31091
     31087     31086     31089     31092     31088     31086     31089     31090
     31088     31086     31089     31091     31088     31086     31089     31092
     31089     31092     31095     31096     31089     31092     31095     31097
     31089     31092     31095     31098     31090     31089     31092     31093
     31090     31089     31092     31094     31090     31089     31092     31095
     31091     31089     31092     31093     31091     31089     31092     31094
     31091     31089     31092     31095     31092     31095     31098     31099
     31092     31095     31098     31100     31092     31095     31098     31101
     31093     31092     31095     31096     31093     31092     31095     31097
     31093     31092     31095     31098     31094     31092     31095     31096
     31094     31092     31095     31097     31094     31092     31095     31098
     31095     31098     31101     31102     31095     31098     31101     31103
     31095     31098     31101     31104     31096     31095     31098     31099
     31096     31095     31098     31100     31096     31095     31098     31101
     31097     31095     31098     31099     31097     31095     31098     31100
     31097     31095     31098     31101     31099     31098     31101     31102
     31099     31098     31101     31103     31099     31098     31101     31104
     31100     31098     31101     31102     31100     31098     31101     31103
     31100     31098     31101     31104     31105     31108     31111     31112
     31105     31108     31111     31113     31105     31108     31111     31114
     31106     31105     31108     31109     31106     31105     31108     31110
     31106     31105     31108     31111     31107     31105     31108     31109
     31107     31105     31108     31110     31107     31105     31108     31111
     31108     31111     31114     31115     31108     31111     31114     31116
     31108     31111     31114     31117     31109     31108     31111     31112
     31109     31108     31111     31113     31109     31108     31111     31114
     31110     31108     31111     31112     31110     31108     31111     31113
     31110     31108     31111     31114     31111     31114     31117     31118
     31111     31114     31117     31119     31111     31114     31117     31120
     31112     31111     31114     31115     31112     31111     31114     31116
     31112     31111     31114     31117     31113     31111     31114     31115
     31113     31111     31114     31116     31113     31111     31114     31117
     31114     31117     31120     31121     31114     31117     31120     31122
     31114     31117     31120     31123     31115     31114     31117     31118
     31115     31114     31117     31119     31115     31114     31117     31120
     31116     31114     31117     31118     31116     31114     31117     31119
     31116     31114     31117     31120     31117     31120     31123     31124
     31117     31120     31123     31125     31117     31120     31123     31126
     31118     31117     31120     31121     31118     31117     31120     31122
     31118     31117     31120     31123     31119     31117     31120     31121
     31119     31117     31120     31122     31119     31117     31120     31123
     31120     31123     31126     31127     31120     31123     31126     31128
     31120     31123     31126     31129     31121     31120     31123     31124
     31121     31120     31123     31125     31121     31120     31123     31126
     31122     31120     31123     31124     31122     31120     31123     31125
     31122     31120     31123     31126     31123     31126     31129     31130
     31123     31126     31129     31131     31123     31126     31129     31132
     31124     31123     31126     31127     31124     31123     31126     31128
     31124     31123     31126     31129     31125     31123     31126     31127
     31125     31123     31126     31128     31125     31123     31126     31129
     31126     31129     31132     31133     31126     31129     31132     31134
     31126     31129     31132     31135     31127     31126     31129     31130
     31127     31126     31129     31131     31127     31126     31129     31132
     31128     31126     31129     31130     31128     31126     31129     31131
     31128     31126     31129     31132     31129     31132     31135     31136
     31129     31132     31135     31137     31129     31132     31135     31138
     31130     31129     31132     31133     31130     31129     31132     31134
     31130     31129     31132     31135     31131     31129     31132     31133
     31131     31129     31132     31134     31131     31129     31132     31135
     31132     31135     31138     31139     31132     31135     31138     31140
     31132     31135     31138     31141     31133     31132     31135     31136
     31133     31132     31135     31137     31133     31132     31135     31138
     31134     31132     31135     31136     31134     31132     31135     31137
     31134     31132     31135     31138     31135     31138     31141     31142
     31135     31138     31141     31143     31135     31138     31141     31144
     31136     31135     31138     31139     31136     31135     31138     31140
     31136     31135     31138     31141     31137     31135     31138     31139
     31137     31135     31138     31140     31137     31135     31138     31141
     31138     31141     31144     31145     31138     31141     31144     31146
     31138     31141     31144     31147     31139     31138     31141     31142
     31139     31138     31141     31143     31139     31138     31141     31144
     31140     31138     31141     31142     31140     31138     31141     31143
     31140     31138     31141     31144     31142     31141     31144     31145
     31142     31141     31144     31146     31142     31141     31144     31147
     31143     31141     31144     31145     31143     31141     31144     31146
     31143     31141     31144     31147     31148     31153     31155     31156
     31148     31153     31157     31158     31148     31153     31157     31159
     31148     31153     31157     31164     31149     31148     31151     31152
     31149     31148     31153     31154     31149     31148     31153     31155
     31149     31148     31153     31157     31150     31148     31151     31152
     31150     31148     31153     31154     31150     31148     31153     31155
     31150     31148     31153     31157     31151     31148     31153     31154
     31151     31148     31153     31155     31151     31148     31153     31157
     31152     31151     31148     31153     31153     31157     31164     31160
     31154     31153     31155     31156     31154     31153     31157     31158
     31154     31153     31157     31159     31154     31153     31157     31164
     31155     31153     31157     31158     31155     31153     31157     31159
     31155     31153     31157     31164     31156     31155     31153     31157
     31157     31164     31160     31161     31157     31164     31160     31162
     31157     31164     31160     31163     31158     31157     31164     31160
     31159     31157     31164     31160     31160     31163     31165     31166
     31160     31163     31165     31167     31160     31163     31165     31168
     31161     31160     31163     31165     31162     31160     31163     31165
     31163     31165     31168     31169     31163     31165     31168     31170
     31163     31165     31168     31176     31164     31160     31163     31165
     31165     31168     31170     31171     31165     31168     31176     31177
     31165     31168     31176     31178     31165     31168     31176     31179
     31166     31165     31168     31169     31166     31165     31168     31170
     31166     31165     31168     31176     31167     31165     31168     31169
     31167     31165     31168     31170     31167     31165     31168     31176
     31168     31170     31171     31172     31168     31170     31171     31173
     31168     31176     31179     31180     31169     31168     31170     31171
     31169     31168     31176     31177     31169     31168     31176     31178
     31169     31168     31176     31179     31170     31168     31176     31177
     31170     31168     31176     31178     31170     31168     31176     31179
     31170     31171     31173     31174     31170     31171     31173     31175
     31170     31171     31173     31185     31171     31170     31168     31176
     31171     31173     31185     31186     31171     31173     31185     31187
     31171     31173     31185     31188     31172     31171     31173     31174
     31172     31171     31173     31175     31172     31171     31173     31185
     31173     31185     31188     31189     31173     31185     31188     31190
     31173     31185     31188     31191     31174     31173     31185     31186
     31174     31173     31185     31187     31174     31173     31185     31188
     31175     31173     31185     31186     31175     31173     31185     31187
     31175     31173     31185     31188     31176     31179     31180     31181
     31176     31179     31180     31182     31177     31176     31179     31180
     31178     31176     31179     31180     31179     31180     31182     31183
     31179     31180     31182     31184     31179     31180     31182     31229
     31180     31182     31229     31230     31180     31182     31229     31231
     31180     31182     31229     31232     31181     31180     31182     31183
     31181     31180     31182     31184     31181     31180     31182     31229
     31182     31229     31232     31233     31182     31229     31232     31234
     31182     31229     31232     31235     31183     31182     31229     31230
     31183     31182     31229     31231     31183     31182     31229     31232
     31184     31182     31229     31230     31184     31182     31229     31231
     31184     31182     31229     31232     31185     31188     31191     31192
     31185     31188     31191     31193     31185     31188     31191     31194
     31186     31185     31188     31189     31186     31185     31188     31190
     31186     31185     31188     31191     31187     31185     31188     31189
     31187     31185     31188     31190     31187     31185     31188     31191
     31188     31191     31194     31195     31188     31191     31194     31196
     31188     31191     31194     31197     31189     31188     31191     31192
     31189     31188     31191     31193     31189     31188     31191     31194
     31190     31188     31191     31192     31190     31188     31191     31193
     31190     31188     31191     31194     31191     31194     31197     31198
     31191     31194     31197     31199     31191     31194     31197     31200
     31192     31191     31194     31195     31192     31191     31194     31196
     31192     31191     31194     31197     31193     31191     31194     31195
     31193     31191     31194     31196     31193     31191     31194     31197
     31194     31197     31200     31201     31194     31197     31200     31202
     31194     31197     31200     31203     31195     31194     31197     31198
     31195     31194     31197     31199     31195     31194     31197     31200
     31196     31194     31197     31198     31196     31194     31197     31199
     31196     31194     31197     31200     31197     31200     31203     31204
     31197     31200     31203     31205     31197     31200     31203     31208
     31198     31197     31200     31201     31198     31197     31200     31202
     31198     31197     31200     31203     31199     31197     31200     31201
     31199     31197     31200     31202     31199     31197     31200     31203
     31200     31203     31205     31206     31200     31203     31205     31207
     31200     31203     31205     31208     31200     31203     31208     31205
     31200     31203     31208     31209     31200     31203     31208     31210
     31201     31200     31203     31204     31201     31200     31203     31205
     31201     31200     31203     31208     31202     31200     31203     31204
     31202     31200     31203     31205     31202     31200     31203     31208
     31203     31205     31208     31209     31203     31205     31208     31210
     31203     31208     31205     31206     31203     31208     31205     31207
     31203     31208     31210     31211     31203     31208     31210     31212
     31203     31208     31210     31213     31204     31203     31205     31206
     31204     31203     31205     31207     31204     31203     31205     31208
     31204     31203     31208     31205     31204     31203     31208     31209
     31204     31203     31208     31210     31205     31203     31208     31209
     31205     31203     31208     31210     31205     31208     31210     31211
     31205     31208     31210     31212     31205     31208     31210     31213
     31206     31205     31203     31208     31206     31205     31208     31209
     31206     31205     31208     31210     31207     31205     31203     31208
     31207     31205     31208     31209     31207     31205     31208     31210
     31208     31210     31213     31214     31208     31210     31213     31215
     31208     31210     31213     31216     31209     31208     31210     31211
     31209     31208     31210     31212     31209     31208     31210     31213
     31210     31213     31216     31217     31210     31213     31216     31218
     31210     31213     31216     31219     31211     31210     31213     31214
     31211     31210     31213     31215     31211     31210     31213     31216
     31212     31210     31213     31214     31212     31210     31213     31215
     31212     31210     31213     31216     31213     31216     31219     31220
     31213     31216     31219     31221     31213     31216     31219     31222
     31214     31213     31216     31217     31214     31213     31216     31218
     31214     31213     31216     31219     31215     31213     31216     31217
     31215     31213     31216     31218     31215     31213     31216     31219
     31216     31219     31222     31223     31216     31219     31222     31224
     31216     31219     31222     31225     31217     31216     31219     31220
     31217     31216     31219     31221     31217     31216     31219     31222
     31218     31216     31219     31220     31218     31216     31219     31221
     31218     31216     31219     31222     31219     31222     31225     31226
     31219     31222     31225     31227     31219     31222     31225     31228
     31220     31219     31222     31223     31220     31219     31222     31224
     31220     31219     31222     31225     31221     31219     31222     31223
     31221     31219     31222     31224     31221     31219     31222     31225
     31223     31222     31225     31226     31223     31222     31225     31227
     31223     31222     31225     31228     31224     31222     31225     31226
     31224     31222     31225     31227     31224     31222     31225     31228
     31229     31232     31235     31236     31229     31232     31235     31237
     31229     31232     31235     31238     31230     31229     31232     31233
     31230     31229     31232     31234     31230     31229     31232     31235
     31231     31229     31232     31233     31231     31229     31232     31234
     31231     31229     31232     31235     31232     31235     31238     31239
     31232     31235     31238     31240     31232     31235     31238     31241
     31233     31232     31235     31236     31233     31232     31235     31237
     31233     31232     31235     31238     31234     31232     31235     31236
     31234     31232     31235     31237     31234     31232     31235     31238
     31235     31238     31241     31242     31235     31238     31241     31243
     31235     31238     31241     31244     31236     31235     31238     31239
     31236     31235     31238     31240     31236     31235     31238     31241
     31237     31235     31238     31239     31237     31235     31238     31240
     31237     31235     31238     31241     31238     31241     31244     31245
     31238     31241     31244     31246     31238     31241     31244     31247
     31239     31238     31241     31242     31239     31238     31241     31243
     31239     31238     31241     31244     31240     31238     31241     31242
     31240     31238     31241     31243     31240     31238     31241     31244
     31241     31244     31247     31248     31241     31244     31247     31249
     31241     31244     31247     31250     31242     31241     31244     31245
     31242     31241     31244     31246     31242     31241     31244     31247
     31243     31241     31244     31245     31243     31241     31244     31246
     31243     31241     31244     31247     31244     31247     31250     31251
     31244     31247     31250     31252     31244     31247     31250     31253
     31245     31244     31247     31248     31245     31244     31247     31249
     31245     31244     31247     31250     31246     31244     31247     31248
     31246     31244     31247     31249     31246     31244     31247     31250
     31247     31250     31253     31254     31247     31250     31253     31255
     31247     31250     31253     31256     31248     31247     31250     31251
     31248     31247     31250     31252     31248     31247     31250     31253
     31249     31247     31250     31251     31249     31247     31250     31252
     31249     31247     31250     31253     31250     31253     31256     31257
     31250     31253     31256     31258     31250     31253     31256     31259
     31251     31250     31253     31254     31251     31250     31253     31255
     31251     31250     31253     31256     31252     31250     31253     31254
     31252     31250     31253     31255     31252     31250     31253     31256
     31253     31256     31259     31260     31253     31256     31259     31261
     31253     31256     31259     31262     31254     31253     31256     31257
     31254     31253     31256     31258     31254     31253     31256     31259
     31255     31253     31256     31257     31255     31253     31256     31258
     31255     31253     31256     31259     31256     31259     31262     31263
     31256     31259     31262     31264     31256     31259     31262     31265
     31257     31256     31259     31260     31257     31256     31259     31261
     31257     31256     31259     31262     31258     31256     31259     31260
     31258     31256     31259     31261     31258     31256     31259     31262
     31259     31262     31265     31266     31259     31262     31265     31267
     31259     31262     31265     31268     31260     31259     31262     31263
     31260     31259     31262     31264     31260     31259     31262     31265
     31261     31259     31262     31263     31261     31259     31262     31264
     31261     31259     31262     31265     31262     31265     31268     31269
     31262     31265     31268     31270     31262     31265     31268     31271
     31263     31262     31265     31266     31263     31262     31265     31267
     31263     31262     31265     31268     31264     31262     31265     31266
     31264     31262     31265     31267     31264     31262     31265     31268
     31266     31265     31268     31269     31266     31265     31268     31270
     31266     31265     31268     31271     31267     31265     31268     31269
     31267     31265     31268     31270     31267     31265     31268     31271
     31272     31276     31279     31280     31272     31276     31279     31281
     31272     31276     31279     31286     31273     31272     31276     31277
     31273     31272     31276     31278     31273     31272     31276     31279
     31274     31272     31276     31277     31274     31272     31276     31278
     31274     31272     31276     31279     31275     31272     31276     31277
     31275     31272     31276     31278     31275     31272     31276     31279
     31276     31279     31286     31282     31277     31276     31279     31280
     31277     31276     31279     31281     31277     31276     31279     31286
     31278     31276     31279     31280     31278     31276     31279     31281
     31278     31276     31279     31286     31279     31286     31282     31283
     31279     31286     31282     31284     31279     31286     31282     31285
     31280     31279     31286     31282     31281     31279     31286     31282
     31282     31285     31287     31288     31282     31285     31287     31289
     31282     31285     31287     31290     31283     31282     31285     31287
     31284     31282     31285     31287     31285     31287     31290     31291
     31285     31287     31290     31292     31285     31287     31290     31298
     31286     31282     31285     31287     31287     31290     31292     31293
     31287     31290     31298     31299     31287     31290     31298     31300
     31287     31290     31298     31301     31288     31287     31290     31291
     31288     31287     31290     31292     31288     31287     31290     31298
     31289     31287     31290     31291     31289     31287     31290     31292
     31289     31287     31290     31298     31290     31292     31293     31294
     31290     31292     31293     31295     31290     31298     31301     31302
     31291     31290     31292     31293     31291     31290     31298     31299
     31291     31290     31298     31300     31291     31290     31298     31301
     31292     31290     31298     31299     31292     31290     31298     31300
     31292     31290     31298     31301     31292     31293     31295     31296
     31292     31293     31295     31297     31292     31293     31295     31307
     31293     31292     31290     31298     31293     31295     31307     31308
     31293     31295     31307     31309     31293     31295     31307     31310
     31294     31293     31295     31296     31294     31293     31295     31297
     31294     31293     31295     31307     31295     31307     31310     31311
     31295     31307     31310     31312     31295     31307     31310     31313
     31296     31295     31307     31308     31296     31295     31307     31309
     31296     31295     31307     31310     31297     31295     31307     31308
     31297     31295     31307     31309     31297     31295     31307     31310
     31298     31301     31302     31303     31298     31301     31302     31304
     31299     31298     31301     31302     31300     31298     31301     31302
     31301     31302     31304     31305     31301     31302     31304     31306
     31301     31302     31304     31354     31302     31304     31354     31355
     31302     31304     31354     31356     31302     31304     31354     31357
     31303     31302     31304     31305     31303     31302     31304     31306
     31303     31302     31304     31354     31304     31354     31357     31358
     31304     31354     31357     31359     31304     31354     31357     31360
     31305     31304     31354     31355     31305     31304     31354     31356
     31305     31304     31354     31357     31306     31304     31354     31355
     31306     31304     31354     31356     31306     31304     31354     31357
     31307     31310     31313     31314     31307     31310     31313     31315
     31307     31310     31313     31316     31308     31307     31310     31311
     31308     31307     31310     31312     31308     31307     31310     31313
     31309     31307     31310     31311     31309     31307     31310     31312
     31309     31307     31310     31313     31310     31313     31316     31317
     31310     31313     31316     31318     31310     31313     31316     31319
     31311     31310     31313     31314     31311     31310     31313     31315
     31311     31310     31313     31316     31312     31310     31313     31314
     31312     31310     31313     31315     31312     31310     31313     31316
     31313     31316     31319     31320     31313     31316     31319     31321
     31313     31316     31319     31322     31314     31313     31316     31317
     31314     31313     31316     31318     31314     31313     31316     31319
     31315     31313     31316     31317     31315     31313     31316     31318
     31315     31313     31316     31319     31316     31319     31322     31323
     31316     31319     31322     31324     31316     31319     31322     31325
     31317     31316     31319     31320     31317     31316     31319     31321
     31317     31316     31319     31322     31318     31316     31319     31320
     31318     31316     31319     31321     31318     31316     31319     31322
     31319     31322     31325     31326     31319     31322     31325     31327
     31320     31319     31322     31323     31320     31319     31322     31324
     31320     31319     31322     31325     31321     31319     31322     31323
     31321     31319     31322     31324     31321     31319     31322     31325
     31322     31325     31327     31328     31322     31325     31327     31329
     31323     31322     31325     31326     31323     31322     31325     31327
     31324     31322     31325     31326     31324     31322     31325     31327
     31325     31327     31329     31330     31325     31327     31329     31331
     31325     31327     31329     31332     31326     31325     31327     31328
     31326     31325     31327     31329     31327     31329     31332     31333
     31327     31329     31332     31334     31327     31329     31332     31335
     31328     31327     31329     31330     31328     31327     31329     31331
     31328     31327     31329     31332     31329     31332     31335     31336
     31329     31332     31335     31337     31329     31332     31335     31338
     31330     31329     31332     31333     31330     31329     31332     31334
     31330     31329     31332     31335     31331     31329     31332     31333
     31331     31329     31332     31334     31331     31329     31332     31335
     31332     31335     31338     31339     31332     31335     31338     31340
     31332     31335     31338     31341     31333     31332     31335     31336
     31333     31332     31335     31337     31333     31332     31335     31338
     31334     31332     31335     31336     31334     31332     31335     31337
     31334     31332     31335     31338     31335     31338     31341     31342
     31335     31338     31341     31343     31335     31338     31341     31344
     31336     31335     31338     31339     31336     31335     31338     31340
     31336     31335     31338     31341     31337     31335     31338     31339
     31337     31335     31338     31340     31337     31335     31338     31341
     31338     31341     31344     31345     31338     31341     31344     31346
     31338     31341     31344     31347     31339     31338     31341     31342
     31339     31338     31341     31343     31339     31338     31341     31344
     31340     31338     31341     31342     31340     31338     31341     31343
     31340     31338     31341     31344     31341     31344     31347     31348
     31341     31344     31347     31349     31341     31344     31347     31350
     31342     31341     31344     31345     31342     31341     31344     31346
     31342     31341     31344     31347     31343     31341     31344     31345
     31343     31341     31344     31346     31343     31341     31344     31347
     31344     31347     31350     31351     31344     31347     31350     31352
     31344     31347     31350     31353     31345     31344     31347     31348
     31345     31344     31347     31349     31345     31344     31347     31350
     31346     31344     31347     31348     31346     31344     31347     31349
     31346     31344     31347     31350     31348     31347     31350     31351
     31348     31347     31350     31352     31348     31347     31350     31353
     31349     31347     31350     31351     31349     31347     31350     31352
     31349     31347     31350     31353     31354     31357     31360     31361
     31354     31357     31360     31362     31354     31357     31360     31363
     31355     31354     31357     31358     31355     31354     31357     31359
     31355     31354     31357     31360     31356     31354     31357     31358
     31356     31354     31357     31359     31356     31354     31357     31360
     31357     31360     31363     31364     31357     31360     31363     31365
     31357     31360     31363     31366     31358     31357     31360     31361
     31358     31357     31360     31362     31358     31357     31360     31363
     31359     31357     31360     31361     31359     31357     31360     31362
     31359     31357     31360     31363     31360     31363     31366     31367
     31360     31363     31366     31368     31360     31363     31366     31369
     31361     31360     31363     31364     31361     31360     31363     31365
     31361     31360     31363     31366     31362     31360     31363     31364
     31362     31360     31363     31365     31362     31360     31363     31366
     31363     31366     31369     31370     31363     31366     31369     31371
     31363     31366     31369     31372     31364     31363     31366     31367
     31364     31363     31366     31368     31364     31363     31366     31369
     31365     31363     31366     31367     31365     31363     31366     31368
     31365     31363     31366     31369     31366     31369     31372     31373
     31366     31369     31372     31374     31366     31369     31372     31375
     31367     31366     31369     31370     31367     31366     31369     31371
     31367     31366     31369     31372     31368     31366     31369     31370
     31368     31366     31369     31371     31368     31366     31369     31372
     31369     31372     31375     31376     31369     31372     31375     31377
     31369     31372     31375     31378     31370     31369     31372     31373
     31370     31369     31372     31374     31370     31369     31372     31375
     31371     31369     31372     31373     31371     31369     31372     31374
     31371     31369     31372     31375     31372     31375     31378     31379
     31372     31375     31378     31380     31372     31375     31378     31381
     31373     31372     31375     31376     31373     31372     31375     31377
     31373     31372     31375     31378     31374     31372     31375     31376
     31374     31372     31375     31377     31374     31372     31375     31378
     31375     31378     31381     31382     31375     31378     31381     31383
     31375     31378     31381     31384     31376     31375     31378     31379
     31376     31375     31378     31380     31376     31375     31378     31381
     31377     31375     31378     31379     31377     31375     31378     31380
     31377     31375     31378     31381     31378     31381     31384     31385
     31378     31381     31384     31386     31378     31381     31384     31387
     31379     31378     31381     31382     31379     31378     31381     31383
     31379     31378     31381     31384     31380     31378     31381     31382
     31380     31378     31381     31383     31380     31378     31381     31384
     31381     31384     31387     31388     31381     31384     31387     31389
     31381     31384     31387     31390     31382     31381     31384     31385
     31382     31381     31384     31386     31382     31381     31384     31387
     31383     31381     31384     31385     31383     31381     31384     31386
     31383     31381     31384     31387     31384     31387     31390     31391
     31384     31387     31390     31392     31384     31387     31390     31393
     31385     31384     31387     31388     31385     31384     31387     31389
     31385     31384     31387     31390     31386     31384     31387     31388
     31386     31384     31387     31389     31386     31384     31387     31390
     31387     31390     31393     31394     31387     31390     31393     31395
     31387     31390     31393     31396     31388     31387     31390     31391
     31388     31387     31390     31392     31388     31387     31390     31393
     31389     31387     31390     31391     31389     31387     31390     31392
     31389     31387     31390     31393     31391     31390     31393     31394
     31391     31390     31393     31395     31391     31390     31393     31396
     31392     31390     31393     31394     31392     31390     31393     31395
     31392     31390     31393     31396     31397     31401     31404     31405
     31397     31401     31404     31406     31397     31401     31404     31411
     31398     31397     31401     31402     31398     31397     31401     31403
     31398     31397     31401     31404     31399     31397     31401     31402
     31399     31397     31401     31403     31399     31397     31401     31404
     31400     31397     31401     31402     31400     31397     31401     31403
     31400     31397     31401     31404     31401     31404     31411     31407
     31402     31401     31404     31405     31402     31401     31404     31406
     31402     31401     31404     31411     31403     31401     31404     31405
     31403     31401     31404     31406     31403     31401     31404     31411
     31404     31411     31407     31408     31404     31411     31407     31409
     31404     31411     31407     31410     31405     31404     31411     31407
     31406     31404     31411     31407     31407     31410     31412     31413
     31407     31410     31412     31414     31407     31410     31412     31415
     31408     31407     31410     31412     31409     31407     31410     31412
     31410     31412     31415     31416     31410     31412     31415     31417
     31410     31412     31415     31423     31411     31407     31410     31412
     31412     31415     31417     31418     31412     31415     31423     31424
     31412     31415     31423     31425     31412     31415     31423     31426
     31413     31412     31415     31416     31413     31412     31415     31417
     31413     31412     31415     31423     31414     31412     31415     31416
     31414     31412     31415     31417     31414     31412     31415     31423
     31415     31417     31418     31419     31415     31417     31418     31420
     31415     31423     31426     31427     31416     31415     31417     31418
     31416     31415     31423     31424     31416     31415     31423     31425
     31416     31415     31423     31426     31417     31415     31423     31424
     31417     31415     31423     31425     31417     31415     31423     31426
     31417     31418     31420     31421     31417     31418     31420     31422
     31417     31418     31420     31432     31418     31417     31415     31423
     31418     31420     31432     31433     31418     31420     31432     31434
     31418     31420     31432     31435     31419     31418     31420     31421
     31419     31418     31420     31422     31419     31418     31420     31432
     31420     31432     31435     31436     31420     31432     31435     31437
     31420     31432     31435     31438     31421     31420     31432     31433
     31421     31420     31432     31434     31421     31420     31432     31435
     31422     31420     31432     31433     31422     31420     31432     31434
     31422     31420     31432     31435     31423     31426     31427     31428
     31423     31426     31427     31429     31424     31423     31426     31427
     31425     31423     31426     31427     31426     31427     31429     31430
     31426     31427     31429     31431     31426     31427     31429     31476
     31427     31429     31476     31477     31427     31429     31476     31478
     31427     31429     31476     31479     31428     31427     31429     31430
     31428     31427     31429     31431     31428     31427     31429     31476
     31429     31476     31479     31480     31429     31476     31479     31481
     31429     31476     31479     31482     31430     31429     31476     31477
     31430     31429     31476     31478     31430     31429     31476     31479
     31431     31429     31476     31477     31431     31429     31476     31478
     31431     31429     31476     31479     31432     31435     31438     31439
     31432     31435     31438     31440     31432     31435     31438     31441
     31433     31432     31435     31436     31433     31432     31435     31437
     31433     31432     31435     31438     31434     31432     31435     31436
     31434     31432     31435     31437     31434     31432     31435     31438
     31435     31438     31441     31442     31435     31438     31441     31443
     31435     31438     31441     31444     31436     31435     31438     31439
     31436     31435     31438     31440     31436     31435     31438     31441
     31437     31435     31438     31439     31437     31435     31438     31440
     31437     31435     31438     31441     31438     31441     31444     31445
     31438     31441     31444     31446     31438     31441     31444     31447
     31439     31438     31441     31442     31439     31438     31441     31443
     31439     31438     31441     31444     31440     31438     31441     31442
     31440     31438     31441     31443     31440     31438     31441     31444
     31441     31444     31447     31448     31441     31444     31447     31449
     31441     31444     31447     31450     31442     31441     31444     31445
     31442     31441     31444     31446     31442     31441     31444     31447
     31443     31441     31444     31445     31443     31441     31444     31446
     31443     31441     31444     31447     31444     31447     31450     31451
     31444     31447     31450     31452     31444     31447     31450     31455
     31445     31444     31447     31448     31445     31444     31447     31449
     31445     31444     31447     31450     31446     31444     31447     31448
     31446     31444     31447     31449     31446     31444     31447     31450
     31447     31450     31452     31453     31447     31450     31452     31454
     31447     31450     31452     31455     31447     31450     31455     31452
     31447     31450     31455     31456     31447     31450     31455     31457
     31448     31447     31450     31451     31448     31447     31450     31452
     31448     31447     31450     31455     31449     31447     31450     31451
     31449     31447     31450     31452     31449     31447     31450     31455
     31450     31452     31455     31456     31450     31452     31455     31457
     31450     31455     31452     31453     31450     31455     31452     31454
     31450     31455     31457     31458     31450     31455     31457     31459
     31450     31455     31457     31460     31451     31450     31452     31453
     31451     31450     31452     31454     31451     31450     31452     31455
     31451     31450     31455     31452     31451     31450     31455     31456
     31451     31450     31455     31457     31452     31450     31455     31456
     31452     31450     31455     31457     31452     31455     31457     31458
     31452     31455     31457     31459     31452     31455     31457     31460
     31453     31452     31450     31455     31453     31452     31455     31456
     31453     31452     31455     31457     31454     31452     31450     31455
     31454     31452     31455     31456     31454     31452     31455     31457
     31455     31457     31460     31461     31455     31457     31460     31462
     31455     31457     31460     31463     31456     31455     31457     31458
     31456     31455     31457     31459     31456     31455     31457     31460
     31457     31460     31463     31464     31457     31460     31463     31465
     31457     31460     31463     31466     31458     31457     31460     31461
     31458     31457     31460     31462     31458     31457     31460     31463
     31459     31457     31460     31461     31459     31457     31460     31462
     31459     31457     31460     31463     31460     31463     31466     31467
     31460     31463     31466     31468     31460     31463     31466     31469
     31461     31460     31463     31464     31461     31460     31463     31465
     31461     31460     31463     31466     31462     31460     31463     31464
     31462     31460     31463     31465     31462     31460     31463     31466
     31463     31466     31469     31470     31463     31466     31469     31471
     31463     31466     31469     31472     31464     31463     31466     31467
     31464     31463     31466     31468     31464     31463     31466     31469
     31465     31463     31466     31467     31465     31463     31466     31468
     31465     31463     31466     31469     31466     31469     31472     31473
     31466     31469     31472     31474     31466     31469     31472     31475
     31467     31466     31469     31470     31467     31466     31469     31471
     31467     31466     31469     31472     31468     31466     31469     31470
     31468     31466     31469     31471     31468     31466     31469     31472
     31470     31469     31472     31473     31470     31469     31472     31474
     31470     31469     31472     31475     31471     31469     31472     31473
     31471     31469     31472     31474     31471     31469     31472     31475
     31476     31479     31482     31483     31476     31479     31482     31484
     31476     31479     31482     31485     31477     31476     31479     31480
     31477     31476     31479     31481     31477     31476     31479     31482
     31478     31476     31479     31480     31478     31476     31479     31481
     31478     31476     31479     31482     31479     31482     31485     31486
     31479     31482     31485     31487     31479     31482     31485     31488
     31480     31479     31482     31483     31480     31479     31482     31484
     31480     31479     31482     31485     31481     31479     31482     31483
     31481     31479     31482     31484     31481     31479     31482     31485
     31482     31485     31488     31489     31482     31485     31488     31490
     31482     31485     31488     31491     31483     31482     31485     31486
     31483     31482     31485     31487     31483     31482     31485     31488
     31484     31482     31485     31486     31484     31482     31485     31487
     31484     31482     31485     31488     31485     31488     31491     31492
     31485     31488     31491     31493     31485     31488     31491     31494
     31486     31485     31488     31489     31486     31485     31488     31490
     31486     31485     31488     31491     31487     31485     31488     31489
     31487     31485     31488     31490     31487     31485     31488     31491
     31488     31491     31494     31495     31488     31491     31494     31496
     31488     31491     31494     31497     31489     31488     31491     31492
     31489     31488     31491     31493     31489     31488     31491     31494
     31490     31488     31491     31492     31490     31488     31491     31493
     31490     31488     31491     31494     31491     31494     31497     31498
     31491     31494     31497     31499     31491     31494     31497     31500
     31492     31491     31494     31495     31492     31491     31494     31496
     31492     31491     31494     31497     31493     31491     31494     31495
     31493     31491     31494     31496     31493     31491     31494     31497
     31494     31497     31500     31501     31494     31497     31500     31502
     31494     31497     31500     31503     31495     31494     31497     31498
     31495     31494     31497     31499     31495     31494     31497     31500
     31496     31494     31497     31498     31496     31494     31497     31499
     31496     31494     31497     31500     31497     31500     31503     31504
     31497     31500     31503     31505     31497     31500     31503     31506
     31498     31497     31500     31501     31498     31497     31500     31502
     31498     31497     31500     31503     31499     31497     31500     31501
     31499     31497     31500     31502     31499     31497     31500     31503
     31500     31503     31506     31507     31500     31503     31506     31508
     31500     31503     31506     31509     31501     31500     31503     31504
     31501     31500     31503     31505     31501     31500     31503     31506
     31502     31500     31503     31504     31502     31500     31503     31505
     31502     31500     31503     31506     31503     31506     31509     31510
     31503     31506     31509     31511     31503     31506     31509     31512
     31504     31503     31506     31507     31504     31503     31506     31508
     31504     31503     31506     31509     31505     31503     31506     31507
     31505     31503     31506     31508     31505     31503     31506     31509
     31506     31509     31512     31513     31506     31509     31512     31514
     31506     31509     31512     31515     31507     31506     31509     31510
     31507     31506     31509     31511     31507     31506     31509     31512
     31508     31506     31509     31510     31508     31506     31509     31511
     31508     31506     31509     31512     31509     31512     31515     31516
     31509     31512     31515     31517     31509     31512     31515     31518
     31510     31509     31512     31513     31510     31509     31512     31514
     31510     31509     31512     31515     31511     31509     31512     31513
     31511     31509     31512     31514     31511     31509     31512     31515
     31513     31512     31515     31516     31513     31512     31515     31517
     31513     31512     31515     31518     31514     31512     31515     31516
     31514     31512     31515     31517     31514     31512     31515     31518
     31519     31523     31526     31527     31519     31523     31526     31528
     31519     31523     31526     31533     31520     31519     31523     31524
     31520     31519     31523     31525     31520     31519     31523     31526
     31521     31519     31523     31524     31521     31519     31523     31525
     31521     31519     31523     31526     31522     31519     31523     31524
     31522     31519     31523     31525     31522     31519     31523     31526
     31523     31526     31533     31529     31524     31523     31526     31527
     31524     31523     31526     31528     31524     31523     31526     31533
     31525     31523     31526     31527     31525     31523     31526     31528
     31525     31523     31526     31533     31526     31533     31529     31530
     31526     31533     31529     31531     31526     31533     31529     31532
     31527     31526     31533     31529     31528     31526     31533     31529
     31529     31532     31534     31535     31529     31532     31534     31536
     31529     31532     31534     31537     31530     31529     31532     31534
     31531     31529     31532     31534     31532     31534     31537     31538
     31532     31534     31537     31539     31532     31534     31537     31545
     31533     31529     31532     31534     31534     31537     31539     31540
     31534     31537     31545     31546     31534     31537     31545     31547
     31534     31537     31545     31548     31535     31534     31537     31538
     31535     31534     31537     31539     31535     31534     31537     31545
     31536     31534     31537     31538     31536     31534     31537     31539
     31536     31534     31537     31545     31537     31539     31540     31541
     31537     31539     31540     31542     31537     31545     31548     31549
     31538     31537     31539     31540     31538     31537     31545     31546
     31538     31537     31545     31547     31538     31537     31545     31548
     31539     31537     31545     31546     31539     31537     31545     31547
     31539     31537     31545     31548     31539     31540     31542     31543
     31539     31540     31542     31544     31539     31540     31542     31554
     31540     31539     31537     31545     31540     31542     31554     31555
     31540     31542     31554     31556     31540     31542     31554     31557
     31541     31540     31542     31543     31541     31540     31542     31544
     31541     31540     31542     31554     31542     31554     31557     31558
     31542     31554     31557     31559     31542     31554     31557     31560
     31543     31542     31554     31555     31543     31542     31554     31556
     31543     31542     31554     31557     31544     31542     31554     31555
     31544     31542     31554     31556     31544     31542     31554     31557
     31545     31548     31549     31550     31545     31548     31549     31551
     31546     31545     31548     31549     31547     31545     31548     31549
     31548     31549     31551     31552     31548     31549     31551     31553
     31548     31549     31551     31601     31549     31551     31601     31602
     31549     31551     31601     31603     31549     31551     31601     31604
     31550     31549     31551     31552     31550     31549     31551     31553
     31550     31549     31551     31601     31551     31601     31604     31605
     31551     31601     31604     31606     31551     31601     31604     31607
     31552     31551     31601     31602     31552     31551     31601     31603
     31552     31551     31601     31604     31553     31551     31601     31602
     31553     31551     31601     31603     31553     31551     31601     31604
     31554     31557     31560     31561     31554     31557     31560     31562
     31554     31557     31560     31563     31555     31554     31557     31558
     31555     31554     31557     31559     31555     31554     31557     31560
     31556     31554     31557     31558     31556     31554     31557     31559
     31556     31554     31557     31560     31557     31560     31563     31564
     31557     31560     31563     31565     31557     31560     31563     31566
     31558     31557     31560     31561     31558     31557     31560     31562
     31558     31557     31560     31563     31559     31557     31560     31561
     31559     31557     31560     31562     31559     31557     31560     31563
     31560     31563     31566     31567     31560     31563     31566     31568
     31560     31563     31566     31569     31561     31560     31563     31564
     31561     31560     31563     31565     31561     31560     31563     31566
     31562     31560     31563     31564     31562     31560     31563     31565
     31562     31560     31563     31566     31563     31566     31569     31570
     31563     31566     31569     31571     31563     31566     31569     31572
     31564     31563     31566     31567     31564     31563     31566     31568
     31564     31563     31566     31569     31565     31563     31566     31567
     31565     31563     31566     31568     31565     31563     31566     31569
     31566     31569     31572     31573     31566     31569     31572     31574
     31567     31566     31569     31570     31567     31566     31569     31571
     31567     31566     31569     31572     31568     31566     31569     31570
     31568     31566     31569     31571     31568     31566     31569     31572
     31569     31572     31574     31575     31569     31572     31574     31576
     31570     31569     31572     31573     31570     31569     31572     31574
     31571     31569     31572     31573     31571     31569     31572     31574
     31572     31574     31576     31577     31572     31574     31576     31578
     31572     31574     31576     31579     31573     31572     31574     31575
     31573     31572     31574     31576     31574     31576     31579     31580
     31574     31576     31579     31581     31574     31576     31579     31582
     31575     31574     31576     31577     31575     31574     31576     31578
     31575     31574     31576     31579     31576     31579     31582     31583
     31576     31579     31582     31584     31576     31579     31582     31585
     31577     31576     31579     31580     31577     31576     31579     31581
     31577     31576     31579     31582     31578     31576     31579     31580
     31578     31576     31579     31581     31578     31576     31579     31582
     31579     31582     31585     31586     31579     31582     31585     31587
     31579     31582     31585     31588     31580     31579     31582     31583
     31580     31579     31582     31584     31580     31579     31582     31585
     31581     31579     31582     31583     31581     31579     31582     31584
     31581     31579     31582     31585     31582     31585     31588     31589
     31582     31585     31588     31590     31582     31585     31588     31591
     31583     31582     31585     31586     31583     31582     31585     31587
     31583     31582     31585     31588     31584     31582     31585     31586
     31584     31582     31585     31587     31584     31582     31585     31588
     31585     31588     31591     31592     31585     31588     31591     31593
     31585     31588     31591     31594     31586     31585     31588     31589
     31586     31585     31588     31590     31586     31585     31588     31591
     31587     31585     31588     31589     31587     31585     31588     31590
     31587     31585     31588     31591     31588     31591     31594     31595
     31588     31591     31594     31596     31588     31591     31594     31597
     31589     31588     31591     31592     31589     31588     31591     31593
     31589     31588     31591     31594     31590     31588     31591     31592
     31590     31588     31591     31593     31590     31588     31591     31594
     31591     31594     31597     31598     31591     31594     31597     31599
     31591     31594     31597     31600     31592     31591     31594     31595
     31592     31591     31594     31596     31592     31591     31594     31597
     31593     31591     31594     31595     31593     31591     31594     31596
     31593     31591     31594     31597     31595     31594     31597     31598
     31595     31594     31597     31599     31595     31594     31597     31600
     31596     31594     31597     31598     31596     31594     31597     31599
     31596     31594     31597     31600     31601     31604     31607     31608
     31601     31604     31607     31609     31601     31604     31607     31610
     31602     31601     31604     31605     31602     31601     31604     31606
     31602     31601     31604     31607     31603     31601     31604     31605
     31603     31601     31604     31606     31603     31601     31604     31607
     31604     31607     31610     31611     31604     31607     31610     31612
     31604     31607     31610     31613     31605     31604     31607     31608
     31605     31604     31607     31609     31605     31604     31607     31610
     31606     31604     31607     31608     31606     31604     31607     31609
     31606     31604     31607     31610     31607     31610     31613     31614
     31607     31610     31613     31615     31607     31610     31613     31616
     31608     31607     31610     31611     31608     31607     31610     31612
     31608     31607     31610     31613     31609     31607     31610     31611
     31609     31607     31610     31612     31609     31607     31610     31613
     31610     31613     31616     31617     31610     31613     31616     31618
     31610     31613     31616     31619     31611     31610     31613     31614
     31611     31610     31613     31615     31611     31610     31613     31616
     31612     31610     31613     31614     31612     31610     31613     31615
     31612     31610     31613     31616     31613     31616     31619     31620
     31613     31616     31619     31621     31613     31616     31619     31622
     31614     31613     31616     31617     31614     31613     31616     31618
     31614     31613     31616     31619     31615     31613     31616     31617
     31615     31613     31616     31618     31615     31613     31616     31619
     31616     31619     31622     31623     31616     31619     31622     31624
     31616     31619     31622     31625     31617     31616     31619     31620
     31617     31616     31619     31621     31617     31616     31619     31622
     31618     31616     31619     31620     31618     31616     31619     31621
     31618     31616     31619     31622     31619     31622     31625     31626
     31619     31622     31625     31627     31619     31622     31625     31628
     31620     31619     31622     31623     31620     31619     31622     31624
     31620     31619     31622     31625     31621     31619     31622     31623
     31621     31619     31622     31624     31621     31619     31622     31625
     31622     31625     31628     31629     31622     31625     31628     31630
     31622     31625     31628     31631     31623     31622     31625     31626
     31623     31622     31625     31627     31623     31622     31625     31628
     31624     31622     31625     31626     31624     31622     31625     31627
     31624     31622     31625     31628     31625     31628     31631     31632
     31625     31628     31631     31633     31625     31628     31631     31634
     31626     31625     31628     31629     31626     31625     31628     31630
     31626     31625     31628     31631     31627     31625     31628     31629
     31627     31625     31628     31630     31627     31625     31628     31631
     31628     31631     31634     31635     31628     31631     31634     31636
     31628     31631     31634     31637     31629     31628     31631     31632
     31629     31628     31631     31633     31629     31628     31631     31634
     31630     31628     31631     31632     31630     31628     31631     31633
     31630     31628     31631     31634     31631     31634     31637     31638
     31631     31634     31637     31639     31631     31634     31637     31640
     31632     31631     31634     31635     31632     31631     31634     31636
     31632     31631     31634     31637     31633     31631     31634     31635
     31633     31631     31634     31636     31633     31631     31634     31637
     31634     31637     31640     31641     31634     31637     31640     31642
     31634     31637     31640     31643     31635     31634     31637     31638
     31635     31634     31637     31639     31635     31634     31637     31640
     31636     31634     31637     31638     31636     31634     31637     31639
     31636     31634     31637     31640     31638     31637     31640     31641
     31638     31637     31640     31642     31638     31637     31640     31643
     31639     31637     31640     31641     31639     31637     31640     31642
     31639     31637     31640     31643     31644     31648     31651     31652
     31644     31648     31651     31653     31644     31648     31651     31658
     31645     31644     31648     31649     31645     31644     31648     31650
     31645     31644     31648     31651     31646     31644     31648     31649
     31646     31644     31648     31650     31646     31644     31648     31651
     31647     31644     31648     31649     31647     31644     31648     31650
     31647     31644     31648     31651     31648     31651     31658     31654
     31649     31648     31651     31652     31649     31648     31651     31653
     31649     31648     31651     31658     31650     31648     31651     31652
     31650     31648     31651     31653     31650     31648     31651     31658
     31651     31658     31654     31655     31651     31658     31654     31656
     31651     31658     31654     31657     31652     31651     31658     31654
     31653     31651     31658     31654     31654     31657     31659     31660
     31654     31657     31659     31661     31654     31657     31659     31662
     31655     31654     31657     31659     31656     31654     31657     31659
     31657     31659     31662     31663     31657     31659     31662     31664
     31657     31659     31662     31670     31658     31654     31657     31659
     31659     31662     31664     31665     31659     31662     31670     31671
     31659     31662     31670     31672     31659     31662     31670     31673
     31660     31659     31662     31663     31660     31659     31662     31664
     31660     31659     31662     31670     31661     31659     31662     31663
     31661     31659     31662     31664     31661     31659     31662     31670
     31662     31664     31665     31666     31662     31664     31665     31667
     31662     31670     31673     31674     31663     31662     31664     31665
     31663     31662     31670     31671     31663     31662     31670     31672
     31663     31662     31670     31673     31664     31662     31670     31671
     31664     31662     31670     31672     31664     31662     31670     31673
     31664     31665     31667     31668     31664     31665     31667     31669
     31664     31665     31667     31679     31665     31664     31662     31670
     31665     31667     31679     31680     31665     31667     31679     31681
     31665     31667     31679     31682     31666     31665     31667     31668
     31666     31665     31667     31669     31666     31665     31667     31679
     31667     31679     31682     31683     31667     31679     31682     31684
     31667     31679     31682     31685     31668     31667     31679     31680
     31668     31667     31679     31681     31668     31667     31679     31682
     31669     31667     31679     31680     31669     31667     31679     31681
     31669     31667     31679     31682     31670     31673     31674     31675
     31670     31673     31674     31676     31671     31670     31673     31674
     31672     31670     31673     31674     31673     31674     31676     31677
     31673     31674     31676     31678     31673     31674     31676     31723
     31674     31676     31723     31724     31674     31676     31723     31725
     31674     31676     31723     31726     31675     31674     31676     31677
     31675     31674     31676     31678     31675     31674     31676     31723
     31676     31723     31726     31727     31676     31723     31726     31728
     31676     31723     31726     31729     31677     31676     31723     31724
     31677     31676     31723     31725     31677     31676     31723     31726
     31678     31676     31723     31724     31678     31676     31723     31725
     31678     31676     31723     31726     31679     31682     31685     31686
     31679     31682     31685     31687     31679     31682     31685     31688
     31680     31679     31682     31683     31680     31679     31682     31684
     31680     31679     31682     31685     31681     31679     31682     31683
     31681     31679     31682     31684     31681     31679     31682     31685
     31682     31685     31688     31689     31682     31685     31688     31690
     31682     31685     31688     31691     31683     31682     31685     31686
     31683     31682     31685     31687     31683     31682     31685     31688
     31684     31682     31685     31686     31684     31682     31685     31687
     31684     31682     31685     31688     31685     31688     31691     31692
     31685     31688     31691     31693     31685     31688     31691     31694
     31686     31685     31688     31689     31686     31685     31688     31690
     31686     31685     31688     31691     31687     31685     31688     31689
     31687     31685     31688     31690     31687     31685     31688     31691
     31688     31691     31694     31695     31688     31691     31694     31696
     31688     31691     31694     31697     31689     31688     31691     31692
     31689     31688     31691     31693     31689     31688     31691     31694
     31690     31688     31691     31692     31690     31688     31691     31693
     31690     31688     31691     31694     31691     31694     31697     31698
     31691     31694     31697     31699     31691     31694     31697     31702
     31692     31691     31694     31695     31692     31691     31694     31696
     31692     31691     31694     31697     31693     31691     31694     31695
     31693     31691     31694     31696     31693     31691     31694     31697
     31694     31697     31699     31700     31694     31697     31699     31701
     31694     31697     31699     31702     31694     31697     31702     31699
     31694     31697     31702     31703     31694     31697     31702     31704
     31695     31694     31697     31698     31695     31694     31697     31699
     31695     31694     31697     31702     31696     31694     31697     31698
     31696     31694     31697     31699     31696     31694     31697     31702
     31697     31699     31702     31703     31697     31699     31702     31704
     31697     31702     31699     31700     31697     31702     31699     31701
     31697     31702     31704     31705     31697     31702     31704     31706
     31697     31702     31704     31707     31698     31697     31699     31700
     31698     31697     31699     31701     31698     31697     31699     31702
     31698     31697     31702     31699     31698     31697     31702     31703
     31698     31697     31702     31704     31699     31697     31702     31703
     31699     31697     31702     31704     31699     31702     31704     31705
     31699     31702     31704     31706     31699     31702     31704     31707
     31700     31699     31697     31702     31700     31699     31702     31703
     31700     31699     31702     31704     31701     31699     31697     31702
     31701     31699     31702     31703     31701     31699     31702     31704
     31702     31704     31707     31708     31702     31704     31707     31709
     31702     31704     31707     31710     31703     31702     31704     31705
     31703     31702     31704     31706     31703     31702     31704     31707
     31704     31707     31710     31711     31704     31707     31710     31712
     31704     31707     31710     31713     31705     31704     31707     31708
     31705     31704     31707     31709     31705     31704     31707     31710
     31706     31704     31707     31708     31706     31704     31707     31709
     31706     31704     31707     31710     31707     31710     31713     31714
     31707     31710     31713     31715     31707     31710     31713     31716
     31708     31707     31710     31711     31708     31707     31710     31712
     31708     31707     31710     31713     31709     31707     31710     31711
     31709     31707     31710     31712     31709     31707     31710     31713
     31710     31713     31716     31717     31710     31713     31716     31718
     31710     31713     31716     31719     31711     31710     31713     31714
     31711     31710     31713     31715     31711     31710     31713     31716
     31712     31710     31713     31714     31712     31710     31713     31715
     31712     31710     31713     31716     31713     31716     31719     31720
     31713     31716     31719     31721     31713     31716     31719     31722
     31714     31713     31716     31717     31714     31713     31716     31718
     31714     31713     31716     31719     31715     31713     31716     31717
     31715     31713     31716     31718     31715     31713     31716     31719
     31717     31716     31719     31720     31717     31716     31719     31721
     31717     31716     31719     31722     31718     31716     31719     31720
     31718     31716     31719     31721     31718     31716     31719     31722
     31723     31726     31729     31730     31723     31726     31729     31731
     31723     31726     31729     31732     31724     31723     31726     31727
     31724     31723     31726     31728     31724     31723     31726     31729
     31725     31723     31726     31727     31725     31723     31726     31728
     31725     31723     31726     31729     31726     31729     31732     31733
     31726     31729     31732     31734     31726     31729     31732     31735
     31727     31726     31729     31730     31727     31726     31729     31731
     31727     31726     31729     31732     31728     31726     31729     31730
     31728     31726     31729     31731     31728     31726     31729     31732
     31729     31732     31735     31736     31729     31732     31735     31737
     31729     31732     31735     31738     31730     31729     31732     31733
     31730     31729     31732     31734     31730     31729     31732     31735
     31731     31729     31732     31733     31731     31729     31732     31734
     31731     31729     31732     31735     31732     31735     31738     31739
     31732     31735     31738     31740     31732     31735     31738     31741
     31733     31732     31735     31736     31733     31732     31735     31737
     31733     31732     31735     31738     31734     31732     31735     31736
     31734     31732     31735     31737     31734     31732     31735     31738
     31735     31738     31741     31742     31735     31738     31741     31743
     31735     31738     31741     31744     31736     31735     31738     31739
     31736     31735     31738     31740     31736     31735     31738     31741
     31737     31735     31738     31739     31737     31735     31738     31740
     31737     31735     31738     31741     31738     31741     31744     31745
     31738     31741     31744     31746     31738     31741     31744     31747
     31739     31738     31741     31742     31739     31738     31741     31743
     31739     31738     31741     31744     31740     31738     31741     31742
     31740     31738     31741     31743     31740     31738     31741     31744
     31741     31744     31747     31748     31741     31744     31747     31749
     31741     31744     31747     31750     31742     31741     31744     31745
     31742     31741     31744     31746     31742     31741     31744     31747
     31743     31741     31744     31745     31743     31741     31744     31746
     31743     31741     31744     31747     31744     31747     31750     31751
     31744     31747     31750     31752     31744     31747     31750     31753
     31745     31744     31747     31748     31745     31744     31747     31749
     31745     31744     31747     31750     31746     31744     31747     31748
     31746     31744     31747     31749     31746     31744     31747     31750
     31747     31750     31753     31754     31747     31750     31753     31755
     31747     31750     31753     31756     31748     31747     31750     31751
     31748     31747     31750     31752     31748     31747     31750     31753
     31749     31747     31750     31751     31749     31747     31750     31752
     31749     31747     31750     31753     31750     31753     31756     31757
     31750     31753     31756     31758     31750     31753     31756     31759
     31751     31750     31753     31754     31751     31750     31753     31755
     31751     31750     31753     31756     31752     31750     31753     31754
     31752     31750     31753     31755     31752     31750     31753     31756
     31753     31756     31759     31760     31753     31756     31759     31761
     31753     31756     31759     31762     31754     31753     31756     31757
     31754     31753     31756     31758     31754     31753     31756     31759
     31755     31753     31756     31757     31755     31753     31756     31758
     31755     31753     31756     31759     31756     31759     31762     31763
     31756     31759     31762     31764     31756     31759     31762     31765
     31757     31756     31759     31760     31757     31756     31759     31761
     31757     31756     31759     31762     31758     31756     31759     31760
     31758     31756     31759     31761     31758     31756     31759     31762
     31760     31759     31762     31763     31760     31759     31762     31764
     31760     31759     31762     31765     31761     31759     31762     31763
     31761     31759     31762     31764     31761     31759     31762     31765
     31766     31770     31773     31774     31766     31770     31773     31775
     31766     31770     31773     31780     31767     31766     31770     31771
     31767     31766     31770     31772     31767     31766     31770     31773
     31768     31766     31770     31771     31768     31766     31770     31772
     31768     31766     31770     31773     31769     31766     31770     31771
     31769     31766     31770     31772     31769     31766     31770     31773
     31770     31773     31780     31776     31771     31770     31773     31774
     31771     31770     31773     31775     31771     31770     31773     31780
     31772     31770     31773     31774     31772     31770     31773     31775
     31772     31770     31773     31780     31773     31780     31776     31777
     31773     31780     31776     31778     31773     31780     31776     31779
     31774     31773     31780     31776     31775     31773     31780     31776
     31776     31779     31781     31782     31776     31779     31781     31783
     31776     31779     31781     31784     31777     31776     31779     31781
     31778     31776     31779     31781     31779     31781     31784     31785
     31779     31781     31784     31786     31779     31781     31784     31792
     31780     31776     31779     31781     31781     31784     31786     31787
     31781     31784     31792     31793     31781     31784     31792     31794
     31781     31784     31792     31795     31782     31781     31784     31785
     31782     31781     31784     31786     31782     31781     31784     31792
     31783     31781     31784     31785     31783     31781     31784     31786
     31783     31781     31784     31792     31784     31786     31787     31788
     31784     31786     31787     31789     31784     31792     31795     31796
     31785     31784     31786     31787     31785     31784     31792     31793
     31785     31784     31792     31794     31785     31784     31792     31795
     31786     31784     31792     31793     31786     31784     31792     31794
     31786     31784     31792     31795     31786     31787     31789     31790
     31786     31787     31789     31791     31786     31787     31789     31801
     31787     31786     31784     31792     31787     31789     31801     31802
     31787     31789     31801     31803     31787     31789     31801     31804
     31788     31787     31789     31790     31788     31787     31789     31791
     31788     31787     31789     31801     31789     31801     31804     31805
     31789     31801     31804     31806     31789     31801     31804     31807
     31790     31789     31801     31802     31790     31789     31801     31803
     31790     31789     31801     31804     31791     31789     31801     31802
     31791     31789     31801     31803     31791     31789     31801     31804
     31792     31795     31796     31797     31792     31795     31796     31798
     31793     31792     31795     31796     31794     31792     31795     31796
     31795     31796     31798     31799     31795     31796     31798     31800
     31795     31796     31798     31845     31796     31798     31845     31846
     31796     31798     31845     31847     31796     31798     31845     31848
     31797     31796     31798     31799     31797     31796     31798     31800
     31797     31796     31798     31845     31798     31845     31848     31849
     31798     31845     31848     31850     31798     31845     31848     31851
     31799     31798     31845     31846     31799     31798     31845     31847
     31799     31798     31845     31848     31800     31798     31845     31846
     31800     31798     31845     31847     31800     31798     31845     31848
     31801     31804     31807     31808     31801     31804     31807     31809
     31801     31804     31807     31810     31802     31801     31804     31805
     31802     31801     31804     31806     31802     31801     31804     31807
     31803     31801     31804     31805     31803     31801     31804     31806
     31803     31801     31804     31807     31804     31807     31810     31811
     31804     31807     31810     31812     31804     31807     31810     31813
     31805     31804     31807     31808     31805     31804     31807     31809
     31805     31804     31807     31810     31806     31804     31807     31808
     31806     31804     31807     31809     31806     31804     31807     31810
     31807     31810     31813     31814     31807     31810     31813     31815
     31807     31810     31813     31816     31808     31807     31810     31811
     31808     31807     31810     31812     31808     31807     31810     31813
     31809     31807     31810     31811     31809     31807     31810     31812
     31809     31807     31810     31813     31810     31813     31816     31817
     31810     31813     31816     31818     31810     31813     31816     31819
     31811     31810     31813     31814     31811     31810     31813     31815
     31811     31810     31813     31816     31812     31810     31813     31814
     31812     31810     31813     31815     31812     31810     31813     31816
     31813     31816     31819     31820     31813     31816     31819     31821
     31813     31816     31819     31824     31814     31813     31816     31817
     31814     31813     31816     31818     31814     31813     31816     31819
     31815     31813     31816     31817     31815     31813     31816     31818
     31815     31813     31816     31819     31816     31819     31821     31822
     31816     31819     31821     31823     31816     31819     31821     31824
     31816     31819     31824     31821     31816     31819     31824     31825
     31816     31819     31824     31826     31817     31816     31819     31820
     31817     31816     31819     31821     31817     31816     31819     31824
     31818     31816     31819     31820     31818     31816     31819     31821
     31818     31816     31819     31824     31819     31821     31824     31825
     31819     31821     31824     31826     31819     31824     31821     31822
     31819     31824     31821     31823     31819     31824     31826     31827
     31819     31824     31826     31828     31819     31824     31826     31829
     31820     31819     31821     31822     31820     31819     31821     31823
     31820     31819     31821     31824     31820     31819     31824     31821
     31820     31819     31824     31825     31820     31819     31824     31826
     31821     31819     31824     31825     31821     31819     31824     31826
     31821     31824     31826     31827     31821     31824     31826     31828
     31821     31824     31826     31829     31822     31821     31819     31824
     31822     31821     31824     31825     31822     31821     31824     31826
     31823     31821     31819     31824     31823     31821     31824     31825
     31823     31821     31824     31826     31824     31826     31829     31830
     31824     31826     31829     31831     31824     31826     31829     31832
     31825     31824     31826     31827     31825     31824     31826     31828
     31825     31824     31826     31829     31826     31829     31832     31833
     31826     31829     31832     31834     31826     31829     31832     31835
     31827     31826     31829     31830     31827     31826     31829     31831
     31827     31826     31829     31832     31828     31826     31829     31830
     31828     31826     31829     31831     31828     31826     31829     31832
     31829     31832     31835     31836     31829     31832     31835     31837
     31829     31832     31835     31838     31830     31829     31832     31833
     31830     31829     31832     31834     31830     31829     31832     31835
     31831     31829     31832     31833     31831     31829     31832     31834
     31831     31829     31832     31835     31832     31835     31838     31839
     31832     31835     31838     31840     31832     31835     31838     31841
     31833     31832     31835     31836     31833     31832     31835     31837
     31833     31832     31835     31838     31834     31832     31835     31836
     31834     31832     31835     31837     31834     31832     31835     31838
     31835     31838     31841     31842     31835     31838     31841     31843
     31835     31838     31841     31844     31836     31835     31838     31839
     31836     31835     31838     31840     31836     31835     31838     31841
     31837     31835     31838     31839     31837     31835     31838     31840
     31837     31835     31838     31841     31839     31838     31841     31842
     31839     31838     31841     31843     31839     31838     31841     31844
     31840     31838     31841     31842     31840     31838     31841     31843
     31840     31838     31841     31844     31845     31848     31851     31852
     31845     31848     31851     31853     31845     31848     31851     31854
     31846     31845     31848     31849     31846     31845     31848     31850
     31846     31845     31848     31851     31847     31845     31848     31849
     31847     31845     31848     31850     31847     31845     31848     31851
     31848     31851     31854     31855     31848     31851     31854     31856
     31848     31851     31854     31857     31849     31848     31851     31852
     31849     31848     31851     31853     31849     31848     31851     31854
     31850     31848     31851     31852     31850     31848     31851     31853
     31850     31848     31851     31854     31851     31854     31857     31858
     31851     31854     31857     31859     31851     31854     31857     31860
     31852     31851     31854     31855     31852     31851     31854     31856
     31852     31851     31854     31857     31853     31851     31854     31855
     31853     31851     31854     31856     31853     31851     31854     31857
     31854     31857     31860     31861     31854     31857     31860     31862
     31854     31857     31860     31863     31855     31854     31857     31858
     31855     31854     31857     31859     31855     31854     31857     31860
     31856     31854     31857     31858     31856     31854     31857     31859
     31856     31854     31857     31860     31857     31860     31863     31864
     31857     31860     31863     31865     31857     31860     31863     31866
     31858     31857     31860     31861     31858     31857     31860     31862
     31858     31857     31860     31863     31859     31857     31860     31861
     31859     31857     31860     31862     31859     31857     31860     31863
     31860     31863     31866     31867     31860     31863     31866     31868
     31860     31863     31866     31869     31861     31860     31863     31864
     31861     31860     31863     31865     31861     31860     31863     31866
     31862     31860     31863     31864     31862     31860     31863     31865
     31862     31860     31863     31866     31863     31866     31869     31870
     31863     31866     31869     31871     31863     31866     31869     31872
     31864     31863     31866     31867     31864     31863     31866     31868
     31864     31863     31866     31869     31865     31863     31866     31867
     31865     31863     31866     31868     31865     31863     31866     31869
     31866     31869     31872     31873     31866     31869     31872     31874
     31866     31869     31872     31875     31867     31866     31869     31870
     31867     31866     31869     31871     31867     31866     31869     31872
     31868     31866     31869     31870     31868     31866     31869     31871
     31868     31866     31869     31872     31869     31872     31875     31876
     31869     31872     31875     31877     31869     31872     31875     31878
     31870     31869     31872     31873     31870     31869     31872     31874
     31870     31869     31872     31875     31871     31869     31872     31873
     31871     31869     31872     31874     31871     31869     31872     31875
     31872     31875     31878     31879     31872     31875     31878     31880
     31872     31875     31878     31881     31873     31872     31875     31876
     31873     31872     31875     31877     31873     31872     31875     31878
     31874     31872     31875     31876     31874     31872     31875     31877
     31874     31872     31875     31878     31875     31878     31881     31882
     31875     31878     31881     31883     31875     31878     31881     31884
     31876     31875     31878     31879     31876     31875     31878     31880
     31876     31875     31878     31881     31877     31875     31878     31879
     31877     31875     31878     31880     31877     31875     31878     31881
     31878     31881     31884     31885     31878     31881     31884     31886
     31878     31881     31884     31887     31879     31878     31881     31882
     31879     31878     31881     31883     31879     31878     31881     31884
     31880     31878     31881     31882     31880     31878     31881     31883
     31880     31878     31881     31884     31882     31881     31884     31885
     31882     31881     31884     31886     31882     31881     31884     31887
     31883     31881     31884     31885     31883     31881     31884     31886
     31883     31881     31884     31887     31888     31892     31895     31896
     31888     31892     31895     31897     31888     31892     31895     31902
     31889     31888     31892     31893     31889     31888     31892     31894
     31889     31888     31892     31895     31890     31888     31892     31893
     31890     31888     31892     31894     31890     31888     31892     31895
     31891     31888     31892     31893     31891     31888     31892     31894
     31891     31888     31892     31895     31892     31895     31902     31898
     31893     31892     31895     31896     31893     31892     31895     31897
     31893     31892     31895     31902     31894     31892     31895     31896
     31894     31892     31895     31897     31894     31892     31895     31902
     31895     31902     31898     31899     31895     31902     31898     31900
     31895     31902     31898     31901     31896     31895     31902     31898
     31897     31895     31902     31898     31898     31901     31903     31904
     31898     31901     31903     31905     31898     31901     31903     31906
     31899     31898     31901     31903     31900     31898     31901     31903
     31901     31903     31906     31907     31901     31903     31906     31908
     31901     31903     31906     31914     31902     31898     31901     31903
     31903     31906     31908     31909     31903     31906     31914     31915
     31903     31906     31914     31916     31903     31906     31914     31917
     31904     31903     31906     31907     31904     31903     31906     31908
     31904     31903     31906     31914     31905     31903     31906     31907
     31905     31903     31906     31908     31905     31903     31906     31914
     31906     31908     31909     31910     31906     31908     31909     31911
     31906     31914     31917     31918     31907     31906     31908     31909
     31907     31906     31914     31915     31907     31906     31914     31916
     31907     31906     31914     31917     31908     31906     31914     31915
     31908     31906     31914     31916     31908     31906     31914     31917
     31908     31909     31911     31912     31908     31909     31911     31913
     31908     31909     31911     31923     31909     31908     31906     31914
     31909     31911     31923     31924     31909     31911     31923     31925
     31909     31911     31923     31926     31910     31909     31911     31912
     31910     31909     31911     31913     31910     31909     31911     31923
     31911     31923     31926     31927     31911     31923     31926     31928
     31911     31923     31926     31929     31912     31911     31923     31924
     31912     31911     31923     31925     31912     31911     31923     31926
     31913     31911     31923     31924     31913     31911     31923     31925
     31913     31911     31923     31926     31914     31917     31918     31919
     31914     31917     31918     31920     31915     31914     31917     31918
     31916     31914     31917     31918     31917     31918     31920     31921
     31917     31918     31920     31922     31917     31918     31920     31964
     31918     31920     31964     31965     31918     31920     31964     31966
     31918     31920     31964     31967     31919     31918     31920     31921
     31919     31918     31920     31922     31919     31918     31920     31964
     31920     31964     31967     31968     31920     31964     31967     31969
     31920     31964     31967     31970     31921     31920     31964     31965
     31921     31920     31964     31966     31921     31920     31964     31967
     31922     31920     31964     31965     31922     31920     31964     31966
     31922     31920     31964     31967     31923     31926     31929     31930
     31923     31926     31929     31931     31923     31926     31929     31932
     31924     31923     31926     31927     31924     31923     31926     31928
     31924     31923     31926     31929     31925     31923     31926     31927
     31925     31923     31926     31928     31925     31923     31926     31929
     31926     31929     31932     31933     31926     31929     31932     31934
     31926     31929     31932     31935     31927     31926     31929     31930
     31927     31926     31929     31931     31927     31926     31929     31932
     31928     31926     31929     31930     31928     31926     31929     31931
     31928     31926     31929     31932     31929     31932     31935     31936
     31929     31932     31935     31937     31929     31932     31935     31938
     31930     31929     31932     31933     31930     31929     31932     31934
     31930     31929     31932     31935     31931     31929     31932     31933
     31931     31929     31932     31934     31931     31929     31932     31935
     31932     31935     31938     31939     31932     31935     31938     31940
     31932     31935     31938     31941     31933     31932     31935     31936
     31933     31932     31935     31937     31933     31932     31935     31938
     31934     31932     31935     31936     31934     31932     31935     31937
     31934     31932     31935     31938     31935     31938     31941     31942
     31935     31938     31941     31943     31936     31935     31938     31939
     31936     31935     31938     31940     31936     31935     31938     31941
     31937     31935     31938     31939     31937     31935     31938     31940
     31937     31935     31938     31941     31938     31941     31943     31944
     31938     31941     31943     31945     31939     31938     31941     31942
     31939     31938     31941     31943     31940     31938     31941     31942
     31940     31938     31941     31943     31941     31943     31945     31946
     31941     31943     31945     31947     31941     31943     31945     31948
     31942     31941     31943     31944     31942     31941     31943     31945
     31943     31945     31948     31949     31943     31945     31948     31950
     31943     31945     31948     31951     31944     31943     31945     31946
     31944     31943     31945     31947     31944     31943     31945     31948
     31945     31948     31951     31952     31945     31948     31951     31953
     31945     31948     31951     31954     31946     31945     31948     31949
     31946     31945     31948     31950     31946     31945     31948     31951
     31947     31945     31948     31949     31947     31945     31948     31950
     31947     31945     31948     31951     31948     31951     31954     31955
     31948     31951     31954     31956     31948     31951     31954     31957
     31949     31948     31951     31952     31949     31948     31951     31953
     31949     31948     31951     31954     31950     31948     31951     31952
     31950     31948     31951     31953     31950     31948     31951     31954
     31951     31954     31957     31958     31951     31954     31957     31959
     31951     31954     31957     31960     31952     31951     31954     31955
     31952     31951     31954     31956     31952     31951     31954     31957
     31953     31951     31954     31955     31953     31951     31954     31956
     31953     31951     31954     31957     31954     31957     31960     31961
     31954     31957     31960     31962     31954     31957     31960     31963
     31955     31954     31957     31958     31955     31954     31957     31959
     31955     31954     31957     31960     31956     31954     31957     31958
     31956     31954     31957     31959     31956     31954     31957     31960
     31958     31957     31960     31961     31958     31957     31960     31962
     31958     31957     31960     31963     31959     31957     31960     31961
     31959     31957     31960     31962     31959     31957     31960     31963
     31964     31967     31970     31971     31964     31967     31970     31972
     31964     31967     31970     31973     31965     31964     31967     31968
     31965     31964     31967     31969     31965     31964     31967     31970
     31966     31964     31967     31968     31966     31964     31967     31969
     31966     31964     31967     31970     31967     31970     31973     31974
     31967     31970     31973     31975     31967     31970     31973     31976
     31968     31967     31970     31971     31968     31967     31970     31972
     31968     31967     31970     31973     31969     31967     31970     31971
     31969     31967     31970     31972     31969     31967     31970     31973
     31970     31973     31976     31977     31970     31973     31976     31978
     31970     31973     31976     31979     31971     31970     31973     31974
     31971     31970     31973     31975     31971     31970     31973     31976
     31972     31970     31973     31974     31972     31970     31973     31975
     31972     31970     31973     31976     31973     31976     31979     31980
     31973     31976     31979     31981     31973     31976     31979     31982
     31974     31973     31976     31977     31974     31973     31976     31978
     31974     31973     31976     31979     31975     31973     31976     31977
     31975     31973     31976     31978     31975     31973     31976     31979
     31976     31979     31982     31983     31976     31979     31982     31984
     31977     31976     31979     31980     31977     31976     31979     31981
     31977     31976     31979     31982     31978     31976     31979     31980
     31978     31976     31979     31981     31978     31976     31979     31982
     31979     31982     31984     31985     31979     31982     31984     31986
     31980     31979     31982     31983     31980     31979     31982     31984
     31981     31979     31982     31983     31981     31979     31982     31984
     31982     31984     31986     31987     31982     31984     31986     31988
     31982     31984     31986     31989     31983     31982     31984     31985
     31983     31982     31984     31986     31984     31986     31989     31990
     31984     31986     31989     31991     31984     31986     31989     31992
     31985     31984     31986     31987     31985     31984     31986     31988
     31985     31984     31986     31989     31986     31989     31992     31993
     31986     31989     31992     31994     31986     31989     31992     31995
     31987     31986     31989     31990     31987     31986     31989     31991
     31987     31986     31989     31992     31988     31986     31989     31990
     31988     31986     31989     31991     31988     31986     31989     31992
     31989     31992     31995     31996     31989     31992     31995     31997
     31989     31992     31995     31998     31990     31989     31992     31993
     31990     31989     31992     31994     31990     31989     31992     31995
     31991     31989     31992     31993     31991     31989     31992     31994
     31991     31989     31992     31995     31992     31995     31998     31999
     31992     31995     31998     32000     31992     31995     31998     32001
     31993     31992     31995     31996     31993     31992     31995     31997
     31993     31992     31995     31998     31994     31992     31995     31996
     31994     31992     31995     31997     31994     31992     31995     31998
     31995     31998     32001     32002     31995     31998     32001     32003
     31995     31998     32001     32004     31996     31995     31998     31999
     31996     31995     31998     32000     31996     31995     31998     32001
     31997     31995     31998     31999     31997     31995     31998     32000
     31997     31995     31998     32001     31998     32001     32004     32005
     31998     32001     32004     32006     31998     32001     32004     32007
     31999     31998     32001     32002     31999     31998     32001     32003
     31999     31998     32001     32004     32000     31998     32001     32002
     32000     31998     32001     32003     32000     31998     32001     32004
     32001     32004     32007     32008     32001     32004     32007     32009
     32001     32004     32007     32010     32002     32001     32004     32005
     32002     32001     32004     32006     32002     32001     32004     32007
     32003     32001     32004     32005     32003     32001     32004     32006
     32003     32001     32004     32007     32005     32004     32007     32008
     32005     32004     32007     32009     32005     32004     32007     32010
     32006     32004     32007     32008     32006     32004     32007     32009
     32006     32004     32007     32010     32011     32015     32018     32019
     32011     32015     32018     32020     32011     32015     32018     32025
     32012     32011     32015     32016     32012     32011     32015     32017
     32012     32011     32015     32018     32013     32011     32015     32016
     32013     32011     32015     32017     32013     32011     32015     32018
     32014     32011     32015     32016     32014     32011     32015     32017
     32014     32011     32015     32018     32015     32018     32025     32021
     32016     32015     32018     32019     32016     32015     32018     32020
     32016     32015     32018     32025     32017     32015     32018     32019
     32017     32015     32018     32020     32017     32015     32018     32025
     32018     32025     32021     32022     32018     32025     32021     32023
     32018     32025     32021     32024     32019     32018     32025     32021
     32020     32018     32025     32021     32021     32024     32026     32027
     32021     32024     32026     32028     32021     32024     32026     32029
     32022     32021     32024     32026     32023     32021     32024     32026
     32024     32026     32029     32030     32024     32026     32029     32031
     32024     32026     32029     32037     32025     32021     32024     32026
     32026     32029     32031     32032     32026     32029     32037     32038
     32026     32029     32037     32039     32026     32029     32037     32040
     32027     32026     32029     32030     32027     32026     32029     32031
     32027     32026     32029     32037     32028     32026     32029     32030
     32028     32026     32029     32031     32028     32026     32029     32037
     32029     32031     32032     32033     32029     32031     32032     32034
     32029     32037     32040     32041     32030     32029     32031     32032
     32030     32029     32037     32038     32030     32029     32037     32039
     32030     32029     32037     32040     32031     32029     32037     32038
     32031     32029     32037     32039     32031     32029     32037     32040
     32031     32032     32034     32035     32031     32032     32034     32036
     32031     32032     32034     32046     32032     32031     32029     32037
     32032     32034     32046     32047     32032     32034     32046     32048
     32032     32034     32046     32049     32033     32032     32034     32035
     32033     32032     32034     32036     32033     32032     32034     32046
     32034     32046     32049     32050     32034     32046     32049     32051
     32034     32046     32049     32052     32035     32034     32046     32047
     32035     32034     32046     32048     32035     32034     32046     32049
     32036     32034     32046     32047     32036     32034     32046     32048
     32036     32034     32046     32049     32037     32040     32041     32042
     32037     32040     32041     32043     32038     32037     32040     32041
     32039     32037     32040     32041     32040     32041     32043     32044
     32040     32041     32043     32045     32040     32041     32043     32090
     32041     32043     32090     32091     32041     32043     32090     32092
     32041     32043     32090     32093     32042     32041     32043     32044
     32042     32041     32043     32045     32042     32041     32043     32090
     32043     32090     32093     32094     32043     32090     32093     32095
     32043     32090     32093     32096     32044     32043     32090     32091
     32044     32043     32090     32092     32044     32043     32090     32093
     32045     32043     32090     32091     32045     32043     32090     32092
     32045     32043     32090     32093     32046     32049     32052     32053
     32046     32049     32052     32054     32046     32049     32052     32055
     32047     32046     32049     32050     32047     32046     32049     32051
     32047     32046     32049     32052     32048     32046     32049     32050
     32048     32046     32049     32051     32048     32046     32049     32052
     32049     32052     32055     32056     32049     32052     32055     32057
     32049     32052     32055     32058     32050     32049     32052     32053
     32050     32049     32052     32054     32050     32049     32052     32055
     32051     32049     32052     32053     32051     32049     32052     32054
     32051     32049     32052     32055     32052     32055     32058     32059
     32052     32055     32058     32060     32052     32055     32058     32061
     32053     32052     32055     32056     32053     32052     32055     32057
     32053     32052     32055     32058     32054     32052     32055     32056
     32054     32052     32055     32057     32054     32052     32055     32058
     32055     32058     32061     32062     32055     32058     32061     32063
     32055     32058     32061     32064     32056     32055     32058     32059
     32056     32055     32058     32060     32056     32055     32058     32061
     32057     32055     32058     32059     32057     32055     32058     32060
     32057     32055     32058     32061     32058     32061     32064     32065
     32058     32061     32064     32066     32058     32061     32064     32069
     32059     32058     32061     32062     32059     32058     32061     32063
     32059     32058     32061     32064     32060     32058     32061     32062
     32060     32058     32061     32063     32060     32058     32061     32064
     32061     32064     32066     32067     32061     32064     32066     32068
     32061     32064     32066     32069     32061     32064     32069     32066
     32061     32064     32069     32070     32061     32064     32069     32071
     32062     32061     32064     32065     32062     32061     32064     32066
     32062     32061     32064     32069     32063     32061     32064     32065
     32063     32061     32064     32066     32063     32061     32064     32069
     32064     32066     32069     32070     32064     32066     32069     32071
     32064     32069     32066     32067     32064     32069     32066     32068
     32064     32069     32071     32072     32064     32069     32071     32073
     32064     32069     32071     32074     32065     32064     32066     32067
     32065     32064     32066     32068     32065     32064     32066     32069
     32065     32064     32069     32066     32065     32064     32069     32070
     32065     32064     32069     32071     32066     32064     32069     32070
     32066     32064     32069     32071     32066     32069     32071     32072
     32066     32069     32071     32073     32066     32069     32071     32074
     32067     32066     32064     32069     32067     32066     32069     32070
     32067     32066     32069     32071     32068     32066     32064     32069
     32068     32066     32069     32070     32068     32066     32069     32071
     32069     32071     32074     32075     32069     32071     32074     32076
     32069     32071     32074     32077     32070     32069     32071     32072
     32070     32069     32071     32073     32070     32069     32071     32074
     32071     32074     32077     32078     32071     32074     32077     32079
     32071     32074     32077     32080     32072     32071     32074     32075
     32072     32071     32074     32076     32072     32071     32074     32077
     32073     32071     32074     32075     32073     32071     32074     32076
     32073     32071     32074     32077     32074     32077     32080     32081
     32074     32077     32080     32082     32074     32077     32080     32083
     32075     32074     32077     32078     32075     32074     32077     32079
     32075     32074     32077     32080     32076     32074     32077     32078
     32076     32074     32077     32079     32076     32074     32077     32080
     32077     32080     32083     32084     32077     32080     32083     32085
     32077     32080     32083     32086     32078     32077     32080     32081
     32078     32077     32080     32082     32078     32077     32080     32083
     32079     32077     32080     32081     32079     32077     32080     32082
     32079     32077     32080     32083     32080     32083     32086     32087
     32080     32083     32086     32088     32080     32083     32086     32089
     32081     32080     32083     32084     32081     32080     32083     32085
     32081     32080     32083     32086     32082     32080     32083     32084
     32082     32080     32083     32085     32082     32080     32083     32086
     32084     32083     32086     32087     32084     32083     32086     32088
     32084     32083     32086     32089     32085     32083     32086     32087
     32085     32083     32086     32088     32085     32083     32086     32089
     32090     32093     32096     32097     32090     32093     32096     32098
     32090     32093     32096     32099     32091     32090     32093     32094
     32091     32090     32093     32095     32091     32090     32093     32096
     32092     32090     32093     32094     32092     32090     32093     32095
     32092     32090     32093     32096     32093     32096     32099     32100
     32093     32096     32099     32101     32093     32096     32099     32102
     32094     32093     32096     32097     32094     32093     32096     32098
     32094     32093     32096     32099     32095     32093     32096     32097
     32095     32093     32096     32098     32095     32093     32096     32099
     32096     32099     32102     32103     32096     32099     32102     32104
     32096     32099     32102     32105     32097     32096     32099     32100
     32097     32096     32099     32101     32097     32096     32099     32102
     32098     32096     32099     32100     32098     32096     32099     32101
     32098     32096     32099     32102     32099     32102     32105     32106
     32099     32102     32105     32107     32099     32102     32105     32108
     32100     32099     32102     32103     32100     32099     32102     32104
     32100     32099     32102     32105     32101     32099     32102     32103
     32101     32099     32102     32104     32101     32099     32102     32105
     32102     32105     32108     32109     32102     32105     32108     32110
     32102     32105     32108     32111     32103     32102     32105     32106
     32103     32102     32105     32107     32103     32102     32105     32108
     32104     32102     32105     32106     32104     32102     32105     32107
     32104     32102     32105     32108     32105     32108     32111     32112
     32105     32108     32111     32113     32105     32108     32111     32114
     32106     32105     32108     32109     32106     32105     32108     32110
     32106     32105     32108     32111     32107     32105     32108     32109
     32107     32105     32108     32110     32107     32105     32108     32111
     32108     32111     32114     32115     32108     32111     32114     32116
     32108     32111     32114     32117     32109     32108     32111     32112
     32109     32108     32111     32113     32109     32108     32111     32114
     32110     32108     32111     32112     32110     32108     32111     32113
     32110     32108     32111     32114     32111     32114     32117     32118
     32111     32114     32117     32119     32111     32114     32117     32120
     32112     32111     32114     32115     32112     32111     32114     32116
     32112     32111     32114     32117     32113     32111     32114     32115
     32113     32111     32114     32116     32113     32111     32114     32117
     32114     32117     32120     32121     32114     32117     32120     32122
     32114     32117     32120     32123     32115     32114     32117     32118
     32115     32114     32117     32119     32115     32114     32117     32120
     32116     32114     32117     32118     32116     32114     32117     32119
     32116     32114     32117     32120     32117     32120     32123     32124
     32117     32120     32123     32125     32117     32120     32123     32126
     32118     32117     32120     32121     32118     32117     32120     32122
     32118     32117     32120     32123     32119     32117     32120     32121
     32119     32117     32120     32122     32119     32117     32120     32123
     32120     32123     32126     32127     32120     32123     32126     32128
     32120     32123     32126     32129     32121     32120     32123     32124
     32121     32120     32123     32125     32121     32120     32123     32126
     32122     32120     32123     32124     32122     32120     32123     32125
     32122     32120     32123     32126     32123     32126     32129     32130
     32123     32126     32129     32131     32123     32126     32129     32132
     32124     32123     32126     32127     32124     32123     32126     32128
     32124     32123     32126     32129     32125     32123     32126     32127
     32125     32123     32126     32128     32125     32123     32126     32129
     32127     32126     32129     32130     32127     32126     32129     32131
     32127     32126     32129     32132     32128     32126     32129     32130
     32128     32126     32129     32131     32128     32126     32129     32132
     32133     32137     32140     32141     32133     32137     32140     32142
     32133     32137     32140     32147     32134     32133     32137     32138
     32134     32133     32137     32139     32134     32133     32137     32140
     32135     32133     32137     32138     32135     32133     32137     32139
     32135     32133     32137     32140     32136     32133     32137     32138
     32136     32133     32137     32139     32136     32133     32137     32140
     32137     32140     32147     32143     32138     32137     32140     32141
     32138     32137     32140     32142     32138     32137     32140     32147
     32139     32137     32140     32141     32139     32137     32140     32142
     32139     32137     32140     32147     32140     32147     32143     32144
     32140     32147     32143     32145     32140     32147     32143     32146
     32141     32140     32147     32143     32142     32140     32147     32143
     32143     32146     32148     32149     32143     32146     32148     32150
     32143     32146     32148     32151     32144     32143     32146     32148
     32145     32143     32146     32148     32146     32148     32151     32152
     32146     32148     32151     32153     32146     32148     32151     32159
     32147     32143     32146     32148     32148     32151     32153     32154
     32148     32151     32159     32160     32148     32151     32159     32161
     32148     32151     32159     32162     32149     32148     32151     32152
     32149     32148     32151     32153     32149     32148     32151     32159
     32150     32148     32151     32152     32150     32148     32151     32153
     32150     32148     32151     32159     32151     32153     32154     32155
     32151     32153     32154     32156     32151     32159     32162     32163
     32152     32151     32153     32154     32152     32151     32159     32160
     32152     32151     32159     32161     32152     32151     32159     32162
     32153     32151     32159     32160     32153     32151     32159     32161
     32153     32151     32159     32162     32153     32154     32156     32157
     32153     32154     32156     32158     32153     32154     32156     32168
     32154     32153     32151     32159     32154     32156     32168     32169
     32154     32156     32168     32170     32154     32156     32168     32171
     32155     32154     32156     32157     32155     32154     32156     32158
     32155     32154     32156     32168     32156     32168     32171     32172
     32156     32168     32171     32173     32156     32168     32171     32174
     32157     32156     32168     32169     32157     32156     32168     32170
     32157     32156     32168     32171     32158     32156     32168     32169
     32158     32156     32168     32170     32158     32156     32168     32171
     32159     32162     32163     32164     32159     32162     32163     32165
     32160     32159     32162     32163     32161     32159     32162     32163
     32162     32163     32165     32166     32162     32163     32165     32167
     32162     32163     32165     32212     32163     32165     32212     32213
     32163     32165     32212     32214     32163     32165     32212     32215
     32164     32163     32165     32166     32164     32163     32165     32167
     32164     32163     32165     32212     32165     32212     32215     32216
     32165     32212     32215     32217     32165     32212     32215     32218
     32166     32165     32212     32213     32166     32165     32212     32214
     32166     32165     32212     32215     32167     32165     32212     32213
     32167     32165     32212     32214     32167     32165     32212     32215
     32168     32171     32174     32175     32168     32171     32174     32176
     32168     32171     32174     32177     32169     32168     32171     32172
     32169     32168     32171     32173     32169     32168     32171     32174
     32170     32168     32171     32172     32170     32168     32171     32173
     32170     32168     32171     32174     32171     32174     32177     32178
     32171     32174     32177     32179     32171     32174     32177     32180
     32172     32171     32174     32175     32172     32171     32174     32176
     32172     32171     32174     32177     32173     32171     32174     32175
     32173     32171     32174     32176     32173     32171     32174     32177
     32174     32177     32180     32181     32174     32177     32180     32182
     32174     32177     32180     32183     32175     32174     32177     32178
     32175     32174     32177     32179     32175     32174     32177     32180
     32176     32174     32177     32178     32176     32174     32177     32179
     32176     32174     32177     32180     32177     32180     32183     32184
     32177     32180     32183     32185     32177     32180     32183     32186
     32178     32177     32180     32181     32178     32177     32180     32182
     32178     32177     32180     32183     32179     32177     32180     32181
     32179     32177     32180     32182     32179     32177     32180     32183
     32180     32183     32186     32187     32180     32183     32186     32188
     32180     32183     32186     32191     32181     32180     32183     32184
     32181     32180     32183     32185     32181     32180     32183     32186
     32182     32180     32183     32184     32182     32180     32183     32185
     32182     32180     32183     32186     32183     32186     32188     32189
     32183     32186     32188     32190     32183     32186     32188     32191
     32183     32186     32191     32188     32183     32186     32191     32192
     32183     32186     32191     32193     32184     32183     32186     32187
     32184     32183     32186     32188     32184     32183     32186     32191
     32185     32183     32186     32187     32185     32183     32186     32188
     32185     32183     32186     32191     32186     32188     32191     32192
     32186     32188     32191     32193     32186     32191     32188     32189
     32186     32191     32188     32190     32186     32191     32193     32194
     32186     32191     32193     32195     32186     32191     32193     32196
     32187     32186     32188     32189     32187     32186     32188     32190
     32187     32186     32188     32191     32187     32186     32191     32188
     32187     32186     32191     32192     32187     32186     32191     32193
     32188     32186     32191     32192     32188     32186     32191     32193
     32188     32191     32193     32194     32188     32191     32193     32195
     32188     32191     32193     32196     32189     32188     32186     32191
     32189     32188     32191     32192     32189     32188     32191     32193
     32190     32188     32186     32191     32190     32188     32191     32192
     32190     32188     32191     32193     32191     32193     32196     32197
     32191     32193     32196     32198     32191     32193     32196     32199
     32192     32191     32193     32194     32192     32191     32193     32195
     32192     32191     32193     32196     32193     32196     32199     32200
     32193     32196     32199     32201     32193     32196     32199     32202
     32194     32193     32196     32197     32194     32193     32196     32198
     32194     32193     32196     32199     32195     32193     32196     32197
     32195     32193     32196     32198     32195     32193     32196     32199
     32196     32199     32202     32203     32196     32199     32202     32204
     32196     32199     32202     32205     32197     32196     32199     32200
     32197     32196     32199     32201     32197     32196     32199     32202
     32198     32196     32199     32200     32198     32196     32199     32201
     32198     32196     32199     32202     32199     32202     32205     32206
     32199     32202     32205     32207     32199     32202     32205     32208
     32200     32199     32202     32203     32200     32199     32202     32204
     32200     32199     32202     32205     32201     32199     32202     32203
     32201     32199     32202     32204     32201     32199     32202     32205
     32202     32205     32208     32209     32202     32205     32208     32210
     32202     32205     32208     32211     32203     32202     32205     32206
     32203     32202     32205     32207     32203     32202     32205     32208
     32204     32202     32205     32206     32204     32202     32205     32207
     32204     32202     32205     32208     32206     32205     32208     32209
     32206     32205     32208     32210     32206     32205     32208     32211
     32207     32205     32208     32209     32207     32205     32208     32210
     32207     32205     32208     32211     32212     32215     32218     32219
     32212     32215     32218     32220     32212     32215     32218     32221
     32213     32212     32215     32216     32213     32212     32215     32217
     32213     32212     32215     32218     32214     32212     32215     32216
     32214     32212     32215     32217     32214     32212     32215     32218
     32215     32218     32221     32222     32215     32218     32221     32223
     32215     32218     32221     32224     32216     32215     32218     32219
     32216     32215     32218     32220     32216     32215     32218     32221
     32217     32215     32218     32219     32217     32215     32218     32220
     32217     32215     32218     32221     32218     32221     32224     32225
     32218     32221     32224     32226     32218     32221     32224     32227
     32219     32218     32221     32222     32219     32218     32221     32223
     32219     32218     32221     32224     32220     32218     32221     32222
     32220     32218     32221     32223     32220     32218     32221     32224
     32221     32224     32227     32228     32221     32224     32227     32229
     32221     32224     32227     32230     32222     32221     32224     32225
     32222     32221     32224     32226     32222     32221     32224     32227
     32223     32221     32224     32225     32223     32221     32224     32226
     32223     32221     32224     32227     32224     32227     32230     32231
     32224     32227     32230     32232     32224     32227     32230     32233
     32225     32224     32227     32228     32225     32224     32227     32229
     32225     32224     32227     32230     32226     32224     32227     32228
     32226     32224     32227     32229     32226     32224     32227     32230
     32227     32230     32233     32234     32227     32230     32233     32235
     32227     32230     32233     32236     32228     32227     32230     32231
     32228     32227     32230     32232     32228     32227     32230     32233
     32229     32227     32230     32231     32229     32227     32230     32232
     32229     32227     32230     32233     32230     32233     32236     32237
     32230     32233     32236     32238     32230     32233     32236     32239
     32231     32230     32233     32234     32231     32230     32233     32235
     32231     32230     32233     32236     32232     32230     32233     32234
     32232     32230     32233     32235     32232     32230     32233     32236
     32233     32236     32239     32240     32233     32236     32239     32241
     32233     32236     32239     32242     32234     32233     32236     32237
     32234     32233     32236     32238     32234     32233     32236     32239
     32235     32233     32236     32237     32235     32233     32236     32238
     32235     32233     32236     32239     32236     32239     32242     32243
     32236     32239     32242     32244     32236     32239     32242     32245
     32237     32236     32239     32240     32237     32236     32239     32241
     32237     32236     32239     32242     32238     32236     32239     32240
     32238     32236     32239     32241     32238     32236     32239     32242
     32239     32242     32245     32246     32239     32242     32245     32247
     32239     32242     32245     32248     32240     32239     32242     32243
     32240     32239     32242     32244     32240     32239     32242     32245
     32241     32239     32242     32243     32241     32239     32242     32244
     32241     32239     32242     32245     32242     32245     32248     32249
     32242     32245     32248     32250     32242     32245     32248     32251
     32243     32242     32245     32246     32243     32242     32245     32247
     32243     32242     32245     32248     32244     32242     32245     32246
     32244     32242     32245     32247     32244     32242     32245     32248
     32245     32248     32251     32252     32245     32248     32251     32253
     32245     32248     32251     32254     32246     32245     32248     32249
     32246     32245     32248     32250     32246     32245     32248     32251
     32247     32245     32248     32249     32247     32245     32248     32250
     32247     32245     32248     32251     32249     32248     32251     32252
     32249     32248     32251     32253     32249     32248     32251     32254
     32250     32248     32251     32252     32250     32248     32251     32253
     32250     32248     32251     32254     32255     32259     32262     32263
     32255     32259     32262     32264     32255     32259     32262     32269
     32256     32255     32259     32260     32256     32255     32259     32261
     32256     32255     32259     32262     32257     32255     32259     32260
     32257     32255     32259     32261     32257     32255     32259     32262
     32258     32255     32259     32260     32258     32255     32259     32261
     32258     32255     32259     32262     32259     32262     32269     32265
     32260     32259     32262     32263     32260     32259     32262     32264
     32260     32259     32262     32269     32261     32259     32262     32263
     32261     32259     32262     32264     32261     32259     32262     32269
     32262     32269     32265     32266     32262     32269     32265     32267
     32262     32269     32265     32268     32263     32262     32269     32265
     32264     32262     32269     32265     32265     32268     32270     32271
     32265     32268     32270     32272     32265     32268     32270     32273
     32266     32265     32268     32270     32267     32265     32268     32270
     32268     32270     32273     32274     32268     32270     32273     32275
     32268     32270     32273     32281     32269     32265     32268     32270
     32270     32273     32275     32276     32270     32273     32281     32282
     32270     32273     32281     32283     32270     32273     32281     32284
     32271     32270     32273     32274     32271     32270     32273     32275
     32271     32270     32273     32281     32272     32270     32273     32274
     32272     32270     32273     32275     32272     32270     32273     32281
     32273     32275     32276     32277     32273     32275     32276     32278
     32273     32281     32284     32285     32274     32273     32275     32276
     32274     32273     32281     32282     32274     32273     32281     32283
     32274     32273     32281     32284     32275     32273     32281     32282
     32275     32273     32281     32283     32275     32273     32281     32284
     32275     32276     32278     32279     32275     32276     32278     32280
     32275     32276     32278     32290     32276     32275     32273     32281
     32276     32278     32290     32291     32276     32278     32290     32292
     32276     32278     32290     32293     32277     32276     32278     32279
     32277     32276     32278     32280     32277     32276     32278     32290
     32278     32290     32293     32294     32278     32290     32293     32295
     32278     32290     32293     32296     32279     32278     32290     32291
     32279     32278     32290     32292     32279     32278     32290     32293
     32280     32278     32290     32291     32280     32278     32290     32292
     32280     32278     32290     32293     32281     32284     32285     32286
     32281     32284     32285     32287     32282     32281     32284     32285
     32283     32281     32284     32285     32284     32285     32287     32288
     32284     32285     32287     32289     32284     32285     32287     32337
     32285     32287     32337     32338     32285     32287     32337     32339
     32285     32287     32337     32340     32286     32285     32287     32288
     32286     32285     32287     32289     32286     32285     32287     32337
     32287     32337     32340     32341     32287     32337     32340     32342
     32287     32337     32340     32343     32288     32287     32337     32338
     32288     32287     32337     32339     32288     32287     32337     32340
     32289     32287     32337     32338     32289     32287     32337     32339
     32289     32287     32337     32340     32290     32293     32296     32297
     32290     32293     32296     32298     32290     32293     32296     32299
     32291     32290     32293     32294     32291     32290     32293     32295
     32291     32290     32293     32296     32292     32290     32293     32294
     32292     32290     32293     32295     32292     32290     32293     32296
     32293     32296     32299     32300     32293     32296     32299     32301
     32293     32296     32299     32302     32294     32293     32296     32297
     32294     32293     32296     32298     32294     32293     32296     32299
     32295     32293     32296     32297     32295     32293     32296     32298
     32295     32293     32296     32299     32296     32299     32302     32303
     32296     32299     32302     32304     32296     32299     32302     32305
     32297     32296     32299     32300     32297     32296     32299     32301
     32297     32296     32299     32302     32298     32296     32299     32300
     32298     32296     32299     32301     32298     32296     32299     32302
     32299     32302     32305     32306     32299     32302     32305     32307
     32299     32302     32305     32308     32300     32299     32302     32303
     32300     32299     32302     32304     32300     32299     32302     32305
     32301     32299     32302     32303     32301     32299     32302     32304
     32301     32299     32302     32305     32302     32305     32308     32309
     32302     32305     32308     32310     32303     32302     32305     32306
     32303     32302     32305     32307     32303     32302     32305     32308
     32304     32302     32305     32306     32304     32302     32305     32307
     32304     32302     32305     32308     32305     32308     32310     32311
     32305     32308     32310     32312     32306     32305     32308     32309
     32306     32305     32308     32310     32307     32305     32308     32309
     32307     32305     32308     32310     32308     32310     32312     32313
     32308     32310     32312     32314     32308     32310     32312     32315
     32309     32308     32310     32311     32309     32308     32310     32312
     32310     32312     32315     32316     32310     32312     32315     32317
     32310     32312     32315     32318     32311     32310     32312     32313
     32311     32310     32312     32314     32311     32310     32312     32315
     32312     32315     32318     32319     32312     32315     32318     32320
     32312     32315     32318     32321     32313     32312     32315     32316
     32313     32312     32315     32317     32313     32312     32315     32318
     32314     32312     32315     32316     32314     32312     32315     32317
     32314     32312     32315     32318     32315     32318     32321     32322
     32315     32318     32321     32323     32315     32318     32321     32324
     32316     32315     32318     32319     32316     32315     32318     32320
     32316     32315     32318     32321     32317     32315     32318     32319
     32317     32315     32318     32320     32317     32315     32318     32321
     32318     32321     32324     32325     32318     32321     32324     32326
     32318     32321     32324     32327     32319     32318     32321     32322
     32319     32318     32321     32323     32319     32318     32321     32324
     32320     32318     32321     32322     32320     32318     32321     32323
     32320     32318     32321     32324     32321     32324     32327     32328
     32321     32324     32327     32329     32321     32324     32327     32330
     32322     32321     32324     32325     32322     32321     32324     32326
     32322     32321     32324     32327     32323     32321     32324     32325
     32323     32321     32324     32326     32323     32321     32324     32327
     32324     32327     32330     32331     32324     32327     32330     32332
     32324     32327     32330     32333     32325     32324     32327     32328
     32325     32324     32327     32329     32325     32324     32327     32330
     32326     32324     32327     32328     32326     32324     32327     32329
     32326     32324     32327     32330     32327     32330     32333     32334
     32327     32330     32333     32335     32327     32330     32333     32336
     32328     32327     32330     32331     32328     32327     32330     32332
     32328     32327     32330     32333     32329     32327     32330     32331
     32329     32327     32330     32332     32329     32327     32330     32333
     32331     32330     32333     32334     32331     32330     32333     32335
     32331     32330     32333     32336     32332     32330     32333     32334
     32332     32330     32333     32335     32332     32330     32333     32336
     32337     32340     32343     32344     32337     32340     32343     32345
     32337     32340     32343     32346     32338     32337     32340     32341
     32338     32337     32340     32342     32338     32337     32340     32343
     32339     32337     32340     32341     32339     32337     32340     32342
     32339     32337     32340     32343     32340     32343     32346     32347
     32340     32343     32346     32348     32340     32343     32346     32349
     32341     32340     32343     32344     32341     32340     32343     32345
     32341     32340     32343     32346     32342     32340     32343     32344
     32342     32340     32343     32345     32342     32340     32343     32346
     32343     32346     32349     32350     32343     32346     32349     32351
     32343     32346     32349     32352     32344     32343     32346     32347
     32344     32343     32346     32348     32344     32343     32346     32349
     32345     32343     32346     32347     32345     32343     32346     32348
     32345     32343     32346     32349     32346     32349     32352     32353
     32346     32349     32352     32354     32346     32349     32352     32355
     32347     32346     32349     32350     32347     32346     32349     32351
     32347     32346     32349     32352     32348     32346     32349     32350
     32348     32346     32349     32351     32348     32346     32349     32352
     32349     32352     32355     32356     32349     32352     32355     32357
     32349     32352     32355     32358     32350     32349     32352     32353
     32350     32349     32352     32354     32350     32349     32352     32355
     32351     32349     32352     32353     32351     32349     32352     32354
     32351     32349     32352     32355     32352     32355     32358     32359
     32352     32355     32358     32360     32352     32355     32358     32361
     32353     32352     32355     32356     32353     32352     32355     32357
     32353     32352     32355     32358     32354     32352     32355     32356
     32354     32352     32355     32357     32354     32352     32355     32358
     32355     32358     32361     32362     32355     32358     32361     32363
     32355     32358     32361     32364     32356     32355     32358     32359
     32356     32355     32358     32360     32356     32355     32358     32361
     32357     32355     32358     32359     32357     32355     32358     32360
     32357     32355     32358     32361     32358     32361     32364     32365
     32358     32361     32364     32366     32358     32361     32364     32367
     32359     32358     32361     32362     32359     32358     32361     32363
     32359     32358     32361     32364     32360     32358     32361     32362
     32360     32358     32361     32363     32360     32358     32361     32364
     32361     32364     32367     32368     32361     32364     32367     32369
     32361     32364     32367     32370     32362     32361     32364     32365
     32362     32361     32364     32366     32362     32361     32364     32367
     32363     32361     32364     32365     32363     32361     32364     32366
     32363     32361     32364     32367     32364     32367     32370     32371
     32364     32367     32370     32372     32364     32367     32370     32373
     32365     32364     32367     32368     32365     32364     32367     32369
     32365     32364     32367     32370     32366     32364     32367     32368
     32366     32364     32367     32369     32366     32364     32367     32370
     32367     32370     32373     32374     32367     32370     32373     32375
     32367     32370     32373     32376     32368     32367     32370     32371
     32368     32367     32370     32372     32368     32367     32370     32373
     32369     32367     32370     32371     32369     32367     32370     32372
     32369     32367     32370     32373     32370     32373     32376     32377
     32370     32373     32376     32378     32370     32373     32376     32379
     32371     32370     32373     32374     32371     32370     32373     32375
     32371     32370     32373     32376     32372     32370     32373     32374
     32372     32370     32373     32375     32372     32370     32373     32376
     32374     32373     32376     32377     32374     32373     32376     32378
     32374     32373     32376     32379     32375     32373     32376     32377
     32375     32373     32376     32378     32375     32373     32376     32379
     32380     32385     32387     32388     32380     32385     32389     32390
     32380     32385     32389     32391     32380     32385     32389     32396
     32381     32380     32383     32384     32381     32380     32385     32386
     32381     32380     32385     32387     32381     32380     32385     32389
     32382     32380     32383     32384     32382     32380     32385     32386
     32382     32380     32385     32387     32382     32380     32385     32389
     32383     32380     32385     32386     32383     32380     32385     32387
     32383     32380     32385     32389     32384     32383     32380     32385
     32385     32389     32396     32392     32386     32385     32387     32388
     32386     32385     32389     32390     32386     32385     32389     32391
     32386     32385     32389     32396     32387     32385     32389     32390
     32387     32385     32389     32391     32387     32385     32389     32396
     32388     32387     32385     32389     32389     32396     32392     32393
     32389     32396     32392     32394     32389     32396     32392     32395
     32390     32389     32396     32392     32391     32389     32396     32392
     32392     32395     32397     32398     32392     32395     32397     32399
     32392     32395     32397     32400     32393     32392     32395     32397
     32394     32392     32395     32397     32395     32397     32400     32401
     32395     32397     32400     32402     32395     32397     32400     32408
     32396     32392     32395     32397     32397     32400     32402     32403
     32397     32400     32408     32409     32397     32400     32408     32410
     32397     32400     32408     32411     32398     32397     32400     32401
     32398     32397     32400     32402     32398     32397     32400     32408
     32399     32397     32400     32401     32399     32397     32400     32402
     32399     32397     32400     32408     32400     32402     32403     32404
     32400     32402     32403     32405     32400     32408     32411     32412
     32401     32400     32402     32403     32401     32400     32408     32409
     32401     32400     32408     32410     32401     32400     32408     32411
     32402     32400     32408     32409     32402     32400     32408     32410
     32402     32400     32408     32411     32402     32403     32405     32406
     32402     32403     32405     32407     32402     32403     32405     32417
     32403     32402     32400     32408     32403     32405     32417     32418
     32403     32405     32417     32419     32403     32405     32417     32420
     32404     32403     32405     32406     32404     32403     32405     32407
     32404     32403     32405     32417     32405     32417     32420     32421
     32405     32417     32420     32422     32405     32417     32420     32423
     32406     32405     32417     32418     32406     32405     32417     32419
     32406     32405     32417     32420     32407     32405     32417     32418
     32407     32405     32417     32419     32407     32405     32417     32420
     32408     32411     32412     32413     32408     32411     32412     32414
     32409     32408     32411     32412     32410     32408     32411     32412
     32411     32412     32414     32415     32411     32412     32414     32416
     32411     32412     32414     32458     32412     32414     32458     32459
     32412     32414     32458     32460     32412     32414     32458     32461
     32413     32412     32414     32415     32413     32412     32414     32416
     32413     32412     32414     32458     32414     32458     32461     32462
     32414     32458     32461     32463     32414     32458     32461     32464
     32415     32414     32458     32459     32415     32414     32458     32460
     32415     32414     32458     32461     32416     32414     32458     32459
     32416     32414     32458     32460     32416     32414     32458     32461
     32417     32420     32423     32424     32417     32420     32423     32425
     32417     32420     32423     32426     32418     32417     32420     32421
     32418     32417     32420     32422     32418     32417     32420     32423
     32419     32417     32420     32421     32419     32417     32420     32422
     32419     32417     32420     32423     32420     32423     32426     32427
     32420     32423     32426     32428     32420     32423     32426     32429
     32421     32420     32423     32424     32421     32420     32423     32425
     32421     32420     32423     32426     32422     32420     32423     32424
     32422     32420     32423     32425     32422     32420     32423     32426
     32423     32426     32429     32430     32423     32426     32429     32431
     32423     32426     32429     32432     32424     32423     32426     32427
     32424     32423     32426     32428     32424     32423     32426     32429
     32425     32423     32426     32427     32425     32423     32426     32428
     32425     32423     32426     32429     32426     32429     32432     32433
     32426     32429     32432     32434     32426     32429     32432     32435
     32427     32426     32429     32430     32427     32426     32429     32431
     32427     32426     32429     32432     32428     32426     32429     32430
     32428     32426     32429     32431     32428     32426     32429     32432
     32429     32432     32435     32436     32429     32432     32435     32437
     32430     32429     32432     32433     32430     32429     32432     32434
     32430     32429     32432     32435     32431     32429     32432     32433
     32431     32429     32432     32434     32431     32429     32432     32435
     32432     32435     32437     32438     32432     32435     32437     32439
     32433     32432     32435     32436     32433     32432     32435     32437
     32434     32432     32435     32436     32434     32432     32435     32437
     32435     32437     32439     32440     32435     32437     32439     32441
     32435     32437     32439     32442     32436     32435     32437     32438
     32436     32435     32437     32439     32437     32439     32442     32443
     32437     32439     32442     32444     32437     32439     32442     32445
     32438     32437     32439     32440     32438     32437     32439     32441
     32438     32437     32439     32442     32439     32442     32445     32446
     32439     32442     32445     32447     32439     32442     32445     32448
     32440     32439     32442     32443     32440     32439     32442     32444
     32440     32439     32442     32445     32441     32439     32442     32443
     32441     32439     32442     32444     32441     32439     32442     32445
     32442     32445     32448     32449     32442     32445     32448     32450
     32442     32445     32448     32451     32443     32442     32445     32446
     32443     32442     32445     32447     32443     32442     32445     32448
     32444     32442     32445     32446     32444     32442     32445     32447
     32444     32442     32445     32448     32445     32448     32451     32452
     32445     32448     32451     32453     32445     32448     32451     32454
     32446     32445     32448     32449     32446     32445     32448     32450
     32446     32445     32448     32451     32447     32445     32448     32449
     32447     32445     32448     32450     32447     32445     32448     32451
     32448     32451     32454     32455     32448     32451     32454     32456
     32448     32451     32454     32457     32449     32448     32451     32452
     32449     32448     32451     32453     32449     32448     32451     32454
     32450     32448     32451     32452     32450     32448     32451     32453
     32450     32448     32451     32454     32452     32451     32454     32455
     32452     32451     32454     32456     32452     32451     32454     32457
     32453     32451     32454     32455     32453     32451     32454     32456
     32453     32451     32454     32457     32458     32461     32464     32465
     32458     32461     32464     32466     32458     32461     32464     32467
     32459     32458     32461     32462     32459     32458     32461     32463
     32459     32458     32461     32464     32460     32458     32461     32462
     32460     32458     32461     32463     32460     32458     32461     32464
     32461     32464     32467     32468     32461     32464     32467     32469
     32461     32464     32467     32470     32462     32461     32464     32465
     32462     32461     32464     32466     32462     32461     32464     32467
     32463     32461     32464     32465     32463     32461     32464     32466
     32463     32461     32464     32467     32464     32467     32470     32471
     32464     32467     32470     32472     32464     32467     32470     32473
     32465     32464     32467     32468     32465     32464     32467     32469
     32465     32464     32467     32470     32466     32464     32467     32468
     32466     32464     32467     32469     32466     32464     32467     32470
     32467     32470     32473     32474     32467     32470     32473     32475
     32467     32470     32473     32476     32468     32467     32470     32471
     32468     32467     32470     32472     32468     32467     32470     32473
     32469     32467     32470     32471     32469     32467     32470     32472
     32469     32467     32470     32473     32470     32473     32476     32477
     32470     32473     32476     32478     32470     32473     32476     32479
     32471     32470     32473     32474     32471     32470     32473     32475
     32471     32470     32473     32476     32472     32470     32473     32474
     32472     32470     32473     32475     32472     32470     32473     32476
     32473     32476     32479     32480     32473     32476     32479     32481
     32473     32476     32479     32482     32474     32473     32476     32477
     32474     32473     32476     32478     32474     32473     32476     32479
     32475     32473     32476     32477     32475     32473     32476     32478
     32475     32473     32476     32479     32476     32479     32482     32483
     32476     32479     32482     32484     32476     32479     32482     32485
     32477     32476     32479     32480     32477     32476     32479     32481
     32477     32476     32479     32482     32478     32476     32479     32480
     32478     32476     32479     32481     32478     32476     32479     32482
     32479     32482     32485     32486     32479     32482     32485     32487
     32479     32482     32485     32488     32480     32479     32482     32483
     32480     32479     32482     32484     32480     32479     32482     32485
     32481     32479     32482     32483     32481     32479     32482     32484
     32481     32479     32482     32485     32482     32485     32488     32489
     32482     32485     32488     32490     32482     32485     32488     32491
     32483     32482     32485     32486     32483     32482     32485     32487
     32483     32482     32485     32488     32484     32482     32485     32486
     32484     32482     32485     32487     32484     32482     32485     32488
     32485     32488     32491     32492     32485     32488     32491     32493
     32485     32488     32491     32494     32486     32485     32488     32489
     32486     32485     32488     32490     32486     32485     32488     32491
     32487     32485     32488     32489     32487     32485     32488     32490
     32487     32485     32488     32491     32488     32491     32494     32495
     32488     32491     32494     32496     32488     32491     32494     32497
     32489     32488     32491     32492     32489     32488     32491     32493
     32489     32488     32491     32494     32490     32488     32491     32492
     32490     32488     32491     32493     32490     32488     32491     32494
     32491     32494     32497     32498     32491     32494     32497     32499
     32491     32494     32497     32500     32492     32491     32494     32495
     32492     32491     32494     32496     32492     32491     32494     32497
     32493     32491     32494     32495     32493     32491     32494     32496
     32493     32491     32494     32497     32495     32494     32497     32498
     32495     32494     32497     32499     32495     32494     32497     32500
     32496     32494     32497     32498     32496     32494     32497     32499
     32496     32494     32497     32500     32501     32505     32508     32509
     32501     32505     32508     32510     32501     32505     32508     32515
     32502     32501     32505     32506     32502     32501     32505     32507
     32502     32501     32505     32508     32503     32501     32505     32506
     32503     32501     32505     32507     32503     32501     32505     32508
     32504     32501     32505     32506     32504     32501     32505     32507
     32504     32501     32505     32508     32505     32508     32515     32511
     32506     32505     32508     32509     32506     32505     32508     32510
     32506     32505     32508     32515     32507     32505     32508     32509
     32507     32505     32508     32510     32507     32505     32508     32515
     32508     32515     32511     32512     32508     32515     32511     32513
     32508     32515     32511     32514     32509     32508     32515     32511
     32510     32508     32515     32511     32511     32514     32516     32517
     32511     32514     32516     32518     32511     32514     32516     32519
     32512     32511     32514     32516     32513     32511     32514     32516
     32514     32516     32519     32520     32514     32516     32519     32521
     32514     32516     32519     32527     32515     32511     32514     32516
     32516     32519     32521     32522     32516     32519     32527     32528
     32516     32519     32527     32529     32516     32519     32527     32530
     32517     32516     32519     32520     32517     32516     32519     32521
     32517     32516     32519     32527     32518     32516     32519     32520
     32518     32516     32519     32521     32518     32516     32519     32527
     32519     32521     32522     32523     32519     32521     32522     32524
     32519     32527     32530     32531     32520     32519     32521     32522
     32520     32519     32527     32528     32520     32519     32527     32529
     32520     32519     32527     32530     32521     32519     32527     32528
     32521     32519     32527     32529     32521     32519     32527     32530
     32521     32522     32524     32525     32521     32522     32524     32526
     32521     32522     32524     32536     32522     32521     32519     32527
     32522     32524     32536     32537     32522     32524     32536     32538
     32522     32524     32536     32539     32523     32522     32524     32525
     32523     32522     32524     32526     32523     32522     32524     32536
     32524     32536     32539     32540     32524     32536     32539     32541
     32524     32536     32539     32542     32525     32524     32536     32537
     32525     32524     32536     32538     32525     32524     32536     32539
     32526     32524     32536     32537     32526     32524     32536     32538
     32526     32524     32536     32539     32527     32530     32531     32532
     32527     32530     32531     32533     32528     32527     32530     32531
     32529     32527     32530     32531     32530     32531     32533     32534
     32530     32531     32533     32535     32530     32531     32533     32577
     32531     32533     32577     32578     32531     32533     32577     32579
     32531     32533     32577     32580     32532     32531     32533     32534
     32532     32531     32533     32535     32532     32531     32533     32577
     32533     32577     32580     32581     32533     32577     32580     32582
     32533     32577     32580     32583     32534     32533     32577     32578
     32534     32533     32577     32579     32534     32533     32577     32580
     32535     32533     32577     32578     32535     32533     32577     32579
     32535     32533     32577     32580     32536     32539     32542     32543
     32536     32539     32542     32544     32536     32539     32542     32545
     32537     32536     32539     32540     32537     32536     32539     32541
     32537     32536     32539     32542     32538     32536     32539     32540
     32538     32536     32539     32541     32538     32536     32539     32542
     32539     32542     32545     32546     32539     32542     32545     32547
     32539     32542     32545     32548     32540     32539     32542     32543
     32540     32539     32542     32544     32540     32539     32542     32545
     32541     32539     32542     32543     32541     32539     32542     32544
     32541     32539     32542     32545     32542     32545     32548     32549
     32542     32545     32548     32550     32542     32545     32548     32551
     32543     32542     32545     32546     32543     32542     32545     32547
     32543     32542     32545     32548     32544     32542     32545     32546
     32544     32542     32545     32547     32544     32542     32545     32548
     32545     32548     32551     32552     32545     32548     32551     32553
     32545     32548     32551     32554     32546     32545     32548     32549
     32546     32545     32548     32550     32546     32545     32548     32551
     32547     32545     32548     32549     32547     32545     32548     32550
     32547     32545     32548     32551     32548     32551     32554     32555
     32548     32551     32554     32556     32549     32548     32551     32552
     32549     32548     32551     32553     32549     32548     32551     32554
     32550     32548     32551     32552     32550     32548     32551     32553
     32550     32548     32551     32554     32551     32554     32556     32557
     32551     32554     32556     32558     32552     32551     32554     32555
     32552     32551     32554     32556     32553     32551     32554     32555
     32553     32551     32554     32556     32554     32556     32558     32559
     32554     32556     32558     32560     32554     32556     32558     32561
     32555     32554     32556     32557     32555     32554     32556     32558
     32556     32558     32561     32562     32556     32558     32561     32563
     32556     32558     32561     32564     32557     32556     32558     32559
     32557     32556     32558     32560     32557     32556     32558     32561
     32558     32561     32564     32565     32558     32561     32564     32566
     32558     32561     32564     32567     32559     32558     32561     32562
     32559     32558     32561     32563     32559     32558     32561     32564
     32560     32558     32561     32562     32560     32558     32561     32563
     32560     32558     32561     32564     32561     32564     32567     32568
     32561     32564     32567     32569     32561     32564     32567     32570
     32562     32561     32564     32565     32562     32561     32564     32566
     32562     32561     32564     32567     32563     32561     32564     32565
     32563     32561     32564     32566     32563     32561     32564     32567
     32564     32567     32570     32571     32564     32567     32570     32572
     32564     32567     32570     32573     32565     32564     32567     32568
     32565     32564     32567     32569     32565     32564     32567     32570
     32566     32564     32567     32568     32566     32564     32567     32569
     32566     32564     32567     32570     32567     32570     32573     32574
     32567     32570     32573     32575     32567     32570     32573     32576
     32568     32567     32570     32571     32568     32567     32570     32572
     32568     32567     32570     32573     32569     32567     32570     32571
     32569     32567     32570     32572     32569     32567     32570     32573
     32571     32570     32573     32574     32571     32570     32573     32575
     32571     32570     32573     32576     32572     32570     32573     32574
     32572     32570     32573     32575     32572     32570     32573     32576
     32577     32580     32583     32584     32577     32580     32583     32585
     32577     32580     32583     32586     32578     32577     32580     32581
     32578     32577     32580     32582     32578     32577     32580     32583
     32579     32577     32580     32581     32579     32577     32580     32582
     32579     32577     32580     32583     32580     32583     32586     32587
     32580     32583     32586     32588     32580     32583     32586     32589
     32581     32580     32583     32584     32581     32580     32583     32585
     32581     32580     32583     32586     32582     32580     32583     32584
     32582     32580     32583     32585     32582     32580     32583     32586
     32583     32586     32589     32590     32583     32586     32589     32591
     32583     32586     32589     32592     32584     32583     32586     32587
     32584     32583     32586     32588     32584     32583     32586     32589
     32585     32583     32586     32587     32585     32583     32586     32588
     32585     32583     32586     32589     32586     32589     32592     32593
     32586     32589     32592     32594     32586     32589     32592     32595
     32587     32586     32589     32590     32587     32586     32589     32591
     32587     32586     32589     32592     32588     32586     32589     32590
     32588     32586     32589     32591     32588     32586     32589     32592
     32589     32592     32595     32596     32589     32592     32595     32597
     32590     32589     32592     32593     32590     32589     32592     32594
     32590     32589     32592     32595     32591     32589     32592     32593
     32591     32589     32592     32594     32591     32589     32592     32595
     32592     32595     32597     32598     32592     32595     32597     32599
     32593     32592     32595     32596     32593     32592     32595     32597
     32594     32592     32595     32596     32594     32592     32595     32597
     32595     32597     32599     32600     32595     32597     32599     32601
     32595     32597     32599     32602     32596     32595     32597     32598
     32596     32595     32597     32599     32597     32599     32602     32603
     32597     32599     32602     32604     32597     32599     32602     32605
     32598     32597     32599     32600     32598     32597     32599     32601
     32598     32597     32599     32602     32599     32602     32605     32606
     32599     32602     32605     32607     32599     32602     32605     32608
     32600     32599     32602     32603     32600     32599     32602     32604
     32600     32599     32602     32605     32601     32599     32602     32603
     32601     32599     32602     32604     32601     32599     32602     32605
     32602     32605     32608     32609     32602     32605     32608     32610
     32602     32605     32608     32611     32603     32602     32605     32606
     32603     32602     32605     32607     32603     32602     32605     32608
     32604     32602     32605     32606     32604     32602     32605     32607
     32604     32602     32605     32608     32605     32608     32611     32612
     32605     32608     32611     32613     32605     32608     32611     32614
     32606     32605     32608     32609     32606     32605     32608     32610
     32606     32605     32608     32611     32607     32605     32608     32609
     32607     32605     32608     32610     32607     32605     32608     32611
     32608     32611     32614     32615     32608     32611     32614     32616
     32608     32611     32614     32617     32609     32608     32611     32612
     32609     32608     32611     32613     32609     32608     32611     32614
     32610     32608     32611     32612     32610     32608     32611     32613
     32610     32608     32611     32614     32611     32614     32617     32618
     32611     32614     32617     32619     32611     32614     32617     32620
     32612     32611     32614     32615     32612     32611     32614     32616
     32612     32611     32614     32617     32613     32611     32614     32615
     32613     32611     32614     32616     32613     32611     32614     32617
     32614     32617     32620     32621     32614     32617     32620     32622
     32614     32617     32620     32623     32615     32614     32617     32618
     32615     32614     32617     32619     32615     32614     32617     32620
     32616     32614     32617     32618     32616     32614     32617     32619
     32616     32614     32617     32620     32618     32617     32620     32621
     32618     32617     32620     32622     32618     32617     32620     32623
     32619     32617     32620     32621     32619     32617     32620     32622
     32619     32617     32620     32623     32624     32628     32631     32632
     32624     32628     32631     32633     32624     32628     32631     32638
     32625     32624     32628     32629     32625     32624     32628     32630
     32625     32624     32628     32631     32626     32624     32628     32629
     32626     32624     32628     32630     32626     32624     32628     32631
     32627     32624     32628     32629     32627     32624     32628     32630
     32627     32624     32628     32631     32628     32631     32638     32634
     32629     32628     32631     32632     32629     32628     32631     32633
     32629     32628     32631     32638     32630     32628     32631     32632
     32630     32628     32631     32633     32630     32628     32631     32638
     32631     32638     32634     32635     32631     32638     32634     32636
     32631     32638     32634     32637     32632     32631     32638     32634
     32633     32631     32638     32634     32634     32637     32639     32640
     32634     32637     32639     32641     32634     32637     32639     32642
     32635     32634     32637     32639     32636     32634     32637     32639
     32637     32639     32642     32643     32637     32639     32642     32644
     32637     32639     32642     32650     32638     32634     32637     32639
     32639     32642     32644     32645     32639     32642     32650     32651
     32639     32642     32650     32652     32639     32642     32650     32653
     32640     32639     32642     32643     32640     32639     32642     32644
     32640     32639     32642     32650     32641     32639     32642     32643
     32641     32639     32642     32644     32641     32639     32642     32650
     32642     32644     32645     32646     32642     32644     32645     32647
     32642     32650     32653     32654     32643     32642     32644     32645
     32643     32642     32650     32651     32643     32642     32650     32652
     32643     32642     32650     32653     32644     32642     32650     32651
     32644     32642     32650     32652     32644     32642     32650     32653
     32644     32645     32647     32648     32644     32645     32647     32649
     32644     32645     32647     32659     32645     32644     32642     32650
     32645     32647     32659     32660     32645     32647     32659     32661
     32645     32647     32659     32662     32646     32645     32647     32648
     32646     32645     32647     32649     32646     32645     32647     32659
     32647     32659     32662     32663     32647     32659     32662     32664
     32647     32659     32662     32665     32648     32647     32659     32660
     32648     32647     32659     32661     32648     32647     32659     32662
     32649     32647     32659     32660     32649     32647     32659     32661
     32649     32647     32659     32662     32650     32653     32654     32655
     32650     32653     32654     32656     32651     32650     32653     32654
     32652     32650     32653     32654     32653     32654     32656     32657
     32653     32654     32656     32658     32653     32654     32656     32703
     32654     32656     32703     32704     32654     32656     32703     32705
     32654     32656     32703     32706     32655     32654     32656     32657
     32655     32654     32656     32658     32655     32654     32656     32703
     32656     32703     32706     32707     32656     32703     32706     32708
     32656     32703     32706     32709     32657     32656     32703     32704
     32657     32656     32703     32705     32657     32656     32703     32706
     32658     32656     32703     32704     32658     32656     32703     32705
     32658     32656     32703     32706     32659     32662     32665     32666
     32659     32662     32665     32667     32659     32662     32665     32668
     32660     32659     32662     32663     32660     32659     32662     32664
     32660     32659     32662     32665     32661     32659     32662     32663
     32661     32659     32662     32664     32661     32659     32662     32665
     32662     32665     32668     32669     32662     32665     32668     32670
     32662     32665     32668     32671     32663     32662     32665     32666
     32663     32662     32665     32667     32663     32662     32665     32668
     32664     32662     32665     32666     32664     32662     32665     32667
     32664     32662     32665     32668     32665     32668     32671     32672
     32665     32668     32671     32673     32665     32668     32671     32674
     32666     32665     32668     32669     32666     32665     32668     32670
     32666     32665     32668     32671     32667     32665     32668     32669
     32667     32665     32668     32670     32667     32665     32668     32671
     32668     32671     32674     32675     32668     32671     32674     32676
     32668     32671     32674     32677     32669     32668     32671     32672
     32669     32668     32671     32673     32669     32668     32671     32674
     32670     32668     32671     32672     32670     32668     32671     32673
     32670     32668     32671     32674     32671     32674     32677     32678
     32671     32674     32677     32679     32671     32674     32677     32682
     32672     32671     32674     32675     32672     32671     32674     32676
     32672     32671     32674     32677     32673     32671     32674     32675
     32673     32671     32674     32676     32673     32671     32674     32677
     32674     32677     32679     32680     32674     32677     32679     32681
     32674     32677     32679     32682     32674     32677     32682     32679
     32674     32677     32682     32683     32674     32677     32682     32684
     32675     32674     32677     32678     32675     32674     32677     32679
     32675     32674     32677     32682     32676     32674     32677     32678
     32676     32674     32677     32679     32676     32674     32677     32682
     32677     32679     32682     32683     32677     32679     32682     32684
     32677     32682     32679     32680     32677     32682     32679     32681
     32677     32682     32684     32685     32677     32682     32684     32686
     32677     32682     32684     32687     32678     32677     32679     32680
     32678     32677     32679     32681     32678     32677     32679     32682
     32678     32677     32682     32679     32678     32677     32682     32683
     32678     32677     32682     32684     32679     32677     32682     32683
     32679     32677     32682     32684     32679     32682     32684     32685
     32679     32682     32684     32686     32679     32682     32684     32687
     32680     32679     32677     32682     32680     32679     32682     32683
     32680     32679     32682     32684     32681     32679     32677     32682
     32681     32679     32682     32683     32681     32679     32682     32684
     32682     32684     32687     32688     32682     32684     32687     32689
     32682     32684     32687     32690     32683     32682     32684     32685
     32683     32682     32684     32686     32683     32682     32684     32687
     32684     32687     32690     32691     32684     32687     32690     32692
     32684     32687     32690     32693     32685     32684     32687     32688
     32685     32684     32687     32689     32685     32684     32687     32690
     32686     32684     32687     32688     32686     32684     32687     32689
     32686     32684     32687     32690     32687     32690     32693     32694
     32687     32690     32693     32695     32687     32690     32693     32696
     32688     32687     32690     32691     32688     32687     32690     32692
     32688     32687     32690     32693     32689     32687     32690     32691
     32689     32687     32690     32692     32689     32687     32690     32693
     32690     32693     32696     32697     32690     32693     32696     32698
     32690     32693     32696     32699     32691     32690     32693     32694
     32691     32690     32693     32695     32691     32690     32693     32696
     32692     32690     32693     32694     32692     32690     32693     32695
     32692     32690     32693     32696     32693     32696     32699     32700
     32693     32696     32699     32701     32693     32696     32699     32702
     32694     32693     32696     32697     32694     32693     32696     32698
     32694     32693     32696     32699     32695     32693     32696     32697
     32695     32693     32696     32698     32695     32693     32696     32699
     32697     32696     32699     32700     32697     32696     32699     32701
     32697     32696     32699     32702     32698     32696     32699     32700
     32698     32696     32699     32701     32698     32696     32699     32702
     32703     32706     32709     32710     32703     32706     32709     32711
     32703     32706     32709     32712     32704     32703     32706     32707
     32704     32703     32706     32708     32704     32703     32706     32709
     32705     32703     32706     32707     32705     32703     32706     32708
     32705     32703     32706     32709     32706     32709     32712     32713
     32706     32709     32712     32714     32706     32709     32712     32715
     32707     32706     32709     32710     32707     32706     32709     32711
     32707     32706     32709     32712     32708     32706     32709     32710
     32708     32706     32709     32711     32708     32706     32709     32712
     32709     32712     32715     32716     32709     32712     32715     32717
     32709     32712     32715     32718     32710     32709     32712     32713
     32710     32709     32712     32714     32710     32709     32712     32715
     32711     32709     32712     32713     32711     32709     32712     32714
     32711     32709     32712     32715     32712     32715     32718     32719
     32712     32715     32718     32720     32712     32715     32718     32721
     32713     32712     32715     32716     32713     32712     32715     32717
     32713     32712     32715     32718     32714     32712     32715     32716
     32714     32712     32715     32717     32714     32712     32715     32718
     32715     32718     32721     32722     32715     32718     32721     32723
     32715     32718     32721     32724     32716     32715     32718     32719
     32716     32715     32718     32720     32716     32715     32718     32721
     32717     32715     32718     32719     32717     32715     32718     32720
     32717     32715     32718     32721     32718     32721     32724     32725
     32718     32721     32724     32726     32718     32721     32724     32727
     32719     32718     32721     32722     32719     32718     32721     32723
     32719     32718     32721     32724     32720     32718     32721     32722
     32720     32718     32721     32723     32720     32718     32721     32724
     32721     32724     32727     32728     32721     32724     32727     32729
     32721     32724     32727     32730     32722     32721     32724     32725
     32722     32721     32724     32726     32722     32721     32724     32727
     32723     32721     32724     32725     32723     32721     32724     32726
     32723     32721     32724     32727     32724     32727     32730     32731
     32724     32727     32730     32732     32724     32727     32730     32733
     32725     32724     32727     32728     32725     32724     32727     32729
     32725     32724     32727     32730     32726     32724     32727     32728
     32726     32724     32727     32729     32726     32724     32727     32730
     32727     32730     32733     32734     32727     32730     32733     32735
     32727     32730     32733     32736     32728     32727     32730     32731
     32728     32727     32730     32732     32728     32727     32730     32733
     32729     32727     32730     32731     32729     32727     32730     32732
     32729     32727     32730     32733     32730     32733     32736     32737
     32730     32733     32736     32738     32730     32733     32736     32739
     32731     32730     32733     32734     32731     32730     32733     32735
     32731     32730     32733     32736     32732     32730     32733     32734
     32732     32730     32733     32735     32732     32730     32733     32736
     32733     32736     32739     32740     32733     32736     32739     32741
     32733     32736     32739     32742     32734     32733     32736     32737
     32734     32733     32736     32738     32734     32733     32736     32739
     32735     32733     32736     32737     32735     32733     32736     32738
     32735     32733     32736     32739     32737     32736     32739     32740
     32737     32736     32739     32741     32737     32736     32739     32742
     32738     32736     32739     32740     32738     32736     32739     32741
     32738     32736     32739     32742     32743     32748     32750     32751
     32743     32748     32752     32753     32743     32748     32752     32754
     32743     32748     32752     32759     32744     32743     32746     32747
     32744     32743     32748     32749     32744     32743     32748     32750
     32744     32743     32748     32752     32745     32743     32746     32747
     32745     32743     32748     32749     32745     32743     32748     32750
     32745     32743     32748     32752     32746     32743     32748     32749
     32746     32743     32748     32750     32746     32743     32748     32752
     32747     32746     32743     32748     32748     32752     32759     32755
     32749     32748     32750     32751     32749     32748     32752     32753
     32749     32748     32752     32754     32749     32748     32752     32759
     32750     32748     32752     32753     32750     32748     32752     32754
     32750     32748     32752     32759     32751     32750     32748     32752
     32752     32759     32755     32756     32752     32759     32755     32757
     32752     32759     32755     32758     32753     32752     32759     32755
     32754     32752     32759     32755     32755     32758     32760     32761
     32755     32758     32760     32762     32755     32758     32760     32763
     32756     32755     32758     32760     32757     32755     32758     32760
     32758     32760     32763     32764     32758     32760     32763     32765
     32758     32760     32763     32771     32759     32755     32758     32760
     32760     32763     32765     32766     32760     32763     32771     32772
     32760     32763     32771     32773     32760     32763     32771     32774
     32761     32760     32763     32764     32761     32760     32763     32765
     32761     32760     32763     32771     32762     32760     32763     32764
     32762     32760     32763     32765     32762     32760     32763     32771
     32763     32765     32766     32767     32763     32765     32766     32768
     32763     32771     32774     32775     32764     32763     32765     32766
     32764     32763     32771     32772     32764     32763     32771     32773
     32764     32763     32771     32774     32765     32763     32771     32772
     32765     32763     32771     32773     32765     32763     32771     32774
     32765     32766     32768     32769     32765     32766     32768     32770
     32765     32766     32768     32780     32766     32765     32763     32771
     32766     32768     32780     32781     32766     32768     32780     32782
     32766     32768     32780     32783     32767     32766     32768     32769
     32767     32766     32768     32770     32767     32766     32768     32780
     32768     32780     32783     32784     32768     32780     32783     32785
     32768     32780     32783     32786     32769     32768     32780     32781
     32769     32768     32780     32782     32769     32768     32780     32783
     32770     32768     32780     32781     32770     32768     32780     32782
     32770     32768     32780     32783     32771     32774     32775     32776
     32771     32774     32775     32777     32772     32771     32774     32775
     32773     32771     32774     32775     32774     32775     32777     32778
     32774     32775     32777     32779     32774     32775     32777     32821
     32775     32777     32821     32822     32775     32777     32821     32823
     32775     32777     32821     32824     32776     32775     32777     32778
     32776     32775     32777     32779     32776     32775     32777     32821
     32777     32821     32824     32825     32777     32821     32824     32826
     32777     32821     32824     32827     32778     32777     32821     32822
     32778     32777     32821     32823     32778     32777     32821     32824
     32779     32777     32821     32822     32779     32777     32821     32823
     32779     32777     32821     32824     32780     32783     32786     32787
     32780     32783     32786     32788     32780     32783     32786     32789
     32781     32780     32783     32784     32781     32780     32783     32785
     32781     32780     32783     32786     32782     32780     32783     32784
     32782     32780     32783     32785     32782     32780     32783     32786
     32783     32786     32789     32790     32783     32786     32789     32791
     32783     32786     32789     32792     32784     32783     32786     32787
     32784     32783     32786     32788     32784     32783     32786     32789
     32785     32783     32786     32787     32785     32783     32786     32788
     32785     32783     32786     32789     32786     32789     32792     32793
     32786     32789     32792     32794     32786     32789     32792     32795
     32787     32786     32789     32790     32787     32786     32789     32791
     32787     32786     32789     32792     32788     32786     32789     32790
     32788     32786     32789     32791     32788     32786     32789     32792
     32789     32792     32795     32796     32789     32792     32795     32797
     32789     32792     32795     32798     32790     32789     32792     32793
     32790     32789     32792     32794     32790     32789     32792     32795
     32791     32789     32792     32793     32791     32789     32792     32794
     32791     32789     32792     32795     32792     32795     32798     32799
     32792     32795     32798     32800     32793     32792     32795     32796
     32793     32792     32795     32797     32793     32792     32795     32798
     32794     32792     32795     32796     32794     32792     32795     32797
     32794     32792     32795     32798     32795     32798     32800     32801
     32795     32798     32800     32802     32796     32795     32798     32799
     32796     32795     32798     32800     32797     32795     32798     32799
     32797     32795     32798     32800     32798     32800     32802     32803
     32798     32800     32802     32804     32798     32800     32802     32805
     32799     32798     32800     32801     32799     32798     32800     32802
     32800     32802     32805     32806     32800     32802     32805     32807
     32800     32802     32805     32808     32801     32800     32802     32803
     32801     32800     32802     32804     32801     32800     32802     32805
     32802     32805     32808     32809     32802     32805     32808     32810
     32802     32805     32808     32811     32803     32802     32805     32806
     32803     32802     32805     32807     32803     32802     32805     32808
     32804     32802     32805     32806     32804     32802     32805     32807
     32804     32802     32805     32808     32805     32808     32811     32812
     32805     32808     32811     32813     32805     32808     32811     32814
     32806     32805     32808     32809     32806     32805     32808     32810
     32806     32805     32808     32811     32807     32805     32808     32809
     32807     32805     32808     32810     32807     32805     32808     32811
     32808     32811     32814     32815     32808     32811     32814     32816
     32808     32811     32814     32817     32809     32808     32811     32812
     32809     32808     32811     32813     32809     32808     32811     32814
     32810     32808     32811     32812     32810     32808     32811     32813
     32810     32808     32811     32814     32811     32814     32817     32818
     32811     32814     32817     32819     32811     32814     32817     32820
     32812     32811     32814     32815     32812     32811     32814     32816
     32812     32811     32814     32817     32813     32811     32814     32815
     32813     32811     32814     32816     32813     32811     32814     32817
     32815     32814     32817     32818     32815     32814     32817     32819
     32815     32814     32817     32820     32816     32814     32817     32818
     32816     32814     32817     32819     32816     32814     32817     32820
     32821     32824     32827     32828     32821     32824     32827     32829
     32821     32824     32827     32830     32822     32821     32824     32825
     32822     32821     32824     32826     32822     32821     32824     32827
     32823     32821     32824     32825     32823     32821     32824     32826
     32823     32821     32824     32827     32824     32827     32830     32831
     32824     32827     32830     32832     32824     32827     32830     32833
     32825     32824     32827     32828     32825     32824     32827     32829
     32825     32824     32827     32830     32826     32824     32827     32828
     32826     32824     32827     32829     32826     32824     32827     32830
     32827     32830     32833     32834     32827     32830     32833     32835
     32827     32830     32833     32836     32828     32827     32830     32831
     32828     32827     32830     32832     32828     32827     32830     32833
     32829     32827     32830     32831     32829     32827     32830     32832
     32829     32827     32830     32833     32830     32833     32836     32837
     32830     32833     32836     32838     32830     32833     32836     32839
     32831     32830     32833     32834     32831     32830     32833     32835
     32831     32830     32833     32836     32832     32830     32833     32834
     32832     32830     32833     32835     32832     32830     32833     32836
     32833     32836     32839     32840     32833     32836     32839     32841
     32833     32836     32839     32842     32834     32833     32836     32837
     32834     32833     32836     32838     32834     32833     32836     32839
     32835     32833     32836     32837     32835     32833     32836     32838
     32835     32833     32836     32839     32836     32839     32842     32843
     32836     32839     32842     32844     32836     32839     32842     32845
     32837     32836     32839     32840     32837     32836     32839     32841
     32837     32836     32839     32842     32838     32836     32839     32840
     32838     32836     32839     32841     32838     32836     32839     32842
     32839     32842     32845     32846     32839     32842     32845     32847
     32839     32842     32845     32848     32840     32839     32842     32843
     32840     32839     32842     32844     32840     32839     32842     32845
     32841     32839     32842     32843     32841     32839     32842     32844
     32841     32839     32842     32845     32842     32845     32848     32849
     32842     32845     32848     32850     32842     32845     32848     32851
     32843     32842     32845     32846     32843     32842     32845     32847
     32843     32842     32845     32848     32844     32842     32845     32846
     32844     32842     32845     32847     32844     32842     32845     32848
     32845     32848     32851     32852     32845     32848     32851     32853
     32845     32848     32851     32854     32846     32845     32848     32849
     32846     32845     32848     32850     32846     32845     32848     32851
     32847     32845     32848     32849     32847     32845     32848     32850
     32847     32845     32848     32851     32848     32851     32854     32855
     32848     32851     32854     32856     32848     32851     32854     32857
     32849     32848     32851     32852     32849     32848     32851     32853
     32849     32848     32851     32854     32850     32848     32851     32852
     32850     32848     32851     32853     32850     32848     32851     32854
     32851     32854     32857     32858     32851     32854     32857     32859
     32851     32854     32857     32860     32852     32851     32854     32855
     32852     32851     32854     32856     32852     32851     32854     32857
     32853     32851     32854     32855     32853     32851     32854     32856
     32853     32851     32854     32857     32854     32857     32860     32861
     32854     32857     32860     32862     32854     32857     32860     32863
     32855     32854     32857     32858     32855     32854     32857     32859
     32855     32854     32857     32860     32856     32854     32857     32858
     32856     32854     32857     32859     32856     32854     32857     32860
     32858     32857     32860     32861     32858     32857     32860     32862
     32858     32857     32860     32863     32859     32857     32860     32861
     32859     32857     32860     32862     32859     32857     32860     32863
     32864     32868     32871     32872     32864     32868     32871     32873
     32864     32868     32871     32878     32865     32864     32868     32869
     32865     32864     32868     32870     32865     32864     32868     32871
     32866     32864     32868     32869     32866     32864     32868     32870
     32866     32864     32868     32871     32867     32864     32868     32869
     32867     32864     32868     32870     32867     32864     32868     32871
     32868     32871     32878     32874     32869     32868     32871     32872
     32869     32868     32871     32873     32869     32868     32871     32878
     32870     32868     32871     32872     32870     32868     32871     32873
     32870     32868     32871     32878     32871     32878     32874     32875
     32871     32878     32874     32876     32871     32878     32874     32877
     32872     32871     32878     32874     32873     32871     32878     32874
     32874     32877     32879     32880     32874     32877     32879     32881
     32874     32877     32879     32882     32875     32874     32877     32879
     32876     32874     32877     32879     32877     32879     32882     32883
     32877     32879     32882     32884     32877     32879     32882     32890
     32878     32874     32877     32879     32879     32882     32884     32885
     32879     32882     32890     32891     32879     32882     32890     32892
     32879     32882     32890     32893     32880     32879     32882     32883
     32880     32879     32882     32884     32880     32879     32882     32890
     32881     32879     32882     32883     32881     32879     32882     32884
     32881     32879     32882     32890     32882     32884     32885     32886
     32882     32884     32885     32887     32882     32890     32893     32894
     32883     32882     32884     32885     32883     32882     32890     32891
     32883     32882     32890     32892     32883     32882     32890     32893
     32884     32882     32890     32891     32884     32882     32890     32892
     32884     32882     32890     32893     32884     32885     32887     32888
     32884     32885     32887     32889     32884     32885     32887     32899
     32885     32884     32882     32890     32885     32887     32899     32900
     32885     32887     32899     32901     32885     32887     32899     32902
     32886     32885     32887     32888     32886     32885     32887     32889
     32886     32885     32887     32899     32887     32899     32902     32903
     32887     32899     32902     32904     32887     32899     32902     32905
     32888     32887     32899     32900     32888     32887     32899     32901
     32888     32887     32899     32902     32889     32887     32899     32900
     32889     32887     32899     32901     32889     32887     32899     32902
     32890     32893     32894     32895     32890     32893     32894     32896
     32891     32890     32893     32894     32892     32890     32893     32894
     32893     32894     32896     32897     32893     32894     32896     32898
     32893     32894     32896     32943     32894     32896     32943     32944
     32894     32896     32943     32945     32894     32896     32943     32946
     32895     32894     32896     32897     32895     32894     32896     32898
     32895     32894     32896     32943     32896     32943     32946     32947
     32896     32943     32946     32948     32896     32943     32946     32949
     32897     32896     32943     32944     32897     32896     32943     32945
     32897     32896     32943     32946     32898     32896     32943     32944
     32898     32896     32943     32945     32898     32896     32943     32946
     32899     32902     32905     32906     32899     32902     32905     32907
     32899     32902     32905     32908     32900     32899     32902     32903
     32900     32899     32902     32904     32900     32899     32902     32905
     32901     32899     32902     32903     32901     32899     32902     32904
     32901     32899     32902     32905     32902     32905     32908     32909
     32902     32905     32908     32910     32902     32905     32908     32911
     32903     32902     32905     32906     32903     32902     32905     32907
     32903     32902     32905     32908     32904     32902     32905     32906
     32904     32902     32905     32907     32904     32902     32905     32908
     32905     32908     32911     32912     32905     32908     32911     32913
     32905     32908     32911     32914     32906     32905     32908     32909
     32906     32905     32908     32910     32906     32905     32908     32911
     32907     32905     32908     32909     32907     32905     32908     32910
     32907     32905     32908     32911     32908     32911     32914     32915
     32908     32911     32914     32916     32908     32911     32914     32917
     32909     32908     32911     32912     32909     32908     32911     32913
     32909     32908     32911     32914     32910     32908     32911     32912
     32910     32908     32911     32913     32910     32908     32911     32914
     32911     32914     32917     32918     32911     32914     32917     32919
     32911     32914     32917     32922     32912     32911     32914     32915
     32912     32911     32914     32916     32912     32911     32914     32917
     32913     32911     32914     32915     32913     32911     32914     32916
     32913     32911     32914     32917     32914     32917     32919     32920
     32914     32917     32919     32921     32914     32917     32919     32922
     32914     32917     32922     32919     32914     32917     32922     32923
     32914     32917     32922     32924     32915     32914     32917     32918
     32915     32914     32917     32919     32915     32914     32917     32922
     32916     32914     32917     32918     32916     32914     32917     32919
     32916     32914     32917     32922     32917     32919     32922     32923
     32917     32919     32922     32924     32917     32922     32919     32920
     32917     32922     32919     32921     32917     32922     32924     32925
     32917     32922     32924     32926     32917     32922     32924     32927
     32918     32917     32919     32920     32918     32917     32919     32921
     32918     32917     32919     32922     32918     32917     32922     32919
     32918     32917     32922     32923     32918     32917     32922     32924
     32919     32917     32922     32923     32919     32917     32922     32924
     32919     32922     32924     32925     32919     32922     32924     32926
     32919     32922     32924     32927     32920     32919     32917     32922
     32920     32919     32922     32923     32920     32919     32922     32924
     32921     32919     32917     32922     32921     32919     32922     32923
     32921     32919     32922     32924     32922     32924     32927     32928
     32922     32924     32927     32929     32922     32924     32927     32930
     32923     32922     32924     32925     32923     32922     32924     32926
     32923     32922     32924     32927     32924     32927     32930     32931
     32924     32927     32930     32932     32924     32927     32930     32933
     32925     32924     32927     32928     32925     32924     32927     32929
     32925     32924     32927     32930     32926     32924     32927     32928
     32926     32924     32927     32929     32926     32924     32927     32930
     32927     32930     32933     32934     32927     32930     32933     32935
     32927     32930     32933     32936     32928     32927     32930     32931
     32928     32927     32930     32932     32928     32927     32930     32933
     32929     32927     32930     32931     32929     32927     32930     32932
     32929     32927     32930     32933     32930     32933     32936     32937
     32930     32933     32936     32938     32930     32933     32936     32939
     32931     32930     32933     32934     32931     32930     32933     32935
     32931     32930     32933     32936     32932     32930     32933     32934
     32932     32930     32933     32935     32932     32930     32933     32936
     32933     32936     32939     32940     32933     32936     32939     32941
     32933     32936     32939     32942     32934     32933     32936     32937
     32934     32933     32936     32938     32934     32933     32936     32939
     32935     32933     32936     32937     32935     32933     32936     32938
     32935     32933     32936     32939     32937     32936     32939     32940
     32937     32936     32939     32941     32937     32936     32939     32942
     32938     32936     32939     32940     32938     32936     32939     32941
     32938     32936     32939     32942     32943     32946     32949     32950
     32943     32946     32949     32951     32943     32946     32949     32952
     32944     32943     32946     32947     32944     32943     32946     32948
     32944     32943     32946     32949     32945     32943     32946     32947
     32945     32943     32946     32948     32945     32943     32946     32949
     32946     32949     32952     32953     32946     32949     32952     32954
     32946     32949     32952     32955     32947     32946     32949     32950
     32947     32946     32949     32951     32947     32946     32949     32952
     32948     32946     32949     32950     32948     32946     32949     32951
     32948     32946     32949     32952     32949     32952     32955     32956
     32949     32952     32955     32957     32949     32952     32955     32958
     32950     32949     32952     32953     32950     32949     32952     32954
     32950     32949     32952     32955     32951     32949     32952     32953
     32951     32949     32952     32954     32951     32949     32952     32955
     32952     32955     32958     32959     32952     32955     32958     32960
     32952     32955     32958     32961     32953     32952     32955     32956
     32953     32952     32955     32957     32953     32952     32955     32958
     32954     32952     32955     32956     32954     32952     32955     32957
     32954     32952     32955     32958     32955     32958     32961     32962
     32955     32958     32961     32963     32955     32958     32961     32964
     32956     32955     32958     32959     32956     32955     32958     32960
     32956     32955     32958     32961     32957     32955     32958     32959
     32957     32955     32958     32960     32957     32955     32958     32961
     32958     32961     32964     32965     32958     32961     32964     32966
     32958     32961     32964     32967     32959     32958     32961     32962
     32959     32958     32961     32963     32959     32958     32961     32964
     32960     32958     32961     32962     32960     32958     32961     32963
     32960     32958     32961     32964     32961     32964     32967     32968
     32961     32964     32967     32969     32961     32964     32967     32970
     32962     32961     32964     32965     32962     32961     32964     32966
     32962     32961     32964     32967     32963     32961     32964     32965
     32963     32961     32964     32966     32963     32961     32964     32967
     32964     32967     32970     32971     32964     32967     32970     32972
     32964     32967     32970     32973     32965     32964     32967     32968
     32965     32964     32967     32969     32965     32964     32967     32970
     32966     32964     32967     32968     32966     32964     32967     32969
     32966     32964     32967     32970     32967     32970     32973     32974
     32967     32970     32973     32975     32967     32970     32973     32976
     32968     32967     32970     32971     32968     32967     32970     32972
     32968     32967     32970     32973     32969     32967     32970     32971
     32969     32967     32970     32972     32969     32967     32970     32973
     32970     32973     32976     32977     32970     32973     32976     32978
     32970     32973     32976     32979     32971     32970     32973     32974
     32971     32970     32973     32975     32971     32970     32973     32976
     32972     32970     32973     32974     32972     32970     32973     32975
     32972     32970     32973     32976     32973     32976     32979     32980
     32973     32976     32979     32981     32973     32976     32979     32982
     32974     32973     32976     32977     32974     32973     32976     32978
     32974     32973     32976     32979     32975     32973     32976     32977
     32975     32973     32976     32978     32975     32973     32976     32979
     32977     32976     32979     32980     32977     32976     32979     32981
     32977     32976     32979     32982     32978     32976     32979     32980
     32978     32976     32979     32981     32978     32976     32979     32982
     32983     32987     32990     32991     32983     32987     32990     32992
     32983     32987     32990     32997     32984     32983     32987     32988
     32984     32983     32987     32989     32984     32983     32987     32990
     32985     32983     32987     32988     32985     32983     32987     32989
     32985     32983     32987     32990     32986     32983     32987     32988
     32986     32983     32987     32989     32986     32983     32987     32990
     32987     32990     32997     32993     32988     32987     32990     32991
     32988     32987     32990     32992     32988     32987     32990     32997
     32989     32987     32990     32991     32989     32987     32990     32992
     32989     32987     32990     32997     32990     32997     32993     32994
     32990     32997     32993     32995     32990     32997     32993     32996
     32991     32990     32997     32993     32992     32990     32997     32993
     32993     32996     32998     32999     32993     32996     32998     33000
     32993     32996     32998     33001     32994     32993     32996     32998
     32995     32993     32996     32998     32996     32998     33001     33002
     32996     32998     33001     33003     32996     32998     33001     33009
     32997     32993     32996     32998     32998     33001     33003     33004
     32998     33001     33009     33010     32998     33001     33009     33011
     32998     33001     33009     33012     32999     32998     33001     33002
     32999     32998     33001     33003     32999     32998     33001     33009
     33000     32998     33001     33002     33000     32998     33001     33003
     33000     32998     33001     33009     33001     33003     33004     33005
     33001     33003     33004     33006     33001     33009     33012     33013
     33002     33001     33003     33004     33002     33001     33009     33010
     33002     33001     33009     33011     33002     33001     33009     33012
     33003     33001     33009     33010     33003     33001     33009     33011
     33003     33001     33009     33012     33003     33004     33006     33007
     33003     33004     33006     33008     33003     33004     33006     33018
     33004     33003     33001     33009     33004     33006     33018     33019
     33004     33006     33018     33020     33004     33006     33018     33021
     33005     33004     33006     33007     33005     33004     33006     33008
     33005     33004     33006     33018     33006     33018     33021     33022
     33006     33018     33021     33023     33006     33018     33021     33024
     33007     33006     33018     33019     33007     33006     33018     33020
     33007     33006     33018     33021     33008     33006     33018     33019
     33008     33006     33018     33020     33008     33006     33018     33021
     33009     33012     33013     33014     33009     33012     33013     33015
     33010     33009     33012     33013     33011     33009     33012     33013
     33012     33013     33015     33016     33012     33013     33015     33017
     33012     33013     33015     33065     33013     33015     33065     33066
     33013     33015     33065     33067     33013     33015     33065     33068
     33014     33013     33015     33016     33014     33013     33015     33017
     33014     33013     33015     33065     33015     33065     33068     33069
     33015     33065     33068     33070     33015     33065     33068     33071
     33016     33015     33065     33066     33016     33015     33065     33067
     33016     33015     33065     33068     33017     33015     33065     33066
     33017     33015     33065     33067     33017     33015     33065     33068
     33018     33021     33024     33025     33018     33021     33024     33026
     33018     33021     33024     33027     33019     33018     33021     33022
     33019     33018     33021     33023     33019     33018     33021     33024
     33020     33018     33021     33022     33020     33018     33021     33023
     33020     33018     33021     33024     33021     33024     33027     33028
     33021     33024     33027     33029     33021     33024     33027     33030
     33022     33021     33024     33025     33022     33021     33024     33026
     33022     33021     33024     33027     33023     33021     33024     33025
     33023     33021     33024     33026     33023     33021     33024     33027
     33024     33027     33030     33031     33024     33027     33030     33032
     33024     33027     33030     33033     33025     33024     33027     33028
     33025     33024     33027     33029     33025     33024     33027     33030
     33026     33024     33027     33028     33026     33024     33027     33029
     33026     33024     33027     33030     33027     33030     33033     33034
     33027     33030     33033     33035     33027     33030     33033     33036
     33028     33027     33030     33031     33028     33027     33030     33032
     33028     33027     33030     33033     33029     33027     33030     33031
     33029     33027     33030     33032     33029     33027     33030     33033
     33030     33033     33036     33037     33030     33033     33036     33038
     33031     33030     33033     33034     33031     33030     33033     33035
     33031     33030     33033     33036     33032     33030     33033     33034
     33032     33030     33033     33035     33032     33030     33033     33036
     33033     33036     33038     33039     33033     33036     33038     33040
     33034     33033     33036     33037     33034     33033     33036     33038
     33035     33033     33036     33037     33035     33033     33036     33038
     33036     33038     33040     33041     33036     33038     33040     33042
     33036     33038     33040     33043     33037     33036     33038     33039
     33037     33036     33038     33040     33038     33040     33043     33044
     33038     33040     33043     33045     33038     33040     33043     33046
     33039     33038     33040     33041     33039     33038     33040     33042
     33039     33038     33040     33043     33040     33043     33046     33047
     33040     33043     33046     33048     33040     33043     33046     33049
     33041     33040     33043     33044     33041     33040     33043     33045
     33041     33040     33043     33046     33042     33040     33043     33044
     33042     33040     33043     33045     33042     33040     33043     33046
     33043     33046     33049     33050     33043     33046     33049     33051
     33043     33046     33049     33052     33044     33043     33046     33047
     33044     33043     33046     33048     33044     33043     33046     33049
     33045     33043     33046     33047     33045     33043     33046     33048
     33045     33043     33046     33049     33046     33049     33052     33053
     33046     33049     33052     33054     33046     33049     33052     33055
     33047     33046     33049     33050     33047     33046     33049     33051
     33047     33046     33049     33052     33048     33046     33049     33050
     33048     33046     33049     33051     33048     33046     33049     33052
     33049     33052     33055     33056     33049     33052     33055     33057
     33049     33052     33055     33058     33050     33049     33052     33053
     33050     33049     33052     33054     33050     33049     33052     33055
     33051     33049     33052     33053     33051     33049     33052     33054
     33051     33049     33052     33055     33052     33055     33058     33059
     33052     33055     33058     33060     33052     33055     33058     33061
     33053     33052     33055     33056     33053     33052     33055     33057
     33053     33052     33055     33058     33054     33052     33055     33056
     33054     33052     33055     33057     33054     33052     33055     33058
     33055     33058     33061     33062     33055     33058     33061     33063
     33055     33058     33061     33064     33056     33055     33058     33059
     33056     33055     33058     33060     33056     33055     33058     33061
     33057     33055     33058     33059     33057     33055     33058     33060
     33057     33055     33058     33061     33059     33058     33061     33062
     33059     33058     33061     33063     33059     33058     33061     33064
     33060     33058     33061     33062     33060     33058     33061     33063
     33060     33058     33061     33064     33065     33068     33071     33072
     33065     33068     33071     33073     33065     33068     33071     33074
     33066     33065     33068     33069     33066     33065     33068     33070
     33066     33065     33068     33071     33067     33065     33068     33069
     33067     33065     33068     33070     33067     33065     33068     33071
     33068     33071     33074     33075     33068     33071     33074     33076
     33068     33071     33074     33077     33069     33068     33071     33072
     33069     33068     33071     33073     33069     33068     33071     33074
     33070     33068     33071     33072     33070     33068     33071     33073
     33070     33068     33071     33074     33071     33074     33077     33078
     33071     33074     33077     33079     33071     33074     33077     33080
     33072     33071     33074     33075     33072     33071     33074     33076
     33072     33071     33074     33077     33073     33071     33074     33075
     33073     33071     33074     33076     33073     33071     33074     33077
     33074     33077     33080     33081     33074     33077     33080     33082
     33074     33077     33080     33083     33075     33074     33077     33078
     33075     33074     33077     33079     33075     33074     33077     33080
     33076     33074     33077     33078     33076     33074     33077     33079
     33076     33074     33077     33080     33077     33080     33083     33084
     33077     33080     33083     33085     33077     33080     33083     33086
     33078     33077     33080     33081     33078     33077     33080     33082
     33078     33077     33080     33083     33079     33077     33080     33081
     33079     33077     33080     33082     33079     33077     33080     33083
     33080     33083     33086     33087     33080     33083     33086     33088
     33080     33083     33086     33089     33081     33080     33083     33084
     33081     33080     33083     33085     33081     33080     33083     33086
     33082     33080     33083     33084     33082     33080     33083     33085
     33082     33080     33083     33086     33083     33086     33089     33090
     33083     33086     33089     33091     33083     33086     33089     33092
     33084     33083     33086     33087     33084     33083     33086     33088
     33084     33083     33086     33089     33085     33083     33086     33087
     33085     33083     33086     33088     33085     33083     33086     33089
     33086     33089     33092     33093     33086     33089     33092     33094
     33086     33089     33092     33095     33087     33086     33089     33090
     33087     33086     33089     33091     33087     33086     33089     33092
     33088     33086     33089     33090     33088     33086     33089     33091
     33088     33086     33089     33092     33089     33092     33095     33096
     33089     33092     33095     33097     33089     33092     33095     33098
     33090     33089     33092     33093     33090     33089     33092     33094
     33090     33089     33092     33095     33091     33089     33092     33093
     33091     33089     33092     33094     33091     33089     33092     33095
     33092     33095     33098     33099     33092     33095     33098     33100
     33092     33095     33098     33101     33093     33092     33095     33096
     33093     33092     33095     33097     33093     33092     33095     33098
     33094     33092     33095     33096     33094     33092     33095     33097
     33094     33092     33095     33098     33095     33098     33101     33102
     33095     33098     33101     33103     33095     33098     33101     33104
     33096     33095     33098     33099     33096     33095     33098     33100
     33096     33095     33098     33101     33097     33095     33098     33099
     33097     33095     33098     33100     33097     33095     33098     33101
     33098     33101     33104     33105     33098     33101     33104     33106
     33098     33101     33104     33107     33099     33098     33101     33102
     33099     33098     33101     33103     33099     33098     33101     33104
     33100     33098     33101     33102     33100     33098     33101     33103
     33100     33098     33101     33104     33102     33101     33104     33105
     33102     33101     33104     33106     33102     33101     33104     33107
     33103     33101     33104     33105     33103     33101     33104     33106
     33103     33101     33104     33107     33108     33112     33115     33116
     33108     33112     33115     33117     33108     33112     33115     33122
     33109     33108     33112     33113     33109     33108     33112     33114
     33109     33108     33112     33115     33110     33108     33112     33113
     33110     33108     33112     33114     33110     33108     33112     33115
     33111     33108     33112     33113     33111     33108     33112     33114
     33111     33108     33112     33115     33112     33115     33122     33118
     33113     33112     33115     33116     33113     33112     33115     33117
     33113     33112     33115     33122     33114     33112     33115     33116
     33114     33112     33115     33117     33114     33112     33115     33122
     33115     33122     33118     33119     33115     33122     33118     33120
     33115     33122     33118     33121     33116     33115     33122     33118
     33117     33115     33122     33118     33118     33121     33123     33124
     33118     33121     33123     33125     33118     33121     33123     33126
     33119     33118     33121     33123     33120     33118     33121     33123
     33121     33123     33126     33127     33121     33123     33126     33128
     33121     33123     33126     33134     33122     33118     33121     33123
     33123     33126     33128     33129     33123     33126     33134     33135
     33123     33126     33134     33136     33123     33126     33134     33137
     33124     33123     33126     33127     33124     33123     33126     33128
     33124     33123     33126     33134     33125     33123     33126     33127
     33125     33123     33126     33128     33125     33123     33126     33134
     33126     33128     33129     33130     33126     33128     33129     33131
     33126     33134     33137     33138     33127     33126     33128     33129
     33127     33126     33134     33135     33127     33126     33134     33136
     33127     33126     33134     33137     33128     33126     33134     33135
     33128     33126     33134     33136     33128     33126     33134     33137
     33128     33129     33131     33132     33128     33129     33131     33133
     33128     33129     33131     33143     33129     33128     33126     33134
     33129     33131     33143     33144     33129     33131     33143     33145
     33129     33131     33143     33146     33130     33129     33131     33132
     33130     33129     33131     33133     33130     33129     33131     33143
     33131     33143     33146     33147     33131     33143     33146     33148
     33131     33143     33146     33149     33132     33131     33143     33144
     33132     33131     33143     33145     33132     33131     33143     33146
     33133     33131     33143     33144     33133     33131     33143     33145
     33133     33131     33143     33146     33134     33137     33138     33139
     33134     33137     33138     33140     33135     33134     33137     33138
     33136     33134     33137     33138     33137     33138     33140     33141
     33137     33138     33140     33142     33137     33138     33140     33187
     33138     33140     33187     33188     33138     33140     33187     33189
     33138     33140     33187     33190     33139     33138     33140     33141
     33139     33138     33140     33142     33139     33138     33140     33187
     33140     33187     33190     33191     33140     33187     33190     33192
     33140     33187     33190     33193     33141     33140     33187     33188
     33141     33140     33187     33189     33141     33140     33187     33190
     33142     33140     33187     33188     33142     33140     33187     33189
     33142     33140     33187     33190     33143     33146     33149     33150
     33143     33146     33149     33151     33143     33146     33149     33152
     33144     33143     33146     33147     33144     33143     33146     33148
     33144     33143     33146     33149     33145     33143     33146     33147
     33145     33143     33146     33148     33145     33143     33146     33149
     33146     33149     33152     33153     33146     33149     33152     33154
     33146     33149     33152     33155     33147     33146     33149     33150
     33147     33146     33149     33151     33147     33146     33149     33152
     33148     33146     33149     33150     33148     33146     33149     33151
     33148     33146     33149     33152     33149     33152     33155     33156
     33149     33152     33155     33157     33149     33152     33155     33158
     33150     33149     33152     33153     33150     33149     33152     33154
     33150     33149     33152     33155     33151     33149     33152     33153
     33151     33149     33152     33154     33151     33149     33152     33155
     33152     33155     33158     33159     33152     33155     33158     33160
     33152     33155     33158     33161     33153     33152     33155     33156
     33153     33152     33155     33157     33153     33152     33155     33158
     33154     33152     33155     33156     33154     33152     33155     33157
     33154     33152     33155     33158     33155     33158     33161     33162
     33155     33158     33161     33163     33155     33158     33161     33166
     33156     33155     33158     33159     33156     33155     33158     33160
     33156     33155     33158     33161     33157     33155     33158     33159
     33157     33155     33158     33160     33157     33155     33158     33161
     33158     33161     33163     33164     33158     33161     33163     33165
     33158     33161     33163     33166     33158     33161     33166     33163
     33158     33161     33166     33167     33158     33161     33166     33168
     33159     33158     33161     33162     33159     33158     33161     33163
     33159     33158     33161     33166     33160     33158     33161     33162
     33160     33158     33161     33163     33160     33158     33161     33166
     33161     33163     33166     33167     33161     33163     33166     33168
     33161     33166     33163     33164     33161     33166     33163     33165
     33161     33166     33168     33169     33161     33166     33168     33170
     33161     33166     33168     33171     33162     33161     33163     33164
     33162     33161     33163     33165     33162     33161     33163     33166
     33162     33161     33166     33163     33162     33161     33166     33167
     33162     33161     33166     33168     33163     33161     33166     33167
     33163     33161     33166     33168     33163     33166     33168     33169
     33163     33166     33168     33170     33163     33166     33168     33171
     33164     33163     33161     33166     33164     33163     33166     33167
     33164     33163     33166     33168     33165     33163     33161     33166
     33165     33163     33166     33167     33165     33163     33166     33168
     33166     33168     33171     33172     33166     33168     33171     33173
     33166     33168     33171     33174     33167     33166     33168     33169
     33167     33166     33168     33170     33167     33166     33168     33171
     33168     33171     33174     33175     33168     33171     33174     33176
     33168     33171     33174     33177     33169     33168     33171     33172
     33169     33168     33171     33173     33169     33168     33171     33174
     33170     33168     33171     33172     33170     33168     33171     33173
     33170     33168     33171     33174     33171     33174     33177     33178
     33171     33174     33177     33179     33171     33174     33177     33180
     33172     33171     33174     33175     33172     33171     33174     33176
     33172     33171     33174     33177     33173     33171     33174     33175
     33173     33171     33174     33176     33173     33171     33174     33177
     33174     33177     33180     33181     33174     33177     33180     33182
     33174     33177     33180     33183     33175     33174     33177     33178
     33175     33174     33177     33179     33175     33174     33177     33180
     33176     33174     33177     33178     33176     33174     33177     33179
     33176     33174     33177     33180     33177     33180     33183     33184
     33177     33180     33183     33185     33177     33180     33183     33186
     33178     33177     33180     33181     33178     33177     33180     33182
     33178     33177     33180     33183     33179     33177     33180     33181
     33179     33177     33180     33182     33179     33177     33180     33183
     33181     33180     33183     33184     33181     33180     33183     33185
     33181     33180     33183     33186     33182     33180     33183     33184
     33182     33180     33183     33185     33182     33180     33183     33186
     33187     33190     33193     33194     33187     33190     33193     33195
     33187     33190     33193     33196     33188     33187     33190     33191
     33188     33187     33190     33192     33188     33187     33190     33193
     33189     33187     33190     33191     33189     33187     33190     33192
     33189     33187     33190     33193     33190     33193     33196     33197
     33190     33193     33196     33198     33190     33193     33196     33199
     33191     33190     33193     33194     33191     33190     33193     33195
     33191     33190     33193     33196     33192     33190     33193     33194
     33192     33190     33193     33195     33192     33190     33193     33196
     33193     33196     33199     33200     33193     33196     33199     33201
     33193     33196     33199     33202     33194     33193     33196     33197
     33194     33193     33196     33198     33194     33193     33196     33199
     33195     33193     33196     33197     33195     33193     33196     33198
     33195     33193     33196     33199     33196     33199     33202     33203
     33196     33199     33202     33204     33196     33199     33202     33205
     33197     33196     33199     33200     33197     33196     33199     33201
     33197     33196     33199     33202     33198     33196     33199     33200
     33198     33196     33199     33201     33198     33196     33199     33202
     33199     33202     33205     33206     33199     33202     33205     33207
     33199     33202     33205     33208     33200     33199     33202     33203
     33200     33199     33202     33204     33200     33199     33202     33205
     33201     33199     33202     33203     33201     33199     33202     33204
     33201     33199     33202     33205     33202     33205     33208     33209
     33202     33205     33208     33210     33202     33205     33208     33211
     33203     33202     33205     33206     33203     33202     33205     33207
     33203     33202     33205     33208     33204     33202     33205     33206
     33204     33202     33205     33207     33204     33202     33205     33208
     33205     33208     33211     33212     33205     33208     33211     33213
     33205     33208     33211     33214     33206     33205     33208     33209
     33206     33205     33208     33210     33206     33205     33208     33211
     33207     33205     33208     33209     33207     33205     33208     33210
     33207     33205     33208     33211     33208     33211     33214     33215
     33208     33211     33214     33216     33208     33211     33214     33217
     33209     33208     33211     33212     33209     33208     33211     33213
     33209     33208     33211     33214     33210     33208     33211     33212
     33210     33208     33211     33213     33210     33208     33211     33214
     33211     33214     33217     33218     33211     33214     33217     33219
     33211     33214     33217     33220     33212     33211     33214     33215
     33212     33211     33214     33216     33212     33211     33214     33217
     33213     33211     33214     33215     33213     33211     33214     33216
     33213     33211     33214     33217     33214     33217     33220     33221
     33214     33217     33220     33222     33214     33217     33220     33223
     33215     33214     33217     33218     33215     33214     33217     33219
     33215     33214     33217     33220     33216     33214     33217     33218
     33216     33214     33217     33219     33216     33214     33217     33220
     33217     33220     33223     33224     33217     33220     33223     33225
     33217     33220     33223     33226     33218     33217     33220     33221
     33218     33217     33220     33222     33218     33217     33220     33223
     33219     33217     33220     33221     33219     33217     33220     33222
     33219     33217     33220     33223     33220     33223     33226     33227
     33220     33223     33226     33228     33220     33223     33226     33229
     33221     33220     33223     33224     33221     33220     33223     33225
     33221     33220     33223     33226     33222     33220     33223     33224
     33222     33220     33223     33225     33222     33220     33223     33226
     33224     33223     33226     33227     33224     33223     33226     33228
     33224     33223     33226     33229     33225     33223     33226     33227
     33225     33223     33226     33228     33225     33223     33226     33229
     33230     33234     33237     33238     33230     33234     33237     33239
     33230     33234     33237     33244     33231     33230     33234     33235
     33231     33230     33234     33236     33231     33230     33234     33237
     33232     33230     33234     33235     33232     33230     33234     33236
     33232     33230     33234     33237     33233     33230     33234     33235
     33233     33230     33234     33236     33233     33230     33234     33237
     33234     33237     33244     33240     33235     33234     33237     33238
     33235     33234     33237     33239     33235     33234     33237     33244
     33236     33234     33237     33238     33236     33234     33237     33239
     33236     33234     33237     33244     33237     33244     33240     33241
     33237     33244     33240     33242     33237     33244     33240     33243
     33238     33237     33244     33240     33239     33237     33244     33240
     33240     33243     33245     33246     33240     33243     33245     33247
     33240     33243     33245     33248     33241     33240     33243     33245
     33242     33240     33243     33245     33243     33245     33248     33249
     33243     33245     33248     33250     33243     33245     33248     33256
     33244     33240     33243     33245     33245     33248     33250     33251
     33245     33248     33256     33257     33245     33248     33256     33258
     33245     33248     33256     33259     33246     33245     33248     33249
     33246     33245     33248     33250     33246     33245     33248     33256
     33247     33245     33248     33249     33247     33245     33248     33250
     33247     33245     33248     33256     33248     33250     33251     33252
     33248     33250     33251     33253     33248     33256     33259     33260
     33249     33248     33250     33251     33249     33248     33256     33257
     33249     33248     33256     33258     33249     33248     33256     33259
     33250     33248     33256     33257     33250     33248     33256     33258
     33250     33248     33256     33259     33250     33251     33253     33254
     33250     33251     33253     33255     33250     33251     33253     33265
     33251     33250     33248     33256     33251     33253     33265     33266
     33251     33253     33265     33267     33251     33253     33265     33268
     33252     33251     33253     33254     33252     33251     33253     33255
     33252     33251     33253     33265     33253     33265     33268     33269
     33253     33265     33268     33270     33253     33265     33268     33271
     33254     33253     33265     33266     33254     33253     33265     33267
     33254     33253     33265     33268     33255     33253     33265     33266
     33255     33253     33265     33267     33255     33253     33265     33268
     33256     33259     33260     33261     33256     33259     33260     33262
     33257     33256     33259     33260     33258     33256     33259     33260
     33259     33260     33262     33263     33259     33260     33262     33264
     33259     33260     33262     33309     33260     33262     33309     33310
     33260     33262     33309     33311     33260     33262     33309     33312
     33261     33260     33262     33263     33261     33260     33262     33264
     33261     33260     33262     33309     33262     33309     33312     33313
     33262     33309     33312     33314     33262     33309     33312     33315
     33263     33262     33309     33310     33263     33262     33309     33311
     33263     33262     33309     33312     33264     33262     33309     33310
     33264     33262     33309     33311     33264     33262     33309     33312
     33265     33268     33271     33272     33265     33268     33271     33273
     33265     33268     33271     33274     33266     33265     33268     33269
     33266     33265     33268     33270     33266     33265     33268     33271
     33267     33265     33268     33269     33267     33265     33268     33270
     33267     33265     33268     33271     33268     33271     33274     33275
     33268     33271     33274     33276     33268     33271     33274     33277
     33269     33268     33271     33272     33269     33268     33271     33273
     33269     33268     33271     33274     33270     33268     33271     33272
     33270     33268     33271     33273     33270     33268     33271     33274
     33271     33274     33277     33278     33271     33274     33277     33279
     33271     33274     33277     33280     33272     33271     33274     33275
     33272     33271     33274     33276     33272     33271     33274     33277
     33273     33271     33274     33275     33273     33271     33274     33276
     33273     33271     33274     33277     33274     33277     33280     33281
     33274     33277     33280     33282     33274     33277     33280     33283
     33275     33274     33277     33278     33275     33274     33277     33279
     33275     33274     33277     33280     33276     33274     33277     33278
     33276     33274     33277     33279     33276     33274     33277     33280
     33277     33280     33283     33284     33277     33280     33283     33285
     33277     33280     33283     33288     33278     33277     33280     33281
     33278     33277     33280     33282     33278     33277     33280     33283
     33279     33277     33280     33281     33279     33277     33280     33282
     33279     33277     33280     33283     33280     33283     33285     33286
     33280     33283     33285     33287     33280     33283     33285     33288
     33280     33283     33288     33285     33280     33283     33288     33289
     33280     33283     33288     33290     33281     33280     33283     33284
     33281     33280     33283     33285     33281     33280     33283     33288
     33282     33280     33283     33284     33282     33280     33283     33285
     33282     33280     33283     33288     33283     33285     33288     33289
     33283     33285     33288     33290     33283     33288     33285     33286
     33283     33288     33285     33287     33283     33288     33290     33291
     33283     33288     33290     33292     33283     33288     33290     33293
     33284     33283     33285     33286     33284     33283     33285     33287
     33284     33283     33285     33288     33284     33283     33288     33285
     33284     33283     33288     33289     33284     33283     33288     33290
     33285     33283     33288     33289     33285     33283     33288     33290
     33285     33288     33290     33291     33285     33288     33290     33292
     33285     33288     33290     33293     33286     33285     33283     33288
     33286     33285     33288     33289     33286     33285     33288     33290
     33287     33285     33283     33288     33287     33285     33288     33289
     33287     33285     33288     33290     33288     33290     33293     33294
     33288     33290     33293     33295     33288     33290     33293     33296
     33289     33288     33290     33291     33289     33288     33290     33292
     33289     33288     33290     33293     33290     33293     33296     33297
     33290     33293     33296     33298     33290     33293     33296     33299
     33291     33290     33293     33294     33291     33290     33293     33295
     33291     33290     33293     33296     33292     33290     33293     33294
     33292     33290     33293     33295     33292     33290     33293     33296
     33293     33296     33299     33300     33293     33296     33299     33301
     33293     33296     33299     33302     33294     33293     33296     33297
     33294     33293     33296     33298     33294     33293     33296     33299
     33295     33293     33296     33297     33295     33293     33296     33298
     33295     33293     33296     33299     33296     33299     33302     33303
     33296     33299     33302     33304     33296     33299     33302     33305
     33297     33296     33299     33300     33297     33296     33299     33301
     33297     33296     33299     33302     33298     33296     33299     33300
     33298     33296     33299     33301     33298     33296     33299     33302
     33299     33302     33305     33306     33299     33302     33305     33307
     33299     33302     33305     33308     33300     33299     33302     33303
     33300     33299     33302     33304     33300     33299     33302     33305
     33301     33299     33302     33303     33301     33299     33302     33304
     33301     33299     33302     33305     33303     33302     33305     33306
     33303     33302     33305     33307     33303     33302     33305     33308
     33304     33302     33305     33306     33304     33302     33305     33307
     33304     33302     33305     33308     33309     33312     33315     33316
     33309     33312     33315     33317     33309     33312     33315     33318
     33310     33309     33312     33313     33310     33309     33312     33314
     33310     33309     33312     33315     33311     33309     33312     33313
     33311     33309     33312     33314     33311     33309     33312     33315
     33312     33315     33318     33319     33312     33315     33318     33320
     33312     33315     33318     33321     33313     33312     33315     33316
     33313     33312     33315     33317     33313     33312     33315     33318
     33314     33312     33315     33316     33314     33312     33315     33317
     33314     33312     33315     33318     33315     33318     33321     33322
     33315     33318     33321     33323     33315     33318     33321     33324
     33316     33315     33318     33319     33316     33315     33318     33320
     33316     33315     33318     33321     33317     33315     33318     33319
     33317     33315     33318     33320     33317     33315     33318     33321
     33318     33321     33324     33325     33318     33321     33324     33326
     33318     33321     33324     33327     33319     33318     33321     33322
     33319     33318     33321     33323     33319     33318     33321     33324
     33320     33318     33321     33322     33320     33318     33321     33323
     33320     33318     33321     33324     33321     33324     33327     33328
     33321     33324     33327     33329     33321     33324     33327     33330
     33322     33321     33324     33325     33322     33321     33324     33326
     33322     33321     33324     33327     33323     33321     33324     33325
     33323     33321     33324     33326     33323     33321     33324     33327
     33324     33327     33330     33331     33324     33327     33330     33332
     33324     33327     33330     33333     33325     33324     33327     33328
     33325     33324     33327     33329     33325     33324     33327     33330
     33326     33324     33327     33328     33326     33324     33327     33329
     33326     33324     33327     33330     33327     33330     33333     33334
     33327     33330     33333     33335     33327     33330     33333     33336
     33328     33327     33330     33331     33328     33327     33330     33332
     33328     33327     33330     33333     33329     33327     33330     33331
     33329     33327     33330     33332     33329     33327     33330     33333
     33330     33333     33336     33337     33330     33333     33336     33338
     33330     33333     33336     33339     33331     33330     33333     33334
     33331     33330     33333     33335     33331     33330     33333     33336
     33332     33330     33333     33334     33332     33330     33333     33335
     33332     33330     33333     33336     33333     33336     33339     33340
     33333     33336     33339     33341     33333     33336     33339     33342
     33334     33333     33336     33337     33334     33333     33336     33338
     33334     33333     33336     33339     33335     33333     33336     33337
     33335     33333     33336     33338     33335     33333     33336     33339
     33336     33339     33342     33343     33336     33339     33342     33344
     33336     33339     33342     33345     33337     33336     33339     33340
     33337     33336     33339     33341     33337     33336     33339     33342
     33338     33336     33339     33340     33338     33336     33339     33341
     33338     33336     33339     33342     33339     33342     33345     33346
     33339     33342     33345     33347     33339     33342     33345     33348
     33340     33339     33342     33343     33340     33339     33342     33344
     33340     33339     33342     33345     33341     33339     33342     33343
     33341     33339     33342     33344     33341     33339     33342     33345
     33342     33345     33348     33349     33342     33345     33348     33350
     33342     33345     33348     33351     33343     33342     33345     33346
     33343     33342     33345     33347     33343     33342     33345     33348
     33344     33342     33345     33346     33344     33342     33345     33347
     33344     33342     33345     33348     33346     33345     33348     33349
     33346     33345     33348     33350     33346     33345     33348     33351
     33347     33345     33348     33349     33347     33345     33348     33350
     33347     33345     33348     33351     33352     33356     33359     33360
     33352     33356     33359     33361     33352     33356     33359     33366
     33353     33352     33356     33357     33353     33352     33356     33358
     33353     33352     33356     33359     33354     33352     33356     33357
     33354     33352     33356     33358     33354     33352     33356     33359
     33355     33352     33356     33357     33355     33352     33356     33358
     33355     33352     33356     33359     33356     33359     33366     33362
     33357     33356     33359     33360     33357     33356     33359     33361
     33357     33356     33359     33366     33358     33356     33359     33360
     33358     33356     33359     33361     33358     33356     33359     33366
     33359     33366     33362     33363     33359     33366     33362     33364
     33359     33366     33362     33365     33360     33359     33366     33362
     33361     33359     33366     33362     33362     33365     33367     33368
     33362     33365     33367     33369     33362     33365     33367     33370
     33363     33362     33365     33367     33364     33362     33365     33367
     33365     33367     33370     33371     33365     33367     33370     33372
     33365     33367     33370     33378     33366     33362     33365     33367
     33367     33370     33372     33373     33367     33370     33378     33379
     33367     33370     33378     33380     33367     33370     33378     33381
     33368     33367     33370     33371     33368     33367     33370     33372
     33368     33367     33370     33378     33369     33367     33370     33371
     33369     33367     33370     33372     33369     33367     33370     33378
     33370     33372     33373     33374     33370     33372     33373     33375
     33370     33378     33381     33382     33371     33370     33372     33373
     33371     33370     33378     33379     33371     33370     33378     33380
     33371     33370     33378     33381     33372     33370     33378     33379
     33372     33370     33378     33380     33372     33370     33378     33381
     33372     33373     33375     33376     33372     33373     33375     33377
     33372     33373     33375     33387     33373     33372     33370     33378
     33373     33375     33387     33388     33373     33375     33387     33389
     33373     33375     33387     33390     33374     33373     33375     33376
     33374     33373     33375     33377     33374     33373     33375     33387
     33375     33387     33390     33391     33375     33387     33390     33392
     33375     33387     33390     33393     33376     33375     33387     33388
     33376     33375     33387     33389     33376     33375     33387     33390
     33377     33375     33387     33388     33377     33375     33387     33389
     33377     33375     33387     33390     33378     33381     33382     33383
     33378     33381     33382     33384     33379     33378     33381     33382
     33380     33378     33381     33382     33381     33382     33384     33385
     33381     33382     33384     33386     33381     33382     33384     33428
     33382     33384     33428     33429     33382     33384     33428     33430
     33382     33384     33428     33431     33383     33382     33384     33385
     33383     33382     33384     33386     33383     33382     33384     33428
     33384     33428     33431     33432     33384     33428     33431     33433
     33384     33428     33431     33434     33385     33384     33428     33429
     33385     33384     33428     33430     33385     33384     33428     33431
     33386     33384     33428     33429     33386     33384     33428     33430
     33386     33384     33428     33431     33387     33390     33393     33394
     33387     33390     33393     33395     33387     33390     33393     33396
     33388     33387     33390     33391     33388     33387     33390     33392
     33388     33387     33390     33393     33389     33387     33390     33391
     33389     33387     33390     33392     33389     33387     33390     33393
     33390     33393     33396     33397     33390     33393     33396     33398
     33390     33393     33396     33399     33391     33390     33393     33394
     33391     33390     33393     33395     33391     33390     33393     33396
     33392     33390     33393     33394     33392     33390     33393     33395
     33392     33390     33393     33396     33393     33396     33399     33400
     33393     33396     33399     33401     33393     33396     33399     33402
     33394     33393     33396     33397     33394     33393     33396     33398
     33394     33393     33396     33399     33395     33393     33396     33397
     33395     33393     33396     33398     33395     33393     33396     33399
     33396     33399     33402     33403     33396     33399     33402     33404
     33396     33399     33402     33405     33397     33396     33399     33400
     33397     33396     33399     33401     33397     33396     33399     33402
     33398     33396     33399     33400     33398     33396     33399     33401
     33398     33396     33399     33402     33399     33402     33405     33406
     33399     33402     33405     33407     33400     33399     33402     33403
     33400     33399     33402     33404     33400     33399     33402     33405
     33401     33399     33402     33403     33401     33399     33402     33404
     33401     33399     33402     33405     33402     33405     33407     33408
     33402     33405     33407     33409     33403     33402     33405     33406
     33403     33402     33405     33407     33404     33402     33405     33406
     33404     33402     33405     33407     33405     33407     33409     33410
     33405     33407     33409     33411     33405     33407     33409     33412
     33406     33405     33407     33408     33406     33405     33407     33409
     33407     33409     33412     33413     33407     33409     33412     33414
     33407     33409     33412     33415     33408     33407     33409     33410
     33408     33407     33409     33411     33408     33407     33409     33412
     33409     33412     33415     33416     33409     33412     33415     33417
     33409     33412     33415     33418     33410     33409     33412     33413
     33410     33409     33412     33414     33410     33409     33412     33415
     33411     33409     33412     33413     33411     33409     33412     33414
     33411     33409     33412     33415     33412     33415     33418     33419
     33412     33415     33418     33420     33412     33415     33418     33421
     33413     33412     33415     33416     33413     33412     33415     33417
     33413     33412     33415     33418     33414     33412     33415     33416
     33414     33412     33415     33417     33414     33412     33415     33418
     33415     33418     33421     33422     33415     33418     33421     33423
     33415     33418     33421     33424     33416     33415     33418     33419
     33416     33415     33418     33420     33416     33415     33418     33421
     33417     33415     33418     33419     33417     33415     33418     33420
     33417     33415     33418     33421     33418     33421     33424     33425
     33418     33421     33424     33426     33418     33421     33424     33427
     33419     33418     33421     33422     33419     33418     33421     33423
     33419     33418     33421     33424     33420     33418     33421     33422
     33420     33418     33421     33423     33420     33418     33421     33424
     33422     33421     33424     33425     33422     33421     33424     33426
     33422     33421     33424     33427     33423     33421     33424     33425
     33423     33421     33424     33426     33423     33421     33424     33427
     33428     33431     33434     33435     33428     33431     33434     33436
     33428     33431     33434     33437     33429     33428     33431     33432
     33429     33428     33431     33433     33429     33428     33431     33434
     33430     33428     33431     33432     33430     33428     33431     33433
     33430     33428     33431     33434     33431     33434     33437     33438
     33431     33434     33437     33439     33431     33434     33437     33440
     33432     33431     33434     33435     33432     33431     33434     33436
     33432     33431     33434     33437     33433     33431     33434     33435
     33433     33431     33434     33436     33433     33431     33434     33437
     33434     33437     33440     33441     33434     33437     33440     33442
     33434     33437     33440     33443     33435     33434     33437     33438
     33435     33434     33437     33439     33435     33434     33437     33440
     33436     33434     33437     33438     33436     33434     33437     33439
     33436     33434     33437     33440     33437     33440     33443     33444
     33437     33440     33443     33445     33437     33440     33443     33446
     33438     33437     33440     33441     33438     33437     33440     33442
     33438     33437     33440     33443     33439     33437     33440     33441
     33439     33437     33440     33442     33439     33437     33440     33443
     33440     33443     33446     33447     33440     33443     33446     33448
     33441     33440     33443     33444     33441     33440     33443     33445
     33441     33440     33443     33446     33442     33440     33443     33444
     33442     33440     33443     33445     33442     33440     33443     33446
     33443     33446     33448     33449     33443     33446     33448     33450
     33444     33443     33446     33447     33444     33443     33446     33448
     33445     33443     33446     33447     33445     33443     33446     33448
     33446     33448     33450     33451     33446     33448     33450     33452
     33446     33448     33450     33453     33447     33446     33448     33449
     33447     33446     33448     33450     33448     33450     33453     33454
     33448     33450     33453     33455     33448     33450     33453     33456
     33449     33448     33450     33451     33449     33448     33450     33452
     33449     33448     33450     33453     33450     33453     33456     33457
     33450     33453     33456     33458     33450     33453     33456     33459
     33451     33450     33453     33454     33451     33450     33453     33455
     33451     33450     33453     33456     33452     33450     33453     33454
     33452     33450     33453     33455     33452     33450     33453     33456
     33453     33456     33459     33460     33453     33456     33459     33461
     33453     33456     33459     33462     33454     33453     33456     33457
     33454     33453     33456     33458     33454     33453     33456     33459
     33455     33453     33456     33457     33455     33453     33456     33458
     33455     33453     33456     33459     33456     33459     33462     33463
     33456     33459     33462     33464     33456     33459     33462     33465
     33457     33456     33459     33460     33457     33456     33459     33461
     33457     33456     33459     33462     33458     33456     33459     33460
     33458     33456     33459     33461     33458     33456     33459     33462
     33459     33462     33465     33466     33459     33462     33465     33467
     33459     33462     33465     33468     33460     33459     33462     33463
     33460     33459     33462     33464     33460     33459     33462     33465
     33461     33459     33462     33463     33461     33459     33462     33464
     33461     33459     33462     33465     33462     33465     33468     33469
     33462     33465     33468     33470     33462     33465     33468     33471
     33463     33462     33465     33466     33463     33462     33465     33467
     33463     33462     33465     33468     33464     33462     33465     33466
     33464     33462     33465     33467     33464     33462     33465     33468
     33465     33468     33471     33472     33465     33468     33471     33473
     33465     33468     33471     33474     33466     33465     33468     33469
     33466     33465     33468     33470     33466     33465     33468     33471
     33467     33465     33468     33469     33467     33465     33468     33470
     33467     33465     33468     33471     33469     33468     33471     33472
     33469     33468     33471     33473     33469     33468     33471     33474
     33470     33468     33471     33472     33470     33468     33471     33473
     33470     33468     33471     33474     33475     33480     33482     33483
     33475     33480     33484     33485     33475     33480     33484     33486
     33475     33480     33484     33491     33476     33475     33478     33479
     33476     33475     33480     33481     33476     33475     33480     33482
     33476     33475     33480     33484     33477     33475     33478     33479
     33477     33475     33480     33481     33477     33475     33480     33482
     33477     33475     33480     33484     33478     33475     33480     33481
     33478     33475     33480     33482     33478     33475     33480     33484
     33479     33478     33475     33480     33480     33484     33491     33487
     33481     33480     33482     33483     33481     33480     33484     33485
     33481     33480     33484     33486     33481     33480     33484     33491
     33482     33480     33484     33485     33482     33480     33484     33486
     33482     33480     33484     33491     33483     33482     33480     33484
     33484     33491     33487     33488     33484     33491     33487     33489
     33484     33491     33487     33490     33485     33484     33491     33487
     33486     33484     33491     33487     33487     33490     33492     33493
     33487     33490     33492     33494     33487     33490     33492     33495
     33488     33487     33490     33492     33489     33487     33490     33492
     33490     33492     33495     33496     33490     33492     33495     33497
     33490     33492     33495     33503     33491     33487     33490     33492
     33492     33495     33497     33498     33492     33495     33503     33504
     33492     33495     33503     33505     33492     33495     33503     33506
     33493     33492     33495     33496     33493     33492     33495     33497
     33493     33492     33495     33503     33494     33492     33495     33496
     33494     33492     33495     33497     33494     33492     33495     33503
     33495     33497     33498     33499     33495     33497     33498     33500
     33495     33503     33506     33507     33496     33495     33497     33498
     33496     33495     33503     33504     33496     33495     33503     33505
     33496     33495     33503     33506     33497     33495     33503     33504
     33497     33495     33503     33505     33497     33495     33503     33506
     33497     33498     33500     33501     33497     33498     33500     33502
     33497     33498     33500     33512     33498     33497     33495     33503
     33498     33500     33512     33513     33498     33500     33512     33514
     33498     33500     33512     33515     33499     33498     33500     33501
     33499     33498     33500     33502     33499     33498     33500     33512
     33500     33512     33515     33516     33500     33512     33515     33517
     33500     33512     33515     33518     33501     33500     33512     33513
     33501     33500     33512     33514     33501     33500     33512     33515
     33502     33500     33512     33513     33502     33500     33512     33514
     33502     33500     33512     33515     33503     33506     33507     33508
     33503     33506     33507     33509     33504     33503     33506     33507
     33505     33503     33506     33507     33506     33507     33509     33510
     33506     33507     33509     33511     33506     33507     33509     33553
     33507     33509     33553     33554     33507     33509     33553     33555
     33507     33509     33553     33556     33508     33507     33509     33510
     33508     33507     33509     33511     33508     33507     33509     33553
     33509     33553     33556     33557     33509     33553     33556     33558
     33509     33553     33556     33559     33510     33509     33553     33554
     33510     33509     33553     33555     33510     33509     33553     33556
     33511     33509     33553     33554     33511     33509     33553     33555
     33511     33509     33553     33556     33512     33515     33518     33519
     33512     33515     33518     33520     33512     33515     33518     33521
     33513     33512     33515     33516     33513     33512     33515     33517
     33513     33512     33515     33518     33514     33512     33515     33516
     33514     33512     33515     33517     33514     33512     33515     33518
     33515     33518     33521     33522     33515     33518     33521     33523
     33515     33518     33521     33524     33516     33515     33518     33519
     33516     33515     33518     33520     33516     33515     33518     33521
     33517     33515     33518     33519     33517     33515     33518     33520
     33517     33515     33518     33521     33518     33521     33524     33525
     33518     33521     33524     33526     33518     33521     33524     33527
     33519     33518     33521     33522     33519     33518     33521     33523
     33519     33518     33521     33524     33520     33518     33521     33522
     33520     33518     33521     33523     33520     33518     33521     33524
     33521     33524     33527     33528     33521     33524     33527     33529
     33521     33524     33527     33530     33522     33521     33524     33525
     33522     33521     33524     33526     33522     33521     33524     33527
     33523     33521     33524     33525     33523     33521     33524     33526
     33523     33521     33524     33527     33524     33527     33530     33531
     33524     33527     33530     33532     33525     33524     33527     33528
     33525     33524     33527     33529     33525     33524     33527     33530
     33526     33524     33527     33528     33526     33524     33527     33529
     33526     33524     33527     33530     33527     33530     33532     33533
     33527     33530     33532     33534     33528     33527     33530     33531
     33528     33527     33530     33532     33529     33527     33530     33531
     33529     33527     33530     33532     33530     33532     33534     33535
     33530     33532     33534     33536     33530     33532     33534     33537
     33531     33530     33532     33533     33531     33530     33532     33534
     33532     33534     33537     33538     33532     33534     33537     33539
     33532     33534     33537     33540     33533     33532     33534     33535
     33533     33532     33534     33536     33533     33532     33534     33537
     33534     33537     33540     33541     33534     33537     33540     33542
     33534     33537     33540     33543     33535     33534     33537     33538
     33535     33534     33537     33539     33535     33534     33537     33540
     33536     33534     33537     33538     33536     33534     33537     33539
     33536     33534     33537     33540     33537     33540     33543     33544
     33537     33540     33543     33545     33537     33540     33543     33546
     33538     33537     33540     33541     33538     33537     33540     33542
     33538     33537     33540     33543     33539     33537     33540     33541
     33539     33537     33540     33542     33539     33537     33540     33543
     33540     33543     33546     33547     33540     33543     33546     33548
     33540     33543     33546     33549     33541     33540     33543     33544
     33541     33540     33543     33545     33541     33540     33543     33546
     33542     33540     33543     33544     33542     33540     33543     33545
     33542     33540     33543     33546     33543     33546     33549     33550
     33543     33546     33549     33551     33543     33546     33549     33552
     33544     33543     33546     33547     33544     33543     33546     33548
     33544     33543     33546     33549     33545     33543     33546     33547
     33545     33543     33546     33548     33545     33543     33546     33549
     33547     33546     33549     33550     33547     33546     33549     33551
     33547     33546     33549     33552     33548     33546     33549     33550
     33548     33546     33549     33551     33548     33546     33549     33552
     33553     33556     33559     33560     33553     33556     33559     33561
     33553     33556     33559     33562     33554     33553     33556     33557
     33554     33553     33556     33558     33554     33553     33556     33559
     33555     33553     33556     33557     33555     33553     33556     33558
     33555     33553     33556     33559     33556     33559     33562     33563
     33556     33559     33562     33564     33556     33559     33562     33565
     33557     33556     33559     33560     33557     33556     33559     33561
     33557     33556     33559     33562     33558     33556     33559     33560
     33558     33556     33559     33561     33558     33556     33559     33562
     33559     33562     33565     33566     33559     33562     33565     33567
     33559     33562     33565     33568     33560     33559     33562     33563
     33560     33559     33562     33564     33560     33559     33562     33565
     33561     33559     33562     33563     33561     33559     33562     33564
     33561     33559     33562     33565     33562     33565     33568     33569
     33562     33565     33568     33570     33562     33565     33568     33571
     33563     33562     33565     33566     33563     33562     33565     33567
     33563     33562     33565     33568     33564     33562     33565     33566
     33564     33562     33565     33567     33564     33562     33565     33568
     33565     33568     33571     33572     33565     33568     33571     33573
     33565     33568     33571     33574     33566     33565     33568     33569
     33566     33565     33568     33570     33566     33565     33568     33571
     33567     33565     33568     33569     33567     33565     33568     33570
     33567     33565     33568     33571     33568     33571     33574     33575
     33568     33571     33574     33576     33568     33571     33574     33577
     33569     33568     33571     33572     33569     33568     33571     33573
     33569     33568     33571     33574     33570     33568     33571     33572
     33570     33568     33571     33573     33570     33568     33571     33574
     33571     33574     33577     33578     33571     33574     33577     33579
     33571     33574     33577     33580     33572     33571     33574     33575
     33572     33571     33574     33576     33572     33571     33574     33577
     33573     33571     33574     33575     33573     33571     33574     33576
     33573     33571     33574     33577     33574     33577     33580     33581
     33574     33577     33580     33582     33574     33577     33580     33583
     33575     33574     33577     33578     33575     33574     33577     33579
     33575     33574     33577     33580     33576     33574     33577     33578
     33576     33574     33577     33579     33576     33574     33577     33580
     33577     33580     33583     33584     33577     33580     33583     33585
     33577     33580     33583     33586     33578     33577     33580     33581
     33578     33577     33580     33582     33578     33577     33580     33583
     33579     33577     33580     33581     33579     33577     33580     33582
     33579     33577     33580     33583     33580     33583     33586     33587
     33580     33583     33586     33588     33580     33583     33586     33589
     33581     33580     33583     33584     33581     33580     33583     33585
     33581     33580     33583     33586     33582     33580     33583     33584
     33582     33580     33583     33585     33582     33580     33583     33586
     33583     33586     33589     33590     33583     33586     33589     33591
     33583     33586     33589     33592     33584     33583     33586     33587
     33584     33583     33586     33588     33584     33583     33586     33589
     33585     33583     33586     33587     33585     33583     33586     33588
     33585     33583     33586     33589     33586     33589     33592     33593
     33586     33589     33592     33594     33586     33589     33592     33595
     33587     33586     33589     33590     33587     33586     33589     33591
     33587     33586     33589     33592     33588     33586     33589     33590
     33588     33586     33589     33591     33588     33586     33589     33592
     33590     33589     33592     33593     33590     33589     33592     33594
     33590     33589     33592     33595     33591     33589     33592     33593
     33591     33589     33592     33594     33591     33589     33592     33595
     33596     33600     33603     33604     33596     33600     33603     33605
     33596     33600     33603     33610     33597     33596     33600     33601
     33597     33596     33600     33602     33597     33596     33600     33603
     33598     33596     33600     33601     33598     33596     33600     33602
     33598     33596     33600     33603     33599     33596     33600     33601
     33599     33596     33600     33602     33599     33596     33600     33603
     33600     33603     33610     33606     33601     33600     33603     33604
     33601     33600     33603     33605     33601     33600     33603     33610
     33602     33600     33603     33604     33602     33600     33603     33605
     33602     33600     33603     33610     33603     33610     33606     33607
     33603     33610     33606     33608     33603     33610     33606     33609
     33604     33603     33610     33606     33605     33603     33610     33606
     33606     33609     33611     33612     33606     33609     33611     33613
     33606     33609     33611     33614     33607     33606     33609     33611
     33608     33606     33609     33611     33609     33611     33614     33615
     33609     33611     33614     33616     33609     33611     33614     33622
     33610     33606     33609     33611     33611     33614     33616     33617
     33611     33614     33622     33623     33611     33614     33622     33624
     33611     33614     33622     33625     33612     33611     33614     33615
     33612     33611     33614     33616     33612     33611     33614     33622
     33613     33611     33614     33615     33613     33611     33614     33616
     33613     33611     33614     33622     33614     33616     33617     33618
     33614     33616     33617     33619     33614     33622     33625     33626
     33615     33614     33616     33617     33615     33614     33622     33623
     33615     33614     33622     33624     33615     33614     33622     33625
     33616     33614     33622     33623     33616     33614     33622     33624
     33616     33614     33622     33625     33616     33617     33619     33620
     33616     33617     33619     33621     33616     33617     33619     33631
     33617     33616     33614     33622     33617     33619     33631     33632
     33617     33619     33631     33633     33617     33619     33631     33634
     33618     33617     33619     33620     33618     33617     33619     33621
     33618     33617     33619     33631     33619     33631     33634     33635
     33619     33631     33634     33636     33619     33631     33634     33637
     33620     33619     33631     33632     33620     33619     33631     33633
     33620     33619     33631     33634     33621     33619     33631     33632
     33621     33619     33631     33633     33621     33619     33631     33634
     33622     33625     33626     33627     33622     33625     33626     33628
     33623     33622     33625     33626     33624     33622     33625     33626
     33625     33626     33628     33629     33625     33626     33628     33630
     33625     33626     33628     33675     33626     33628     33675     33676
     33626     33628     33675     33677     33626     33628     33675     33678
     33627     33626     33628     33629     33627     33626     33628     33630
     33627     33626     33628     33675     33628     33675     33678     33679
     33628     33675     33678     33680     33628     33675     33678     33681
     33629     33628     33675     33676     33629     33628     33675     33677
     33629     33628     33675     33678     33630     33628     33675     33676
     33630     33628     33675     33677     33630     33628     33675     33678
     33631     33634     33637     33638     33631     33634     33637     33639
     33631     33634     33637     33640     33632     33631     33634     33635
     33632     33631     33634     33636     33632     33631     33634     33637
     33633     33631     33634     33635     33633     33631     33634     33636
     33633     33631     33634     33637     33634     33637     33640     33641
     33634     33637     33640     33642     33634     33637     33640     33643
     33635     33634     33637     33638     33635     33634     33637     33639
     33635     33634     33637     33640     33636     33634     33637     33638
     33636     33634     33637     33639     33636     33634     33637     33640
     33637     33640     33643     33644     33637     33640     33643     33645
     33637     33640     33643     33646     33638     33637     33640     33641
     33638     33637     33640     33642     33638     33637     33640     33643
     33639     33637     33640     33641     33639     33637     33640     33642
     33639     33637     33640     33643     33640     33643     33646     33647
     33640     33643     33646     33648     33640     33643     33646     33649
     33641     33640     33643     33644     33641     33640     33643     33645
     33641     33640     33643     33646     33642     33640     33643     33644
     33642     33640     33643     33645     33642     33640     33643     33646
     33643     33646     33649     33650     33643     33646     33649     33651
     33643     33646     33649     33654     33644     33643     33646     33647
     33644     33643     33646     33648     33644     33643     33646     33649
     33645     33643     33646     33647     33645     33643     33646     33648
     33645     33643     33646     33649     33646     33649     33651     33652
     33646     33649     33651     33653     33646     33649     33651     33654
     33646     33649     33654     33651     33646     33649     33654     33655
     33646     33649     33654     33656     33647     33646     33649     33650
     33647     33646     33649     33651     33647     33646     33649     33654
     33648     33646     33649     33650     33648     33646     33649     33651
     33648     33646     33649     33654     33649     33651     33654     33655
     33649     33651     33654     33656     33649     33654     33651     33652
     33649     33654     33651     33653     33649     33654     33656     33657
     33649     33654     33656     33658     33649     33654     33656     33659
     33650     33649     33651     33652     33650     33649     33651     33653
     33650     33649     33651     33654     33650     33649     33654     33651
     33650     33649     33654     33655     33650     33649     33654     33656
     33651     33649     33654     33655     33651     33649     33654     33656
     33651     33654     33656     33657     33651     33654     33656     33658
     33651     33654     33656     33659     33652     33651     33649     33654
     33652     33651     33654     33655     33652     33651     33654     33656
     33653     33651     33649     33654     33653     33651     33654     33655
     33653     33651     33654     33656     33654     33656     33659     33660
     33654     33656     33659     33661     33654     33656     33659     33662
     33655     33654     33656     33657     33655     33654     33656     33658
     33655     33654     33656     33659     33656     33659     33662     33663
     33656     33659     33662     33664     33656     33659     33662     33665
     33657     33656     33659     33660     33657     33656     33659     33661
     33657     33656     33659     33662     33658     33656     33659     33660
     33658     33656     33659     33661     33658     33656     33659     33662
     33659     33662     33665     33666     33659     33662     33665     33667
     33659     33662     33665     33668     33660     33659     33662     33663
     33660     33659     33662     33664     33660     33659     33662     33665
     33661     33659     33662     33663     33661     33659     33662     33664
     33661     33659     33662     33665     33662     33665     33668     33669
     33662     33665     33668     33670     33662     33665     33668     33671
     33663     33662     33665     33666     33663     33662     33665     33667
     33663     33662     33665     33668     33664     33662     33665     33666
     33664     33662     33665     33667     33664     33662     33665     33668
     33665     33668     33671     33672     33665     33668     33671     33673
     33665     33668     33671     33674     33666     33665     33668     33669
     33666     33665     33668     33670     33666     33665     33668     33671
     33667     33665     33668     33669     33667     33665     33668     33670
     33667     33665     33668     33671     33669     33668     33671     33672
     33669     33668     33671     33673     33669     33668     33671     33674
     33670     33668     33671     33672     33670     33668     33671     33673
     33670     33668     33671     33674     33675     33678     33681     33682
     33675     33678     33681     33683     33675     33678     33681     33684
     33676     33675     33678     33679     33676     33675     33678     33680
     33676     33675     33678     33681     33677     33675     33678     33679
     33677     33675     33678     33680     33677     33675     33678     33681
     33678     33681     33684     33685     33678     33681     33684     33686
     33678     33681     33684     33687     33679     33678     33681     33682
     33679     33678     33681     33683     33679     33678     33681     33684
     33680     33678     33681     33682     33680     33678     33681     33683
     33680     33678     33681     33684     33681     33684     33687     33688
     33681     33684     33687     33689     33681     33684     33687     33690
     33682     33681     33684     33685     33682     33681     33684     33686
     33682     33681     33684     33687     33683     33681     33684     33685
     33683     33681     33684     33686     33683     33681     33684     33687
     33684     33687     33690     33691     33684     33687     33690     33692
     33684     33687     33690     33693     33685     33684     33687     33688
     33685     33684     33687     33689     33685     33684     33687     33690
     33686     33684     33687     33688     33686     33684     33687     33689
     33686     33684     33687     33690     33687     33690     33693     33694
     33687     33690     33693     33695     33687     33690     33693     33696
     33688     33687     33690     33691     33688     33687     33690     33692
     33688     33687     33690     33693     33689     33687     33690     33691
     33689     33687     33690     33692     33689     33687     33690     33693
     33690     33693     33696     33697     33690     33693     33696     33698
     33690     33693     33696     33699     33691     33690     33693     33694
     33691     33690     33693     33695     33691     33690     33693     33696
     33692     33690     33693     33694     33692     33690     33693     33695
     33692     33690     33693     33696     33693     33696     33699     33700
     33693     33696     33699     33701     33693     33696     33699     33702
     33694     33693     33696     33697     33694     33693     33696     33698
     33694     33693     33696     33699     33695     33693     33696     33697
     33695     33693     33696     33698     33695     33693     33696     33699
     33696     33699     33702     33703     33696     33699     33702     33704
     33696     33699     33702     33705     33697     33696     33699     33700
     33697     33696     33699     33701     33697     33696     33699     33702
     33698     33696     33699     33700     33698     33696     33699     33701
     33698     33696     33699     33702     33699     33702     33705     33706
     33699     33702     33705     33707     33699     33702     33705     33708
     33700     33699     33702     33703     33700     33699     33702     33704
     33700     33699     33702     33705     33701     33699     33702     33703
     33701     33699     33702     33704     33701     33699     33702     33705
     33702     33705     33708     33709     33702     33705     33708     33710
     33702     33705     33708     33711     33703     33702     33705     33706
     33703     33702     33705     33707     33703     33702     33705     33708
     33704     33702     33705     33706     33704     33702     33705     33707
     33704     33702     33705     33708     33705     33708     33711     33712
     33705     33708     33711     33713     33705     33708     33711     33714
     33706     33705     33708     33709     33706     33705     33708     33710
     33706     33705     33708     33711     33707     33705     33708     33709
     33707     33705     33708     33710     33707     33705     33708     33711
     33708     33711     33714     33715     33708     33711     33714     33716
     33708     33711     33714     33717     33709     33708     33711     33712
     33709     33708     33711     33713     33709     33708     33711     33714
     33710     33708     33711     33712     33710     33708     33711     33713
     33710     33708     33711     33714     33712     33711     33714     33715
     33712     33711     33714     33716     33712     33711     33714     33717
     33713     33711     33714     33715     33713     33711     33714     33716
     33713     33711     33714     33717     33718     33722     33725     33726
     33718     33722     33725     33727     33718     33722     33725     33732
     33719     33718     33722     33723     33719     33718     33722     33724
     33719     33718     33722     33725     33720     33718     33722     33723
     33720     33718     33722     33724     33720     33718     33722     33725
     33721     33718     33722     33723     33721     33718     33722     33724
     33721     33718     33722     33725     33722     33725     33732     33728
     33723     33722     33725     33726     33723     33722     33725     33727
     33723     33722     33725     33732     33724     33722     33725     33726
     33724     33722     33725     33727     33724     33722     33725     33732
     33725     33732     33728     33729     33725     33732     33728     33730
     33725     33732     33728     33731     33726     33725     33732     33728
     33727     33725     33732     33728     33728     33731     33733     33734
     33728     33731     33733     33735     33728     33731     33733     33736
     33729     33728     33731     33733     33730     33728     33731     33733
     33731     33733     33736     33737     33731     33733     33736     33738
     33731     33733     33736     33744     33732     33728     33731     33733
     33733     33736     33738     33739     33733     33736     33744     33745
     33733     33736     33744     33746     33733     33736     33744     33747
     33734     33733     33736     33737     33734     33733     33736     33738
     33734     33733     33736     33744     33735     33733     33736     33737
     33735     33733     33736     33738     33735     33733     33736     33744
     33736     33738     33739     33740     33736     33738     33739     33741
     33736     33744     33747     33748     33737     33736     33738     33739
     33737     33736     33744     33745     33737     33736     33744     33746
     33737     33736     33744     33747     33738     33736     33744     33745
     33738     33736     33744     33746     33738     33736     33744     33747
     33738     33739     33741     33742     33738     33739     33741     33743
     33738     33739     33741     33753     33739     33738     33736     33744
     33739     33741     33753     33754     33739     33741     33753     33755
     33739     33741     33753     33756     33740     33739     33741     33742
     33740     33739     33741     33743     33740     33739     33741     33753
     33741     33753     33756     33757     33741     33753     33756     33758
     33741     33753     33756     33759     33742     33741     33753     33754
     33742     33741     33753     33755     33742     33741     33753     33756
     33743     33741     33753     33754     33743     33741     33753     33755
     33743     33741     33753     33756     33744     33747     33748     33749
     33744     33747     33748     33750     33745     33744     33747     33748
     33746     33744     33747     33748     33747     33748     33750     33751
     33747     33748     33750     33752     33747     33748     33750     33797
     33748     33750     33797     33798     33748     33750     33797     33799
     33748     33750     33797     33800     33749     33748     33750     33751
     33749     33748     33750     33752     33749     33748     33750     33797
     33750     33797     33800     33801     33750     33797     33800     33802
     33750     33797     33800     33803     33751     33750     33797     33798
     33751     33750     33797     33799     33751     33750     33797     33800
     33752     33750     33797     33798     33752     33750     33797     33799
     33752     33750     33797     33800     33753     33756     33759     33760
     33753     33756     33759     33761     33753     33756     33759     33762
     33754     33753     33756     33757     33754     33753     33756     33758
     33754     33753     33756     33759     33755     33753     33756     33757
     33755     33753     33756     33758     33755     33753     33756     33759
     33756     33759     33762     33763     33756     33759     33762     33764
     33756     33759     33762     33765     33757     33756     33759     33760
     33757     33756     33759     33761     33757     33756     33759     33762
     33758     33756     33759     33760     33758     33756     33759     33761
     33758     33756     33759     33762     33759     33762     33765     33766
     33759     33762     33765     33767     33759     33762     33765     33768
     33760     33759     33762     33763     33760     33759     33762     33764
     33760     33759     33762     33765     33761     33759     33762     33763
     33761     33759     33762     33764     33761     33759     33762     33765
     33762     33765     33768     33769     33762     33765     33768     33770
     33762     33765     33768     33771     33763     33762     33765     33766
     33763     33762     33765     33767     33763     33762     33765     33768
     33764     33762     33765     33766     33764     33762     33765     33767
     33764     33762     33765     33768     33765     33768     33771     33772
     33765     33768     33771     33773     33765     33768     33771     33776
     33766     33765     33768     33769     33766     33765     33768     33770
     33766     33765     33768     33771     33767     33765     33768     33769
     33767     33765     33768     33770     33767     33765     33768     33771
     33768     33771     33773     33774     33768     33771     33773     33775
     33768     33771     33773     33776     33768     33771     33776     33773
     33768     33771     33776     33777     33768     33771     33776     33778
     33769     33768     33771     33772     33769     33768     33771     33773
     33769     33768     33771     33776     33770     33768     33771     33772
     33770     33768     33771     33773     33770     33768     33771     33776
     33771     33773     33776     33777     33771     33773     33776     33778
     33771     33776     33773     33774     33771     33776     33773     33775
     33771     33776     33778     33779     33771     33776     33778     33780
     33771     33776     33778     33781     33772     33771     33773     33774
     33772     33771     33773     33775     33772     33771     33773     33776
     33772     33771     33776     33773     33772     33771     33776     33777
     33772     33771     33776     33778     33773     33771     33776     33777
     33773     33771     33776     33778     33773     33776     33778     33779
     33773     33776     33778     33780     33773     33776     33778     33781
     33774     33773     33771     33776     33774     33773     33776     33777
     33774     33773     33776     33778     33775     33773     33771     33776
     33775     33773     33776     33777     33775     33773     33776     33778
     33776     33778     33781     33782     33776     33778     33781     33783
     33776     33778     33781     33784     33777     33776     33778     33779
     33777     33776     33778     33780     33777     33776     33778     33781
     33778     33781     33784     33785     33778     33781     33784     33786
     33778     33781     33784     33787     33779     33778     33781     33782
     33779     33778     33781     33783     33779     33778     33781     33784
     33780     33778     33781     33782     33780     33778     33781     33783
     33780     33778     33781     33784     33781     33784     33787     33788
     33781     33784     33787     33789     33781     33784     33787     33790
     33782     33781     33784     33785     33782     33781     33784     33786
     33782     33781     33784     33787     33783     33781     33784     33785
     33783     33781     33784     33786     33783     33781     33784     33787
     33784     33787     33790     33791     33784     33787     33790     33792
     33784     33787     33790     33793     33785     33784     33787     33788
     33785     33784     33787     33789     33785     33784     33787     33790
     33786     33784     33787     33788     33786     33784     33787     33789
     33786     33784     33787     33790     33787     33790     33793     33794
     33787     33790     33793     33795     33787     33790     33793     33796
     33788     33787     33790     33791     33788     33787     33790     33792
     33788     33787     33790     33793     33789     33787     33790     33791
     33789     33787     33790     33792     33789     33787     33790     33793
     33791     33790     33793     33794     33791     33790     33793     33795
     33791     33790     33793     33796     33792     33790     33793     33794
     33792     33790     33793     33795     33792     33790     33793     33796
     33797     33800     33803     33804     33797     33800     33803     33805
     33797     33800     33803     33806     33798     33797     33800     33801
     33798     33797     33800     33802     33798     33797     33800     33803
     33799     33797     33800     33801     33799     33797     33800     33802
     33799     33797     33800     33803     33800     33803     33806     33807
     33800     33803     33806     33808     33800     33803     33806     33809
     33801     33800     33803     33804     33801     33800     33803     33805
     33801     33800     33803     33806     33802     33800     33803     33804
     33802     33800     33803     33805     33802     33800     33803     33806
     33803     33806     33809     33810     33803     33806     33809     33811
     33803     33806     33809     33812     33804     33803     33806     33807
     33804     33803     33806     33808     33804     33803     33806     33809
     33805     33803     33806     33807     33805     33803     33806     33808
     33805     33803     33806     33809     33806     33809     33812     33813
     33806     33809     33812     33814     33806     33809     33812     33815
     33807     33806     33809     33810     33807     33806     33809     33811
     33807     33806     33809     33812     33808     33806     33809     33810
     33808     33806     33809     33811     33808     33806     33809     33812
     33809     33812     33815     33816     33809     33812     33815     33817
     33809     33812     33815     33818     33810     33809     33812     33813
     33810     33809     33812     33814     33810     33809     33812     33815
     33811     33809     33812     33813     33811     33809     33812     33814
     33811     33809     33812     33815     33812     33815     33818     33819
     33812     33815     33818     33820     33812     33815     33818     33821
     33813     33812     33815     33816     33813     33812     33815     33817
     33813     33812     33815     33818     33814     33812     33815     33816
     33814     33812     33815     33817     33814     33812     33815     33818
     33815     33818     33821     33822     33815     33818     33821     33823
     33815     33818     33821     33824     33816     33815     33818     33819
     33816     33815     33818     33820     33816     33815     33818     33821
     33817     33815     33818     33819     33817     33815     33818     33820
     33817     33815     33818     33821     33818     33821     33824     33825
     33818     33821     33824     33826     33818     33821     33824     33827
     33819     33818     33821     33822     33819     33818     33821     33823
     33819     33818     33821     33824     33820     33818     33821     33822
     33820     33818     33821     33823     33820     33818     33821     33824
     33821     33824     33827     33828     33821     33824     33827     33829
     33821     33824     33827     33830     33822     33821     33824     33825
     33822     33821     33824     33826     33822     33821     33824     33827
     33823     33821     33824     33825     33823     33821     33824     33826
     33823     33821     33824     33827     33824     33827     33830     33831
     33824     33827     33830     33832     33824     33827     33830     33833
     33825     33824     33827     33828     33825     33824     33827     33829
     33825     33824     33827     33830     33826     33824     33827     33828
     33826     33824     33827     33829     33826     33824     33827     33830
     33827     33830     33833     33834     33827     33830     33833     33835
     33827     33830     33833     33836     33828     33827     33830     33831
     33828     33827     33830     33832     33828     33827     33830     33833
     33829     33827     33830     33831     33829     33827     33830     33832
     33829     33827     33830     33833     33830     33833     33836     33837
     33830     33833     33836     33838     33830     33833     33836     33839
     33831     33830     33833     33834     33831     33830     33833     33835
     33831     33830     33833     33836     33832     33830     33833     33834
     33832     33830     33833     33835     33832     33830     33833     33836
     33834     33833     33836     33837     33834     33833     33836     33838
     33834     33833     33836     33839     33835     33833     33836     33837
     33835     33833     33836     33838     33835     33833     33836     33839
     33840     33844     33847     33848     33840     33844     33847     33849
     33840     33844     33847     33854     33841     33840     33844     33845
     33841     33840     33844     33846     33841     33840     33844     33847
     33842     33840     33844     33845     33842     33840     33844     33846
     33842     33840     33844     33847     33843     33840     33844     33845
     33843     33840     33844     33846     33843     33840     33844     33847
     33844     33847     33854     33850     33845     33844     33847     33848
     33845     33844     33847     33849     33845     33844     33847     33854
     33846     33844     33847     33848     33846     33844     33847     33849
     33846     33844     33847     33854     33847     33854     33850     33851
     33847     33854     33850     33852     33847     33854     33850     33853
     33848     33847     33854     33850     33849     33847     33854     33850
     33850     33853     33855     33856     33850     33853     33855     33857
     33850     33853     33855     33858     33851     33850     33853     33855
     33852     33850     33853     33855     33853     33855     33858     33859
     33853     33855     33858     33860     33853     33855     33858     33866
     33854     33850     33853     33855     33855     33858     33860     33861
     33855     33858     33866     33867     33855     33858     33866     33868
     33855     33858     33866     33869     33856     33855     33858     33859
     33856     33855     33858     33860     33856     33855     33858     33866
     33857     33855     33858     33859     33857     33855     33858     33860
     33857     33855     33858     33866     33858     33860     33861     33862
     33858     33860     33861     33863     33858     33866     33869     33870
     33859     33858     33860     33861     33859     33858     33866     33867
     33859     33858     33866     33868     33859     33858     33866     33869
     33860     33858     33866     33867     33860     33858     33866     33868
     33860     33858     33866     33869     33860     33861     33863     33864
     33860     33861     33863     33865     33860     33861     33863     33875
     33861     33860     33858     33866     33861     33863     33875     33876
     33861     33863     33875     33877     33861     33863     33875     33878
     33862     33861     33863     33864     33862     33861     33863     33865
     33862     33861     33863     33875     33863     33875     33878     33879
     33863     33875     33878     33880     33863     33875     33878     33881
     33864     33863     33875     33876     33864     33863     33875     33877
     33864     33863     33875     33878     33865     33863     33875     33876
     33865     33863     33875     33877     33865     33863     33875     33878
     33866     33869     33870     33871     33866     33869     33870     33872
     33867     33866     33869     33870     33868     33866     33869     33870
     33869     33870     33872     33873     33869     33870     33872     33874
     33869     33870     33872     33919     33870     33872     33919     33920
     33870     33872     33919     33921     33870     33872     33919     33922
     33871     33870     33872     33873     33871     33870     33872     33874
     33871     33870     33872     33919     33872     33919     33922     33923
     33872     33919     33922     33924     33872     33919     33922     33925
     33873     33872     33919     33920     33873     33872     33919     33921
     33873     33872     33919     33922     33874     33872     33919     33920
     33874     33872     33919     33921     33874     33872     33919     33922
     33875     33878     33881     33882     33875     33878     33881     33883
     33875     33878     33881     33884     33876     33875     33878     33879
     33876     33875     33878     33880     33876     33875     33878     33881
     33877     33875     33878     33879     33877     33875     33878     33880
     33877     33875     33878     33881     33878     33881     33884     33885
     33878     33881     33884     33886     33878     33881     33884     33887
     33879     33878     33881     33882     33879     33878     33881     33883
     33879     33878     33881     33884     33880     33878     33881     33882
     33880     33878     33881     33883     33880     33878     33881     33884
     33881     33884     33887     33888     33881     33884     33887     33889
     33881     33884     33887     33890     33882     33881     33884     33885
     33882     33881     33884     33886     33882     33881     33884     33887
     33883     33881     33884     33885     33883     33881     33884     33886
     33883     33881     33884     33887     33884     33887     33890     33891
     33884     33887     33890     33892     33884     33887     33890     33893
     33885     33884     33887     33888     33885     33884     33887     33889
     33885     33884     33887     33890     33886     33884     33887     33888
     33886     33884     33887     33889     33886     33884     33887     33890
     33887     33890     33893     33894     33887     33890     33893     33895
     33887     33890     33893     33898     33888     33887     33890     33891
     33888     33887     33890     33892     33888     33887     33890     33893
     33889     33887     33890     33891     33889     33887     33890     33892
     33889     33887     33890     33893     33890     33893     33895     33896
     33890     33893     33895     33897     33890     33893     33895     33898
     33890     33893     33898     33895     33890     33893     33898     33899
     33890     33893     33898     33900     33891     33890     33893     33894
     33891     33890     33893     33895     33891     33890     33893     33898
     33892     33890     33893     33894     33892     33890     33893     33895
     33892     33890     33893     33898     33893     33895     33898     33899
     33893     33895     33898     33900     33893     33898     33895     33896
     33893     33898     33895     33897     33893     33898     33900     33901
     33893     33898     33900     33902     33893     33898     33900     33903
     33894     33893     33895     33896     33894     33893     33895     33897
     33894     33893     33895     33898     33894     33893     33898     33895
     33894     33893     33898     33899     33894     33893     33898     33900
     33895     33893     33898     33899     33895     33893     33898     33900
     33895     33898     33900     33901     33895     33898     33900     33902
     33895     33898     33900     33903     33896     33895     33893     33898
     33896     33895     33898     33899     33896     33895     33898     33900
     33897     33895     33893     33898     33897     33895     33898     33899
     33897     33895     33898     33900     33898     33900     33903     33904
     33898     33900     33903     33905     33898     33900     33903     33906
     33899     33898     33900     33901     33899     33898     33900     33902
     33899     33898     33900     33903     33900     33903     33906     33907
     33900     33903     33906     33908     33900     33903     33906     33909
     33901     33900     33903     33904     33901     33900     33903     33905
     33901     33900     33903     33906     33902     33900     33903     33904
     33902     33900     33903     33905     33902     33900     33903     33906
     33903     33906     33909     33910     33903     33906     33909     33911
     33903     33906     33909     33912     33904     33903     33906     33907
     33904     33903     33906     33908     33904     33903     33906     33909
     33905     33903     33906     33907     33905     33903     33906     33908
     33905     33903     33906     33909     33906     33909     33912     33913
     33906     33909     33912     33914     33906     33909     33912     33915
     33907     33906     33909     33910     33907     33906     33909     33911
     33907     33906     33909     33912     33908     33906     33909     33910
     33908     33906     33909     33911     33908     33906     33909     33912
     33909     33912     33915     33916     33909     33912     33915     33917
     33909     33912     33915     33918     33910     33909     33912     33913
     33910     33909     33912     33914     33910     33909     33912     33915
     33911     33909     33912     33913     33911     33909     33912     33914
     33911     33909     33912     33915     33913     33912     33915     33916
     33913     33912     33915     33917     33913     33912     33915     33918
     33914     33912     33915     33916     33914     33912     33915     33917
     33914     33912     33915     33918     33919     33922     33925     33926
     33919     33922     33925     33927     33919     33922     33925     33928
     33920     33919     33922     33923     33920     33919     33922     33924
     33920     33919     33922     33925     33921     33919     33922     33923
     33921     33919     33922     33924     33921     33919     33922     33925
     33922     33925     33928     33929     33922     33925     33928     33930
     33922     33925     33928     33931     33923     33922     33925     33926
     33923     33922     33925     33927     33923     33922     33925     33928
     33924     33922     33925     33926     33924     33922     33925     33927
     33924     33922     33925     33928     33925     33928     33931     33932
     33925     33928     33931     33933     33925     33928     33931     33934
     33926     33925     33928     33929     33926     33925     33928     33930
     33926     33925     33928     33931     33927     33925     33928     33929
     33927     33925     33928     33930     33927     33925     33928     33931
     33928     33931     33934     33935     33928     33931     33934     33936
     33928     33931     33934     33937     33929     33928     33931     33932
     33929     33928     33931     33933     33929     33928     33931     33934
     33930     33928     33931     33932     33930     33928     33931     33933
     33930     33928     33931     33934     33931     33934     33937     33938
     33931     33934     33937     33939     33931     33934     33937     33940
     33932     33931     33934     33935     33932     33931     33934     33936
     33932     33931     33934     33937     33933     33931     33934     33935
     33933     33931     33934     33936     33933     33931     33934     33937
     33934     33937     33940     33941     33934     33937     33940     33942
     33934     33937     33940     33943     33935     33934     33937     33938
     33935     33934     33937     33939     33935     33934     33937     33940
     33936     33934     33937     33938     33936     33934     33937     33939
     33936     33934     33937     33940     33937     33940     33943     33944
     33937     33940     33943     33945     33937     33940     33943     33946
     33938     33937     33940     33941     33938     33937     33940     33942
     33938     33937     33940     33943     33939     33937     33940     33941
     33939     33937     33940     33942     33939     33937     33940     33943
     33940     33943     33946     33947     33940     33943     33946     33948
     33940     33943     33946     33949     33941     33940     33943     33944
     33941     33940     33943     33945     33941     33940     33943     33946
     33942     33940     33943     33944     33942     33940     33943     33945
     33942     33940     33943     33946     33943     33946     33949     33950
     33943     33946     33949     33951     33943     33946     33949     33952
     33944     33943     33946     33947     33944     33943     33946     33948
     33944     33943     33946     33949     33945     33943     33946     33947
     33945     33943     33946     33948     33945     33943     33946     33949
     33946     33949     33952     33953     33946     33949     33952     33954
     33946     33949     33952     33955     33947     33946     33949     33950
     33947     33946     33949     33951     33947     33946     33949     33952
     33948     33946     33949     33950     33948     33946     33949     33951
     33948     33946     33949     33952     33949     33952     33955     33956
     33949     33952     33955     33957     33949     33952     33955     33958
     33950     33949     33952     33953     33950     33949     33952     33954
     33950     33949     33952     33955     33951     33949     33952     33953
     33951     33949     33952     33954     33951     33949     33952     33955
     33952     33955     33958     33959     33952     33955     33958     33960
     33952     33955     33958     33961     33953     33952     33955     33956
     33953     33952     33955     33957     33953     33952     33955     33958
     33954     33952     33955     33956     33954     33952     33955     33957
     33954     33952     33955     33958     33956     33955     33958     33959
     33956     33955     33958     33960     33956     33955     33958     33961
     33957     33955     33958     33959     33957     33955     33958     33960
     33957     33955     33958     33961     33962     33966     33969     33970
     33962     33966     33969     33971     33962     33966     33969     33976
     33963     33962     33966     33967     33963     33962     33966     33968
     33963     33962     33966     33969     33964     33962     33966     33967
     33964     33962     33966     33968     33964     33962     33966     33969
     33965     33962     33966     33967     33965     33962     33966     33968
     33965     33962     33966     33969     33966     33969     33976     33972
     33967     33966     33969     33970     33967     33966     33969     33971
     33967     33966     33969     33976     33968     33966     33969     33970
     33968     33966     33969     33971     33968     33966     33969     33976
     33969     33976     33972     33973     33969     33976     33972     33974
     33969     33976     33972     33975     33970     33969     33976     33972
     33971     33969     33976     33972     33972     33975     33977     33978
     33972     33975     33977     33979     33972     33975     33977     33980
     33973     33972     33975     33977     33974     33972     33975     33977
     33975     33977     33980     33981     33975     33977     33980     33982
     33975     33977     33980     33988     33976     33972     33975     33977
     33977     33980     33982     33983     33977     33980     33988     33989
     33977     33980     33988     33990     33977     33980     33988     33991
     33978     33977     33980     33981     33978     33977     33980     33982
     33978     33977     33980     33988     33979     33977     33980     33981
     33979     33977     33980     33982     33979     33977     33980     33988
     33980     33982     33983     33984     33980     33982     33983     33985
     33980     33988     33991     33992     33981     33980     33982     33983
     33981     33980     33988     33989     33981     33980     33988     33990
     33981     33980     33988     33991     33982     33980     33988     33989
     33982     33980     33988     33990     33982     33980     33988     33991
     33982     33983     33985     33986     33982     33983     33985     33987
     33982     33983     33985     33997     33983     33982     33980     33988
     33983     33985     33997     33998     33983     33985     33997     33999
     33983     33985     33997     34000     33984     33983     33985     33986
     33984     33983     33985     33987     33984     33983     33985     33997
     33985     33997     34000     34001     33985     33997     34000     34002
     33985     33997     34000     34003     33986     33985     33997     33998
     33986     33985     33997     33999     33986     33985     33997     34000
     33987     33985     33997     33998     33987     33985     33997     33999
     33987     33985     33997     34000     33988     33991     33992     33993
     33988     33991     33992     33994     33989     33988     33991     33992
     33990     33988     33991     33992     33991     33992     33994     33995
     33991     33992     33994     33996     33991     33992     33994     34041
     33992     33994     34041     34042     33992     33994     34041     34043
     33992     33994     34041     34044     33993     33992     33994     33995
     33993     33992     33994     33996     33993     33992     33994     34041
     33994     34041     34044     34045     33994     34041     34044     34046
     33994     34041     34044     34047     33995     33994     34041     34042
     33995     33994     34041     34043     33995     33994     34041     34044
     33996     33994     34041     34042     33996     33994     34041     34043
     33996     33994     34041     34044     33997     34000     34003     34004
     33997     34000     34003     34005     33997     34000     34003     34006
     33998     33997     34000     34001     33998     33997     34000     34002
     33998     33997     34000     34003     33999     33997     34000     34001
     33999     33997     34000     34002     33999     33997     34000     34003
     34000     34003     34006     34007     34000     34003     34006     34008
     34000     34003     34006     34009     34001     34000     34003     34004
     34001     34000     34003     34005     34001     34000     34003     34006
     34002     34000     34003     34004     34002     34000     34003     34005
     34002     34000     34003     34006     34003     34006     34009     34010
     34003     34006     34009     34011     34003     34006     34009     34012
     34004     34003     34006     34007     34004     34003     34006     34008
     34004     34003     34006     34009     34005     34003     34006     34007
     34005     34003     34006     34008     34005     34003     34006     34009
     34006     34009     34012     34013     34006     34009     34012     34014
     34006     34009     34012     34015     34007     34006     34009     34010
     34007     34006     34009     34011     34007     34006     34009     34012
     34008     34006     34009     34010     34008     34006     34009     34011
     34008     34006     34009     34012     34009     34012     34015     34016
     34009     34012     34015     34017     34009     34012     34015     34020
     34010     34009     34012     34013     34010     34009     34012     34014
     34010     34009     34012     34015     34011     34009     34012     34013
     34011     34009     34012     34014     34011     34009     34012     34015
     34012     34015     34017     34018     34012     34015     34017     34019
     34012     34015     34017     34020     34012     34015     34020     34017
     34012     34015     34020     34021     34012     34015     34020     34022
     34013     34012     34015     34016     34013     34012     34015     34017
     34013     34012     34015     34020     34014     34012     34015     34016
     34014     34012     34015     34017     34014     34012     34015     34020
     34015     34017     34020     34021     34015     34017     34020     34022
     34015     34020     34017     34018     34015     34020     34017     34019
     34015     34020     34022     34023     34015     34020     34022     34024
     34015     34020     34022     34025     34016     34015     34017     34018
     34016     34015     34017     34019     34016     34015     34017     34020
     34016     34015     34020     34017     34016     34015     34020     34021
     34016     34015     34020     34022     34017     34015     34020     34021
     34017     34015     34020     34022     34017     34020     34022     34023
     34017     34020     34022     34024     34017     34020     34022     34025
     34018     34017     34015     34020     34018     34017     34020     34021
     34018     34017     34020     34022     34019     34017     34015     34020
     34019     34017     34020     34021     34019     34017     34020     34022
     34020     34022     34025     34026     34020     34022     34025     34027
     34020     34022     34025     34028     34021     34020     34022     34023
     34021     34020     34022     34024     34021     34020     34022     34025
     34022     34025     34028     34029     34022     34025     34028     34030
     34022     34025     34028     34031     34023     34022     34025     34026
     34023     34022     34025     34027     34023     34022     34025     34028
     34024     34022     34025     34026     34024     34022     34025     34027
     34024     34022     34025     34028     34025     34028     34031     34032
     34025     34028     34031     34033     34025     34028     34031     34034
     34026     34025     34028     34029     34026     34025     34028     34030
     34026     34025     34028     34031     34027     34025     34028     34029
     34027     34025     34028     34030     34027     34025     34028     34031
     34028     34031     34034     34035     34028     34031     34034     34036
     34028     34031     34034     34037     34029     34028     34031     34032
     34029     34028     34031     34033     34029     34028     34031     34034
     34030     34028     34031     34032     34030     34028     34031     34033
     34030     34028     34031     34034     34031     34034     34037     34038
     34031     34034     34037     34039     34031     34034     34037     34040
     34032     34031     34034     34035     34032     34031     34034     34036
     34032     34031     34034     34037     34033     34031     34034     34035
     34033     34031     34034     34036     34033     34031     34034     34037
     34035     34034     34037     34038     34035     34034     34037     34039
     34035     34034     34037     34040     34036     34034     34037     34038
     34036     34034     34037     34039     34036     34034     34037     34040
     34041     34044     34047     34048     34041     34044     34047     34049
     34041     34044     34047     34050     34042     34041     34044     34045
     34042     34041     34044     34046     34042     34041     34044     34047
     34043     34041     34044     34045     34043     34041     34044     34046
     34043     34041     34044     34047     34044     34047     34050     34051
     34044     34047     34050     34052     34044     34047     34050     34053
     34045     34044     34047     34048     34045     34044     34047     34049
     34045     34044     34047     34050     34046     34044     34047     34048
     34046     34044     34047     34049     34046     34044     34047     34050
     34047     34050     34053     34054     34047     34050     34053     34055
     34047     34050     34053     34056     34048     34047     34050     34051
     34048     34047     34050     34052     34048     34047     34050     34053
     34049     34047     34050     34051     34049     34047     34050     34052
     34049     34047     34050     34053     34050     34053     34056     34057
     34050     34053     34056     34058     34050     34053     34056     34059
     34051     34050     34053     34054     34051     34050     34053     34055
     34051     34050     34053     34056     34052     34050     34053     34054
     34052     34050     34053     34055     34052     34050     34053     34056
     34053     34056     34059     34060     34053     34056     34059     34061
     34053     34056     34059     34062     34054     34053     34056     34057
     34054     34053     34056     34058     34054     34053     34056     34059
     34055     34053     34056     34057     34055     34053     34056     34058
     34055     34053     34056     34059     34056     34059     34062     34063
     34056     34059     34062     34064     34056     34059     34062     34065
     34057     34056     34059     34060     34057     34056     34059     34061
     34057     34056     34059     34062     34058     34056     34059     34060
     34058     34056     34059     34061     34058     34056     34059     34062
     34059     34062     34065     34066     34059     34062     34065     34067
     34059     34062     34065     34068     34060     34059     34062     34063
     34060     34059     34062     34064     34060     34059     34062     34065
     34061     34059     34062     34063     34061     34059     34062     34064
     34061     34059     34062     34065     34062     34065     34068     34069
     34062     34065     34068     34070     34062     34065     34068     34071
     34063     34062     34065     34066     34063     34062     34065     34067
     34063     34062     34065     34068     34064     34062     34065     34066
     34064     34062     34065     34067     34064     34062     34065     34068
     34065     34068     34071     34072     34065     34068     34071     34073
     34065     34068     34071     34074     34066     34065     34068     34069
     34066     34065     34068     34070     34066     34065     34068     34071
     34067     34065     34068     34069     34067     34065     34068     34070
     34067     34065     34068     34071     34068     34071     34074     34075
     34068     34071     34074     34076     34068     34071     34074     34077
     34069     34068     34071     34072     34069     34068     34071     34073
     34069     34068     34071     34074     34070     34068     34071     34072
     34070     34068     34071     34073     34070     34068     34071     34074
     34071     34074     34077     34078     34071     34074     34077     34079
     34071     34074     34077     34080     34072     34071     34074     34075
     34072     34071     34074     34076     34072     34071     34074     34077
     34073     34071     34074     34075     34073     34071     34074     34076
     34073     34071     34074     34077     34074     34077     34080     34081
     34074     34077     34080     34082     34074     34077     34080     34083
     34075     34074     34077     34078     34075     34074     34077     34079
     34075     34074     34077     34080     34076     34074     34077     34078
     34076     34074     34077     34079     34076     34074     34077     34080
     34078     34077     34080     34081     34078     34077     34080     34082
     34078     34077     34080     34083     34079     34077     34080     34081
     34079     34077     34080     34082     34079     34077     34080     34083
     34084     34088     34091     34092     34084     34088     34091     34093
     34084     34088     34091     34098     34085     34084     34088     34089
     34085     34084     34088     34090     34085     34084     34088     34091
     34086     34084     34088     34089     34086     34084     34088     34090
     34086     34084     34088     34091     34087     34084     34088     34089
     34087     34084     34088     34090     34087     34084     34088     34091
     34088     34091     34098     34094     34089     34088     34091     34092
     34089     34088     34091     34093     34089     34088     34091     34098
     34090     34088     34091     34092     34090     34088     34091     34093
     34090     34088     34091     34098     34091     34098     34094     34095
     34091     34098     34094     34096     34091     34098     34094     34097
     34092     34091     34098     34094     34093     34091     34098     34094
     34094     34097     34099     34100     34094     34097     34099     34101
     34094     34097     34099     34102     34095     34094     34097     34099
     34096     34094     34097     34099     34097     34099     34102     34103
     34097     34099     34102     34104     34097     34099     34102     34110
     34098     34094     34097     34099     34099     34102     34104     34105
     34099     34102     34110     34111     34099     34102     34110     34112
     34099     34102     34110     34113     34100     34099     34102     34103
     34100     34099     34102     34104     34100     34099     34102     34110
     34101     34099     34102     34103     34101     34099     34102     34104
     34101     34099     34102     34110     34102     34104     34105     34106
     34102     34104     34105     34107     34102     34110     34113     34114
     34103     34102     34104     34105     34103     34102     34110     34111
     34103     34102     34110     34112     34103     34102     34110     34113
     34104     34102     34110     34111     34104     34102     34110     34112
     34104     34102     34110     34113     34104     34105     34107     34108
     34104     34105     34107     34109     34104     34105     34107     34119
     34105     34104     34102     34110     34105     34107     34119     34120
     34105     34107     34119     34121     34105     34107     34119     34122
     34106     34105     34107     34108     34106     34105     34107     34109
     34106     34105     34107     34119     34107     34119     34122     34123
     34107     34119     34122     34124     34107     34119     34122     34125
     34108     34107     34119     34120     34108     34107     34119     34121
     34108     34107     34119     34122     34109     34107     34119     34120
     34109     34107     34119     34121     34109     34107     34119     34122
     34110     34113     34114     34115     34110     34113     34114     34116
     34111     34110     34113     34114     34112     34110     34113     34114
     34113     34114     34116     34117     34113     34114     34116     34118
     34113     34114     34116     34163     34114     34116     34163     34164
     34114     34116     34163     34165     34114     34116     34163     34166
     34115     34114     34116     34117     34115     34114     34116     34118
     34115     34114     34116     34163     34116     34163     34166     34167
     34116     34163     34166     34168     34116     34163     34166     34169
     34117     34116     34163     34164     34117     34116     34163     34165
     34117     34116     34163     34166     34118     34116     34163     34164
     34118     34116     34163     34165     34118     34116     34163     34166
     34119     34122     34125     34126     34119     34122     34125     34127
     34119     34122     34125     34128     34120     34119     34122     34123
     34120     34119     34122     34124     34120     34119     34122     34125
     34121     34119     34122     34123     34121     34119     34122     34124
     34121     34119     34122     34125     34122     34125     34128     34129
     34122     34125     34128     34130     34122     34125     34128     34131
     34123     34122     34125     34126     34123     34122     34125     34127
     34123     34122     34125     34128     34124     34122     34125     34126
     34124     34122     34125     34127     34124     34122     34125     34128
     34125     34128     34131     34132     34125     34128     34131     34133
     34125     34128     34131     34134     34126     34125     34128     34129
     34126     34125     34128     34130     34126     34125     34128     34131
     34127     34125     34128     34129     34127     34125     34128     34130
     34127     34125     34128     34131     34128     34131     34134     34135
     34128     34131     34134     34136     34128     34131     34134     34137
     34129     34128     34131     34132     34129     34128     34131     34133
     34129     34128     34131     34134     34130     34128     34131     34132
     34130     34128     34131     34133     34130     34128     34131     34134
     34131     34134     34137     34138     34131     34134     34137     34139
     34131     34134     34137     34142     34132     34131     34134     34135
     34132     34131     34134     34136     34132     34131     34134     34137
     34133     34131     34134     34135     34133     34131     34134     34136
     34133     34131     34134     34137     34134     34137     34139     34140
     34134     34137     34139     34141     34134     34137     34139     34142
     34134     34137     34142     34139     34134     34137     34142     34143
     34134     34137     34142     34144     34135     34134     34137     34138
     34135     34134     34137     34139     34135     34134     34137     34142
     34136     34134     34137     34138     34136     34134     34137     34139
     34136     34134     34137     34142     34137     34139     34142     34143
     34137     34139     34142     34144     34137     34142     34139     34140
     34137     34142     34139     34141     34137     34142     34144     34145
     34137     34142     34144     34146     34137     34142     34144     34147
     34138     34137     34139     34140     34138     34137     34139     34141
     34138     34137     34139     34142     34138     34137     34142     34139
     34138     34137     34142     34143     34138     34137     34142     34144
     34139     34137     34142     34143     34139     34137     34142     34144
     34139     34142     34144     34145     34139     34142     34144     34146
     34139     34142     34144     34147     34140     34139     34137     34142
     34140     34139     34142     34143     34140     34139     34142     34144
     34141     34139     34137     34142     34141     34139     34142     34143
     34141     34139     34142     34144     34142     34144     34147     34148
     34142     34144     34147     34149     34142     34144     34147     34150
     34143     34142     34144     34145     34143     34142     34144     34146
     34143     34142     34144     34147     34144     34147     34150     34151
     34144     34147     34150     34152     34144     34147     34150     34153
     34145     34144     34147     34148     34145     34144     34147     34149
     34145     34144     34147     34150     34146     34144     34147     34148
     34146     34144     34147     34149     34146     34144     34147     34150
     34147     34150     34153     34154     34147     34150     34153     34155
     34147     34150     34153     34156     34148     34147     34150     34151
     34148     34147     34150     34152     34148     34147     34150     34153
     34149     34147     34150     34151     34149     34147     34150     34152
     34149     34147     34150     34153     34150     34153     34156     34157
     34150     34153     34156     34158     34150     34153     34156     34159
     34151     34150     34153     34154     34151     34150     34153     34155
     34151     34150     34153     34156     34152     34150     34153     34154
     34152     34150     34153     34155     34152     34150     34153     34156
     34153     34156     34159     34160     34153     34156     34159     34161
     34153     34156     34159     34162     34154     34153     34156     34157
     34154     34153     34156     34158     34154     34153     34156     34159
     34155     34153     34156     34157     34155     34153     34156     34158
     34155     34153     34156     34159     34157     34156     34159     34160
     34157     34156     34159     34161     34157     34156     34159     34162
     34158     34156     34159     34160     34158     34156     34159     34161
     34158     34156     34159     34162     34163     34166     34169     34170
     34163     34166     34169     34171     34163     34166     34169     34172
     34164     34163     34166     34167     34164     34163     34166     34168
     34164     34163     34166     34169     34165     34163     34166     34167
     34165     34163     34166     34168     34165     34163     34166     34169
     34166     34169     34172     34173     34166     34169     34172     34174
     34166     34169     34172     34175     34167     34166     34169     34170
     34167     34166     34169     34171     34167     34166     34169     34172
     34168     34166     34169     34170     34168     34166     34169     34171
     34168     34166     34169     34172     34169     34172     34175     34176
     34169     34172     34175     34177     34169     34172     34175     34178
     34170     34169     34172     34173     34170     34169     34172     34174
     34170     34169     34172     34175     34171     34169     34172     34173
     34171     34169     34172     34174     34171     34169     34172     34175
     34172     34175     34178     34179     34172     34175     34178     34180
     34172     34175     34178     34181     34173     34172     34175     34176
     34173     34172     34175     34177     34173     34172     34175     34178
     34174     34172     34175     34176     34174     34172     34175     34177
     34174     34172     34175     34178     34175     34178     34181     34182
     34175     34178     34181     34183     34175     34178     34181     34184
     34176     34175     34178     34179     34176     34175     34178     34180
     34176     34175     34178     34181     34177     34175     34178     34179
     34177     34175     34178     34180     34177     34175     34178     34181
     34178     34181     34184     34185     34178     34181     34184     34186
     34178     34181     34184     34187     34179     34178     34181     34182
     34179     34178     34181     34183     34179     34178     34181     34184
     34180     34178     34181     34182     34180     34178     34181     34183
     34180     34178     34181     34184     34181     34184     34187     34188
     34181     34184     34187     34189     34181     34184     34187     34190
     34182     34181     34184     34185     34182     34181     34184     34186
     34182     34181     34184     34187     34183     34181     34184     34185
     34183     34181     34184     34186     34183     34181     34184     34187
     34184     34187     34190     34191     34184     34187     34190     34192
     34184     34187     34190     34193     34185     34184     34187     34188
     34185     34184     34187     34189     34185     34184     34187     34190
     34186     34184     34187     34188     34186     34184     34187     34189
     34186     34184     34187     34190     34187     34190     34193     34194
     34187     34190     34193     34195     34187     34190     34193     34196
     34188     34187     34190     34191     34188     34187     34190     34192
     34188     34187     34190     34193     34189     34187     34190     34191
     34189     34187     34190     34192     34189     34187     34190     34193
     34190     34193     34196     34197     34190     34193     34196     34198
     34190     34193     34196     34199     34191     34190     34193     34194
     34191     34190     34193     34195     34191     34190     34193     34196
     34192     34190     34193     34194     34192     34190     34193     34195
     34192     34190     34193     34196     34193     34196     34199     34200
     34193     34196     34199     34201     34193     34196     34199     34202
     34194     34193     34196     34197     34194     34193     34196     34198
     34194     34193     34196     34199     34195     34193     34196     34197
     34195     34193     34196     34198     34195     34193     34196     34199
     34196     34199     34202     34203     34196     34199     34202     34204
     34196     34199     34202     34205     34197     34196     34199     34200
     34197     34196     34199     34201     34197     34196     34199     34202
     34198     34196     34199     34200     34198     34196     34199     34201
     34198     34196     34199     34202     34200     34199     34202     34203
     34200     34199     34202     34204     34200     34199     34202     34205
     34201     34199     34202     34203     34201     34199     34202     34204
     34201     34199     34202     34205     34206     34210     34213     34214
     34206     34210     34213     34215     34206     34210     34213     34220
     34207     34206     34210     34211     34207     34206     34210     34212
     34207     34206     34210     34213     34208     34206     34210     34211
     34208     34206     34210     34212     34208     34206     34210     34213
     34209     34206     34210     34211     34209     34206     34210     34212
     34209     34206     34210     34213     34210     34213     34220     34216
     34211     34210     34213     34214     34211     34210     34213     34215
     34211     34210     34213     34220     34212     34210     34213     34214
     34212     34210     34213     34215     34212     34210     34213     34220
     34213     34220     34216     34217     34213     34220     34216     34218
     34213     34220     34216     34219     34214     34213     34220     34216
     34215     34213     34220     34216     34216     34219     34221     34222
     34216     34219     34221     34223     34216     34219     34221     34224
     34217     34216     34219     34221     34218     34216     34219     34221
     34219     34221     34224     34225     34219     34221     34224     34226
     34219     34221     34224     34232     34220     34216     34219     34221
     34221     34224     34226     34227     34221     34224     34232     34233
     34221     34224     34232     34234     34221     34224     34232     34235
     34222     34221     34224     34225     34222     34221     34224     34226
     34222     34221     34224     34232     34223     34221     34224     34225
     34223     34221     34224     34226     34223     34221     34224     34232
     34224     34226     34227     34228     34224     34226     34227     34229
     34224     34232     34235     34236     34225     34224     34226     34227
     34225     34224     34232     34233     34225     34224     34232     34234
     34225     34224     34232     34235     34226     34224     34232     34233
     34226     34224     34232     34234     34226     34224     34232     34235
     34226     34227     34229     34230     34226     34227     34229     34231
     34226     34227     34229     34241     34227     34226     34224     34232
     34227     34229     34241     34242     34227     34229     34241     34243
     34227     34229     34241     34244     34228     34227     34229     34230
     34228     34227     34229     34231     34228     34227     34229     34241
     34229     34241     34244     34245     34229     34241     34244     34246
     34229     34241     34244     34247     34230     34229     34241     34242
     34230     34229     34241     34243     34230     34229     34241     34244
     34231     34229     34241     34242     34231     34229     34241     34243
     34231     34229     34241     34244     34232     34235     34236     34237
     34232     34235     34236     34238     34233     34232     34235     34236
     34234     34232     34235     34236     34235     34236     34238     34239
     34235     34236     34238     34240     34235     34236     34238     34285
     34236     34238     34285     34286     34236     34238     34285     34287
     34236     34238     34285     34288     34237     34236     34238     34239
     34237     34236     34238     34240     34237     34236     34238     34285
     34238     34285     34288     34289     34238     34285     34288     34290
     34238     34285     34288     34291     34239     34238     34285     34286
     34239     34238     34285     34287     34239     34238     34285     34288
     34240     34238     34285     34286     34240     34238     34285     34287
     34240     34238     34285     34288     34241     34244     34247     34248
     34241     34244     34247     34249     34241     34244     34247     34250
     34242     34241     34244     34245     34242     34241     34244     34246
     34242     34241     34244     34247     34243     34241     34244     34245
     34243     34241     34244     34246     34243     34241     34244     34247
     34244     34247     34250     34251     34244     34247     34250     34252
     34244     34247     34250     34253     34245     34244     34247     34248
     34245     34244     34247     34249     34245     34244     34247     34250
     34246     34244     34247     34248     34246     34244     34247     34249
     34246     34244     34247     34250     34247     34250     34253     34254
     34247     34250     34253     34255     34247     34250     34253     34256
     34248     34247     34250     34251     34248     34247     34250     34252
     34248     34247     34250     34253     34249     34247     34250     34251
     34249     34247     34250     34252     34249     34247     34250     34253
     34250     34253     34256     34257     34250     34253     34256     34258
     34250     34253     34256     34259     34251     34250     34253     34254
     34251     34250     34253     34255     34251     34250     34253     34256
     34252     34250     34253     34254     34252     34250     34253     34255
     34252     34250     34253     34256     34253     34256     34259     34260
     34253     34256     34259     34261     34253     34256     34259     34264
     34254     34253     34256     34257     34254     34253     34256     34258
     34254     34253     34256     34259     34255     34253     34256     34257
     34255     34253     34256     34258     34255     34253     34256     34259
     34256     34259     34261     34262     34256     34259     34261     34263
     34256     34259     34261     34264     34256     34259     34264     34261
     34256     34259     34264     34265     34256     34259     34264     34266
     34257     34256     34259     34260     34257     34256     34259     34261
     34257     34256     34259     34264     34258     34256     34259     34260
     34258     34256     34259     34261     34258     34256     34259     34264
     34259     34261     34264     34265     34259     34261     34264     34266
     34259     34264     34261     34262     34259     34264     34261     34263
     34259     34264     34266     34267     34259     34264     34266     34268
     34259     34264     34266     34269     34260     34259     34261     34262
     34260     34259     34261     34263     34260     34259     34261     34264
     34260     34259     34264     34261     34260     34259     34264     34265
     34260     34259     34264     34266     34261     34259     34264     34265
     34261     34259     34264     34266     34261     34264     34266     34267
     34261     34264     34266     34268     34261     34264     34266     34269
     34262     34261     34259     34264     34262     34261     34264     34265
     34262     34261     34264     34266     34263     34261     34259     34264
     34263     34261     34264     34265     34263     34261     34264     34266
     34264     34266     34269     34270     34264     34266     34269     34271
     34264     34266     34269     34272     34265     34264     34266     34267
     34265     34264     34266     34268     34265     34264     34266     34269
     34266     34269     34272     34273     34266     34269     34272     34274
     34266     34269     34272     34275     34267     34266     34269     34270
     34267     34266     34269     34271     34267     34266     34269     34272
     34268     34266     34269     34270     34268     34266     34269     34271
     34268     34266     34269     34272     34269     34272     34275     34276
     34269     34272     34275     34277     34269     34272     34275     34278
     34270     34269     34272     34273     34270     34269     34272     34274
     34270     34269     34272     34275     34271     34269     34272     34273
     34271     34269     34272     34274     34271     34269     34272     34275
     34272     34275     34278     34279     34272     34275     34278     34280
     34272     34275     34278     34281     34273     34272     34275     34276
     34273     34272     34275     34277     34273     34272     34275     34278
     34274     34272     34275     34276     34274     34272     34275     34277
     34274     34272     34275     34278     34275     34278     34281     34282
     34275     34278     34281     34283     34275     34278     34281     34284
     34276     34275     34278     34279     34276     34275     34278     34280
     34276     34275     34278     34281     34277     34275     34278     34279
     34277     34275     34278     34280     34277     34275     34278     34281
     34279     34278     34281     34282     34279     34278     34281     34283
     34279     34278     34281     34284     34280     34278     34281     34282
     34280     34278     34281     34283     34280     34278     34281     34284
     34285     34288     34291     34292     34285     34288     34291     34293
     34285     34288     34291     34294     34286     34285     34288     34289
     34286     34285     34288     34290     34286     34285     34288     34291
     34287     34285     34288     34289     34287     34285     34288     34290
     34287     34285     34288     34291     34288     34291     34294     34295
     34288     34291     34294     34296     34288     34291     34294     34297
     34289     34288     34291     34292     34289     34288     34291     34293
     34289     34288     34291     34294     34290     34288     34291     34292
     34290     34288     34291     34293     34290     34288     34291     34294
     34291     34294     34297     34298     34291     34294     34297     34299
     34291     34294     34297     34300     34292     34291     34294     34295
     34292     34291     34294     34296     34292     34291     34294     34297
     34293     34291     34294     34295     34293     34291     34294     34296
     34293     34291     34294     34297     34294     34297     34300     34301
     34294     34297     34300     34302     34294     34297     34300     34303
     34295     34294     34297     34298     34295     34294     34297     34299
     34295     34294     34297     34300     34296     34294     34297     34298
     34296     34294     34297     34299     34296     34294     34297     34300
     34297     34300     34303     34304     34297     34300     34303     34305
     34297     34300     34303     34306     34298     34297     34300     34301
     34298     34297     34300     34302     34298     34297     34300     34303
     34299     34297     34300     34301     34299     34297     34300     34302
     34299     34297     34300     34303     34300     34303     34306     34307
     34300     34303     34306     34308     34300     34303     34306     34309
     34301     34300     34303     34304     34301     34300     34303     34305
     34301     34300     34303     34306     34302     34300     34303     34304
     34302     34300     34303     34305     34302     34300     34303     34306
     34303     34306     34309     34310     34303     34306     34309     34311
     34303     34306     34309     34312     34304     34303     34306     34307
     34304     34303     34306     34308     34304     34303     34306     34309
     34305     34303     34306     34307     34305     34303     34306     34308
     34305     34303     34306     34309     34306     34309     34312     34313
     34306     34309     34312     34314     34306     34309     34312     34315
     34307     34306     34309     34310     34307     34306     34309     34311
     34307     34306     34309     34312     34308     34306     34309     34310
     34308     34306     34309     34311     34308     34306     34309     34312
     34309     34312     34315     34316     34309     34312     34315     34317
     34309     34312     34315     34318     34310     34309     34312     34313
     34310     34309     34312     34314     34310     34309     34312     34315
     34311     34309     34312     34313     34311     34309     34312     34314
     34311     34309     34312     34315     34312     34315     34318     34319
     34312     34315     34318     34320     34312     34315     34318     34321
     34313     34312     34315     34316     34313     34312     34315     34317
     34313     34312     34315     34318     34314     34312     34315     34316
     34314     34312     34315     34317     34314     34312     34315     34318
     34315     34318     34321     34322     34315     34318     34321     34323
     34315     34318     34321     34324     34316     34315     34318     34319
     34316     34315     34318     34320     34316     34315     34318     34321
     34317     34315     34318     34319     34317     34315     34318     34320
     34317     34315     34318     34321     34318     34321     34324     34325
     34318     34321     34324     34326     34318     34321     34324     34327
     34319     34318     34321     34322     34319     34318     34321     34323
     34319     34318     34321     34324     34320     34318     34321     34322
     34320     34318     34321     34323     34320     34318     34321     34324
     34322     34321     34324     34325     34322     34321     34324     34326
     34322     34321     34324     34327     34323     34321     34324     34325
     34323     34321     34324     34326     34323     34321     34324     34327
     34328     34332     34335     34336     34328     34332     34335     34337
     34328     34332     34335     34342     34329     34328     34332     34333
     34329     34328     34332     34334     34329     34328     34332     34335
     34330     34328     34332     34333     34330     34328     34332     34334
     34330     34328     34332     34335     34331     34328     34332     34333
     34331     34328     34332     34334     34331     34328     34332     34335
     34332     34335     34342     34338     34333     34332     34335     34336
     34333     34332     34335     34337     34333     34332     34335     34342
     34334     34332     34335     34336     34334     34332     34335     34337
     34334     34332     34335     34342     34335     34342     34338     34339
     34335     34342     34338     34340     34335     34342     34338     34341
     34336     34335     34342     34338     34337     34335     34342     34338
     34338     34341     34343     34344     34338     34341     34343     34345
     34338     34341     34343     34346     34339     34338     34341     34343
     34340     34338     34341     34343     34341     34343     34346     34347
     34341     34343     34346     34348     34341     34343     34346     34354
     34342     34338     34341     34343     34343     34346     34348     34349
     34343     34346     34354     34355     34343     34346     34354     34356
     34343     34346     34354     34357     34344     34343     34346     34347
     34344     34343     34346     34348     34344     34343     34346     34354
     34345     34343     34346     34347     34345     34343     34346     34348
     34345     34343     34346     34354     34346     34348     34349     34350
     34346     34348     34349     34351     34346     34354     34357     34358
     34347     34346     34348     34349     34347     34346     34354     34355
     34347     34346     34354     34356     34347     34346     34354     34357
     34348     34346     34354     34355     34348     34346     34354     34356
     34348     34346     34354     34357     34348     34349     34351     34352
     34348     34349     34351     34353     34348     34349     34351     34363
     34349     34348     34346     34354     34349     34351     34363     34364
     34349     34351     34363     34365     34349     34351     34363     34366
     34350     34349     34351     34352     34350     34349     34351     34353
     34350     34349     34351     34363     34351     34363     34366     34367
     34351     34363     34366     34368     34351     34363     34366     34369
     34352     34351     34363     34364     34352     34351     34363     34365
     34352     34351     34363     34366     34353     34351     34363     34364
     34353     34351     34363     34365     34353     34351     34363     34366
     34354     34357     34358     34359     34354     34357     34358     34360
     34355     34354     34357     34358     34356     34354     34357     34358
     34357     34358     34360     34361     34357     34358     34360     34362
     34357     34358     34360     34407     34358     34360     34407     34408
     34358     34360     34407     34409     34358     34360     34407     34410
     34359     34358     34360     34361     34359     34358     34360     34362
     34359     34358     34360     34407     34360     34407     34410     34411
     34360     34407     34410     34412     34360     34407     34410     34413
     34361     34360     34407     34408     34361     34360     34407     34409
     34361     34360     34407     34410     34362     34360     34407     34408
     34362     34360     34407     34409     34362     34360     34407     34410
     34363     34366     34369     34370     34363     34366     34369     34371
     34363     34366     34369     34372     34364     34363     34366     34367
     34364     34363     34366     34368     34364     34363     34366     34369
     34365     34363     34366     34367     34365     34363     34366     34368
     34365     34363     34366     34369     34366     34369     34372     34373
     34366     34369     34372     34374     34366     34369     34372     34375
     34367     34366     34369     34370     34367     34366     34369     34371
     34367     34366     34369     34372     34368     34366     34369     34370
     34368     34366     34369     34371     34368     34366     34369     34372
     34369     34372     34375     34376     34369     34372     34375     34377
     34369     34372     34375     34378     34370     34369     34372     34373
     34370     34369     34372     34374     34370     34369     34372     34375
     34371     34369     34372     34373     34371     34369     34372     34374
     34371     34369     34372     34375     34372     34375     34378     34379
     34372     34375     34378     34380     34372     34375     34378     34381
     34373     34372     34375     34376     34373     34372     34375     34377
     34373     34372     34375     34378     34374     34372     34375     34376
     34374     34372     34375     34377     34374     34372     34375     34378
     34375     34378     34381     34382     34375     34378     34381     34383
     34375     34378     34381     34386     34376     34375     34378     34379
     34376     34375     34378     34380     34376     34375     34378     34381
     34377     34375     34378     34379     34377     34375     34378     34380
     34377     34375     34378     34381     34378     34381     34383     34384
     34378     34381     34383     34385     34378     34381     34383     34386
     34378     34381     34386     34383     34378     34381     34386     34387
     34378     34381     34386     34388     34379     34378     34381     34382
     34379     34378     34381     34383     34379     34378     34381     34386
     34380     34378     34381     34382     34380     34378     34381     34383
     34380     34378     34381     34386     34381     34383     34386     34387
     34381     34383     34386     34388     34381     34386     34383     34384
     34381     34386     34383     34385     34381     34386     34388     34389
     34381     34386     34388     34390     34381     34386     34388     34391
     34382     34381     34383     34384     34382     34381     34383     34385
     34382     34381     34383     34386     34382     34381     34386     34383
     34382     34381     34386     34387     34382     34381     34386     34388
     34383     34381     34386     34387     34383     34381     34386     34388
     34383     34386     34388     34389     34383     34386     34388     34390
     34383     34386     34388     34391     34384     34383     34381     34386
     34384     34383     34386     34387     34384     34383     34386     34388
     34385     34383     34381     34386     34385     34383     34386     34387
     34385     34383     34386     34388     34386     34388     34391     34392
     34386     34388     34391     34393     34386     34388     34391     34394
     34387     34386     34388     34389     34387     34386     34388     34390
     34387     34386     34388     34391     34388     34391     34394     34395
     34388     34391     34394     34396     34388     34391     34394     34397
     34389     34388     34391     34392     34389     34388     34391     34393
     34389     34388     34391     34394     34390     34388     34391     34392
     34390     34388     34391     34393     34390     34388     34391     34394
     34391     34394     34397     34398     34391     34394     34397     34399
     34391     34394     34397     34400     34392     34391     34394     34395
     34392     34391     34394     34396     34392     34391     34394     34397
     34393     34391     34394     34395     34393     34391     34394     34396
     34393     34391     34394     34397     34394     34397     34400     34401
     34394     34397     34400     34402     34394     34397     34400     34403
     34395     34394     34397     34398     34395     34394     34397     34399
     34395     34394     34397     34400     34396     34394     34397     34398
     34396     34394     34397     34399     34396     34394     34397     34400
     34397     34400     34403     34404     34397     34400     34403     34405
     34397     34400     34403     34406     34398     34397     34400     34401
     34398     34397     34400     34402     34398     34397     34400     34403
     34399     34397     34400     34401     34399     34397     34400     34402
     34399     34397     34400     34403     34401     34400     34403     34404
     34401     34400     34403     34405     34401     34400     34403     34406
     34402     34400     34403     34404     34402     34400     34403     34405
     34402     34400     34403     34406     34407     34410     34413     34414
     34407     34410     34413     34415     34407     34410     34413     34416
     34408     34407     34410     34411     34408     34407     34410     34412
     34408     34407     34410     34413     34409     34407     34410     34411
     34409     34407     34410     34412     34409     34407     34410     34413
     34410     34413     34416     34417     34410     34413     34416     34418
     34410     34413     34416     34419     34411     34410     34413     34414
     34411     34410     34413     34415     34411     34410     34413     34416
     34412     34410     34413     34414     34412     34410     34413     34415
     34412     34410     34413     34416     34413     34416     34419     34420
     34413     34416     34419     34421     34413     34416     34419     34422
     34414     34413     34416     34417     34414     34413     34416     34418
     34414     34413     34416     34419     34415     34413     34416     34417
     34415     34413     34416     34418     34415     34413     34416     34419
     34416     34419     34422     34423     34416     34419     34422     34424
     34416     34419     34422     34425     34417     34416     34419     34420
     34417     34416     34419     34421     34417     34416     34419     34422
     34418     34416     34419     34420     34418     34416     34419     34421
     34418     34416     34419     34422     34419     34422     34425     34426
     34419     34422     34425     34427     34419     34422     34425     34428
     34420     34419     34422     34423     34420     34419     34422     34424
     34420     34419     34422     34425     34421     34419     34422     34423
     34421     34419     34422     34424     34421     34419     34422     34425
     34422     34425     34428     34429     34422     34425     34428     34430
     34422     34425     34428     34431     34423     34422     34425     34426
     34423     34422     34425     34427     34423     34422     34425     34428
     34424     34422     34425     34426     34424     34422     34425     34427
     34424     34422     34425     34428     34425     34428     34431     34432
     34425     34428     34431     34433     34425     34428     34431     34434
     34426     34425     34428     34429     34426     34425     34428     34430
     34426     34425     34428     34431     34427     34425     34428     34429
     34427     34425     34428     34430     34427     34425     34428     34431
     34428     34431     34434     34435     34428     34431     34434     34436
     34428     34431     34434     34437     34429     34428     34431     34432
     34429     34428     34431     34433     34429     34428     34431     34434
     34430     34428     34431     34432     34430     34428     34431     34433
     34430     34428     34431     34434     34431     34434     34437     34438
     34431     34434     34437     34439     34431     34434     34437     34440
     34432     34431     34434     34435     34432     34431     34434     34436
     34432     34431     34434     34437     34433     34431     34434     34435
     34433     34431     34434     34436     34433     34431     34434     34437
     34434     34437     34440     34441     34434     34437     34440     34442
     34434     34437     34440     34443     34435     34434     34437     34438
     34435     34434     34437     34439     34435     34434     34437     34440
     34436     34434     34437     34438     34436     34434     34437     34439
     34436     34434     34437     34440     34437     34440     34443     34444
     34437     34440     34443     34445     34437     34440     34443     34446
     34438     34437     34440     34441     34438     34437     34440     34442
     34438     34437     34440     34443     34439     34437     34440     34441
     34439     34437     34440     34442     34439     34437     34440     34443
     34440     34443     34446     34447     34440     34443     34446     34448
     34440     34443     34446     34449     34441     34440     34443     34444
     34441     34440     34443     34445     34441     34440     34443     34446
     34442     34440     34443     34444     34442     34440     34443     34445
     34442     34440     34443     34446     34444     34443     34446     34447
     34444     34443     34446     34448     34444     34443     34446     34449
     34445     34443     34446     34447     34445     34443     34446     34448
     34445     34443     34446     34449     34450     34455     34457     34458
     34450     34455     34459     34460     34450     34455     34459     34461
     34450     34455     34459     34466     34451     34450     34453     34454
     34451     34450     34455     34456     34451     34450     34455     34457
     34451     34450     34455     34459     34452     34450     34453     34454
     34452     34450     34455     34456     34452     34450     34455     34457
     34452     34450     34455     34459     34453     34450     34455     34456
     34453     34450     34455     34457     34453     34450     34455     34459
     34454     34453     34450     34455     34455     34459     34466     34462
     34456     34455     34457     34458     34456     34455     34459     34460
     34456     34455     34459     34461     34456     34455     34459     34466
     34457     34455     34459     34460     34457     34455     34459     34461
     34457     34455     34459     34466     34458     34457     34455     34459
     34459     34466     34462     34463     34459     34466     34462     34464
     34459     34466     34462     34465     34460     34459     34466     34462
     34461     34459     34466     34462     34462     34465     34467     34468
     34462     34465     34467     34469     34462     34465     34467     34470
     34463     34462     34465     34467     34464     34462     34465     34467
     34465     34467     34470     34471     34465     34467     34470     34472
     34465     34467     34470     34478     34466     34462     34465     34467
     34467     34470     34472     34473     34467     34470     34478     34479
     34467     34470     34478     34480     34467     34470     34478     34481
     34468     34467     34470     34471     34468     34467     34470     34472
     34468     34467     34470     34478     34469     34467     34470     34471
     34469     34467     34470     34472     34469     34467     34470     34478
     34470     34472     34473     34474     34470     34472     34473     34475
     34470     34478     34481     34482     34471     34470     34472     34473
     34471     34470     34478     34479     34471     34470     34478     34480
     34471     34470     34478     34481     34472     34470     34478     34479
     34472     34470     34478     34480     34472     34470     34478     34481
     34472     34473     34475     34476     34472     34473     34475     34477
     34472     34473     34475     34487     34473     34472     34470     34478
     34473     34475     34487     34488     34473     34475     34487     34489
     34473     34475     34487     34490     34474     34473     34475     34476
     34474     34473     34475     34477     34474     34473     34475     34487
     34475     34487     34490     34491     34475     34487     34490     34492
     34475     34487     34490     34493     34476     34475     34487     34488
     34476     34475     34487     34489     34476     34475     34487     34490
     34477     34475     34487     34488     34477     34475     34487     34489
     34477     34475     34487     34490     34478     34481     34482     34483
     34478     34481     34482     34484     34479     34478     34481     34482
     34480     34478     34481     34482     34481     34482     34484     34485
     34481     34482     34484     34486     34481     34482     34484     34528
     34482     34484     34528     34529     34482     34484     34528     34530
     34482     34484     34528     34531     34483     34482     34484     34485
     34483     34482     34484     34486     34483     34482     34484     34528
     34484     34528     34531     34532     34484     34528     34531     34533
     34484     34528     34531     34534     34485     34484     34528     34529
     34485     34484     34528     34530     34485     34484     34528     34531
     34486     34484     34528     34529     34486     34484     34528     34530
     34486     34484     34528     34531     34487     34490     34493     34494
     34487     34490     34493     34495     34487     34490     34493     34496
     34488     34487     34490     34491     34488     34487     34490     34492
     34488     34487     34490     34493     34489     34487     34490     34491
     34489     34487     34490     34492     34489     34487     34490     34493
     34490     34493     34496     34497     34490     34493     34496     34498
     34490     34493     34496     34499     34491     34490     34493     34494
     34491     34490     34493     34495     34491     34490     34493     34496
     34492     34490     34493     34494     34492     34490     34493     34495
     34492     34490     34493     34496     34493     34496     34499     34500
     34493     34496     34499     34501     34493     34496     34499     34502
     34494     34493     34496     34497     34494     34493     34496     34498
     34494     34493     34496     34499     34495     34493     34496     34497
     34495     34493     34496     34498     34495     34493     34496     34499
     34496     34499     34502     34503     34496     34499     34502     34504
     34496     34499     34502     34505     34497     34496     34499     34500
     34497     34496     34499     34501     34497     34496     34499     34502
     34498     34496     34499     34500     34498     34496     34499     34501
     34498     34496     34499     34502     34499     34502     34505     34506
     34499     34502     34505     34507     34500     34499     34502     34503
     34500     34499     34502     34504     34500     34499     34502     34505
     34501     34499     34502     34503     34501     34499     34502     34504
     34501     34499     34502     34505     34502     34505     34507     34508
     34502     34505     34507     34509     34503     34502     34505     34506
     34503     34502     34505     34507     34504     34502     34505     34506
     34504     34502     34505     34507     34505     34507     34509     34510
     34505     34507     34509     34511     34505     34507     34509     34512
     34506     34505     34507     34508     34506     34505     34507     34509
     34507     34509     34512     34513     34507     34509     34512     34514
     34507     34509     34512     34515     34508     34507     34509     34510
     34508     34507     34509     34511     34508     34507     34509     34512
     34509     34512     34515     34516     34509     34512     34515     34517
     34509     34512     34515     34518     34510     34509     34512     34513
     34510     34509     34512     34514     34510     34509     34512     34515
     34511     34509     34512     34513     34511     34509     34512     34514
     34511     34509     34512     34515     34512     34515     34518     34519
     34512     34515     34518     34520     34512     34515     34518     34521
     34513     34512     34515     34516     34513     34512     34515     34517
     34513     34512     34515     34518     34514     34512     34515     34516
     34514     34512     34515     34517     34514     34512     34515     34518
     34515     34518     34521     34522     34515     34518     34521     34523
     34515     34518     34521     34524     34516     34515     34518     34519
     34516     34515     34518     34520     34516     34515     34518     34521
     34517     34515     34518     34519     34517     34515     34518     34520
     34517     34515     34518     34521     34518     34521     34524     34525
     34518     34521     34524     34526     34518     34521     34524     34527
     34519     34518     34521     34522     34519     34518     34521     34523
     34519     34518     34521     34524     34520     34518     34521     34522
     34520     34518     34521     34523     34520     34518     34521     34524
     34522     34521     34524     34525     34522     34521     34524     34526
     34522     34521     34524     34527     34523     34521     34524     34525
     34523     34521     34524     34526     34523     34521     34524     34527
     34528     34531     34534     34535     34528     34531     34534     34536
     34528     34531     34534     34537     34529     34528     34531     34532
     34529     34528     34531     34533     34529     34528     34531     34534
     34530     34528     34531     34532     34530     34528     34531     34533
     34530     34528     34531     34534     34531     34534     34537     34538
     34531     34534     34537     34539     34531     34534     34537     34540
     34532     34531     34534     34535     34532     34531     34534     34536
     34532     34531     34534     34537     34533     34531     34534     34535
     34533     34531     34534     34536     34533     34531     34534     34537
     34534     34537     34540     34541     34534     34537     34540     34542
     34534     34537     34540     34543     34535     34534     34537     34538
     34535     34534     34537     34539     34535     34534     34537     34540
     34536     34534     34537     34538     34536     34534     34537     34539
     34536     34534     34537     34540     34537     34540     34543     34544
     34537     34540     34543     34545     34537     34540     34543     34546
     34538     34537     34540     34541     34538     34537     34540     34542
     34538     34537     34540     34543     34539     34537     34540     34541
     34539     34537     34540     34542     34539     34537     34540     34543
     34540     34543     34546     34547     34540     34543     34546     34548
     34540     34543     34546     34549     34541     34540     34543     34544
     34541     34540     34543     34545     34541     34540     34543     34546
     34542     34540     34543     34544     34542     34540     34543     34545
     34542     34540     34543     34546     34543     34546     34549     34550
     34543     34546     34549     34551     34543     34546     34549     34552
     34544     34543     34546     34547     34544     34543     34546     34548
     34544     34543     34546     34549     34545     34543     34546     34547
     34545     34543     34546     34548     34545     34543     34546     34549
     34546     34549     34552     34553     34546     34549     34552     34554
     34546     34549     34552     34555     34547     34546     34549     34550
     34547     34546     34549     34551     34547     34546     34549     34552
     34548     34546     34549     34550     34548     34546     34549     34551
     34548     34546     34549     34552     34549     34552     34555     34556
     34549     34552     34555     34557     34549     34552     34555     34558
     34550     34549     34552     34553     34550     34549     34552     34554
     34550     34549     34552     34555     34551     34549     34552     34553
     34551     34549     34552     34554     34551     34549     34552     34555
     34552     34555     34558     34559     34552     34555     34558     34560
     34552     34555     34558     34561     34553     34552     34555     34556
     34553     34552     34555     34557     34553     34552     34555     34558
     34554     34552     34555     34556     34554     34552     34555     34557
     34554     34552     34555     34558     34555     34558     34561     34562
     34555     34558     34561     34563     34555     34558     34561     34564
     34556     34555     34558     34559     34556     34555     34558     34560
     34556     34555     34558     34561     34557     34555     34558     34559
     34557     34555     34558     34560     34557     34555     34558     34561
     34558     34561     34564     34565     34558     34561     34564     34566
     34558     34561     34564     34567     34559     34558     34561     34562
     34559     34558     34561     34563     34559     34558     34561     34564
     34560     34558     34561     34562     34560     34558     34561     34563
     34560     34558     34561     34564     34561     34564     34567     34568
     34561     34564     34567     34569     34561     34564     34567     34570
     34562     34561     34564     34565     34562     34561     34564     34566
     34562     34561     34564     34567     34563     34561     34564     34565
     34563     34561     34564     34566     34563     34561     34564     34567
     34565     34564     34567     34568     34565     34564     34567     34569
     34565     34564     34567     34570     34566     34564     34567     34568
     34566     34564     34567     34569     34566     34564     34567     34570
     34571     34575     34578     34579     34571     34575     34578     34580
     34571     34575     34578     34585     34572     34571     34575     34576
     34572     34571     34575     34577     34572     34571     34575     34578
     34573     34571     34575     34576     34573     34571     34575     34577
     34573     34571     34575     34578     34574     34571     34575     34576
     34574     34571     34575     34577     34574     34571     34575     34578
     34575     34578     34585     34581     34576     34575     34578     34579
     34576     34575     34578     34580     34576     34575     34578     34585
     34577     34575     34578     34579     34577     34575     34578     34580
     34577     34575     34578     34585     34578     34585     34581     34582
     34578     34585     34581     34583     34578     34585     34581     34584
     34579     34578     34585     34581     34580     34578     34585     34581
     34581     34584     34586     34587     34581     34584     34586     34588
     34581     34584     34586     34589     34582     34581     34584     34586
     34583     34581     34584     34586     34584     34586     34589     34590
     34584     34586     34589     34591     34584     34586     34589     34597
     34585     34581     34584     34586     34586     34589     34591     34592
     34586     34589     34597     34598     34586     34589     34597     34599
     34586     34589     34597     34600     34587     34586     34589     34590
     34587     34586     34589     34591     34587     34586     34589     34597
     34588     34586     34589     34590     34588     34586     34589     34591
     34588     34586     34589     34597     34589     34591     34592     34593
     34589     34591     34592     34594     34589     34597     34600     34601
     34590     34589     34591     34592     34590     34589     34597     34598
     34590     34589     34597     34599     34590     34589     34597     34600
     34591     34589     34597     34598     34591     34589     34597     34599
     34591     34589     34597     34600     34591     34592     34594     34595
     34591     34592     34594     34596     34591     34592     34594     34606
     34592     34591     34589     34597     34592     34594     34606     34607
     34592     34594     34606     34608     34592     34594     34606     34609
     34593     34592     34594     34595     34593     34592     34594     34596
     34593     34592     34594     34606     34594     34606     34609     34610
     34594     34606     34609     34611     34594     34606     34609     34612
     34595     34594     34606     34607     34595     34594     34606     34608
     34595     34594     34606     34609     34596     34594     34606     34607
     34596     34594     34606     34608     34596     34594     34606     34609
     34597     34600     34601     34602     34597     34600     34601     34603
     34598     34597     34600     34601     34599     34597     34600     34601
     34600     34601     34603     34604     34600     34601     34603     34605
     34600     34601     34603     34647     34601     34603     34647     34648
     34601     34603     34647     34649     34601     34603     34647     34650
     34602     34601     34603     34604     34602     34601     34603     34605
     34602     34601     34603     34647     34603     34647     34650     34651
     34603     34647     34650     34652     34603     34647     34650     34653
     34604     34603     34647     34648     34604     34603     34647     34649
     34604     34603     34647     34650     34605     34603     34647     34648
     34605     34603     34647     34649     34605     34603     34647     34650
     34606     34609     34612     34613     34606     34609     34612     34614
     34606     34609     34612     34615     34607     34606     34609     34610
     34607     34606     34609     34611     34607     34606     34609     34612
     34608     34606     34609     34610     34608     34606     34609     34611
     34608     34606     34609     34612     34609     34612     34615     34616
     34609     34612     34615     34617     34609     34612     34615     34618
     34610     34609     34612     34613     34610     34609     34612     34614
     34610     34609     34612     34615     34611     34609     34612     34613
     34611     34609     34612     34614     34611     34609     34612     34615
     34612     34615     34618     34619     34612     34615     34618     34620
     34612     34615     34618     34621     34613     34612     34615     34616
     34613     34612     34615     34617     34613     34612     34615     34618
     34614     34612     34615     34616     34614     34612     34615     34617
     34614     34612     34615     34618     34615     34618     34621     34622
     34615     34618     34621     34623     34615     34618     34621     34624
     34616     34615     34618     34619     34616     34615     34618     34620
     34616     34615     34618     34621     34617     34615     34618     34619
     34617     34615     34618     34620     34617     34615     34618     34621
     34618     34621     34624     34625     34618     34621     34624     34626
     34619     34618     34621     34622     34619     34618     34621     34623
     34619     34618     34621     34624     34620     34618     34621     34622
     34620     34618     34621     34623     34620     34618     34621     34624
     34621     34624     34626     34627     34621     34624     34626     34628
     34622     34621     34624     34625     34622     34621     34624     34626
     34623     34621     34624     34625     34623     34621     34624     34626
     34624     34626     34628     34629     34624     34626     34628     34630
     34624     34626     34628     34631     34625     34624     34626     34627
     34625     34624     34626     34628     34626     34628     34631     34632
     34626     34628     34631     34633     34626     34628     34631     34634
     34627     34626     34628     34629     34627     34626     34628     34630
     34627     34626     34628     34631     34628     34631     34634     34635
     34628     34631     34634     34636     34628     34631     34634     34637
     34629     34628     34631     34632     34629     34628     34631     34633
     34629     34628     34631     34634     34630     34628     34631     34632
     34630     34628     34631     34633     34630     34628     34631     34634
     34631     34634     34637     34638     34631     34634     34637     34639
     34631     34634     34637     34640     34632     34631     34634     34635
     34632     34631     34634     34636     34632     34631     34634     34637
     34633     34631     34634     34635     34633     34631     34634     34636
     34633     34631     34634     34637     34634     34637     34640     34641
     34634     34637     34640     34642     34634     34637     34640     34643
     34635     34634     34637     34638     34635     34634     34637     34639
     34635     34634     34637     34640     34636     34634     34637     34638
     34636     34634     34637     34639     34636     34634     34637     34640
     34637     34640     34643     34644     34637     34640     34643     34645
     34637     34640     34643     34646     34638     34637     34640     34641
     34638     34637     34640     34642     34638     34637     34640     34643
     34639     34637     34640     34641     34639     34637     34640     34642
     34639     34637     34640     34643     34641     34640     34643     34644
     34641     34640     34643     34645     34641     34640     34643     34646
     34642     34640     34643     34644     34642     34640     34643     34645
     34642     34640     34643     34646     34647     34650     34653     34654
     34647     34650     34653     34655     34647     34650     34653     34656
     34648     34647     34650     34651     34648     34647     34650     34652
     34648     34647     34650     34653     34649     34647     34650     34651
     34649     34647     34650     34652     34649     34647     34650     34653
     34650     34653     34656     34657     34650     34653     34656     34658
     34650     34653     34656     34659     34651     34650     34653     34654
     34651     34650     34653     34655     34651     34650     34653     34656
     34652     34650     34653     34654     34652     34650     34653     34655
     34652     34650     34653     34656     34653     34656     34659     34660
     34653     34656     34659     34661     34653     34656     34659     34662
     34654     34653     34656     34657     34654     34653     34656     34658
     34654     34653     34656     34659     34655     34653     34656     34657
     34655     34653     34656     34658     34655     34653     34656     34659
     34656     34659     34662     34663     34656     34659     34662     34664
     34656     34659     34662     34665     34657     34656     34659     34660
     34657     34656     34659     34661     34657     34656     34659     34662
     34658     34656     34659     34660     34658     34656     34659     34661
     34658     34656     34659     34662     34659     34662     34665     34666
     34659     34662     34665     34667     34660     34659     34662     34663
     34660     34659     34662     34664     34660     34659     34662     34665
     34661     34659     34662     34663     34661     34659     34662     34664
     34661     34659     34662     34665     34662     34665     34667     34668
     34662     34665     34667     34669     34663     34662     34665     34666
     34663     34662     34665     34667     34664     34662     34665     34666
     34664     34662     34665     34667     34665     34667     34669     34670
     34665     34667     34669     34671     34665     34667     34669     34672
     34666     34665     34667     34668     34666     34665     34667     34669
     34667     34669     34672     34673     34667     34669     34672     34674
     34667     34669     34672     34675     34668     34667     34669     34670
     34668     34667     34669     34671     34668     34667     34669     34672
     34669     34672     34675     34676     34669     34672     34675     34677
     34669     34672     34675     34678     34670     34669     34672     34673
     34670     34669     34672     34674     34670     34669     34672     34675
     34671     34669     34672     34673     34671     34669     34672     34674
     34671     34669     34672     34675     34672     34675     34678     34679
     34672     34675     34678     34680     34672     34675     34678     34681
     34673     34672     34675     34676     34673     34672     34675     34677
     34673     34672     34675     34678     34674     34672     34675     34676
     34674     34672     34675     34677     34674     34672     34675     34678
     34675     34678     34681     34682     34675     34678     34681     34683
     34675     34678     34681     34684     34676     34675     34678     34679
     34676     34675     34678     34680     34676     34675     34678     34681
     34677     34675     34678     34679     34677     34675     34678     34680
     34677     34675     34678     34681     34678     34681     34684     34685
     34678     34681     34684     34686     34678     34681     34684     34687
     34679     34678     34681     34682     34679     34678     34681     34683
     34679     34678     34681     34684     34680     34678     34681     34682
     34680     34678     34681     34683     34680     34678     34681     34684
     34681     34684     34687     34688     34681     34684     34687     34689
     34681     34684     34687     34690     34682     34681     34684     34685
     34682     34681     34684     34686     34682     34681     34684     34687
     34683     34681     34684     34685     34683     34681     34684     34686
     34683     34681     34684     34687     34684     34687     34690     34691
     34684     34687     34690     34692     34684     34687     34690     34693
     34685     34684     34687     34688     34685     34684     34687     34689
     34685     34684     34687     34690     34686     34684     34687     34688
     34686     34684     34687     34689     34686     34684     34687     34690
     34688     34687     34690     34691     34688     34687     34690     34692
     34688     34687     34690     34693     34689     34687     34690     34691
     34689     34687     34690     34692     34689     34687     34690     34693
     34694     34698     34701     34702     34694     34698     34701     34703
     34694     34698     34701     34708     34695     34694     34698     34699
     34695     34694     34698     34700     34695     34694     34698     34701
     34696     34694     34698     34699     34696     34694     34698     34700
     34696     34694     34698     34701     34697     34694     34698     34699
     34697     34694     34698     34700     34697     34694     34698     34701
     34698     34701     34708     34704     34699     34698     34701     34702
     34699     34698     34701     34703     34699     34698     34701     34708
     34700     34698     34701     34702     34700     34698     34701     34703
     34700     34698     34701     34708     34701     34708     34704     34705
     34701     34708     34704     34706     34701     34708     34704     34707
     34702     34701     34708     34704     34703     34701     34708     34704
     34704     34707     34709     34710     34704     34707     34709     34711
     34704     34707     34709     34712     34705     34704     34707     34709
     34706     34704     34707     34709     34707     34709     34712     34713
     34707     34709     34712     34714     34707     34709     34712     34720
     34708     34704     34707     34709     34709     34712     34714     34715
     34709     34712     34720     34721     34709     34712     34720     34722
     34709     34712     34720     34723     34710     34709     34712     34713
     34710     34709     34712     34714     34710     34709     34712     34720
     34711     34709     34712     34713     34711     34709     34712     34714
     34711     34709     34712     34720     34712     34714     34715     34716
     34712     34714     34715     34717     34712     34720     34723     34724
     34713     34712     34714     34715     34713     34712     34720     34721
     34713     34712     34720     34722     34713     34712     34720     34723
     34714     34712     34720     34721     34714     34712     34720     34722
     34714     34712     34720     34723     34714     34715     34717     34718
     34714     34715     34717     34719     34714     34715     34717     34729
     34715     34714     34712     34720     34715     34717     34729     34730
     34715     34717     34729     34731     34715     34717     34729     34732
     34716     34715     34717     34718     34716     34715     34717     34719
     34716     34715     34717     34729     34717     34729     34732     34733
     34717     34729     34732     34734     34717     34729     34732     34735
     34718     34717     34729     34730     34718     34717     34729     34731
     34718     34717     34729     34732     34719     34717     34729     34730
     34719     34717     34729     34731     34719     34717     34729     34732
     34720     34723     34724     34725     34720     34723     34724     34726
     34721     34720     34723     34724     34722     34720     34723     34724
     34723     34724     34726     34727     34723     34724     34726     34728
     34723     34724     34726     34773     34724     34726     34773     34774
     34724     34726     34773     34775     34724     34726     34773     34776
     34725     34724     34726     34727     34725     34724     34726     34728
     34725     34724     34726     34773     34726     34773     34776     34777
     34726     34773     34776     34778     34726     34773     34776     34779
     34727     34726     34773     34774     34727     34726     34773     34775
     34727     34726     34773     34776     34728     34726     34773     34774
     34728     34726     34773     34775     34728     34726     34773     34776
     34729     34732     34735     34736     34729     34732     34735     34737
     34729     34732     34735     34738     34730     34729     34732     34733
     34730     34729     34732     34734     34730     34729     34732     34735
     34731     34729     34732     34733     34731     34729     34732     34734
     34731     34729     34732     34735     34732     34735     34738     34739
     34732     34735     34738     34740     34732     34735     34738     34741
     34733     34732     34735     34736     34733     34732     34735     34737
     34733     34732     34735     34738     34734     34732     34735     34736
     34734     34732     34735     34737     34734     34732     34735     34738
     34735     34738     34741     34742     34735     34738     34741     34743
     34735     34738     34741     34744     34736     34735     34738     34739
     34736     34735     34738     34740     34736     34735     34738     34741
     34737     34735     34738     34739     34737     34735     34738     34740
     34737     34735     34738     34741     34738     34741     34744     34745
     34738     34741     34744     34746     34738     34741     34744     34747
     34739     34738     34741     34742     34739     34738     34741     34743
     34739     34738     34741     34744     34740     34738     34741     34742
     34740     34738     34741     34743     34740     34738     34741     34744
     34741     34744     34747     34748     34741     34744     34747     34749
     34741     34744     34747     34752     34742     34741     34744     34745
     34742     34741     34744     34746     34742     34741     34744     34747
     34743     34741     34744     34745     34743     34741     34744     34746
     34743     34741     34744     34747     34744     34747     34749     34750
     34744     34747     34749     34751     34744     34747     34749     34752
     34744     34747     34752     34749     34744     34747     34752     34753
     34744     34747     34752     34754     34745     34744     34747     34748
     34745     34744     34747     34749     34745     34744     34747     34752
     34746     34744     34747     34748     34746     34744     34747     34749
     34746     34744     34747     34752     34747     34749     34752     34753
     34747     34749     34752     34754     34747     34752     34749     34750
     34747     34752     34749     34751     34747     34752     34754     34755
     34747     34752     34754     34756     34747     34752     34754     34757
     34748     34747     34749     34750     34748     34747     34749     34751
     34748     34747     34749     34752     34748     34747     34752     34749
     34748     34747     34752     34753     34748     34747     34752     34754
     34749     34747     34752     34753     34749     34747     34752     34754
     34749     34752     34754     34755     34749     34752     34754     34756
     34749     34752     34754     34757     34750     34749     34747     34752
     34750     34749     34752     34753     34750     34749     34752     34754
     34751     34749     34747     34752     34751     34749     34752     34753
     34751     34749     34752     34754     34752     34754     34757     34758
     34752     34754     34757     34759     34752     34754     34757     34760
     34753     34752     34754     34755     34753     34752     34754     34756
     34753     34752     34754     34757     34754     34757     34760     34761
     34754     34757     34760     34762     34754     34757     34760     34763
     34755     34754     34757     34758     34755     34754     34757     34759
     34755     34754     34757     34760     34756     34754     34757     34758
     34756     34754     34757     34759     34756     34754     34757     34760
     34757     34760     34763     34764     34757     34760     34763     34765
     34757     34760     34763     34766     34758     34757     34760     34761
     34758     34757     34760     34762     34758     34757     34760     34763
     34759     34757     34760     34761     34759     34757     34760     34762
     34759     34757     34760     34763     34760     34763     34766     34767
     34760     34763     34766     34768     34760     34763     34766     34769
     34761     34760     34763     34764     34761     34760     34763     34765
     34761     34760     34763     34766     34762     34760     34763     34764
     34762     34760     34763     34765     34762     34760     34763     34766
     34763     34766     34769     34770     34763     34766     34769     34771
     34763     34766     34769     34772     34764     34763     34766     34767
     34764     34763     34766     34768     34764     34763     34766     34769
     34765     34763     34766     34767     34765     34763     34766     34768
     34765     34763     34766     34769     34767     34766     34769     34770
     34767     34766     34769     34771     34767     34766     34769     34772
     34768     34766     34769     34770     34768     34766     34769     34771
     34768     34766     34769     34772     34773     34776     34779     34780
     34773     34776     34779     34781     34773     34776     34779     34782
     34774     34773     34776     34777     34774     34773     34776     34778
     34774     34773     34776     34779     34775     34773     34776     34777
     34775     34773     34776     34778     34775     34773     34776     34779
     34776     34779     34782     34783     34776     34779     34782     34784
     34776     34779     34782     34785     34777     34776     34779     34780
     34777     34776     34779     34781     34777     34776     34779     34782
     34778     34776     34779     34780     34778     34776     34779     34781
     34778     34776     34779     34782     34779     34782     34785     34786
     34779     34782     34785     34787     34779     34782     34785     34788
     34780     34779     34782     34783     34780     34779     34782     34784
     34780     34779     34782     34785     34781     34779     34782     34783
     34781     34779     34782     34784     34781     34779     34782     34785
     34782     34785     34788     34789     34782     34785     34788     34790
     34782     34785     34788     34791     34783     34782     34785     34786
     34783     34782     34785     34787     34783     34782     34785     34788
     34784     34782     34785     34786     34784     34782     34785     34787
     34784     34782     34785     34788     34785     34788     34791     34792
     34785     34788     34791     34793     34785     34788     34791     34794
     34786     34785     34788     34789     34786     34785     34788     34790
     34786     34785     34788     34791     34787     34785     34788     34789
     34787     34785     34788     34790     34787     34785     34788     34791
     34788     34791     34794     34795     34788     34791     34794     34796
     34788     34791     34794     34797     34789     34788     34791     34792
     34789     34788     34791     34793     34789     34788     34791     34794
     34790     34788     34791     34792     34790     34788     34791     34793
     34790     34788     34791     34794     34791     34794     34797     34798
     34791     34794     34797     34799     34791     34794     34797     34800
     34792     34791     34794     34795     34792     34791     34794     34796
     34792     34791     34794     34797     34793     34791     34794     34795
     34793     34791     34794     34796     34793     34791     34794     34797
     34794     34797     34800     34801     34794     34797     34800     34802
     34794     34797     34800     34803     34795     34794     34797     34798
     34795     34794     34797     34799     34795     34794     34797     34800
     34796     34794     34797     34798     34796     34794     34797     34799
     34796     34794     34797     34800     34797     34800     34803     34804
     34797     34800     34803     34805     34797     34800     34803     34806
     34798     34797     34800     34801     34798     34797     34800     34802
     34798     34797     34800     34803     34799     34797     34800     34801
     34799     34797     34800     34802     34799     34797     34800     34803
     34800     34803     34806     34807     34800     34803     34806     34808
     34800     34803     34806     34809     34801     34800     34803     34804
     34801     34800     34803     34805     34801     34800     34803     34806
     34802     34800     34803     34804     34802     34800     34803     34805
     34802     34800     34803     34806     34803     34806     34809     34810
     34803     34806     34809     34811     34803     34806     34809     34812
     34804     34803     34806     34807     34804     34803     34806     34808
     34804     34803     34806     34809     34805     34803     34806     34807
     34805     34803     34806     34808     34805     34803     34806     34809
     34806     34809     34812     34813     34806     34809     34812     34814
     34806     34809     34812     34815     34807     34806     34809     34810
     34807     34806     34809     34811     34807     34806     34809     34812
     34808     34806     34809     34810     34808     34806     34809     34811
     34808     34806     34809     34812     34810     34809     34812     34813
     34810     34809     34812     34814     34810     34809     34812     34815
     34811     34809     34812     34813     34811     34809     34812     34814
     34811     34809     34812     34815     34816     34821     34823     34824
     34816     34821     34825     34826     34816     34821     34825     34827
     34816     34821     34825     34832     34817     34816     34819     34820
     34817     34816     34821     34822     34817     34816     34821     34823
     34817     34816     34821     34825     34818     34816     34819     34820
     34818     34816     34821     34822     34818     34816     34821     34823
     34818     34816     34821     34825     34819     34816     34821     34822
     34819     34816     34821     34823     34819     34816     34821     34825
     34820     34819     34816     34821     34821     34825     34832     34828
     34822     34821     34823     34824     34822     34821     34825     34826
     34822     34821     34825     34827     34822     34821     34825     34832
     34823     34821     34825     34826     34823     34821     34825     34827
     34823     34821     34825     34832     34824     34823     34821     34825
     34825     34832     34828     34829     34825     34832     34828     34830
     34825     34832     34828     34831     34826     34825     34832     34828
     34827     34825     34832     34828     34828     34831     34833     34834
     34828     34831     34833     34835     34828     34831     34833     34836
     34829     34828     34831     34833     34830     34828     34831     34833
     34831     34833     34836     34837     34831     34833     34836     34838
     34831     34833     34836     34844     34832     34828     34831     34833
     34833     34836     34838     34839     34833     34836     34844     34845
     34833     34836     34844     34846     34833     34836     34844     34847
     34834     34833     34836     34837     34834     34833     34836     34838
     34834     34833     34836     34844     34835     34833     34836     34837
     34835     34833     34836     34838     34835     34833     34836     34844
     34836     34838     34839     34840     34836     34838     34839     34841
     34836     34844     34847     34848     34837     34836     34838     34839
     34837     34836     34844     34845     34837     34836     34844     34846
     34837     34836     34844     34847     34838     34836     34844     34845
     34838     34836     34844     34846     34838     34836     34844     34847
     34838     34839     34841     34842     34838     34839     34841     34843
     34838     34839     34841     34853     34839     34838     34836     34844
     34839     34841     34853     34854     34839     34841     34853     34855
     34839     34841     34853     34856     34840     34839     34841     34842
     34840     34839     34841     34843     34840     34839     34841     34853
     34841     34853     34856     34857     34841     34853     34856     34858
     34841     34853     34856     34859     34842     34841     34853     34854
     34842     34841     34853     34855     34842     34841     34853     34856
     34843     34841     34853     34854     34843     34841     34853     34855
     34843     34841     34853     34856     34844     34847     34848     34849
     34844     34847     34848     34850     34845     34844     34847     34848
     34846     34844     34847     34848     34847     34848     34850     34851
     34847     34848     34850     34852     34847     34848     34850     34894
     34848     34850     34894     34895     34848     34850     34894     34896
     34848     34850     34894     34897     34849     34848     34850     34851
     34849     34848     34850     34852     34849     34848     34850     34894
     34850     34894     34897     34898     34850     34894     34897     34899
     34850     34894     34897     34900     34851     34850     34894     34895
     34851     34850     34894     34896     34851     34850     34894     34897
     34852     34850     34894     34895     34852     34850     34894     34896
     34852     34850     34894     34897     34853     34856     34859     34860
     34853     34856     34859     34861     34853     34856     34859     34862
     34854     34853     34856     34857     34854     34853     34856     34858
     34854     34853     34856     34859     34855     34853     34856     34857
     34855     34853     34856     34858     34855     34853     34856     34859
     34856     34859     34862     34863     34856     34859     34862     34864
     34856     34859     34862     34865     34857     34856     34859     34860
     34857     34856     34859     34861     34857     34856     34859     34862
     34858     34856     34859     34860     34858     34856     34859     34861
     34858     34856     34859     34862     34859     34862     34865     34866
     34859     34862     34865     34867     34859     34862     34865     34868
     34860     34859     34862     34863     34860     34859     34862     34864
     34860     34859     34862     34865     34861     34859     34862     34863
     34861     34859     34862     34864     34861     34859     34862     34865
     34862     34865     34868     34869     34862     34865     34868     34870
     34862     34865     34868     34871     34863     34862     34865     34866
     34863     34862     34865     34867     34863     34862     34865     34868
     34864     34862     34865     34866     34864     34862     34865     34867
     34864     34862     34865     34868     34865     34868     34871     34872
     34865     34868     34871     34873     34866     34865     34868     34869
     34866     34865     34868     34870     34866     34865     34868     34871
     34867     34865     34868     34869     34867     34865     34868     34870
     34867     34865     34868     34871     34868     34871     34873     34874
     34868     34871     34873     34875     34869     34868     34871     34872
     34869     34868     34871     34873     34870     34868     34871     34872
     34870     34868     34871     34873     34871     34873     34875     34876
     34871     34873     34875     34877     34871     34873     34875     34878
     34872     34871     34873     34874     34872     34871     34873     34875
     34873     34875     34878     34879     34873     34875     34878     34880
     34873     34875     34878     34881     34874     34873     34875     34876
     34874     34873     34875     34877     34874     34873     34875     34878
     34875     34878     34881     34882     34875     34878     34881     34883
     34875     34878     34881     34884     34876     34875     34878     34879
     34876     34875     34878     34880     34876     34875     34878     34881
     34877     34875     34878     34879     34877     34875     34878     34880
     34877     34875     34878     34881     34878     34881     34884     34885
     34878     34881     34884     34886     34878     34881     34884     34887
     34879     34878     34881     34882     34879     34878     34881     34883
     34879     34878     34881     34884     34880     34878     34881     34882
     34880     34878     34881     34883     34880     34878     34881     34884
     34881     34884     34887     34888     34881     34884     34887     34889
     34881     34884     34887     34890     34882     34881     34884     34885
     34882     34881     34884     34886     34882     34881     34884     34887
     34883     34881     34884     34885     34883     34881     34884     34886
     34883     34881     34884     34887     34884     34887     34890     34891
     34884     34887     34890     34892     34884     34887     34890     34893
     34885     34884     34887     34888     34885     34884     34887     34889
     34885     34884     34887     34890     34886     34884     34887     34888
     34886     34884     34887     34889     34886     34884     34887     34890
     34888     34887     34890     34891     34888     34887     34890     34892
     34888     34887     34890     34893     34889     34887     34890     34891
     34889     34887     34890     34892     34889     34887     34890     34893
     34894     34897     34900     34901     34894     34897     34900     34902
     34894     34897     34900     34903     34895     34894     34897     34898
     34895     34894     34897     34899     34895     34894     34897     34900
     34896     34894     34897     34898     34896     34894     34897     34899
     34896     34894     34897     34900     34897     34900     34903     34904
     34897     34900     34903     34905     34897     34900     34903     34906
     34898     34897     34900     34901     34898     34897     34900     34902
     34898     34897     34900     34903     34899     34897     34900     34901
     34899     34897     34900     34902     34899     34897     34900     34903
     34900     34903     34906     34907     34900     34903     34906     34908
     34900     34903     34906     34909     34901     34900     34903     34904
     34901     34900     34903     34905     34901     34900     34903     34906
     34902     34900     34903     34904     34902     34900     34903     34905
     34902     34900     34903     34906     34903     34906     34909     34910
     34903     34906     34909     34911     34903     34906     34909     34912
     34904     34903     34906     34907     34904     34903     34906     34908
     34904     34903     34906     34909     34905     34903     34906     34907
     34905     34903     34906     34908     34905     34903     34906     34909
     34906     34909     34912     34913     34906     34909     34912     34914
     34906     34909     34912     34915     34907     34906     34909     34910
     34907     34906     34909     34911     34907     34906     34909     34912
     34908     34906     34909     34910     34908     34906     34909     34911
     34908     34906     34909     34912     34909     34912     34915     34916
     34909     34912     34915     34917     34909     34912     34915     34918
     34910     34909     34912     34913     34910     34909     34912     34914
     34910     34909     34912     34915     34911     34909     34912     34913
     34911     34909     34912     34914     34911     34909     34912     34915
     34912     34915     34918     34919     34912     34915     34918     34920
     34912     34915     34918     34921     34913     34912     34915     34916
     34913     34912     34915     34917     34913     34912     34915     34918
     34914     34912     34915     34916     34914     34912     34915     34917
     34914     34912     34915     34918     34915     34918     34921     34922
     34915     34918     34921     34923     34915     34918     34921     34924
     34916     34915     34918     34919     34916     34915     34918     34920
     34916     34915     34918     34921     34917     34915     34918     34919
     34917     34915     34918     34920     34917     34915     34918     34921
     34918     34921     34924     34925     34918     34921     34924     34926
     34918     34921     34924     34927     34919     34918     34921     34922
     34919     34918     34921     34923     34919     34918     34921     34924
     34920     34918     34921     34922     34920     34918     34921     34923
     34920     34918     34921     34924     34921     34924     34927     34928
     34921     34924     34927     34929     34921     34924     34927     34930
     34922     34921     34924     34925     34922     34921     34924     34926
     34922     34921     34924     34927     34923     34921     34924     34925
     34923     34921     34924     34926     34923     34921     34924     34927
     34924     34927     34930     34931     34924     34927     34930     34932
     34924     34927     34930     34933     34925     34924     34927     34928
     34925     34924     34927     34929     34925     34924     34927     34930
     34926     34924     34927     34928     34926     34924     34927     34929
     34926     34924     34927     34930     34927     34930     34933     34934
     34927     34930     34933     34935     34927     34930     34933     34936
     34928     34927     34930     34931     34928     34927     34930     34932
     34928     34927     34930     34933     34929     34927     34930     34931
     34929     34927     34930     34932     34929     34927     34930     34933
     34931     34930     34933     34934     34931     34930     34933     34935
     34931     34930     34933     34936     34932     34930     34933     34934
     34932     34930     34933     34935     34932     34930     34933     34936
     34937     34942     34944     34945     34937     34942     34946     34947
     34937     34942     34946     34948     34937     34942     34946     34953
     34938     34937     34940     34941     34938     34937     34942     34943
     34938     34937     34942     34944     34938     34937     34942     34946
     34939     34937     34940     34941     34939     34937     34942     34943
     34939     34937     34942     34944     34939     34937     34942     34946
     34940     34937     34942     34943     34940     34937     34942     34944
     34940     34937     34942     34946     34941     34940     34937     34942
     34942     34946     34953     34949     34943     34942     34944     34945
     34943     34942     34946     34947     34943     34942     34946     34948
     34943     34942     34946     34953     34944     34942     34946     34947
     34944     34942     34946     34948     34944     34942     34946     34953
     34945     34944     34942     34946     34946     34953     34949     34950
     34946     34953     34949     34951     34946     34953     34949     34952
     34947     34946     34953     34949     34948     34946     34953     34949
     34949     34952     34954     34955     34949     34952     34954     34956
     34949     34952     34954     34957     34950     34949     34952     34954
     34951     34949     34952     34954     34952     34954     34957     34958
     34952     34954     34957     34959     34952     34954     34957     34965
     34953     34949     34952     34954     34954     34957     34959     34960
     34954     34957     34965     34966     34954     34957     34965     34967
     34954     34957     34965     34968     34955     34954     34957     34958
     34955     34954     34957     34959     34955     34954     34957     34965
     34956     34954     34957     34958     34956     34954     34957     34959
     34956     34954     34957     34965     34957     34959     34960     34961
     34957     34959     34960     34962     34957     34965     34968     34969
     34958     34957     34959     34960     34958     34957     34965     34966
     34958     34957     34965     34967     34958     34957     34965     34968
     34959     34957     34965     34966     34959     34957     34965     34967
     34959     34957     34965     34968     34959     34960     34962     34963
     34959     34960     34962     34964     34959     34960     34962     34974
     34960     34959     34957     34965     34960     34962     34974     34975
     34960     34962     34974     34976     34960     34962     34974     34977
     34961     34960     34962     34963     34961     34960     34962     34964
     34961     34960     34962     34974     34962     34974     34977     34978
     34962     34974     34977     34979     34962     34974     34977     34980
     34963     34962     34974     34975     34963     34962     34974     34976
     34963     34962     34974     34977     34964     34962     34974     34975
     34964     34962     34974     34976     34964     34962     34974     34977
     34965     34968     34969     34970     34965     34968     34969     34971
     34966     34965     34968     34969     34967     34965     34968     34969
     34968     34969     34971     34972     34968     34969     34971     34973
     34968     34969     34971     35015     34969     34971     35015     35016
     34969     34971     35015     35017     34969     34971     35015     35018
     34970     34969     34971     34972     34970     34969     34971     34973
     34970     34969     34971     35015     34971     35015     35018     35019
     34971     35015     35018     35020     34971     35015     35018     35021
     34972     34971     35015     35016     34972     34971     35015     35017
     34972     34971     35015     35018     34973     34971     35015     35016
     34973     34971     35015     35017     34973     34971     35015     35018
     34974     34977     34980     34981     34974     34977     34980     34982
     34974     34977     34980     34983     34975     34974     34977     34978
     34975     34974     34977     34979     34975     34974     34977     34980
     34976     34974     34977     34978     34976     34974     34977     34979
     34976     34974     34977     34980     34977     34980     34983     34984
     34977     34980     34983     34985     34977     34980     34983     34986
     34978     34977     34980     34981     34978     34977     34980     34982
     34978     34977     34980     34983     34979     34977     34980     34981
     34979     34977     34980     34982     34979     34977     34980     34983
     34980     34983     34986     34987     34980     34983     34986     34988
     34980     34983     34986     34989     34981     34980     34983     34984
     34981     34980     34983     34985     34981     34980     34983     34986
     34982     34980     34983     34984     34982     34980     34983     34985
     34982     34980     34983     34986     34983     34986     34989     34990
     34983     34986     34989     34991     34983     34986     34989     34992
     34984     34983     34986     34987     34984     34983     34986     34988
     34984     34983     34986     34989     34985     34983     34986     34987
     34985     34983     34986     34988     34985     34983     34986     34989
     34986     34989     34992     34993     34986     34989     34992     34994
     34987     34986     34989     34990     34987     34986     34989     34991
     34987     34986     34989     34992     34988     34986     34989     34990
     34988     34986     34989     34991     34988     34986     34989     34992
     34989     34992     34994     34995     34989     34992     34994     34996
     34990     34989     34992     34993     34990     34989     34992     34994
     34991     34989     34992     34993     34991     34989     34992     34994
     34992     34994     34996     34997     34992     34994     34996     34998
     34992     34994     34996     34999     34993     34992     34994     34995
     34993     34992     34994     34996     34994     34996     34999     35000
     34994     34996     34999     35001     34994     34996     34999     35002
     34995     34994     34996     34997     34995     34994     34996     34998
     34995     34994     34996     34999     34996     34999     35002     35003
     34996     34999     35002     35004     34996     34999     35002     35005
     34997     34996     34999     35000     34997     34996     34999     35001
     34997     34996     34999     35002     34998     34996     34999     35000
     34998     34996     34999     35001     34998     34996     34999     35002
     34999     35002     35005     35006     34999     35002     35005     35007
     34999     35002     35005     35008     35000     34999     35002     35003
     35000     34999     35002     35004     35000     34999     35002     35005
     35001     34999     35002     35003     35001     34999     35002     35004
     35001     34999     35002     35005     35002     35005     35008     35009
     35002     35005     35008     35010     35002     35005     35008     35011
     35003     35002     35005     35006     35003     35002     35005     35007
     35003     35002     35005     35008     35004     35002     35005     35006
     35004     35002     35005     35007     35004     35002     35005     35008
     35005     35008     35011     35012     35005     35008     35011     35013
     35005     35008     35011     35014     35006     35005     35008     35009
     35006     35005     35008     35010     35006     35005     35008     35011
     35007     35005     35008     35009     35007     35005     35008     35010
     35007     35005     35008     35011     35009     35008     35011     35012
     35009     35008     35011     35013     35009     35008     35011     35014
     35010     35008     35011     35012     35010     35008     35011     35013
     35010     35008     35011     35014     35015     35018     35021     35022
     35015     35018     35021     35023     35015     35018     35021     35024
     35016     35015     35018     35019     35016     35015     35018     35020
     35016     35015     35018     35021     35017     35015     35018     35019
     35017     35015     35018     35020     35017     35015     35018     35021
     35018     35021     35024     35025     35018     35021     35024     35026
     35018     35021     35024     35027     35019     35018     35021     35022
     35019     35018     35021     35023     35019     35018     35021     35024
     35020     35018     35021     35022     35020     35018     35021     35023
     35020     35018     35021     35024     35021     35024     35027     35028
     35021     35024     35027     35029     35021     35024     35027     35030
     35022     35021     35024     35025     35022     35021     35024     35026
     35022     35021     35024     35027     35023     35021     35024     35025
     35023     35021     35024     35026     35023     35021     35024     35027
     35024     35027     35030     35031     35024     35027     35030     35032
     35024     35027     35030     35033     35025     35024     35027     35028
     35025     35024     35027     35029     35025     35024     35027     35030
     35026     35024     35027     35028     35026     35024     35027     35029
     35026     35024     35027     35030     35027     35030     35033     35034
     35027     35030     35033     35035     35027     35030     35033     35036
     35028     35027     35030     35031     35028     35027     35030     35032
     35028     35027     35030     35033     35029     35027     35030     35031
     35029     35027     35030     35032     35029     35027     35030     35033
     35030     35033     35036     35037     35030     35033     35036     35038
     35030     35033     35036     35039     35031     35030     35033     35034
     35031     35030     35033     35035     35031     35030     35033     35036
     35032     35030     35033     35034     35032     35030     35033     35035
     35032     35030     35033     35036     35033     35036     35039     35040
     35033     35036     35039     35041     35033     35036     35039     35042
     35034     35033     35036     35037     35034     35033     35036     35038
     35034     35033     35036     35039     35035     35033     35036     35037
     35035     35033     35036     35038     35035     35033     35036     35039
     35036     35039     35042     35043     35036     35039     35042     35044
     35036     35039     35042     35045     35037     35036     35039     35040
     35037     35036     35039     35041     35037     35036     35039     35042
     35038     35036     35039     35040     35038     35036     35039     35041
     35038     35036     35039     35042     35039     35042     35045     35046
     35039     35042     35045     35047     35039     35042     35045     35048
     35040     35039     35042     35043     35040     35039     35042     35044
     35040     35039     35042     35045     35041     35039     35042     35043
     35041     35039     35042     35044     35041     35039     35042     35045
     35042     35045     35048     35049     35042     35045     35048     35050
     35042     35045     35048     35051     35043     35042     35045     35046
     35043     35042     35045     35047     35043     35042     35045     35048
     35044     35042     35045     35046     35044     35042     35045     35047
     35044     35042     35045     35048     35045     35048     35051     35052
     35045     35048     35051     35053     35045     35048     35051     35054
     35046     35045     35048     35049     35046     35045     35048     35050
     35046     35045     35048     35051     35047     35045     35048     35049
     35047     35045     35048     35050     35047     35045     35048     35051
     35048     35051     35054     35055     35048     35051     35054     35056
     35048     35051     35054     35057     35049     35048     35051     35052
     35049     35048     35051     35053     35049     35048     35051     35054
     35050     35048     35051     35052     35050     35048     35051     35053
     35050     35048     35051     35054     35052     35051     35054     35055
     35052     35051     35054     35056     35052     35051     35054     35057
     35053     35051     35054     35055     35053     35051     35054     35056
     35053     35051     35054     35057     35058     35062     35065     35066
     35058     35062     35065     35067     35058     35062     35065     35072
     35059     35058     35062     35063     35059     35058     35062     35064
     35059     35058     35062     35065     35060     35058     35062     35063
     35060     35058     35062     35064     35060     35058     35062     35065
     35061     35058     35062     35063     35061     35058     35062     35064
     35061     35058     35062     35065     35062     35065     35072     35068
     35063     35062     35065     35066     35063     35062     35065     35067
     35063     35062     35065     35072     35064     35062     35065     35066
     35064     35062     35065     35067     35064     35062     35065     35072
     35065     35072     35068     35069     35065     35072     35068     35070
     35065     35072     35068     35071     35066     35065     35072     35068
     35067     35065     35072     35068     35068     35071     35073     35074
     35068     35071     35073     35075     35068     35071     35073     35076
     35069     35068     35071     35073     35070     35068     35071     35073
     35071     35073     35076     35077     35071     35073     35076     35078
     35071     35073     35076     35084     35072     35068     35071     35073
     35073     35076     35078     35079     35073     35076     35084     35085
     35073     35076     35084     35086     35073     35076     35084     35087
     35074     35073     35076     35077     35074     35073     35076     35078
     35074     35073     35076     35084     35075     35073     35076     35077
     35075     35073     35076     35078     35075     35073     35076     35084
     35076     35078     35079     35080     35076     35078     35079     35081
     35076     35084     35087     35088     35077     35076     35078     35079
     35077     35076     35084     35085     35077     35076     35084     35086
     35077     35076     35084     35087     35078     35076     35084     35085
     35078     35076     35084     35086     35078     35076     35084     35087
     35078     35079     35081     35082     35078     35079     35081     35083
     35078     35079     35081     35093     35079     35078     35076     35084
     35079     35081     35093     35094     35079     35081     35093     35095
     35079     35081     35093     35096     35080     35079     35081     35082
     35080     35079     35081     35083     35080     35079     35081     35093
     35081     35093     35096     35097     35081     35093     35096     35098
     35081     35093     35096     35099     35082     35081     35093     35094
     35082     35081     35093     35095     35082     35081     35093     35096
     35083     35081     35093     35094     35083     35081     35093     35095
     35083     35081     35093     35096     35084     35087     35088     35089
     35084     35087     35088     35090     35085     35084     35087     35088
     35086     35084     35087     35088     35087     35088     35090     35091
     35087     35088     35090     35092     35087     35088     35090     35137
     35088     35090     35137     35138     35088     35090     35137     35139
     35088     35090     35137     35140     35089     35088     35090     35091
     35089     35088     35090     35092     35089     35088     35090     35137
     35090     35137     35140     35141     35090     35137     35140     35142
     35090     35137     35140     35143     35091     35090     35137     35138
     35091     35090     35137     35139     35091     35090     35137     35140
     35092     35090     35137     35138     35092     35090     35137     35139
     35092     35090     35137     35140     35093     35096     35099     35100
     35093     35096     35099     35101     35093     35096     35099     35102
     35094     35093     35096     35097     35094     35093     35096     35098
     35094     35093     35096     35099     35095     35093     35096     35097
     35095     35093     35096     35098     35095     35093     35096     35099
     35096     35099     35102     35103     35096     35099     35102     35104
     35096     35099     35102     35105     35097     35096     35099     35100
     35097     35096     35099     35101     35097     35096     35099     35102
     35098     35096     35099     35100     35098     35096     35099     35101
     35098     35096     35099     35102     35099     35102     35105     35106
     35099     35102     35105     35107     35099     35102     35105     35108
     35100     35099     35102     35103     35100     35099     35102     35104
     35100     35099     35102     35105     35101     35099     35102     35103
     35101     35099     35102     35104     35101     35099     35102     35105
     35102     35105     35108     35109     35102     35105     35108     35110
     35102     35105     35108     35111     35103     35102     35105     35106
     35103     35102     35105     35107     35103     35102     35105     35108
     35104     35102     35105     35106     35104     35102     35105     35107
     35104     35102     35105     35108     35105     35108     35111     35112
     35105     35108     35111     35113     35105     35108     35111     35116
     35106     35105     35108     35109     35106     35105     35108     35110
     35106     35105     35108     35111     35107     35105     35108     35109
     35107     35105     35108     35110     35107     35105     35108     35111
     35108     35111     35113     35114     35108     35111     35113     35115
     35108     35111     35113     35116     35108     35111     35116     35113
     35108     35111     35116     35117     35108     35111     35116     35118
     35109     35108     35111     35112     35109     35108     35111     35113
     35109     35108     35111     35116     35110     35108     35111     35112
     35110     35108     35111     35113     35110     35108     35111     35116
     35111     35113     35116     35117     35111     35113     35116     35118
     35111     35116     35113     35114     35111     35116     35113     35115
     35111     35116     35118     35119     35111     35116     35118     35120
     35111     35116     35118     35121     35112     35111     35113     35114
     35112     35111     35113     35115     35112     35111     35113     35116
     35112     35111     35116     35113     35112     35111     35116     35117
     35112     35111     35116     35118     35113     35111     35116     35117
     35113     35111     35116     35118     35113     35116     35118     35119
     35113     35116     35118     35120     35113     35116     35118     35121
     35114     35113     35111     35116     35114     35113     35116     35117
     35114     35113     35116     35118     35115     35113     35111     35116
     35115     35113     35116     35117     35115     35113     35116     35118
     35116     35118     35121     35122     35116     35118     35121     35123
     35116     35118     35121     35124     35117     35116     35118     35119
     35117     35116     35118     35120     35117     35116     35118     35121
     35118     35121     35124     35125     35118     35121     35124     35126
     35118     35121     35124     35127     35119     35118     35121     35122
     35119     35118     35121     35123     35119     35118     35121     35124
     35120     35118     35121     35122     35120     35118     35121     35123
     35120     35118     35121     35124     35121     35124     35127     35128
     35121     35124     35127     35129     35121     35124     35127     35130
     35122     35121     35124     35125     35122     35121     35124     35126
     35122     35121     35124     35127     35123     35121     35124     35125
     35123     35121     35124     35126     35123     35121     35124     35127
     35124     35127     35130     35131     35124     35127     35130     35132
     35124     35127     35130     35133     35125     35124     35127     35128
     35125     35124     35127     35129     35125     35124     35127     35130
     35126     35124     35127     35128     35126     35124     35127     35129
     35126     35124     35127     35130     35127     35130     35133     35134
     35127     35130     35133     35135     35127     35130     35133     35136
     35128     35127     35130     35131     35128     35127     35130     35132
     35128     35127     35130     35133     35129     35127     35130     35131
     35129     35127     35130     35132     35129     35127     35130     35133
     35131     35130     35133     35134     35131     35130     35133     35135
     35131     35130     35133     35136     35132     35130     35133     35134
     35132     35130     35133     35135     35132     35130     35133     35136
     35137     35140     35143     35144     35137     35140     35143     35145
     35137     35140     35143     35146     35138     35137     35140     35141
     35138     35137     35140     35142     35138     35137     35140     35143
     35139     35137     35140     35141     35139     35137     35140     35142
     35139     35137     35140     35143     35140     35143     35146     35147
     35140     35143     35146     35148     35140     35143     35146     35149
     35141     35140     35143     35144     35141     35140     35143     35145
     35141     35140     35143     35146     35142     35140     35143     35144
     35142     35140     35143     35145     35142     35140     35143     35146
     35143     35146     35149     35150     35143     35146     35149     35151
     35143     35146     35149     35152     35144     35143     35146     35147
     35144     35143     35146     35148     35144     35143     35146     35149
     35145     35143     35146     35147     35145     35143     35146     35148
     35145     35143     35146     35149     35146     35149     35152     35153
     35146     35149     35152     35154     35146     35149     35152     35155
     35147     35146     35149     35150     35147     35146     35149     35151
     35147     35146     35149     35152     35148     35146     35149     35150
     35148     35146     35149     35151     35148     35146     35149     35152
     35149     35152     35155     35156     35149     35152     35155     35157
     35149     35152     35155     35158     35150     35149     35152     35153
     35150     35149     35152     35154     35150     35149     35152     35155
     35151     35149     35152     35153     35151     35149     35152     35154
     35151     35149     35152     35155     35152     35155     35158     35159
     35152     35155     35158     35160     35152     35155     35158     35161
     35153     35152     35155     35156     35153     35152     35155     35157
     35153     35152     35155     35158     35154     35152     35155     35156
     35154     35152     35155     35157     35154     35152     35155     35158
     35155     35158     35161     35162     35155     35158     35161     35163
     35155     35158     35161     35164     35156     35155     35158     35159
     35156     35155     35158     35160     35156     35155     35158     35161
     35157     35155     35158     35159     35157     35155     35158     35160
     35157     35155     35158     35161     35158     35161     35164     35165
     35158     35161     35164     35166     35158     35161     35164     35167
     35159     35158     35161     35162     35159     35158     35161     35163
     35159     35158     35161     35164     35160     35158     35161     35162
     35160     35158     35161     35163     35160     35158     35161     35164
     35161     35164     35167     35168     35161     35164     35167     35169
     35161     35164     35167     35170     35162     35161     35164     35165
     35162     35161     35164     35166     35162     35161     35164     35167
     35163     35161     35164     35165     35163     35161     35164     35166
     35163     35161     35164     35167     35164     35167     35170     35171
     35164     35167     35170     35172     35164     35167     35170     35173
     35165     35164     35167     35168     35165     35164     35167     35169
     35165     35164     35167     35170     35166     35164     35167     35168
     35166     35164     35167     35169     35166     35164     35167     35170
     35167     35170     35173     35174     35167     35170     35173     35175
     35167     35170     35173     35176     35168     35167     35170     35171
     35168     35167     35170     35172     35168     35167     35170     35173
     35169     35167     35170     35171     35169     35167     35170     35172
     35169     35167     35170     35173     35170     35173     35176     35177
     35170     35173     35176     35178     35170     35173     35176     35179
     35171     35170     35173     35174     35171     35170     35173     35175
     35171     35170     35173     35176     35172     35170     35173     35174
     35172     35170     35173     35175     35172     35170     35173     35176
     35174     35173     35176     35177     35174     35173     35176     35178
     35174     35173     35176     35179     35175     35173     35176     35177
     35175     35173     35176     35178     35175     35173     35176     35179
     35180     35185     35187     35188     35180     35185     35189     35190
     35180     35185     35189     35191     35180     35185     35189     35196
     35181     35180     35183     35184     35181     35180     35185     35186
     35181     35180     35185     35187     35181     35180     35185     35189
     35182     35180     35183     35184     35182     35180     35185     35186
     35182     35180     35185     35187     35182     35180     35185     35189
     35183     35180     35185     35186     35183     35180     35185     35187
     35183     35180     35185     35189     35184     35183     35180     35185
     35185     35189     35196     35192     35186     35185     35187     35188
     35186     35185     35189     35190     35186     35185     35189     35191
     35186     35185     35189     35196     35187     35185     35189     35190
     35187     35185     35189     35191     35187     35185     35189     35196
     35188     35187     35185     35189     35189     35196     35192     35193
     35189     35196     35192     35194     35189     35196     35192     35195
     35190     35189     35196     35192     35191     35189     35196     35192
     35192     35195     35197     35198     35192     35195     35197     35199
     35192     35195     35197     35200     35193     35192     35195     35197
     35194     35192     35195     35197     35195     35197     35200     35201
     35195     35197     35200     35202     35195     35197     35200     35208
     35196     35192     35195     35197     35197     35200     35202     35203
     35197     35200     35208     35209     35197     35200     35208     35210
     35197     35200     35208     35211     35198     35197     35200     35201
     35198     35197     35200     35202     35198     35197     35200     35208
     35199     35197     35200     35201     35199     35197     35200     35202
     35199     35197     35200     35208     35200     35202     35203     35204
     35200     35202     35203     35205     35200     35208     35211     35212
     35201     35200     35202     35203     35201     35200     35208     35209
     35201     35200     35208     35210     35201     35200     35208     35211
     35202     35200     35208     35209     35202     35200     35208     35210
     35202     35200     35208     35211     35202     35203     35205     35206
     35202     35203     35205     35207     35202     35203     35205     35217
     35203     35202     35200     35208     35203     35205     35217     35218
     35203     35205     35217     35219     35203     35205     35217     35220
     35204     35203     35205     35206     35204     35203     35205     35207
     35204     35203     35205     35217     35205     35217     35220     35221
     35205     35217     35220     35222     35205     35217     35220     35223
     35206     35205     35217     35218     35206     35205     35217     35219
     35206     35205     35217     35220     35207     35205     35217     35218
     35207     35205     35217     35219     35207     35205     35217     35220
     35208     35211     35212     35213     35208     35211     35212     35214
     35209     35208     35211     35212     35210     35208     35211     35212
     35211     35212     35214     35215     35211     35212     35214     35216
     35211     35212     35214     35258     35212     35214     35258     35259
     35212     35214     35258     35260     35212     35214     35258     35261
     35213     35212     35214     35215     35213     35212     35214     35216
     35213     35212     35214     35258     35214     35258     35261     35262
     35214     35258     35261     35263     35214     35258     35261     35264
     35215     35214     35258     35259     35215     35214     35258     35260
     35215     35214     35258     35261     35216     35214     35258     35259
     35216     35214     35258     35260     35216     35214     35258     35261
     35217     35220     35223     35224     35217     35220     35223     35225
     35217     35220     35223     35226     35218     35217     35220     35221
     35218     35217     35220     35222     35218     35217     35220     35223
     35219     35217     35220     35221     35219     35217     35220     35222
     35219     35217     35220     35223     35220     35223     35226     35227
     35220     35223     35226     35228     35220     35223     35226     35229
     35221     35220     35223     35224     35221     35220     35223     35225
     35221     35220     35223     35226     35222     35220     35223     35224
     35222     35220     35223     35225     35222     35220     35223     35226
     35223     35226     35229     35230     35223     35226     35229     35231
     35223     35226     35229     35232     35224     35223     35226     35227
     35224     35223     35226     35228     35224     35223     35226     35229
     35225     35223     35226     35227     35225     35223     35226     35228
     35225     35223     35226     35229     35226     35229     35232     35233
     35226     35229     35232     35234     35226     35229     35232     35235
     35227     35226     35229     35230     35227     35226     35229     35231
     35227     35226     35229     35232     35228     35226     35229     35230
     35228     35226     35229     35231     35228     35226     35229     35232
     35229     35232     35235     35236     35229     35232     35235     35237
     35230     35229     35232     35233     35230     35229     35232     35234
     35230     35229     35232     35235     35231     35229     35232     35233
     35231     35229     35232     35234     35231     35229     35232     35235
     35232     35235     35237     35238     35232     35235     35237     35239
     35233     35232     35235     35236     35233     35232     35235     35237
     35234     35232     35235     35236     35234     35232     35235     35237
     35235     35237     35239     35240     35235     35237     35239     35241
     35235     35237     35239     35242     35236     35235     35237     35238
     35236     35235     35237     35239     35237     35239     35242     35243
     35237     35239     35242     35244     35237     35239     35242     35245
     35238     35237     35239     35240     35238     35237     35239     35241
     35238     35237     35239     35242     35239     35242     35245     35246
     35239     35242     35245     35247     35239     35242     35245     35248
     35240     35239     35242     35243     35240     35239     35242     35244
     35240     35239     35242     35245     35241     35239     35242     35243
     35241     35239     35242     35244     35241     35239     35242     35245
     35242     35245     35248     35249     35242     35245     35248     35250
     35242     35245     35248     35251     35243     35242     35245     35246
     35243     35242     35245     35247     35243     35242     35245     35248
     35244     35242     35245     35246     35244     35242     35245     35247
     35244     35242     35245     35248     35245     35248     35251     35252
     35245     35248     35251     35253     35245     35248     35251     35254
     35246     35245     35248     35249     35246     35245     35248     35250
     35246     35245     35248     35251     35247     35245     35248     35249
     35247     35245     35248     35250     35247     35245     35248     35251
     35248     35251     35254     35255     35248     35251     35254     35256
     35248     35251     35254     35257     35249     35248     35251     35252
     35249     35248     35251     35253     35249     35248     35251     35254
     35250     35248     35251     35252     35250     35248     35251     35253
     35250     35248     35251     35254     35252     35251     35254     35255
     35252     35251     35254     35256     35252     35251     35254     35257
     35253     35251     35254     35255     35253     35251     35254     35256
     35253     35251     35254     35257     35258     35261     35264     35265
     35258     35261     35264     35266     35258     35261     35264     35267
     35259     35258     35261     35262     35259     35258     35261     35263
     35259     35258     35261     35264     35260     35258     35261     35262
     35260     35258     35261     35263     35260     35258     35261     35264
     35261     35264     35267     35268     35261     35264     35267     35269
     35261     35264     35267     35270     35262     35261     35264     35265
     35262     35261     35264     35266     35262     35261     35264     35267
     35263     35261     35264     35265     35263     35261     35264     35266
     35263     35261     35264     35267     35264     35267     35270     35271
     35264     35267     35270     35272     35264     35267     35270     35273
     35265     35264     35267     35268     35265     35264     35267     35269
     35265     35264     35267     35270     35266     35264     35267     35268
     35266     35264     35267     35269     35266     35264     35267     35270
     35267     35270     35273     35274     35267     35270     35273     35275
     35267     35270     35273     35276     35268     35267     35270     35271
     35268     35267     35270     35272     35268     35267     35270     35273
     35269     35267     35270     35271     35269     35267     35270     35272
     35269     35267     35270     35273     35270     35273     35276     35277
     35270     35273     35276     35278     35270     35273     35276     35279
     35271     35270     35273     35274     35271     35270     35273     35275
     35271     35270     35273     35276     35272     35270     35273     35274
     35272     35270     35273     35275     35272     35270     35273     35276
     35273     35276     35279     35280     35273     35276     35279     35281
     35273     35276     35279     35282     35274     35273     35276     35277
     35274     35273     35276     35278     35274     35273     35276     35279
     35275     35273     35276     35277     35275     35273     35276     35278
     35275     35273     35276     35279     35276     35279     35282     35283
     35276     35279     35282     35284     35276     35279     35282     35285
     35277     35276     35279     35280     35277     35276     35279     35281
     35277     35276     35279     35282     35278     35276     35279     35280
     35278     35276     35279     35281     35278     35276     35279     35282
     35279     35282     35285     35286     35279     35282     35285     35287
     35279     35282     35285     35288     35280     35279     35282     35283
     35280     35279     35282     35284     35280     35279     35282     35285
     35281     35279     35282     35283     35281     35279     35282     35284
     35281     35279     35282     35285     35282     35285     35288     35289
     35282     35285     35288     35290     35282     35285     35288     35291
     35283     35282     35285     35286     35283     35282     35285     35287
     35283     35282     35285     35288     35284     35282     35285     35286
     35284     35282     35285     35287     35284     35282     35285     35288
     35285     35288     35291     35292     35285     35288     35291     35293
     35285     35288     35291     35294     35286     35285     35288     35289
     35286     35285     35288     35290     35286     35285     35288     35291
     35287     35285     35288     35289     35287     35285     35288     35290
     35287     35285     35288     35291     35288     35291     35294     35295
     35288     35291     35294     35296     35288     35291     35294     35297
     35289     35288     35291     35292     35289     35288     35291     35293
     35289     35288     35291     35294     35290     35288     35291     35292
     35290     35288     35291     35293     35290     35288     35291     35294
     35291     35294     35297     35298     35291     35294     35297     35299
     35291     35294     35297     35300     35292     35291     35294     35295
     35292     35291     35294     35296     35292     35291     35294     35297
     35293     35291     35294     35295     35293     35291     35294     35296
     35293     35291     35294     35297     35295     35294     35297     35298
     35295     35294     35297     35299     35295     35294     35297     35300
     35296     35294     35297     35298     35296     35294     35297     35299
     35296     35294     35297     35300     35301     35307     35304     35305
     35301     35307     35304     35306     35301     35307     35304     35308
     35301     35312     35314     35315     35301     35312     35316     35317
     35301     35312     35316     35318     35301     35312     35316     35322
     35302     35301     35307     35304     35302     35301     35312     35313
     35302     35301     35312     35314     35302     35301     35312     35316
     35303     35301     35307     35304     35303     35301     35312     35313
     35303     35301     35312     35314     35303     35301     35312     35316
     35304     35307     35301     35312     35304     35308     35309     35310
     35304     35308     35309     35311     35304     35308     35309     35344
     35305     35304     35308     35309     35306     35304     35308     35309
     35307     35301     35312     35313     35307     35301     35312     35314
     35307     35301     35312     35316     35307     35304     35308     35309
     35308     35309     35344     35345     35308     35309     35344     35346
     35308     35309     35344     35352     35309     35344     35346     35347
     35309     35344     35352     35353     35309     35344     35352     35354
     35309     35344     35352     35355     35310     35309     35344     35345
     35310     35309     35344     35346     35310     35309     35344     35352
     35311     35309     35344     35345     35311     35309     35344     35346
     35311     35309     35344     35352     35312     35316     35322     35319
     35313     35312     35314     35315     35313     35312     35316     35317
     35313     35312     35316     35318     35313     35312     35316     35322
     35314     35312     35316     35317     35314     35312     35316     35318
     35314     35312     35316     35322     35315     35314     35312     35316
     35316     35322     35319     35320     35316     35322     35319     35321
     35316     35322     35319     35323     35317     35316     35322     35319
     35318     35316     35322     35319     35319     35323     35324     35325
     35319     35323     35324     35326     35319     35323     35324     35327
     35320     35319     35323     35324     35321     35319     35323     35324
     35322     35319     35323     35324     35323     35324     35327     35328
     35323     35324     35327     35329     35323     35324     35327     35335
     35324     35327     35329     35330     35324     35327     35335     35336
     35324     35327     35335     35337     35324     35327     35335     35338
     35325     35324     35327     35328     35325     35324     35327     35329
     35325     35324     35327     35335     35326     35324     35327     35328
     35326     35324     35327     35329     35326     35324     35327     35335
     35327     35329     35330     35331     35327     35329     35330     35332
     35327     35335     35338     35339     35328     35327     35329     35330
     35328     35327     35335     35336     35328     35327     35335     35337
     35328     35327     35335     35338     35329     35327     35335     35336
     35329     35327     35335     35337     35329     35327     35335     35338
     35329     35330     35332     35333     35329     35330     35332     35334
     35329     35330     35332     35361     35330     35329     35327     35335
     35330     35332     35361     35362     35330     35332     35361     35363
     35330     35332     35361     35364     35331     35330     35332     35333
     35331     35330     35332     35334     35331     35330     35332     35361
     35332     35361     35364     35365     35332     35361     35364     35366
     35332     35361     35364     35367     35333     35332     35361     35362
     35333     35332     35361     35363     35333     35332     35361     35364
     35334     35332     35361     35362     35334     35332     35361     35363
     35334     35332     35361     35364     35335     35338     35339     35340
     35335     35338     35339     35341     35336     35335     35338     35339
     35337     35335     35338     35339     35338     35339     35341     35342
     35338     35339     35341     35343     35338     35339     35341     35408
     35339     35341     35408     35409     35339     35341     35408     35410
     35339     35341     35408     35411     35340     35339     35341     35342
     35340     35339     35341     35343     35340     35339     35341     35408
     35341     35408     35411     35412     35341     35408     35411     35413
     35341     35408     35411     35414     35342     35341     35408     35409
     35342     35341     35408     35410     35342     35341     35408     35411
     35343     35341     35408     35409     35343     35341     35408     35410
     35343     35341     35408     35411     35344     35346     35347     35348
     35344     35346     35347     35349     35344     35352     35355     35356
     35345     35344     35346     35347     35345     35344     35352     35353
     35345     35344     35352     35354     35345     35344     35352     35355
     35346     35344     35352     35353     35346     35344     35352     35354
     35346     35344     35352     35355     35346     35347     35349     35350
     35346     35347     35349     35351     35346     35347     35349     35451
     35347     35346     35344     35352     35347     35349     35451     35452
     35347     35349     35451     35453     35347     35349     35451     35454
     35348     35347     35349     35350     35348     35347     35349     35351
     35348     35347     35349     35451     35349     35451     35454     35455
     35349     35451     35454     35456     35349     35451     35454     35457
     35350     35349     35451     35452     35350     35349     35451     35453
     35350     35349     35451     35454     35351     35349     35451     35452
     35351     35349     35451     35453     35351     35349     35451     35454
     35352     35355     35356     35357     35352     35355     35356     35358
     35353     35352     35355     35356     35354     35352     35355     35356
     35355     35356     35358     35359     35355     35356     35358     35360
     35355     35356     35358     35498     35356     35358     35498     35499
     35356     35358     35498     35500     35356     35358     35498     35501
     35357     35356     35358     35359     35357     35356     35358     35360
     35357     35356     35358     35498     35358     35498     35501     35502
     35358     35498     35501     35503     35358     35498     35501     35504
     35359     35358     35498     35499     35359     35358     35498     35500
     35359     35358     35498     35501     35360     35358     35498     35499
     35360     35358     35498     35500     35360     35358     35498     35501
     35361     35364     35367     35368     35361     35364     35367     35369
     35361     35364     35367     35370     35362     35361     35364     35365
     35362     35361     35364     35366     35362     35361     35364     35367
     35363     35361     35364     35365     35363     35361     35364     35366
     35363     35361     35364     35367     35364     35367     35370     35371
     35364     35367     35370     35372     35364     35367     35370     35373
     35365     35364     35367     35368     35365     35364     35367     35369
     35365     35364     35367     35370     35366     35364     35367     35368
     35366     35364     35367     35369     35366     35364     35367     35370
     35367     35370     35373     35374     35367     35370     35373     35375
     35367     35370     35373     35376     35368     35367     35370     35371
     35368     35367     35370     35372     35368     35367     35370     35373
     35369     35367     35370     35371     35369     35367     35370     35372
     35369     35367     35370     35373     35370     35373     35376     35377
     35370     35373     35376     35378     35370     35373     35376     35379
     35371     35370     35373     35374     35371     35370     35373     35375
     35371     35370     35373     35376     35372     35370     35373     35374
     35372     35370     35373     35375     35372     35370     35373     35376
     35373     35376     35379     35380     35373     35376     35379     35381
     35373     35376     35379     35382     35374     35373     35376     35377
     35374     35373     35376     35378     35374     35373     35376     35379
     35375     35373     35376     35377     35375     35373     35376     35378
     35375     35373     35376     35379     35376     35379     35382     35383
     35376     35379     35382     35384     35376     35379     35382     35385
     35377     35376     35379     35380     35377     35376     35379     35381
     35377     35376     35379     35382     35378     35376     35379     35380
     35378     35376     35379     35381     35378     35376     35379     35382
     35379     35382     35385     35386     35379     35382     35385     35387
     35380     35379     35382     35383     35380     35379     35382     35384
     35380     35379     35382     35385     35381     35379     35382     35383
     35381     35379     35382     35384     35381     35379     35382     35385
     35382     35385     35387     35388     35382     35385     35387     35389
     35383     35382     35385     35386     35383     35382     35385     35387
     35384     35382     35385     35386     35384     35382     35385     35387
     35385     35387     35389     35390     35385     35387     35389     35391
     35385     35387     35389     35392     35386     35385     35387     35388
     35386     35385     35387     35389     35387     35389     35392     35393
     35387     35389     35392     35394     35387     35389     35392     35395
     35388     35387     35389     35390     35388     35387     35389     35391
     35388     35387     35389     35392     35389     35392     35395     35396
     35389     35392     35395     35397     35389     35392     35395     35398
     35390     35389     35392     35393     35390     35389     35392     35394
     35390     35389     35392     35395     35391     35389     35392     35393
     35391     35389     35392     35394     35391     35389     35392     35395
     35392     35395     35398     35399     35392     35395     35398     35400
     35392     35395     35398     35401     35393     35392     35395     35396
     35393     35392     35395     35397     35393     35392     35395     35398
     35394     35392     35395     35396     35394     35392     35395     35397
     35394     35392     35395     35398     35395     35398     35401     35402
     35395     35398     35401     35403     35395     35398     35401     35404
     35396     35395     35398     35399     35396     35395     35398     35400
     35396     35395     35398     35401     35397     35395     35398     35399
     35397     35395     35398     35400     35397     35395     35398     35401
     35398     35401     35404     35405     35398     35401     35404     35406
     35398     35401     35404     35407     35399     35398     35401     35402
     35399     35398     35401     35403     35399     35398     35401     35404
     35400     35398     35401     35402     35400     35398     35401     35403
     35400     35398     35401     35404     35402     35401     35404     35405
     35402     35401     35404     35406     35402     35401     35404     35407
     35403     35401     35404     35405     35403     35401     35404     35406
     35403     35401     35404     35407     35408     35411     35414     35415
     35408     35411     35414     35416     35408     35411     35414     35417
     35409     35408     35411     35412     35409     35408     35411     35413
     35409     35408     35411     35414     35410     35408     35411     35412
     35410     35408     35411     35413     35410     35408     35411     35414
     35411     35414     35417     35418     35411     35414     35417     35419
     35411     35414     35417     35420     35412     35411     35414     35415
     35412     35411     35414     35416     35412     35411     35414     35417
     35413     35411     35414     35415     35413     35411     35414     35416
     35413     35411     35414     35417     35414     35417     35420     35421
     35414     35417     35420     35422     35414     35417     35420     35423
     35415     35414     35417     35418     35415     35414     35417     35419
     35415     35414     35417     35420     35416     35414     35417     35418
     35416     35414     35417     35419     35416     35414     35417     35420
     35417     35420     35423     35424     35417     35420     35423     35425
     35417     35420     35423     35426     35418     35417     35420     35421
     35418     35417     35420     35422     35418     35417     35420     35423
     35419     35417     35420     35421     35419     35417     35420     35422
     35419     35417     35420     35423     35420     35423     35426     35427
     35420     35423     35426     35428     35420     35423     35426     35429
     35421     35420     35423     35424     35421     35420     35423     35425
     35421     35420     35423     35426     35422     35420     35423     35424
     35422     35420     35423     35425     35422     35420     35423     35426
     35423     35426     35429     35430     35423     35426     35429     35431
     35423     35426     35429     35432     35424     35423     35426     35427
     35424     35423     35426     35428     35424     35423     35426     35429
     35425     35423     35426     35427     35425     35423     35426     35428
     35425     35423     35426     35429     35426     35429     35432     35433
     35426     35429     35432     35434     35426     35429     35432     35435
     35427     35426     35429     35430     35427     35426     35429     35431
     35427     35426     35429     35432     35428     35426     35429     35430
     35428     35426     35429     35431     35428     35426     35429     35432
     35429     35432     35435     35436     35429     35432     35435     35437
     35429     35432     35435     35438     35430     35429     35432     35433
     35430     35429     35432     35434     35430     35429     35432     35435
     35431     35429     35432     35433     35431     35429     35432     35434
     35431     35429     35432     35435     35432     35435     35438     35439
     35432     35435     35438     35440     35432     35435     35438     35441
     35433     35432     35435     35436     35433     35432     35435     35437
     35433     35432     35435     35438     35434     35432     35435     35436
     35434     35432     35435     35437     35434     35432     35435     35438
     35435     35438     35441     35442     35435     35438     35441     35443
     35435     35438     35441     35444     35436     35435     35438     35439
     35436     35435     35438     35440     35436     35435     35438     35441
     35437     35435     35438     35439     35437     35435     35438     35440
     35437     35435     35438     35441     35438     35441     35444     35445
     35438     35441     35444     35446     35438     35441     35444     35447
     35439     35438     35441     35442     35439     35438     35441     35443
     35439     35438     35441     35444     35440     35438     35441     35442
     35440     35438     35441     35443     35440     35438     35441     35444
     35441     35444     35447     35448     35441     35444     35447     35449
     35441     35444     35447     35450     35442     35441     35444     35445
     35442     35441     35444     35446     35442     35441     35444     35447
     35443     35441     35444     35445     35443     35441     35444     35446
     35443     35441     35444     35447     35445     35444     35447     35448
     35445     35444     35447     35449     35445     35444     35447     35450
     35446     35444     35447     35448     35446     35444     35447     35449
     35446     35444     35447     35450     35451     35454     35457     35458
     35451     35454     35457     35459     35451     35454     35457     35460
     35452     35451     35454     35455     35452     35451     35454     35456
     35452     35451     35454     35457     35453     35451     35454     35455
     35453     35451     35454     35456     35453     35451     35454     35457
     35454     35457     35460     35461     35454     35457     35460     35462
     35454     35457     35460     35463     35455     35454     35457     35458
     35455     35454     35457     35459     35455     35454     35457     35460
     35456     35454     35457     35458     35456     35454     35457     35459
     35456     35454     35457     35460     35457     35460     35463     35464
     35457     35460     35463     35465     35457     35460     35463     35466
     35458     35457     35460     35461     35458     35457     35460     35462
     35458     35457     35460     35463     35459     35457     35460     35461
     35459     35457     35460     35462     35459     35457     35460     35463
     35460     35463     35466     35467     35460     35463     35466     35468
     35460     35463     35466     35469     35461     35460     35463     35464
     35461     35460     35463     35465     35461     35460     35463     35466
     35462     35460     35463     35464     35462     35460     35463     35465
     35462     35460     35463     35466     35463     35466     35469     35470
     35463     35466     35469     35471     35463     35466     35469     35472
     35464     35463     35466     35467     35464     35463     35466     35468
     35464     35463     35466     35469     35465     35463     35466     35467
     35465     35463     35466     35468     35465     35463     35466     35469
     35466     35469     35472     35473     35466     35469     35472     35474
     35466     35469     35472     35475     35467     35466     35469     35470
     35467     35466     35469     35471     35467     35466     35469     35472
     35468     35466     35469     35470     35468     35466     35469     35471
     35468     35466     35469     35472     35469     35472     35475     35476
     35469     35472     35475     35477     35470     35469     35472     35473
     35470     35469     35472     35474     35470     35469     35472     35475
     35471     35469     35472     35473     35471     35469     35472     35474
     35471     35469     35472     35475     35472     35475     35477     35478
     35472     35475     35477     35479     35473     35472     35475     35476
     35473     35472     35475     35477     35474     35472     35475     35476
     35474     35472     35475     35477     35475     35477     35479     35480
     35475     35477     35479     35481     35475     35477     35479     35482
     35476     35475     35477     35478     35476     35475     35477     35479
     35477     35479     35482     35483     35477     35479     35482     35484
     35477     35479     35482     35485     35478     35477     35479     35480
     35478     35477     35479     35481     35478     35477     35479     35482
     35479     35482     35485     35486     35479     35482     35485     35487
     35479     35482     35485     35488     35480     35479     35482     35483
     35480     35479     35482     35484     35480     35479     35482     35485
     35481     35479     35482     35483     35481     35479     35482     35484
     35481     35479     35482     35485     35482     35485     35488     35489
     35482     35485     35488     35490     35482     35485     35488     35491
     35483     35482     35485     35486     35483     35482     35485     35487
     35483     35482     35485     35488     35484     35482     35485     35486
     35484     35482     35485     35487     35484     35482     35485     35488
     35485     35488     35491     35492     35485     35488     35491     35493
     35485     35488     35491     35494     35486     35485     35488     35489
     35486     35485     35488     35490     35486     35485     35488     35491
     35487     35485     35488     35489     35487     35485     35488     35490
     35487     35485     35488     35491     35488     35491     35494     35495
     35488     35491     35494     35496     35488     35491     35494     35497
     35489     35488     35491     35492     35489     35488     35491     35493
     35489     35488     35491     35494     35490     35488     35491     35492
     35490     35488     35491     35493     35490     35488     35491     35494
     35492     35491     35494     35495     35492     35491     35494     35496
     35492     35491     35494     35497     35493     35491     35494     35495
     35493     35491     35494     35496     35493     35491     35494     35497
     35498     35501     35504     35505     35498     35501     35504     35506
     35498     35501     35504     35507     35499     35498     35501     35502
     35499     35498     35501     35503     35499     35498     35501     35504
     35500     35498     35501     35502     35500     35498     35501     35503
     35500     35498     35501     35504     35501     35504     35507     35508
     35501     35504     35507     35509     35501     35504     35507     35510
     35502     35501     35504     35505     35502     35501     35504     35506
     35502     35501     35504     35507     35503     35501     35504     35505
     35503     35501     35504     35506     35503     35501     35504     35507
     35504     35507     35510     35511     35504     35507     35510     35512
     35504     35507     35510     35513     35505     35504     35507     35508
     35505     35504     35507     35509     35505     35504     35507     35510
     35506     35504     35507     35508     35506     35504     35507     35509
     35506     35504     35507     35510     35507     35510     35513     35514
     35507     35510     35513     35515     35507     35510     35513     35516
     35508     35507     35510     35511     35508     35507     35510     35512
     35508     35507     35510     35513     35509     35507     35510     35511
     35509     35507     35510     35512     35509     35507     35510     35513
     35510     35513     35516     35517     35510     35513     35516     35518
     35510     35513     35516     35519     35511     35510     35513     35514
     35511     35510     35513     35515     35511     35510     35513     35516
     35512     35510     35513     35514     35512     35510     35513     35515
     35512     35510     35513     35516     35513     35516     35519     35520
     35513     35516     35519     35521     35513     35516     35519     35522
     35514     35513     35516     35517     35514     35513     35516     35518
     35514     35513     35516     35519     35515     35513     35516     35517
     35515     35513     35516     35518     35515     35513     35516     35519
     35516     35519     35522     35523     35516     35519     35522     35524
     35516     35519     35522     35525     35517     35516     35519     35520
     35517     35516     35519     35521     35517     35516     35519     35522
     35518     35516     35519     35520     35518     35516     35519     35521
     35518     35516     35519     35522     35519     35522     35525     35526
     35519     35522     35525     35527     35519     35522     35525     35528
     35520     35519     35522     35523     35520     35519     35522     35524
     35520     35519     35522     35525     35521     35519     35522     35523
     35521     35519     35522     35524     35521     35519     35522     35525
     35522     35525     35528     35529     35522     35525     35528     35530
     35522     35525     35528     35531     35523     35522     35525     35526
     35523     35522     35525     35527     35523     35522     35525     35528
     35524     35522     35525     35526     35524     35522     35525     35527
     35524     35522     35525     35528     35525     35528     35531     35532
     35525     35528     35531     35533     35525     35528     35531     35534
     35526     35525     35528     35529     35526     35525     35528     35530
     35526     35525     35528     35531     35527     35525     35528     35529
     35527     35525     35528     35530     35527     35525     35528     35531
     35528     35531     35534     35535     35528     35531     35534     35536
     35528     35531     35534     35537     35529     35528     35531     35532
     35529     35528     35531     35533     35529     35528     35531     35534
     35530     35528     35531     35532     35530     35528     35531     35533
     35530     35528     35531     35534     35531     35534     35537     35538
     35531     35534     35537     35539     35531     35534     35537     35540
     35532     35531     35534     35535     35532     35531     35534     35536
     35532     35531     35534     35537     35533     35531     35534     35535
     35533     35531     35534     35536     35533     35531     35534     35537
     35535     35534     35537     35538     35535     35534     35537     35539
     35535     35534     35537     35540     35536     35534     35537     35538
     35536     35534     35537     35539     35536     35534     35537     35540
     35541     35545     35548     35549     35541     35545     35548     35550
     35541     35545     35548     35555     35542     35541     35545     35546
     35542     35541     35545     35547     35542     35541     35545     35548
     35543     35541     35545     35546     35543     35541     35545     35547
     35543     35541     35545     35548     35544     35541     35545     35546
     35544     35541     35545     35547     35544     35541     35545     35548
     35545     35548     35555     35551     35546     35545     35548     35549
     35546     35545     35548     35550     35546     35545     35548     35555
     35547     35545     35548     35549     35547     35545     35548     35550
     35547     35545     35548     35555     35548     35555     35551     35552
     35548     35555     35551     35553     35548     35555     35551     35554
     35549     35548     35555     35551     35550     35548     35555     35551
     35551     35554     35556     35557     35551     35554     35556     35558
     35551     35554     35556     35559     35552     35551     35554     35556
     35553     35551     35554     35556     35554     35556     35559     35560
     35554     35556     35559     35561     35554     35556     35559     35567
     35555     35551     35554     35556     35556     35559     35561     35562
     35556     35559     35567     35568     35556     35559     35567     35569
     35556     35559     35567     35570     35557     35556     35559     35560
     35557     35556     35559     35561     35557     35556     35559     35567
     35558     35556     35559     35560     35558     35556     35559     35561
     35558     35556     35559     35567     35559     35561     35562     35563
     35559     35561     35562     35564     35559     35567     35570     35571
     35560     35559     35561     35562     35560     35559     35567     35568
     35560     35559     35567     35569     35560     35559     35567     35570
     35561     35559     35567     35568     35561     35559     35567     35569
     35561     35559     35567     35570     35561     35562     35564     35565
     35561     35562     35564     35566     35561     35562     35564     35576
     35562     35561     35559     35567     35562     35564     35576     35577
     35562     35564     35576     35578     35562     35564     35576     35579
     35563     35562     35564     35565     35563     35562     35564     35566
     35563     35562     35564     35576     35564     35576     35579     35580
     35564     35576     35579     35581     35564     35576     35579     35582
     35565     35564     35576     35577     35565     35564     35576     35578
     35565     35564     35576     35579     35566     35564     35576     35577
     35566     35564     35576     35578     35566     35564     35576     35579
     35567     35570     35571     35572     35567     35570     35571     35573
     35568     35567     35570     35571     35569     35567     35570     35571
     35570     35571     35573     35574     35570     35571     35573     35575
     35570     35571     35573     35620     35571     35573     35620     35621
     35571     35573     35620     35622     35571     35573     35620     35623
     35572     35571     35573     35574     35572     35571     35573     35575
     35572     35571     35573     35620     35573     35620     35623     35624
     35573     35620     35623     35625     35573     35620     35623     35626
     35574     35573     35620     35621     35574     35573     35620     35622
     35574     35573     35620     35623     35575     35573     35620     35621
     35575     35573     35620     35622     35575     35573     35620     35623
     35576     35579     35582     35583     35576     35579     35582     35584
     35576     35579     35582     35585     35577     35576     35579     35580
     35577     35576     35579     35581     35577     35576     35579     35582
     35578     35576     35579     35580     35578     35576     35579     35581
     35578     35576     35579     35582     35579     35582     35585     35586
     35579     35582     35585     35587     35579     35582     35585     35588
     35580     35579     35582     35583     35580     35579     35582     35584
     35580     35579     35582     35585     35581     35579     35582     35583
     35581     35579     35582     35584     35581     35579     35582     35585
     35582     35585     35588     35589     35582     35585     35588     35590
     35582     35585     35588     35591     35583     35582     35585     35586
     35583     35582     35585     35587     35583     35582     35585     35588
     35584     35582     35585     35586     35584     35582     35585     35587
     35584     35582     35585     35588     35585     35588     35591     35592
     35585     35588     35591     35593     35585     35588     35591     35594
     35586     35585     35588     35589     35586     35585     35588     35590
     35586     35585     35588     35591     35587     35585     35588     35589
     35587     35585     35588     35590     35587     35585     35588     35591
     35588     35591     35594     35595     35588     35591     35594     35596
     35588     35591     35594     35599     35589     35588     35591     35592
     35589     35588     35591     35593     35589     35588     35591     35594
     35590     35588     35591     35592     35590     35588     35591     35593
     35590     35588     35591     35594     35591     35594     35596     35597
     35591     35594     35596     35598     35591     35594     35596     35599
     35591     35594     35599     35596     35591     35594     35599     35600
     35591     35594     35599     35601     35592     35591     35594     35595
     35592     35591     35594     35596     35592     35591     35594     35599
     35593     35591     35594     35595     35593     35591     35594     35596
     35593     35591     35594     35599     35594     35596     35599     35600
     35594     35596     35599     35601     35594     35599     35596     35597
     35594     35599     35596     35598     35594     35599     35601     35602
     35594     35599     35601     35603     35594     35599     35601     35604
     35595     35594     35596     35597     35595     35594     35596     35598
     35595     35594     35596     35599     35595     35594     35599     35596
     35595     35594     35599     35600     35595     35594     35599     35601
     35596     35594     35599     35600     35596     35594     35599     35601
     35596     35599     35601     35602     35596     35599     35601     35603
     35596     35599     35601     35604     35597     35596     35594     35599
     35597     35596     35599     35600     35597     35596     35599     35601
     35598     35596     35594     35599     35598     35596     35599     35600
     35598     35596     35599     35601     35599     35601     35604     35605
     35599     35601     35604     35606     35599     35601     35604     35607
     35600     35599     35601     35602     35600     35599     35601     35603
     35600     35599     35601     35604     35601     35604     35607     35608
     35601     35604     35607     35609     35601     35604     35607     35610
     35602     35601     35604     35605     35602     35601     35604     35606
     35602     35601     35604     35607     35603     35601     35604     35605
     35603     35601     35604     35606     35603     35601     35604     35607
     35604     35607     35610     35611     35604     35607     35610     35612
     35604     35607     35610     35613     35605     35604     35607     35608
     35605     35604     35607     35609     35605     35604     35607     35610
     35606     35604     35607     35608     35606     35604     35607     35609
     35606     35604     35607     35610     35607     35610     35613     35614
     35607     35610     35613     35615     35607     35610     35613     35616
     35608     35607     35610     35611     35608     35607     35610     35612
     35608     35607     35610     35613     35609     35607     35610     35611
     35609     35607     35610     35612     35609     35607     35610     35613
     35610     35613     35616     35617     35610     35613     35616     35618
     35610     35613     35616     35619     35611     35610     35613     35614
     35611     35610     35613     35615     35611     35610     35613     35616
     35612     35610     35613     35614     35612     35610     35613     35615
     35612     35610     35613     35616     35614     35613     35616     35617
     35614     35613     35616     35618     35614     35613     35616     35619
     35615     35613     35616     35617     35615     35613     35616     35618
     35615     35613     35616     35619     35620     35623     35626     35627
     35620     35623     35626     35628     35620     35623     35626     35629
     35621     35620     35623     35624     35621     35620     35623     35625
     35621     35620     35623     35626     35622     35620     35623     35624
     35622     35620     35623     35625     35622     35620     35623     35626
     35623     35626     35629     35630     35623     35626     35629     35631
     35623     35626     35629     35632     35624     35623     35626     35627
     35624     35623     35626     35628     35624     35623     35626     35629
     35625     35623     35626     35627     35625     35623     35626     35628
     35625     35623     35626     35629     35626     35629     35632     35633
     35626     35629     35632     35634     35626     35629     35632     35635
     35627     35626     35629     35630     35627     35626     35629     35631
     35627     35626     35629     35632     35628     35626     35629     35630
     35628     35626     35629     35631     35628     35626     35629     35632
     35629     35632     35635     35636     35629     35632     35635     35637
     35629     35632     35635     35638     35630     35629     35632     35633
     35630     35629     35632     35634     35630     35629     35632     35635
     35631     35629     35632     35633     35631     35629     35632     35634
     35631     35629     35632     35635     35632     35635     35638     35639
     35632     35635     35638     35640     35632     35635     35638     35641
     35633     35632     35635     35636     35633     35632     35635     35637
     35633     35632     35635     35638     35634     35632     35635     35636
     35634     35632     35635     35637     35634     35632     35635     35638
     35635     35638     35641     35642     35635     35638     35641     35643
     35635     35638     35641     35644     35636     35635     35638     35639
     35636     35635     35638     35640     35636     35635     35638     35641
     35637     35635     35638     35639     35637     35635     35638     35640
     35637     35635     35638     35641     35638     35641     35644     35645
     35638     35641     35644     35646     35638     35641     35644     35647
     35639     35638     35641     35642     35639     35638     35641     35643
     35639     35638     35641     35644     35640     35638     35641     35642
     35640     35638     35641     35643     35640     35638     35641     35644
     35641     35644     35647     35648     35641     35644     35647     35649
     35641     35644     35647     35650     35642     35641     35644     35645
     35642     35641     35644     35646     35642     35641     35644     35647
     35643     35641     35644     35645     35643     35641     35644     35646
     35643     35641     35644     35647     35644     35647     35650     35651
     35644     35647     35650     35652     35644     35647     35650     35653
     35645     35644     35647     35648     35645     35644     35647     35649
     35645     35644     35647     35650     35646     35644     35647     35648
     35646     35644     35647     35649     35646     35644     35647     35650
     35647     35650     35653     35654     35647     35650     35653     35655
     35647     35650     35653     35656     35648     35647     35650     35651
     35648     35647     35650     35652     35648     35647     35650     35653
     35649     35647     35650     35651     35649     35647     35650     35652
     35649     35647     35650     35653     35650     35653     35656     35657
     35650     35653     35656     35658     35650     35653     35656     35659
     35651     35650     35653     35654     35651     35650     35653     35655
     35651     35650     35653     35656     35652     35650     35653     35654
     35652     35650     35653     35655     35652     35650     35653     35656
     35653     35656     35659     35660     35653     35656     35659     35661
     35653     35656     35659     35662     35654     35653     35656     35657
     35654     35653     35656     35658     35654     35653     35656     35659
     35655     35653     35656     35657     35655     35653     35656     35658
     35655     35653     35656     35659     35657     35656     35659     35660
     35657     35656     35659     35661     35657     35656     35659     35662
     35658     35656     35659     35660     35658     35656     35659     35661
     35658     35656     35659     35662     35663     35667     35670     35671
     35663     35667     35670     35672     35663     35667     35670     35677
     35664     35663     35667     35668     35664     35663     35667     35669
     35664     35663     35667     35670     35665     35663     35667     35668
     35665     35663     35667     35669     35665     35663     35667     35670
     35666     35663     35667     35668     35666     35663     35667     35669
     35666     35663     35667     35670     35667     35670     35677     35673
     35668     35667     35670     35671     35668     35667     35670     35672
     35668     35667     35670     35677     35669     35667     35670     35671
     35669     35667     35670     35672     35669     35667     35670     35677
     35670     35677     35673     35674     35670     35677     35673     35675
     35670     35677     35673     35676     35671     35670     35677     35673
     35672     35670     35677     35673     35673     35676     35678     35679
     35673     35676     35678     35680     35673     35676     35678     35681
     35674     35673     35676     35678     35675     35673     35676     35678
     35676     35678     35681     35682     35676     35678     35681     35683
     35676     35678     35681     35689     35677     35673     35676     35678
     35678     35681     35683     35684     35678     35681     35689     35690
     35678     35681     35689     35691     35678     35681     35689     35692
     35679     35678     35681     35682     35679     35678     35681     35683
     35679     35678     35681     35689     35680     35678     35681     35682
     35680     35678     35681     35683     35680     35678     35681     35689
     35681     35683     35684     35685     35681     35683     35684     35686
     35681     35689     35692     35693     35682     35681     35683     35684
     35682     35681     35689     35690     35682     35681     35689     35691
     35682     35681     35689     35692     35683     35681     35689     35690
     35683     35681     35689     35691     35683     35681     35689     35692
     35683     35684     35686     35687     35683     35684     35686     35688
     35683     35684     35686     35698     35684     35683     35681     35689
     35684     35686     35698     35699     35684     35686     35698     35700
     35684     35686     35698     35701     35685     35684     35686     35687
     35685     35684     35686     35688     35685     35684     35686     35698
     35686     35698     35701     35702     35686     35698     35701     35703
     35686     35698     35701     35704     35687     35686     35698     35699
     35687     35686     35698     35700     35687     35686     35698     35701
     35688     35686     35698     35699     35688     35686     35698     35700
     35688     35686     35698     35701     35689     35692     35693     35694
     35689     35692     35693     35695     35690     35689     35692     35693
     35691     35689     35692     35693     35692     35693     35695     35696
     35692     35693     35695     35697     35692     35693     35695     35742
     35693     35695     35742     35743     35693     35695     35742     35744
     35693     35695     35742     35745     35694     35693     35695     35696
     35694     35693     35695     35697     35694     35693     35695     35742
     35695     35742     35745     35746     35695     35742     35745     35747
     35695     35742     35745     35748     35696     35695     35742     35743
     35696     35695     35742     35744     35696     35695     35742     35745
     35697     35695     35742     35743     35697     35695     35742     35744
     35697     35695     35742     35745     35698     35701     35704     35705
     35698     35701     35704     35706     35698     35701     35704     35707
     35699     35698     35701     35702     35699     35698     35701     35703
     35699     35698     35701     35704     35700     35698     35701     35702
     35700     35698     35701     35703     35700     35698     35701     35704
     35701     35704     35707     35708     35701     35704     35707     35709
     35701     35704     35707     35710     35702     35701     35704     35705
     35702     35701     35704     35706     35702     35701     35704     35707
     35703     35701     35704     35705     35703     35701     35704     35706
     35703     35701     35704     35707     35704     35707     35710     35711
     35704     35707     35710     35712     35704     35707     35710     35713
     35705     35704     35707     35708     35705     35704     35707     35709
     35705     35704     35707     35710     35706     35704     35707     35708
     35706     35704     35707     35709     35706     35704     35707     35710
     35707     35710     35713     35714     35707     35710     35713     35715
     35707     35710     35713     35716     35708     35707     35710     35711
     35708     35707     35710     35712     35708     35707     35710     35713
     35709     35707     35710     35711     35709     35707     35710     35712
     35709     35707     35710     35713     35710     35713     35716     35717
     35710     35713     35716     35718     35710     35713     35716     35721
     35711     35710     35713     35714     35711     35710     35713     35715
     35711     35710     35713     35716     35712     35710     35713     35714
     35712     35710     35713     35715     35712     35710     35713     35716
     35713     35716     35718     35719     35713     35716     35718     35720
     35713     35716     35718     35721     35713     35716     35721     35718
     35713     35716     35721     35722     35713     35716     35721     35723
     35714     35713     35716     35717     35714     35713     35716     35718
     35714     35713     35716     35721     35715     35713     35716     35717
     35715     35713     35716     35718     35715     35713     35716     35721
     35716     35718     35721     35722     35716     35718     35721     35723
     35716     35721     35718     35719     35716     35721     35718     35720
     35716     35721     35723     35724     35716     35721     35723     35725
     35716     35721     35723     35726     35717     35716     35718     35719
     35717     35716     35718     35720     35717     35716     35718     35721
     35717     35716     35721     35718     35717     35716     35721     35722
     35717     35716     35721     35723     35718     35716     35721     35722
     35718     35716     35721     35723     35718     35721     35723     35724
     35718     35721     35723     35725     35718     35721     35723     35726
     35719     35718     35716     35721     35719     35718     35721     35722
     35719     35718     35721     35723     35720     35718     35716     35721
     35720     35718     35721     35722     35720     35718     35721     35723
     35721     35723     35726     35727     35721     35723     35726     35728
     35721     35723     35726     35729     35722     35721     35723     35724
     35722     35721     35723     35725     35722     35721     35723     35726
     35723     35726     35729     35730     35723     35726     35729     35731
     35723     35726     35729     35732     35724     35723     35726     35727
     35724     35723     35726     35728     35724     35723     35726     35729
     35725     35723     35726     35727     35725     35723     35726     35728
     35725     35723     35726     35729     35726     35729     35732     35733
     35726     35729     35732     35734     35726     35729     35732     35735
     35727     35726     35729     35730     35727     35726     35729     35731
     35727     35726     35729     35732     35728     35726     35729     35730
     35728     35726     35729     35731     35728     35726     35729     35732
     35729     35732     35735     35736     35729     35732     35735     35737
     35729     35732     35735     35738     35730     35729     35732     35733
     35730     35729     35732     35734     35730     35729     35732     35735
     35731     35729     35732     35733     35731     35729     35732     35734
     35731     35729     35732     35735     35732     35735     35738     35739
     35732     35735     35738     35740     35732     35735     35738     35741
     35733     35732     35735     35736     35733     35732     35735     35737
     35733     35732     35735     35738     35734     35732     35735     35736
     35734     35732     35735     35737     35734     35732     35735     35738
     35736     35735     35738     35739     35736     35735     35738     35740
     35736     35735     35738     35741     35737     35735     35738     35739
     35737     35735     35738     35740     35737     35735     35738     35741
     35742     35745     35748     35749     35742     35745     35748     35750
     35742     35745     35748     35751     35743     35742     35745     35746
     35743     35742     35745     35747     35743     35742     35745     35748
     35744     35742     35745     35746     35744     35742     35745     35747
     35744     35742     35745     35748     35745     35748     35751     35752
     35745     35748     35751     35753     35745     35748     35751     35754
     35746     35745     35748     35749     35746     35745     35748     35750
     35746     35745     35748     35751     35747     35745     35748     35749
     35747     35745     35748     35750     35747     35745     35748     35751
     35748     35751     35754     35755     35748     35751     35754     35756
     35748     35751     35754     35757     35749     35748     35751     35752
     35749     35748     35751     35753     35749     35748     35751     35754
     35750     35748     35751     35752     35750     35748     35751     35753
     35750     35748     35751     35754     35751     35754     35757     35758
     35751     35754     35757     35759     35751     35754     35757     35760
     35752     35751     35754     35755     35752     35751     35754     35756
     35752     35751     35754     35757     35753     35751     35754     35755
     35753     35751     35754     35756     35753     35751     35754     35757
     35754     35757     35760     35761     35754     35757     35760     35762
     35754     35757     35760     35763     35755     35754     35757     35758
     35755     35754     35757     35759     35755     35754     35757     35760
     35756     35754     35757     35758     35756     35754     35757     35759
     35756     35754     35757     35760     35757     35760     35763     35764
     35757     35760     35763     35765     35757     35760     35763     35766
     35758     35757     35760     35761     35758     35757     35760     35762
     35758     35757     35760     35763     35759     35757     35760     35761
     35759     35757     35760     35762     35759     35757     35760     35763
     35760     35763     35766     35767     35760     35763     35766     35768
     35760     35763     35766     35769     35761     35760     35763     35764
     35761     35760     35763     35765     35761     35760     35763     35766
     35762     35760     35763     35764     35762     35760     35763     35765
     35762     35760     35763     35766     35763     35766     35769     35770
     35763     35766     35769     35771     35763     35766     35769     35772
     35764     35763     35766     35767     35764     35763     35766     35768
     35764     35763     35766     35769     35765     35763     35766     35767
     35765     35763     35766     35768     35765     35763     35766     35769
     35766     35769     35772     35773     35766     35769     35772     35774
     35766     35769     35772     35775     35767     35766     35769     35770
     35767     35766     35769     35771     35767     35766     35769     35772
     35768     35766     35769     35770     35768     35766     35769     35771
     35768     35766     35769     35772     35769     35772     35775     35776
     35769     35772     35775     35777     35769     35772     35775     35778
     35770     35769     35772     35773     35770     35769     35772     35774
     35770     35769     35772     35775     35771     35769     35772     35773
     35771     35769     35772     35774     35771     35769     35772     35775
     35772     35775     35778     35779     35772     35775     35778     35780
     35772     35775     35778     35781     35773     35772     35775     35776
     35773     35772     35775     35777     35773     35772     35775     35778
     35774     35772     35775     35776     35774     35772     35775     35777
     35774     35772     35775     35778     35775     35778     35781     35782
     35775     35778     35781     35783     35775     35778     35781     35784
     35776     35775     35778     35779     35776     35775     35778     35780
     35776     35775     35778     35781     35777     35775     35778     35779
     35777     35775     35778     35780     35777     35775     35778     35781
     35779     35778     35781     35782     35779     35778     35781     35783
     35779     35778     35781     35784     35780     35778     35781     35782
     35780     35778     35781     35783     35780     35778     35781     35784
     35785     35789     35792     35793     35785     35789     35792     35794
     35785     35789     35792     35799     35786     35785     35789     35790
     35786     35785     35789     35791     35786     35785     35789     35792
     35787     35785     35789     35790     35787     35785     35789     35791
     35787     35785     35789     35792     35788     35785     35789     35790
     35788     35785     35789     35791     35788     35785     35789     35792
     35789     35792     35799     35795     35790     35789     35792     35793
     35790     35789     35792     35794     35790     35789     35792     35799
     35791     35789     35792     35793     35791     35789     35792     35794
     35791     35789     35792     35799     35792     35799     35795     35796
     35792     35799     35795     35797     35792     35799     35795     35798
     35793     35792     35799     35795     35794     35792     35799     35795
     35795     35798     35800     35801     35795     35798     35800     35802
     35795     35798     35800     35803     35796     35795     35798     35800
     35797     35795     35798     35800     35798     35800     35803     35804
     35798     35800     35803     35805     35798     35800     35803     35811
     35799     35795     35798     35800     35800     35803     35805     35806
     35800     35803     35811     35812     35800     35803     35811     35813
     35800     35803     35811     35814     35801     35800     35803     35804
     35801     35800     35803     35805     35801     35800     35803     35811
     35802     35800     35803     35804     35802     35800     35803     35805
     35802     35800     35803     35811     35803     35805     35806     35807
     35803     35805     35806     35808     35803     35811     35814     35815
     35804     35803     35805     35806     35804     35803     35811     35812
     35804     35803     35811     35813     35804     35803     35811     35814
     35805     35803     35811     35812     35805     35803     35811     35813
     35805     35803     35811     35814     35805     35806     35808     35809
     35805     35806     35808     35810     35805     35806     35808     35820
     35806     35805     35803     35811     35806     35808     35820     35821
     35806     35808     35820     35822     35806     35808     35820     35823
     35807     35806     35808     35809     35807     35806     35808     35810
     35807     35806     35808     35820     35808     35820     35823     35824
     35808     35820     35823     35825     35808     35820     35823     35826
     35809     35808     35820     35821     35809     35808     35820     35822
     35809     35808     35820     35823     35810     35808     35820     35821
     35810     35808     35820     35822     35810     35808     35820     35823
     35811     35814     35815     35816     35811     35814     35815     35817
     35812     35811     35814     35815     35813     35811     35814     35815
     35814     35815     35817     35818     35814     35815     35817     35819
     35814     35815     35817     35864     35815     35817     35864     35865
     35815     35817     35864     35866     35815     35817     35864     35867
     35816     35815     35817     35818     35816     35815     35817     35819
     35816     35815     35817     35864     35817     35864     35867     35868
     35817     35864     35867     35869     35817     35864     35867     35870
     35818     35817     35864     35865     35818     35817     35864     35866
     35818     35817     35864     35867     35819     35817     35864     35865
     35819     35817     35864     35866     35819     35817     35864     35867
     35820     35823     35826     35827     35820     35823     35826     35828
     35820     35823     35826     35829     35821     35820     35823     35824
     35821     35820     35823     35825     35821     35820     35823     35826
     35822     35820     35823     35824     35822     35820     35823     35825
     35822     35820     35823     35826     35823     35826     35829     35830
     35823     35826     35829     35831     35823     35826     35829     35832
     35824     35823     35826     35827     35824     35823     35826     35828
     35824     35823     35826     35829     35825     35823     35826     35827
     35825     35823     35826     35828     35825     35823     35826     35829
     35826     35829     35832     35833     35826     35829     35832     35834
     35826     35829     35832     35835     35827     35826     35829     35830
     35827     35826     35829     35831     35827     35826     35829     35832
     35828     35826     35829     35830     35828     35826     35829     35831
     35828     35826     35829     35832     35829     35832     35835     35836
     35829     35832     35835     35837     35829     35832     35835     35838
     35830     35829     35832     35833     35830     35829     35832     35834
     35830     35829     35832     35835     35831     35829     35832     35833
     35831     35829     35832     35834     35831     35829     35832     35835
     35832     35835     35838     35839     35832     35835     35838     35840
     35832     35835     35838     35843     35833     35832     35835     35836
     35833     35832     35835     35837     35833     35832     35835     35838
     35834     35832     35835     35836     35834     35832     35835     35837
     35834     35832     35835     35838     35835     35838     35840     35841
     35835     35838     35840     35842     35835     35838     35840     35843
     35835     35838     35843     35840     35835     35838     35843     35844
     35835     35838     35843     35845     35836     35835     35838     35839
     35836     35835     35838     35840     35836     35835     35838     35843
     35837     35835     35838     35839     35837     35835     35838     35840
     35837     35835     35838     35843     35838     35840     35843     35844
     35838     35840     35843     35845     35838     35843     35840     35841
     35838     35843     35840     35842     35838     35843     35845     35846
     35838     35843     35845     35847     35838     35843     35845     35848
     35839     35838     35840     35841     35839     35838     35840     35842
     35839     35838     35840     35843     35839     35838     35843     35840
     35839     35838     35843     35844     35839     35838     35843     35845
     35840     35838     35843     35844     35840     35838     35843     35845
     35840     35843     35845     35846     35840     35843     35845     35847
     35840     35843     35845     35848     35841     35840     35838     35843
     35841     35840     35843     35844     35841     35840     35843     35845
     35842     35840     35838     35843     35842     35840     35843     35844
     35842     35840     35843     35845     35843     35845     35848     35849
     35843     35845     35848     35850     35843     35845     35848     35851
     35844     35843     35845     35846     35844     35843     35845     35847
     35844     35843     35845     35848     35845     35848     35851     35852
     35845     35848     35851     35853     35845     35848     35851     35854
     35846     35845     35848     35849     35846     35845     35848     35850
     35846     35845     35848     35851     35847     35845     35848     35849
     35847     35845     35848     35850     35847     35845     35848     35851
     35848     35851     35854     35855     35848     35851     35854     35856
     35848     35851     35854     35857     35849     35848     35851     35852
     35849     35848     35851     35853     35849     35848     35851     35854
     35850     35848     35851     35852     35850     35848     35851     35853
     35850     35848     35851     35854     35851     35854     35857     35858
     35851     35854     35857     35859     35851     35854     35857     35860
     35852     35851     35854     35855     35852     35851     35854     35856
     35852     35851     35854     35857     35853     35851     35854     35855
     35853     35851     35854     35856     35853     35851     35854     35857
     35854     35857     35860     35861     35854     35857     35860     35862
     35854     35857     35860     35863     35855     35854     35857     35858
     35855     35854     35857     35859     35855     35854     35857     35860
     35856     35854     35857     35858     35856     35854     35857     35859
     35856     35854     35857     35860     35858     35857     35860     35861
     35858     35857     35860     35862     35858     35857     35860     35863
     35859     35857     35860     35861     35859     35857     35860     35862
     35859     35857     35860     35863     35864     35867     35870     35871
     35864     35867     35870     35872     35864     35867     35870     35873
     35865     35864     35867     35868     35865     35864     35867     35869
     35865     35864     35867     35870     35866     35864     35867     35868
     35866     35864     35867     35869     35866     35864     35867     35870
     35867     35870     35873     35874     35867     35870     35873     35875
     35867     35870     35873     35876     35868     35867     35870     35871
     35868     35867     35870     35872     35868     35867     35870     35873
     35869     35867     35870     35871     35869     35867     35870     35872
     35869     35867     35870     35873     35870     35873     35876     35877
     35870     35873     35876     35878     35870     35873     35876     35879
     35871     35870     35873     35874     35871     35870     35873     35875
     35871     35870     35873     35876     35872     35870     35873     35874
     35872     35870     35873     35875     35872     35870     35873     35876
     35873     35876     35879     35880     35873     35876     35879     35881
     35873     35876     35879     35882     35874     35873     35876     35877
     35874     35873     35876     35878     35874     35873     35876     35879
     35875     35873     35876     35877     35875     35873     35876     35878
     35875     35873     35876     35879     35876     35879     35882     35883
     35876     35879     35882     35884     35876     35879     35882     35885
     35877     35876     35879     35880     35877     35876     35879     35881
     35877     35876     35879     35882     35878     35876     35879     35880
     35878     35876     35879     35881     35878     35876     35879     35882
     35879     35882     35885     35886     35879     35882     35885     35887
     35879     35882     35885     35888     35880     35879     35882     35883
     35880     35879     35882     35884     35880     35879     35882     35885
     35881     35879     35882     35883     35881     35879     35882     35884
     35881     35879     35882     35885     35882     35885     35888     35889
     35882     35885     35888     35890     35882     35885     35888     35891
     35883     35882     35885     35886     35883     35882     35885     35887
     35883     35882     35885     35888     35884     35882     35885     35886
     35884     35882     35885     35887     35884     35882     35885     35888
     35885     35888     35891     35892     35885     35888     35891     35893
     35885     35888     35891     35894     35886     35885     35888     35889
     35886     35885     35888     35890     35886     35885     35888     35891
     35887     35885     35888     35889     35887     35885     35888     35890
     35887     35885     35888     35891     35888     35891     35894     35895
     35888     35891     35894     35896     35888     35891     35894     35897
     35889     35888     35891     35892     35889     35888     35891     35893
     35889     35888     35891     35894     35890     35888     35891     35892
     35890     35888     35891     35893     35890     35888     35891     35894
     35891     35894     35897     35898     35891     35894     35897     35899
     35891     35894     35897     35900     35892     35891     35894     35895
     35892     35891     35894     35896     35892     35891     35894     35897
     35893     35891     35894     35895     35893     35891     35894     35896
     35893     35891     35894     35897     35894     35897     35900     35901
     35894     35897     35900     35902     35894     35897     35900     35903
     35895     35894     35897     35898     35895     35894     35897     35899
     35895     35894     35897     35900     35896     35894     35897     35898
     35896     35894     35897     35899     35896     35894     35897     35900
     35897     35900     35903     35904     35897     35900     35903     35905
     35897     35900     35903     35906     35898     35897     35900     35901
     35898     35897     35900     35902     35898     35897     35900     35903
     35899     35897     35900     35901     35899     35897     35900     35902
     35899     35897     35900     35903     35901     35900     35903     35904
     35901     35900     35903     35905     35901     35900     35903     35906
     35902     35900     35903     35904     35902     35900     35903     35905
     35902     35900     35903     35906     35907     35912     35914     35915
     35907     35912     35916     35917     35907     35912     35916     35918
     35907     35912     35916     35923     35908     35907     35910     35911
     35908     35907     35912     35913     35908     35907     35912     35914
     35908     35907     35912     35916     35909     35907     35910     35911
     35909     35907     35912     35913     35909     35907     35912     35914
     35909     35907     35912     35916     35910     35907     35912     35913
     35910     35907     35912     35914     35910     35907     35912     35916
     35911     35910     35907     35912     35912     35916     35923     35919
     35913     35912     35914     35915     35913     35912     35916     35917
     35913     35912     35916     35918     35913     35912     35916     35923
     35914     35912     35916     35917     35914     35912     35916     35918
     35914     35912     35916     35923     35915     35914     35912     35916
     35916     35923     35919     35920     35916     35923     35919     35921
     35916     35923     35919     35922     35917     35916     35923     35919
     35918     35916     35923     35919     35919     35922     35924     35925
     35919     35922     35924     35926     35919     35922     35924     35927
     35920     35919     35922     35924     35921     35919     35922     35924
     35922     35924     35927     35928     35922     35924     35927     35929
     35922     35924     35927     35935     35923     35919     35922     35924
     35924     35927     35929     35930     35924     35927     35935     35936
     35924     35927     35935     35937     35924     35927     35935     35938
     35925     35924     35927     35928     35925     35924     35927     35929
     35925     35924     35927     35935     35926     35924     35927     35928
     35926     35924     35927     35929     35926     35924     35927     35935
     35927     35929     35930     35931     35927     35929     35930     35932
     35927     35935     35938     35939     35928     35927     35929     35930
     35928     35927     35935     35936     35928     35927     35935     35937
     35928     35927     35935     35938     35929     35927     35935     35936
     35929     35927     35935     35937     35929     35927     35935     35938
     35929     35930     35932     35933     35929     35930     35932     35934
     35929     35930     35932     35944     35930     35929     35927     35935
     35930     35932     35944     35945     35930     35932     35944     35946
     35930     35932     35944     35947     35931     35930     35932     35933
     35931     35930     35932     35934     35931     35930     35932     35944
     35932     35944     35947     35948     35932     35944     35947     35949
     35932     35944     35947     35950     35933     35932     35944     35945
     35933     35932     35944     35946     35933     35932     35944     35947
     35934     35932     35944     35945     35934     35932     35944     35946
     35934     35932     35944     35947     35935     35938     35939     35940
     35935     35938     35939     35941     35936     35935     35938     35939
     35937     35935     35938     35939     35938     35939     35941     35942
     35938     35939     35941     35943     35938     35939     35941     35985
     35939     35941     35985     35986     35939     35941     35985     35987
     35939     35941     35985     35988     35940     35939     35941     35942
     35940     35939     35941     35943     35940     35939     35941     35985
     35941     35985     35988     35989     35941     35985     35988     35990
     35941     35985     35988     35991     35942     35941     35985     35986
     35942     35941     35985     35987     35942     35941     35985     35988
     35943     35941     35985     35986     35943     35941     35985     35987
     35943     35941     35985     35988     35944     35947     35950     35951
     35944     35947     35950     35952     35944     35947     35950     35953
     35945     35944     35947     35948     35945     35944     35947     35949
     35945     35944     35947     35950     35946     35944     35947     35948
     35946     35944     35947     35949     35946     35944     35947     35950
     35947     35950     35953     35954     35947     35950     35953     35955
     35947     35950     35953     35956     35948     35947     35950     35951
     35948     35947     35950     35952     35948     35947     35950     35953
     35949     35947     35950     35951     35949     35947     35950     35952
     35949     35947     35950     35953     35950     35953     35956     35957
     35950     35953     35956     35958     35950     35953     35956     35959
     35951     35950     35953     35954     35951     35950     35953     35955
     35951     35950     35953     35956     35952     35950     35953     35954
     35952     35950     35953     35955     35952     35950     35953     35956
     35953     35956     35959     35960     35953     35956     35959     35961
     35953     35956     35959     35962     35954     35953     35956     35957
     35954     35953     35956     35958     35954     35953     35956     35959
     35955     35953     35956     35957     35955     35953     35956     35958
     35955     35953     35956     35959     35956     35959     35962     35963
     35956     35959     35962     35964     35957     35956     35959     35960
     35957     35956     35959     35961     35957     35956     35959     35962
     35958     35956     35959     35960     35958     35956     35959     35961
     35958     35956     35959     35962     35959     35962     35964     35965
     35959     35962     35964     35966     35960     35959     35962     35963
     35960     35959     35962     35964     35961     35959     35962     35963
     35961     35959     35962     35964     35962     35964     35966     35967
     35962     35964     35966     35968     35962     35964     35966     35969
     35963     35962     35964     35965     35963     35962     35964     35966
     35964     35966     35969     35970     35964     35966     35969     35971
     35964     35966     35969     35972     35965     35964     35966     35967
     35965     35964     35966     35968     35965     35964     35966     35969
     35966     35969     35972     35973     35966     35969     35972     35974
     35966     35969     35972     35975     35967     35966     35969     35970
     35967     35966     35969     35971     35967     35966     35969     35972
     35968     35966     35969     35970     35968     35966     35969     35971
     35968     35966     35969     35972     35969     35972     35975     35976
     35969     35972     35975     35977     35969     35972     35975     35978
     35970     35969     35972     35973     35970     35969     35972     35974
     35970     35969     35972     35975     35971     35969     35972     35973
     35971     35969     35972     35974     35971     35969     35972     35975
     35972     35975     35978     35979     35972     35975     35978     35980
     35972     35975     35978     35981     35973     35972     35975     35976
     35973     35972     35975     35977     35973     35972     35975     35978
     35974     35972     35975     35976     35974     35972     35975     35977
     35974     35972     35975     35978     35975     35978     35981     35982
     35975     35978     35981     35983     35975     35978     35981     35984
     35976     35975     35978     35979     35976     35975     35978     35980
     35976     35975     35978     35981     35977     35975     35978     35979
     35977     35975     35978     35980     35977     35975     35978     35981
     35979     35978     35981     35982     35979     35978     35981     35983
     35979     35978     35981     35984     35980     35978     35981     35982
     35980     35978     35981     35983     35980     35978     35981     35984
     35985     35988     35991     35992     35985     35988     35991     35993
     35985     35988     35991     35994     35986     35985     35988     35989
     35986     35985     35988     35990     35986     35985     35988     35991
     35987     35985     35988     35989     35987     35985     35988     35990
     35987     35985     35988     35991     35988     35991     35994     35995
     35988     35991     35994     35996     35988     35991     35994     35997
     35989     35988     35991     35992     35989     35988     35991     35993
     35989     35988     35991     35994     35990     35988     35991     35992
     35990     35988     35991     35993     35990     35988     35991     35994
     35991     35994     35997     35998     35991     35994     35997     35999
     35991     35994     35997     36000     35992     35991     35994     35995
     35992     35991     35994     35996     35992     35991     35994     35997
     35993     35991     35994     35995     35993     35991     35994     35996
     35993     35991     35994     35997     35994     35997     36000     36001
     35994     35997     36000     36002     35994     35997     36000     36003
     35995     35994     35997     35998     35995     35994     35997     35999
     35995     35994     35997     36000     35996     35994     35997     35998
     35996     35994     35997     35999     35996     35994     35997     36000
     35997     36000     36003     36004     35997     36000     36003     36005
     35997     36000     36003     36006     35998     35997     36000     36001
     35998     35997     36000     36002     35998     35997     36000     36003
     35999     35997     36000     36001     35999     35997     36000     36002
     35999     35997     36000     36003     36000     36003     36006     36007
     36000     36003     36006     36008     36000     36003     36006     36009
     36001     36000     36003     36004     36001     36000     36003     36005
     36001     36000     36003     36006     36002     36000     36003     36004
     36002     36000     36003     36005     36002     36000     36003     36006
     36003     36006     36009     36010     36003     36006     36009     36011
     36003     36006     36009     36012     36004     36003     36006     36007
     36004     36003     36006     36008     36004     36003     36006     36009
     36005     36003     36006     36007     36005     36003     36006     36008
     36005     36003     36006     36009     36006     36009     36012     36013
     36006     36009     36012     36014     36006     36009     36012     36015
     36007     36006     36009     36010     36007     36006     36009     36011
     36007     36006     36009     36012     36008     36006     36009     36010
     36008     36006     36009     36011     36008     36006     36009     36012
     36009     36012     36015     36016     36009     36012     36015     36017
     36009     36012     36015     36018     36010     36009     36012     36013
     36010     36009     36012     36014     36010     36009     36012     36015
     36011     36009     36012     36013     36011     36009     36012     36014
     36011     36009     36012     36015     36012     36015     36018     36019
     36012     36015     36018     36020     36012     36015     36018     36021
     36013     36012     36015     36016     36013     36012     36015     36017
     36013     36012     36015     36018     36014     36012     36015     36016
     36014     36012     36015     36017     36014     36012     36015     36018
     36015     36018     36021     36022     36015     36018     36021     36023
     36015     36018     36021     36024     36016     36015     36018     36019
     36016     36015     36018     36020     36016     36015     36018     36021
     36017     36015     36018     36019     36017     36015     36018     36020
     36017     36015     36018     36021     36018     36021     36024     36025
     36018     36021     36024     36026     36018     36021     36024     36027
     36019     36018     36021     36022     36019     36018     36021     36023
     36019     36018     36021     36024     36020     36018     36021     36022
     36020     36018     36021     36023     36020     36018     36021     36024
     36022     36021     36024     36025     36022     36021     36024     36026
     36022     36021     36024     36027     36023     36021     36024     36025
     36023     36021     36024     36026     36023     36021     36024     36027
     36028     36032     36035     36036     36028     36032     36035     36037
     36028     36032     36035     36042     36029     36028     36032     36033
     36029     36028     36032     36034     36029     36028     36032     36035
     36030     36028     36032     36033     36030     36028     36032     36034
     36030     36028     36032     36035     36031     36028     36032     36033
     36031     36028     36032     36034     36031     36028     36032     36035
     36032     36035     36042     36038     36033     36032     36035     36036
     36033     36032     36035     36037     36033     36032     36035     36042
     36034     36032     36035     36036     36034     36032     36035     36037
     36034     36032     36035     36042     36035     36042     36038     36039
     36035     36042     36038     36040     36035     36042     36038     36041
     36036     36035     36042     36038     36037     36035     36042     36038
     36038     36041     36043     36044     36038     36041     36043     36045
     36038     36041     36043     36046     36039     36038     36041     36043
     36040     36038     36041     36043     36041     36043     36046     36047
     36041     36043     36046     36048     36041     36043     36046     36054
     36042     36038     36041     36043     36043     36046     36048     36049
     36043     36046     36054     36055     36043     36046     36054     36056
     36043     36046     36054     36057     36044     36043     36046     36047
     36044     36043     36046     36048     36044     36043     36046     36054
     36045     36043     36046     36047     36045     36043     36046     36048
     36045     36043     36046     36054     36046     36048     36049     36050
     36046     36048     36049     36051     36046     36054     36057     36058
     36047     36046     36048     36049     36047     36046     36054     36055
     36047     36046     36054     36056     36047     36046     36054     36057
     36048     36046     36054     36055     36048     36046     36054     36056
     36048     36046     36054     36057     36048     36049     36051     36052
     36048     36049     36051     36053     36048     36049     36051     36063
     36049     36048     36046     36054     36049     36051     36063     36064
     36049     36051     36063     36065     36049     36051     36063     36066
     36050     36049     36051     36052     36050     36049     36051     36053
     36050     36049     36051     36063     36051     36063     36066     36067
     36051     36063     36066     36068     36051     36063     36066     36069
     36052     36051     36063     36064     36052     36051     36063     36065
     36052     36051     36063     36066     36053     36051     36063     36064
     36053     36051     36063     36065     36053     36051     36063     36066
     36054     36057     36058     36059     36054     36057     36058     36060
     36055     36054     36057     36058     36056     36054     36057     36058
     36057     36058     36060     36061     36057     36058     36060     36062
     36057     36058     36060     36104     36058     36060     36104     36105
     36058     36060     36104     36106     36058     36060     36104     36107
     36059     36058     36060     36061     36059     36058     36060     36062
     36059     36058     36060     36104     36060     36104     36107     36108
     36060     36104     36107     36109     36060     36104     36107     36110
     36061     36060     36104     36105     36061     36060     36104     36106
     36061     36060     36104     36107     36062     36060     36104     36105
     36062     36060     36104     36106     36062     36060     36104     36107
     36063     36066     36069     36070     36063     36066     36069     36071
     36063     36066     36069     36072     36064     36063     36066     36067
     36064     36063     36066     36068     36064     36063     36066     36069
     36065     36063     36066     36067     36065     36063     36066     36068
     36065     36063     36066     36069     36066     36069     36072     36073
     36066     36069     36072     36074     36066     36069     36072     36075
     36067     36066     36069     36070     36067     36066     36069     36071
     36067     36066     36069     36072     36068     36066     36069     36070
     36068     36066     36069     36071     36068     36066     36069     36072
     36069     36072     36075     36076     36069     36072     36075     36077
     36069     36072     36075     36078     36070     36069     36072     36073
     36070     36069     36072     36074     36070     36069     36072     36075
     36071     36069     36072     36073     36071     36069     36072     36074
     36071     36069     36072     36075     36072     36075     36078     36079
     36072     36075     36078     36080     36072     36075     36078     36081
     36073     36072     36075     36076     36073     36072     36075     36077
     36073     36072     36075     36078     36074     36072     36075     36076
     36074     36072     36075     36077     36074     36072     36075     36078
     36075     36078     36081     36082     36075     36078     36081     36083
     36076     36075     36078     36079     36076     36075     36078     36080
     36076     36075     36078     36081     36077     36075     36078     36079
     36077     36075     36078     36080     36077     36075     36078     36081
     36078     36081     36083     36084     36078     36081     36083     36085
     36079     36078     36081     36082     36079     36078     36081     36083
     36080     36078     36081     36082     36080     36078     36081     36083
     36081     36083     36085     36086     36081     36083     36085     36087
     36081     36083     36085     36088     36082     36081     36083     36084
     36082     36081     36083     36085     36083     36085     36088     36089
     36083     36085     36088     36090     36083     36085     36088     36091
     36084     36083     36085     36086     36084     36083     36085     36087
     36084     36083     36085     36088     36085     36088     36091     36092
     36085     36088     36091     36093     36085     36088     36091     36094
     36086     36085     36088     36089     36086     36085     36088     36090
     36086     36085     36088     36091     36087     36085     36088     36089
     36087     36085     36088     36090     36087     36085     36088     36091
     36088     36091     36094     36095     36088     36091     36094     36096
     36088     36091     36094     36097     36089     36088     36091     36092
     36089     36088     36091     36093     36089     36088     36091     36094
     36090     36088     36091     36092     36090     36088     36091     36093
     36090     36088     36091     36094     36091     36094     36097     36098
     36091     36094     36097     36099     36091     36094     36097     36100
     36092     36091     36094     36095     36092     36091     36094     36096
     36092     36091     36094     36097     36093     36091     36094     36095
     36093     36091     36094     36096     36093     36091     36094     36097
     36094     36097     36100     36101     36094     36097     36100     36102
     36094     36097     36100     36103     36095     36094     36097     36098
     36095     36094     36097     36099     36095     36094     36097     36100
     36096     36094     36097     36098     36096     36094     36097     36099
     36096     36094     36097     36100     36098     36097     36100     36101
     36098     36097     36100     36102     36098     36097     36100     36103
     36099     36097     36100     36101     36099     36097     36100     36102
     36099     36097     36100     36103     36104     36107     36110     36111
     36104     36107     36110     36112     36104     36107     36110     36113
     36105     36104     36107     36108     36105     36104     36107     36109
     36105     36104     36107     36110     36106     36104     36107     36108
     36106     36104     36107     36109     36106     36104     36107     36110
     36107     36110     36113     36114     36107     36110     36113     36115
     36107     36110     36113     36116     36108     36107     36110     36111
     36108     36107     36110     36112     36108     36107     36110     36113
     36109     36107     36110     36111     36109     36107     36110     36112
     36109     36107     36110     36113     36110     36113     36116     36117
     36110     36113     36116     36118     36110     36113     36116     36119
     36111     36110     36113     36114     36111     36110     36113     36115
     36111     36110     36113     36116     36112     36110     36113     36114
     36112     36110     36113     36115     36112     36110     36113     36116
     36113     36116     36119     36120     36113     36116     36119     36121
     36113     36116     36119     36122     36114     36113     36116     36117
     36114     36113     36116     36118     36114     36113     36116     36119
     36115     36113     36116     36117     36115     36113     36116     36118
     36115     36113     36116     36119     36116     36119     36122     36123
     36116     36119     36122     36124     36117     36116     36119     36120
     36117     36116     36119     36121     36117     36116     36119     36122
     36118     36116     36119     36120     36118     36116     36119     36121
     36118     36116     36119     36122     36119     36122     36124     36125
     36119     36122     36124     36126     36120     36119     36122     36123
     36120     36119     36122     36124     36121     36119     36122     36123
     36121     36119     36122     36124     36122     36124     36126     36127
     36122     36124     36126     36128     36122     36124     36126     36129
     36123     36122     36124     36125     36123     36122     36124     36126
     36124     36126     36129     36130     36124     36126     36129     36131
     36124     36126     36129     36132     36125     36124     36126     36127
     36125     36124     36126     36128     36125     36124     36126     36129
     36126     36129     36132     36133     36126     36129     36132     36134
     36126     36129     36132     36135     36127     36126     36129     36130
     36127     36126     36129     36131     36127     36126     36129     36132
     36128     36126     36129     36130     36128     36126     36129     36131
     36128     36126     36129     36132     36129     36132     36135     36136
     36129     36132     36135     36137     36129     36132     36135     36138
     36130     36129     36132     36133     36130     36129     36132     36134
     36130     36129     36132     36135     36131     36129     36132     36133
     36131     36129     36132     36134     36131     36129     36132     36135
     36132     36135     36138     36139     36132     36135     36138     36140
     36132     36135     36138     36141     36133     36132     36135     36136
     36133     36132     36135     36137     36133     36132     36135     36138
     36134     36132     36135     36136     36134     36132     36135     36137
     36134     36132     36135     36138     36135     36138     36141     36142
     36135     36138     36141     36143     36135     36138     36141     36144
     36136     36135     36138     36139     36136     36135     36138     36140
     36136     36135     36138     36141     36137     36135     36138     36139
     36137     36135     36138     36140     36137     36135     36138     36141
     36138     36141     36144     36145     36138     36141     36144     36146
     36138     36141     36144     36147     36139     36138     36141     36142
     36139     36138     36141     36143     36139     36138     36141     36144
     36140     36138     36141     36142     36140     36138     36141     36143
     36140     36138     36141     36144     36141     36144     36147     36148
     36141     36144     36147     36149     36141     36144     36147     36150
     36142     36141     36144     36145     36142     36141     36144     36146
     36142     36141     36144     36147     36143     36141     36144     36145
     36143     36141     36144     36146     36143     36141     36144     36147
     36145     36144     36147     36148     36145     36144     36147     36149
     36145     36144     36147     36150     36146     36144     36147     36148
     36146     36144     36147     36149     36146     36144     36147     36150
     36151     36155     36158     36159     36151     36155     36158     36160
     36151     36155     36158     36165     36152     36151     36155     36156
     36152     36151     36155     36157     36152     36151     36155     36158
     36153     36151     36155     36156     36153     36151     36155     36157
     36153     36151     36155     36158     36154     36151     36155     36156
     36154     36151     36155     36157     36154     36151     36155     36158
     36155     36158     36165     36161     36156     36155     36158     36159
     36156     36155     36158     36160     36156     36155     36158     36165
     36157     36155     36158     36159     36157     36155     36158     36160
     36157     36155     36158     36165     36158     36165     36161     36162
     36158     36165     36161     36163     36158     36165     36161     36164
     36159     36158     36165     36161     36160     36158     36165     36161
     36161     36164     36166     36167     36161     36164     36166     36168
     36161     36164     36166     36169     36162     36161     36164     36166
     36163     36161     36164     36166     36164     36166     36169     36170
     36164     36166     36169     36171     36164     36166     36169     36177
     36165     36161     36164     36166     36166     36169     36171     36172
     36166     36169     36177     36178     36166     36169     36177     36179
     36166     36169     36177     36180     36167     36166     36169     36170
     36167     36166     36169     36171     36167     36166     36169     36177
     36168     36166     36169     36170     36168     36166     36169     36171
     36168     36166     36169     36177     36169     36171     36172     36173
     36169     36171     36172     36174     36169     36177     36180     36181
     36170     36169     36171     36172     36170     36169     36177     36178
     36170     36169     36177     36179     36170     36169     36177     36180
     36171     36169     36177     36178     36171     36169     36177     36179
     36171     36169     36177     36180     36171     36172     36174     36175
     36171     36172     36174     36176     36171     36172     36174     36186
     36172     36171     36169     36177     36172     36174     36186     36187
     36172     36174     36186     36188     36172     36174     36186     36189
     36173     36172     36174     36175     36173     36172     36174     36176
     36173     36172     36174     36186     36174     36186     36189     36190
     36174     36186     36189     36191     36174     36186     36189     36192
     36175     36174     36186     36187     36175     36174     36186     36188
     36175     36174     36186     36189     36176     36174     36186     36187
     36176     36174     36186     36188     36176     36174     36186     36189
     36177     36180     36181     36182     36177     36180     36181     36183
     36178     36177     36180     36181     36179     36177     36180     36181
     36180     36181     36183     36184     36180     36181     36183     36185
     36180     36181     36183     36230     36181     36183     36230     36231
     36181     36183     36230     36232     36181     36183     36230     36233
     36182     36181     36183     36184     36182     36181     36183     36185
     36182     36181     36183     36230     36183     36230     36233     36234
     36183     36230     36233     36235     36183     36230     36233     36236
     36184     36183     36230     36231     36184     36183     36230     36232
     36184     36183     36230     36233     36185     36183     36230     36231
     36185     36183     36230     36232     36185     36183     36230     36233
     36186     36189     36192     36193     36186     36189     36192     36194
     36186     36189     36192     36195     36187     36186     36189     36190
     36187     36186     36189     36191     36187     36186     36189     36192
     36188     36186     36189     36190     36188     36186     36189     36191
     36188     36186     36189     36192     36189     36192     36195     36196
     36189     36192     36195     36197     36189     36192     36195     36198
     36190     36189     36192     36193     36190     36189     36192     36194
     36190     36189     36192     36195     36191     36189     36192     36193
     36191     36189     36192     36194     36191     36189     36192     36195
     36192     36195     36198     36199     36192     36195     36198     36200
     36192     36195     36198     36201     36193     36192     36195     36196
     36193     36192     36195     36197     36193     36192     36195     36198
     36194     36192     36195     36196     36194     36192     36195     36197
     36194     36192     36195     36198     36195     36198     36201     36202
     36195     36198     36201     36203     36195     36198     36201     36204
     36196     36195     36198     36199     36196     36195     36198     36200
     36196     36195     36198     36201     36197     36195     36198     36199
     36197     36195     36198     36200     36197     36195     36198     36201
     36198     36201     36204     36205     36198     36201     36204     36206
     36198     36201     36204     36209     36199     36198     36201     36202
     36199     36198     36201     36203     36199     36198     36201     36204
     36200     36198     36201     36202     36200     36198     36201     36203
     36200     36198     36201     36204     36201     36204     36206     36207
     36201     36204     36206     36208     36201     36204     36206     36209
     36201     36204     36209     36206     36201     36204     36209     36210
     36201     36204     36209     36211     36202     36201     36204     36205
     36202     36201     36204     36206     36202     36201     36204     36209
     36203     36201     36204     36205     36203     36201     36204     36206
     36203     36201     36204     36209     36204     36206     36209     36210
     36204     36206     36209     36211     36204     36209     36206     36207
     36204     36209     36206     36208     36204     36209     36211     36212
     36204     36209     36211     36213     36204     36209     36211     36214
     36205     36204     36206     36207     36205     36204     36206     36208
     36205     36204     36206     36209     36205     36204     36209     36206
     36205     36204     36209     36210     36205     36204     36209     36211
     36206     36204     36209     36210     36206     36204     36209     36211
     36206     36209     36211     36212     36206     36209     36211     36213
     36206     36209     36211     36214     36207     36206     36204     36209
     36207     36206     36209     36210     36207     36206     36209     36211
     36208     36206     36204     36209     36208     36206     36209     36210
     36208     36206     36209     36211     36209     36211     36214     36215
     36209     36211     36214     36216     36209     36211     36214     36217
     36210     36209     36211     36212     36210     36209     36211     36213
     36210     36209     36211     36214     36211     36214     36217     36218
     36211     36214     36217     36219     36211     36214     36217     36220
     36212     36211     36214     36215     36212     36211     36214     36216
     36212     36211     36214     36217     36213     36211     36214     36215
     36213     36211     36214     36216     36213     36211     36214     36217
     36214     36217     36220     36221     36214     36217     36220     36222
     36214     36217     36220     36223     36215     36214     36217     36218
     36215     36214     36217     36219     36215     36214     36217     36220
     36216     36214     36217     36218     36216     36214     36217     36219
     36216     36214     36217     36220     36217     36220     36223     36224
     36217     36220     36223     36225     36217     36220     36223     36226
     36218     36217     36220     36221     36218     36217     36220     36222
     36218     36217     36220     36223     36219     36217     36220     36221
     36219     36217     36220     36222     36219     36217     36220     36223
     36220     36223     36226     36227     36220     36223     36226     36228
     36220     36223     36226     36229     36221     36220     36223     36224
     36221     36220     36223     36225     36221     36220     36223     36226
     36222     36220     36223     36224     36222     36220     36223     36225
     36222     36220     36223     36226     36224     36223     36226     36227
     36224     36223     36226     36228     36224     36223     36226     36229
     36225     36223     36226     36227     36225     36223     36226     36228
     36225     36223     36226     36229     36230     36233     36236     36237
     36230     36233     36236     36238     36230     36233     36236     36239
     36231     36230     36233     36234     36231     36230     36233     36235
     36231     36230     36233     36236     36232     36230     36233     36234
     36232     36230     36233     36235     36232     36230     36233     36236
     36233     36236     36239     36240     36233     36236     36239     36241
     36233     36236     36239     36242     36234     36233     36236     36237
     36234     36233     36236     36238     36234     36233     36236     36239
     36235     36233     36236     36237     36235     36233     36236     36238
     36235     36233     36236     36239     36236     36239     36242     36243
     36236     36239     36242     36244     36236     36239     36242     36245
     36237     36236     36239     36240     36237     36236     36239     36241
     36237     36236     36239     36242     36238     36236     36239     36240
     36238     36236     36239     36241     36238     36236     36239     36242
     36239     36242     36245     36246     36239     36242     36245     36247
     36239     36242     36245     36248     36240     36239     36242     36243
     36240     36239     36242     36244     36240     36239     36242     36245
     36241     36239     36242     36243     36241     36239     36242     36244
     36241     36239     36242     36245     36242     36245     36248     36249
     36242     36245     36248     36250     36242     36245     36248     36251
     36243     36242     36245     36246     36243     36242     36245     36247
     36243     36242     36245     36248     36244     36242     36245     36246
     36244     36242     36245     36247     36244     36242     36245     36248
     36245     36248     36251     36252     36245     36248     36251     36253
     36245     36248     36251     36254     36246     36245     36248     36249
     36246     36245     36248     36250     36246     36245     36248     36251
     36247     36245     36248     36249     36247     36245     36248     36250
     36247     36245     36248     36251     36248     36251     36254     36255
     36248     36251     36254     36256     36248     36251     36254     36257
     36249     36248     36251     36252     36249     36248     36251     36253
     36249     36248     36251     36254     36250     36248     36251     36252
     36250     36248     36251     36253     36250     36248     36251     36254
     36251     36254     36257     36258     36251     36254     36257     36259
     36251     36254     36257     36260     36252     36251     36254     36255
     36252     36251     36254     36256     36252     36251     36254     36257
     36253     36251     36254     36255     36253     36251     36254     36256
     36253     36251     36254     36257     36254     36257     36260     36261
     36254     36257     36260     36262     36254     36257     36260     36263
     36255     36254     36257     36258     36255     36254     36257     36259
     36255     36254     36257     36260     36256     36254     36257     36258
     36256     36254     36257     36259     36256     36254     36257     36260
     36257     36260     36263     36264     36257     36260     36263     36265
     36257     36260     36263     36266     36258     36257     36260     36261
     36258     36257     36260     36262     36258     36257     36260     36263
     36259     36257     36260     36261     36259     36257     36260     36262
     36259     36257     36260     36263     36260     36263     36266     36267
     36260     36263     36266     36268     36260     36263     36266     36269
     36261     36260     36263     36264     36261     36260     36263     36265
     36261     36260     36263     36266     36262     36260     36263     36264
     36262     36260     36263     36265     36262     36260     36263     36266
     36263     36266     36269     36270     36263     36266     36269     36271
     36263     36266     36269     36272     36264     36263     36266     36267
     36264     36263     36266     36268     36264     36263     36266     36269
     36265     36263     36266     36267     36265     36263     36266     36268
     36265     36263     36266     36269     36267     36266     36269     36270
     36267     36266     36269     36271     36267     36266     36269     36272
     36268     36266     36269     36270     36268     36266     36269     36271
     36268     36266     36269     36272     36273     36277     36280     36281
     36273     36277     36280     36282     36273     36277     36280     36287
     36274     36273     36277     36278     36274     36273     36277     36279
     36274     36273     36277     36280     36275     36273     36277     36278
     36275     36273     36277     36279     36275     36273     36277     36280
     36276     36273     36277     36278     36276     36273     36277     36279
     36276     36273     36277     36280     36277     36280     36287     36283
     36278     36277     36280     36281     36278     36277     36280     36282
     36278     36277     36280     36287     36279     36277     36280     36281
     36279     36277     36280     36282     36279     36277     36280     36287
     36280     36287     36283     36284     36280     36287     36283     36285
     36280     36287     36283     36286     36281     36280     36287     36283
     36282     36280     36287     36283     36283     36286     36288     36289
     36283     36286     36288     36290     36283     36286     36288     36291
     36284     36283     36286     36288     36285     36283     36286     36288
     36286     36288     36291     36292     36286     36288     36291     36293
     36286     36288     36291     36299     36287     36283     36286     36288
     36288     36291     36293     36294     36288     36291     36299     36300
     36288     36291     36299     36301     36288     36291     36299     36302
     36289     36288     36291     36292     36289     36288     36291     36293
     36289     36288     36291     36299     36290     36288     36291     36292
     36290     36288     36291     36293     36290     36288     36291     36299
     36291     36293     36294     36295     36291     36293     36294     36296
     36291     36299     36302     36303     36292     36291     36293     36294
     36292     36291     36299     36300     36292     36291     36299     36301
     36292     36291     36299     36302     36293     36291     36299     36300
     36293     36291     36299     36301     36293     36291     36299     36302
     36293     36294     36296     36297     36293     36294     36296     36298
     36293     36294     36296     36308     36294     36293     36291     36299
     36294     36296     36308     36309     36294     36296     36308     36310
     36294     36296     36308     36311     36295     36294     36296     36297
     36295     36294     36296     36298     36295     36294     36296     36308
     36296     36308     36311     36312     36296     36308     36311     36313
     36296     36308     36311     36314     36297     36296     36308     36309
     36297     36296     36308     36310     36297     36296     36308     36311
     36298     36296     36308     36309     36298     36296     36308     36310
     36298     36296     36308     36311     36299     36302     36303     36304
     36299     36302     36303     36305     36300     36299     36302     36303
     36301     36299     36302     36303     36302     36303     36305     36306
     36302     36303     36305     36307     36302     36303     36305     36352
     36303     36305     36352     36353     36303     36305     36352     36354
     36303     36305     36352     36355     36304     36303     36305     36306
     36304     36303     36305     36307     36304     36303     36305     36352
     36305     36352     36355     36356     36305     36352     36355     36357
     36305     36352     36355     36358     36306     36305     36352     36353
     36306     36305     36352     36354     36306     36305     36352     36355
     36307     36305     36352     36353     36307     36305     36352     36354
     36307     36305     36352     36355     36308     36311     36314     36315
     36308     36311     36314     36316     36308     36311     36314     36317
     36309     36308     36311     36312     36309     36308     36311     36313
     36309     36308     36311     36314     36310     36308     36311     36312
     36310     36308     36311     36313     36310     36308     36311     36314
     36311     36314     36317     36318     36311     36314     36317     36319
     36311     36314     36317     36320     36312     36311     36314     36315
     36312     36311     36314     36316     36312     36311     36314     36317
     36313     36311     36314     36315     36313     36311     36314     36316
     36313     36311     36314     36317     36314     36317     36320     36321
     36314     36317     36320     36322     36314     36317     36320     36323
     36315     36314     36317     36318     36315     36314     36317     36319
     36315     36314     36317     36320     36316     36314     36317     36318
     36316     36314     36317     36319     36316     36314     36317     36320
     36317     36320     36323     36324     36317     36320     36323     36325
     36317     36320     36323     36326     36318     36317     36320     36321
     36318     36317     36320     36322     36318     36317     36320     36323
     36319     36317     36320     36321     36319     36317     36320     36322
     36319     36317     36320     36323     36320     36323     36326     36327
     36320     36323     36326     36328     36320     36323     36326     36331
     36321     36320     36323     36324     36321     36320     36323     36325
     36321     36320     36323     36326     36322     36320     36323     36324
     36322     36320     36323     36325     36322     36320     36323     36326
     36323     36326     36328     36329     36323     36326     36328     36330
     36323     36326     36328     36331     36323     36326     36331     36328
     36323     36326     36331     36332     36323     36326     36331     36333
     36324     36323     36326     36327     36324     36323     36326     36328
     36324     36323     36326     36331     36325     36323     36326     36327
     36325     36323     36326     36328     36325     36323     36326     36331
     36326     36328     36331     36332     36326     36328     36331     36333
     36326     36331     36328     36329     36326     36331     36328     36330
     36326     36331     36333     36334     36326     36331     36333     36335
     36326     36331     36333     36336     36327     36326     36328     36329
     36327     36326     36328     36330     36327     36326     36328     36331
     36327     36326     36331     36328     36327     36326     36331     36332
     36327     36326     36331     36333     36328     36326     36331     36332
     36328     36326     36331     36333     36328     36331     36333     36334
     36328     36331     36333     36335     36328     36331     36333     36336
     36329     36328     36326     36331     36329     36328     36331     36332
     36329     36328     36331     36333     36330     36328     36326     36331
     36330     36328     36331     36332     36330     36328     36331     36333
     36331     36333     36336     36337     36331     36333     36336     36338
     36331     36333     36336     36339     36332     36331     36333     36334
     36332     36331     36333     36335     36332     36331     36333     36336
     36333     36336     36339     36340     36333     36336     36339     36341
     36333     36336     36339     36342     36334     36333     36336     36337
     36334     36333     36336     36338     36334     36333     36336     36339
     36335     36333     36336     36337     36335     36333     36336     36338
     36335     36333     36336     36339     36336     36339     36342     36343
     36336     36339     36342     36344     36336     36339     36342     36345
     36337     36336     36339     36340     36337     36336     36339     36341
     36337     36336     36339     36342     36338     36336     36339     36340
     36338     36336     36339     36341     36338     36336     36339     36342
     36339     36342     36345     36346     36339     36342     36345     36347
     36339     36342     36345     36348     36340     36339     36342     36343
     36340     36339     36342     36344     36340     36339     36342     36345
     36341     36339     36342     36343     36341     36339     36342     36344
     36341     36339     36342     36345     36342     36345     36348     36349
     36342     36345     36348     36350     36342     36345     36348     36351
     36343     36342     36345     36346     36343     36342     36345     36347
     36343     36342     36345     36348     36344     36342     36345     36346
     36344     36342     36345     36347     36344     36342     36345     36348
     36346     36345     36348     36349     36346     36345     36348     36350
     36346     36345     36348     36351     36347     36345     36348     36349
     36347     36345     36348     36350     36347     36345     36348     36351
     36352     36355     36358     36359     36352     36355     36358     36360
     36352     36355     36358     36361     36353     36352     36355     36356
     36353     36352     36355     36357     36353     36352     36355     36358
     36354     36352     36355     36356     36354     36352     36355     36357
     36354     36352     36355     36358     36355     36358     36361     36362
     36355     36358     36361     36363     36355     36358     36361     36364
     36356     36355     36358     36359     36356     36355     36358     36360
     36356     36355     36358     36361     36357     36355     36358     36359
     36357     36355     36358     36360     36357     36355     36358     36361
     36358     36361     36364     36365     36358     36361     36364     36366
     36358     36361     36364     36367     36359     36358     36361     36362
     36359     36358     36361     36363     36359     36358     36361     36364
     36360     36358     36361     36362     36360     36358     36361     36363
     36360     36358     36361     36364     36361     36364     36367     36368
     36361     36364     36367     36369     36361     36364     36367     36370
     36362     36361     36364     36365     36362     36361     36364     36366
     36362     36361     36364     36367     36363     36361     36364     36365
     36363     36361     36364     36366     36363     36361     36364     36367
     36364     36367     36370     36371     36364     36367     36370     36372
     36364     36367     36370     36373     36365     36364     36367     36368
     36365     36364     36367     36369     36365     36364     36367     36370
     36366     36364     36367     36368     36366     36364     36367     36369
     36366     36364     36367     36370     36367     36370     36373     36374
     36367     36370     36373     36375     36367     36370     36373     36376
     36368     36367     36370     36371     36368     36367     36370     36372
     36368     36367     36370     36373     36369     36367     36370     36371
     36369     36367     36370     36372     36369     36367     36370     36373
     36370     36373     36376     36377     36370     36373     36376     36378
     36370     36373     36376     36379     36371     36370     36373     36374
     36371     36370     36373     36375     36371     36370     36373     36376
     36372     36370     36373     36374     36372     36370     36373     36375
     36372     36370     36373     36376     36373     36376     36379     36380
     36373     36376     36379     36381     36373     36376     36379     36382
     36374     36373     36376     36377     36374     36373     36376     36378
     36374     36373     36376     36379     36375     36373     36376     36377
     36375     36373     36376     36378     36375     36373     36376     36379
     36376     36379     36382     36383     36376     36379     36382     36384
     36376     36379     36382     36385     36377     36376     36379     36380
     36377     36376     36379     36381     36377     36376     36379     36382
     36378     36376     36379     36380     36378     36376     36379     36381
     36378     36376     36379     36382     36379     36382     36385     36386
     36379     36382     36385     36387     36379     36382     36385     36388
     36380     36379     36382     36383     36380     36379     36382     36384
     36380     36379     36382     36385     36381     36379     36382     36383
     36381     36379     36382     36384     36381     36379     36382     36385
     36382     36385     36388     36389     36382     36385     36388     36390
     36382     36385     36388     36391     36383     36382     36385     36386
     36383     36382     36385     36387     36383     36382     36385     36388
     36384     36382     36385     36386     36384     36382     36385     36387
     36384     36382     36385     36388     36386     36385     36388     36389
     36386     36385     36388     36390     36386     36385     36388     36391
     36387     36385     36388     36389     36387     36385     36388     36390
     36387     36385     36388     36391     36392     36396     36399     36400
     36392     36396     36399     36401     36392     36396     36399     36406
     36393     36392     36396     36397     36393     36392     36396     36398
     36393     36392     36396     36399     36394     36392     36396     36397
     36394     36392     36396     36398     36394     36392     36396     36399
     36395     36392     36396     36397     36395     36392     36396     36398
     36395     36392     36396     36399     36396     36399     36406     36402
     36397     36396     36399     36400     36397     36396     36399     36401
     36397     36396     36399     36406     36398     36396     36399     36400
     36398     36396     36399     36401     36398     36396     36399     36406
     36399     36406     36402     36403     36399     36406     36402     36404
     36399     36406     36402     36405     36400     36399     36406     36402
     36401     36399     36406     36402     36402     36405     36407     36408
     36402     36405     36407     36409     36402     36405     36407     36410
     36403     36402     36405     36407     36404     36402     36405     36407
     36405     36407     36410     36411     36405     36407     36410     36412
     36405     36407     36410     36418     36406     36402     36405     36407
     36407     36410     36412     36413     36407     36410     36418     36419
     36407     36410     36418     36420     36407     36410     36418     36421
     36408     36407     36410     36411     36408     36407     36410     36412
     36408     36407     36410     36418     36409     36407     36410     36411
     36409     36407     36410     36412     36409     36407     36410     36418
     36410     36412     36413     36414     36410     36412     36413     36415
     36410     36418     36421     36422     36411     36410     36412     36413
     36411     36410     36418     36419     36411     36410     36418     36420
     36411     36410     36418     36421     36412     36410     36418     36419
     36412     36410     36418     36420     36412     36410     36418     36421
     36412     36413     36415     36416     36412     36413     36415     36417
     36412     36413     36415     36427     36413     36412     36410     36418
     36413     36415     36427     36428     36413     36415     36427     36429
     36413     36415     36427     36430     36414     36413     36415     36416
     36414     36413     36415     36417     36414     36413     36415     36427
     36415     36427     36430     36431     36415     36427     36430     36432
     36415     36427     36430     36433     36416     36415     36427     36428
     36416     36415     36427     36429     36416     36415     36427     36430
     36417     36415     36427     36428     36417     36415     36427     36429
     36417     36415     36427     36430     36418     36421     36422     36423
     36418     36421     36422     36424     36419     36418     36421     36422
     36420     36418     36421     36422     36421     36422     36424     36425
     36421     36422     36424     36426     36421     36422     36424     36474
     36422     36424     36474     36475     36422     36424     36474     36476
     36422     36424     36474     36477     36423     36422     36424     36425
     36423     36422     36424     36426     36423     36422     36424     36474
     36424     36474     36477     36478     36424     36474     36477     36479
     36424     36474     36477     36480     36425     36424     36474     36475
     36425     36424     36474     36476     36425     36424     36474     36477
     36426     36424     36474     36475     36426     36424     36474     36476
     36426     36424     36474     36477     36427     36430     36433     36434
     36427     36430     36433     36435     36427     36430     36433     36436
     36428     36427     36430     36431     36428     36427     36430     36432
     36428     36427     36430     36433     36429     36427     36430     36431
     36429     36427     36430     36432     36429     36427     36430     36433
     36430     36433     36436     36437     36430     36433     36436     36438
     36430     36433     36436     36439     36431     36430     36433     36434
     36431     36430     36433     36435     36431     36430     36433     36436
     36432     36430     36433     36434     36432     36430     36433     36435
     36432     36430     36433     36436     36433     36436     36439     36440
     36433     36436     36439     36441     36433     36436     36439     36442
     36434     36433     36436     36437     36434     36433     36436     36438
     36434     36433     36436     36439     36435     36433     36436     36437
     36435     36433     36436     36438     36435     36433     36436     36439
     36436     36439     36442     36443     36436     36439     36442     36444
     36436     36439     36442     36445     36437     36436     36439     36440
     36437     36436     36439     36441     36437     36436     36439     36442
     36438     36436     36439     36440     36438     36436     36439     36441
     36438     36436     36439     36442     36439     36442     36445     36446
     36439     36442     36445     36447     36440     36439     36442     36443
     36440     36439     36442     36444     36440     36439     36442     36445
     36441     36439     36442     36443     36441     36439     36442     36444
     36441     36439     36442     36445     36442     36445     36447     36448
     36442     36445     36447     36449     36443     36442     36445     36446
     36443     36442     36445     36447     36444     36442     36445     36446
     36444     36442     36445     36447     36445     36447     36449     36450
     36445     36447     36449     36451     36445     36447     36449     36452
     36446     36445     36447     36448     36446     36445     36447     36449
     36447     36449     36452     36453     36447     36449     36452     36454
     36447     36449     36452     36455     36448     36447     36449     36450
     36448     36447     36449     36451     36448     36447     36449     36452
     36449     36452     36455     36456     36449     36452     36455     36457
     36449     36452     36455     36458     36450     36449     36452     36453
     36450     36449     36452     36454     36450     36449     36452     36455
     36451     36449     36452     36453     36451     36449     36452     36454
     36451     36449     36452     36455     36452     36455     36458     36459
     36452     36455     36458     36460     36452     36455     36458     36461
     36453     36452     36455     36456     36453     36452     36455     36457
     36453     36452     36455     36458     36454     36452     36455     36456
     36454     36452     36455     36457     36454     36452     36455     36458
     36455     36458     36461     36462     36455     36458     36461     36463
     36455     36458     36461     36464     36456     36455     36458     36459
     36456     36455     36458     36460     36456     36455     36458     36461
     36457     36455     36458     36459     36457     36455     36458     36460
     36457     36455     36458     36461     36458     36461     36464     36465
     36458     36461     36464     36466     36458     36461     36464     36467
     36459     36458     36461     36462     36459     36458     36461     36463
     36459     36458     36461     36464     36460     36458     36461     36462
     36460     36458     36461     36463     36460     36458     36461     36464
     36461     36464     36467     36468     36461     36464     36467     36469
     36461     36464     36467     36470     36462     36461     36464     36465
     36462     36461     36464     36466     36462     36461     36464     36467
     36463     36461     36464     36465     36463     36461     36464     36466
     36463     36461     36464     36467     36464     36467     36470     36471
     36464     36467     36470     36472     36464     36467     36470     36473
     36465     36464     36467     36468     36465     36464     36467     36469
     36465     36464     36467     36470     36466     36464     36467     36468
     36466     36464     36467     36469     36466     36464     36467     36470
     36468     36467     36470     36471     36468     36467     36470     36472
     36468     36467     36470     36473     36469     36467     36470     36471
     36469     36467     36470     36472     36469     36467     36470     36473
     36474     36477     36480     36481     36474     36477     36480     36482
     36474     36477     36480     36483     36475     36474     36477     36478
     36475     36474     36477     36479     36475     36474     36477     36480
     36476     36474     36477     36478     36476     36474     36477     36479
     36476     36474     36477     36480     36477     36480     36483     36484
     36477     36480     36483     36485     36477     36480     36483     36486
     36478     36477     36480     36481     36478     36477     36480     36482
     36478     36477     36480     36483     36479     36477     36480     36481
     36479     36477     36480     36482     36479     36477     36480     36483
     36480     36483     36486     36487     36480     36483     36486     36488
     36480     36483     36486     36489     36481     36480     36483     36484
     36481     36480     36483     36485     36481     36480     36483     36486
     36482     36480     36483     36484     36482     36480     36483     36485
     36482     36480     36483     36486     36483     36486     36489     36490
     36483     36486     36489     36491     36483     36486     36489     36492
     36484     36483     36486     36487     36484     36483     36486     36488
     36484     36483     36486     36489     36485     36483     36486     36487
     36485     36483     36486     36488     36485     36483     36486     36489
     36486     36489     36492     36493     36486     36489     36492     36494
     36486     36489     36492     36495     36487     36486     36489     36490
     36487     36486     36489     36491     36487     36486     36489     36492
     36488     36486     36489     36490     36488     36486     36489     36491
     36488     36486     36489     36492     36489     36492     36495     36496
     36489     36492     36495     36497     36489     36492     36495     36498
     36490     36489     36492     36493     36490     36489     36492     36494
     36490     36489     36492     36495     36491     36489     36492     36493
     36491     36489     36492     36494     36491     36489     36492     36495
     36492     36495     36498     36499     36492     36495     36498     36500
     36492     36495     36498     36501     36493     36492     36495     36496
     36493     36492     36495     36497     36493     36492     36495     36498
     36494     36492     36495     36496     36494     36492     36495     36497
     36494     36492     36495     36498     36495     36498     36501     36502
     36495     36498     36501     36503     36495     36498     36501     36504
     36496     36495     36498     36499     36496     36495     36498     36500
     36496     36495     36498     36501     36497     36495     36498     36499
     36497     36495     36498     36500     36497     36495     36498     36501
     36498     36501     36504     36505     36498     36501     36504     36506
     36498     36501     36504     36507     36499     36498     36501     36502
     36499     36498     36501     36503     36499     36498     36501     36504
     36500     36498     36501     36502     36500     36498     36501     36503
     36500     36498     36501     36504     36501     36504     36507     36508
     36501     36504     36507     36509     36501     36504     36507     36510
     36502     36501     36504     36505     36502     36501     36504     36506
     36502     36501     36504     36507     36503     36501     36504     36505
     36503     36501     36504     36506     36503     36501     36504     36507
     36504     36507     36510     36511     36504     36507     36510     36512
     36504     36507     36510     36513     36505     36504     36507     36508
     36505     36504     36507     36509     36505     36504     36507     36510
     36506     36504     36507     36508     36506     36504     36507     36509
     36506     36504     36507     36510     36507     36510     36513     36514
     36507     36510     36513     36515     36507     36510     36513     36516
     36508     36507     36510     36511     36508     36507     36510     36512
     36508     36507     36510     36513     36509     36507     36510     36511
     36509     36507     36510     36512     36509     36507     36510     36513
     36511     36510     36513     36514     36511     36510     36513     36515
     36511     36510     36513     36516     36512     36510     36513     36514
     36512     36510     36513     36515     36512     36510     36513     36516
     36517     36522     36524     36525     36517     36522     36526     36527
     36517     36522     36526     36528     36517     36522     36526     36533
     36518     36517     36520     36521     36518     36517     36522     36523
     36518     36517     36522     36524     36518     36517     36522     36526
     36519     36517     36520     36521     36519     36517     36522     36523
     36519     36517     36522     36524     36519     36517     36522     36526
     36520     36517     36522     36523     36520     36517     36522     36524
     36520     36517     36522     36526     36521     36520     36517     36522
     36522     36526     36533     36529     36523     36522     36524     36525
     36523     36522     36526     36527     36523     36522     36526     36528
     36523     36522     36526     36533     36524     36522     36526     36527
     36524     36522     36526     36528     36524     36522     36526     36533
     36525     36524     36522     36526     36526     36533     36529     36530
     36526     36533     36529     36531     36526     36533     36529     36532
     36527     36526     36533     36529     36528     36526     36533     36529
     36529     36532     36534     36535     36529     36532     36534     36536
     36529     36532     36534     36537     36530     36529     36532     36534
     36531     36529     36532     36534     36532     36534     36537     36538
     36532     36534     36537     36539     36532     36534     36537     36545
     36533     36529     36532     36534     36534     36537     36539     36540
     36534     36537     36545     36546     36534     36537     36545     36547
     36534     36537     36545     36548     36535     36534     36537     36538
     36535     36534     36537     36539     36535     36534     36537     36545
     36536     36534     36537     36538     36536     36534     36537     36539
     36536     36534     36537     36545     36537     36539     36540     36541
     36537     36539     36540     36542     36537     36545     36548     36549
     36538     36537     36539     36540     36538     36537     36545     36546
     36538     36537     36545     36547     36538     36537     36545     36548
     36539     36537     36545     36546     36539     36537     36545     36547
     36539     36537     36545     36548     36539     36540     36542     36543
     36539     36540     36542     36544     36539     36540     36542     36554
     36540     36539     36537     36545     36540     36542     36554     36555
     36540     36542     36554     36556     36540     36542     36554     36557
     36541     36540     36542     36543     36541     36540     36542     36544
     36541     36540     36542     36554     36542     36554     36557     36558
     36542     36554     36557     36559     36542     36554     36557     36560
     36543     36542     36554     36555     36543     36542     36554     36556
     36543     36542     36554     36557     36544     36542     36554     36555
     36544     36542     36554     36556     36544     36542     36554     36557
     36545     36548     36549     36550     36545     36548     36549     36551
     36546     36545     36548     36549     36547     36545     36548     36549
     36548     36549     36551     36552     36548     36549     36551     36553
     36548     36549     36551     36598     36549     36551     36598     36599
     36549     36551     36598     36600     36549     36551     36598     36601
     36550     36549     36551     36552     36550     36549     36551     36553
     36550     36549     36551     36598     36551     36598     36601     36602
     36551     36598     36601     36603     36551     36598     36601     36604
     36552     36551     36598     36599     36552     36551     36598     36600
     36552     36551     36598     36601     36553     36551     36598     36599
     36553     36551     36598     36600     36553     36551     36598     36601
     36554     36557     36560     36561     36554     36557     36560     36562
     36554     36557     36560     36563     36555     36554     36557     36558
     36555     36554     36557     36559     36555     36554     36557     36560
     36556     36554     36557     36558     36556     36554     36557     36559
     36556     36554     36557     36560     36557     36560     36563     36564
     36557     36560     36563     36565     36557     36560     36563     36566
     36558     36557     36560     36561     36558     36557     36560     36562
     36558     36557     36560     36563     36559     36557     36560     36561
     36559     36557     36560     36562     36559     36557     36560     36563
     36560     36563     36566     36567     36560     36563     36566     36568
     36560     36563     36566     36569     36561     36560     36563     36564
     36561     36560     36563     36565     36561     36560     36563     36566
     36562     36560     36563     36564     36562     36560     36563     36565
     36562     36560     36563     36566     36563     36566     36569     36570
     36563     36566     36569     36571     36563     36566     36569     36572
     36564     36563     36566     36567     36564     36563     36566     36568
     36564     36563     36566     36569     36565     36563     36566     36567
     36565     36563     36566     36568     36565     36563     36566     36569
     36566     36569     36572     36573     36566     36569     36572     36574
     36566     36569     36572     36577     36567     36566     36569     36570
     36567     36566     36569     36571     36567     36566     36569     36572
     36568     36566     36569     36570     36568     36566     36569     36571
     36568     36566     36569     36572     36569     36572     36574     36575
     36569     36572     36574     36576     36569     36572     36574     36577
     36569     36572     36577     36574     36569     36572     36577     36578
     36569     36572     36577     36579     36570     36569     36572     36573
     36570     36569     36572     36574     36570     36569     36572     36577
     36571     36569     36572     36573     36571     36569     36572     36574
     36571     36569     36572     36577     36572     36574     36577     36578
     36572     36574     36577     36579     36572     36577     36574     36575
     36572     36577     36574     36576     36572     36577     36579     36580
     36572     36577     36579     36581     36572     36577     36579     36582
     36573     36572     36574     36575     36573     36572     36574     36576
     36573     36572     36574     36577     36573     36572     36577     36574
     36573     36572     36577     36578     36573     36572     36577     36579
     36574     36572     36577     36578     36574     36572     36577     36579
     36574     36577     36579     36580     36574     36577     36579     36581
     36574     36577     36579     36582     36575     36574     36572     36577
     36575     36574     36577     36578     36575     36574     36577     36579
     36576     36574     36572     36577     36576     36574     36577     36578
     36576     36574     36577     36579     36577     36579     36582     36583
     36577     36579     36582     36584     36577     36579     36582     36585
     36578     36577     36579     36580     36578     36577     36579     36581
     36578     36577     36579     36582     36579     36582     36585     36586
     36579     36582     36585     36587     36579     36582     36585     36588
     36580     36579     36582     36583     36580     36579     36582     36584
     36580     36579     36582     36585     36581     36579     36582     36583
     36581     36579     36582     36584     36581     36579     36582     36585
     36582     36585     36588     36589     36582     36585     36588     36590
     36582     36585     36588     36591     36583     36582     36585     36586
     36583     36582     36585     36587     36583     36582     36585     36588
     36584     36582     36585     36586     36584     36582     36585     36587
     36584     36582     36585     36588     36585     36588     36591     36592
     36585     36588     36591     36593     36585     36588     36591     36594
     36586     36585     36588     36589     36586     36585     36588     36590
     36586     36585     36588     36591     36587     36585     36588     36589
     36587     36585     36588     36590     36587     36585     36588     36591
     36588     36591     36594     36595     36588     36591     36594     36596
     36588     36591     36594     36597     36589     36588     36591     36592
     36589     36588     36591     36593     36589     36588     36591     36594
     36590     36588     36591     36592     36590     36588     36591     36593
     36590     36588     36591     36594     36592     36591     36594     36595
     36592     36591     36594     36596     36592     36591     36594     36597
     36593     36591     36594     36595     36593     36591     36594     36596
     36593     36591     36594     36597     36598     36601     36604     36605
     36598     36601     36604     36606     36598     36601     36604     36607
     36599     36598     36601     36602     36599     36598     36601     36603
     36599     36598     36601     36604     36600     36598     36601     36602
     36600     36598     36601     36603     36600     36598     36601     36604
     36601     36604     36607     36608     36601     36604     36607     36609
     36601     36604     36607     36610     36602     36601     36604     36605
     36602     36601     36604     36606     36602     36601     36604     36607
     36603     36601     36604     36605     36603     36601     36604     36606
     36603     36601     36604     36607     36604     36607     36610     36611
     36604     36607     36610     36612     36604     36607     36610     36613
     36605     36604     36607     36608     36605     36604     36607     36609
     36605     36604     36607     36610     36606     36604     36607     36608
     36606     36604     36607     36609     36606     36604     36607     36610
     36607     36610     36613     36614     36607     36610     36613     36615
     36607     36610     36613     36616     36608     36607     36610     36611
     36608     36607     36610     36612     36608     36607     36610     36613
     36609     36607     36610     36611     36609     36607     36610     36612
     36609     36607     36610     36613     36610     36613     36616     36617
     36610     36613     36616     36618     36610     36613     36616     36619
     36611     36610     36613     36614     36611     36610     36613     36615
     36611     36610     36613     36616     36612     36610     36613     36614
     36612     36610     36613     36615     36612     36610     36613     36616
     36613     36616     36619     36620     36613     36616     36619     36621
     36613     36616     36619     36622     36614     36613     36616     36617
     36614     36613     36616     36618     36614     36613     36616     36619
     36615     36613     36616     36617     36615     36613     36616     36618
     36615     36613     36616     36619     36616     36619     36622     36623
     36616     36619     36622     36624     36616     36619     36622     36625
     36617     36616     36619     36620     36617     36616     36619     36621
     36617     36616     36619     36622     36618     36616     36619     36620
     36618     36616     36619     36621     36618     36616     36619     36622
     36619     36622     36625     36626     36619     36622     36625     36627
     36619     36622     36625     36628     36620     36619     36622     36623
     36620     36619     36622     36624     36620     36619     36622     36625
     36621     36619     36622     36623     36621     36619     36622     36624
     36621     36619     36622     36625     36622     36625     36628     36629
     36622     36625     36628     36630     36622     36625     36628     36631
     36623     36622     36625     36626     36623     36622     36625     36627
     36623     36622     36625     36628     36624     36622     36625     36626
     36624     36622     36625     36627     36624     36622     36625     36628
     36625     36628     36631     36632     36625     36628     36631     36633
     36625     36628     36631     36634     36626     36625     36628     36629
     36626     36625     36628     36630     36626     36625     36628     36631
     36627     36625     36628     36629     36627     36625     36628     36630
     36627     36625     36628     36631     36628     36631     36634     36635
     36628     36631     36634     36636     36628     36631     36634     36637
     36629     36628     36631     36632     36629     36628     36631     36633
     36629     36628     36631     36634     36630     36628     36631     36632
     36630     36628     36631     36633     36630     36628     36631     36634
     36631     36634     36637     36638     36631     36634     36637     36639
     36631     36634     36637     36640     36632     36631     36634     36635
     36632     36631     36634     36636     36632     36631     36634     36637
     36633     36631     36634     36635     36633     36631     36634     36636
     36633     36631     36634     36637     36635     36634     36637     36638
     36635     36634     36637     36639     36635     36634     36637     36640
     36636     36634     36637     36638     36636     36634     36637     36639
     36636     36634     36637     36640     36641     36645     36648     36649
     36641     36645     36648     36650     36641     36645     36648     36655
     36642     36641     36645     36646     36642     36641     36645     36647
     36642     36641     36645     36648     36643     36641     36645     36646
     36643     36641     36645     36647     36643     36641     36645     36648
     36644     36641     36645     36646     36644     36641     36645     36647
     36644     36641     36645     36648     36645     36648     36655     36651
     36646     36645     36648     36649     36646     36645     36648     36650
     36646     36645     36648     36655     36647     36645     36648     36649
     36647     36645     36648     36650     36647     36645     36648     36655
     36648     36655     36651     36652     36648     36655     36651     36653
     36648     36655     36651     36654     36649     36648     36655     36651
     36650     36648     36655     36651     36651     36654     36656     36657
     36651     36654     36656     36658     36651     36654     36656     36659
     36652     36651     36654     36656     36653     36651     36654     36656
     36654     36656     36659     36660     36654     36656     36659     36661
     36654     36656     36659     36667     36655     36651     36654     36656
     36656     36659     36661     36662     36656     36659     36667     36668
     36656     36659     36667     36669     36656     36659     36667     36670
     36657     36656     36659     36660     36657     36656     36659     36661
     36657     36656     36659     36667     36658     36656     36659     36660
     36658     36656     36659     36661     36658     36656     36659     36667
     36659     36661     36662     36663     36659     36661     36662     36664
     36659     36667     36670     36671     36660     36659     36661     36662
     36660     36659     36667     36668     36660     36659     36667     36669
     36660     36659     36667     36670     36661     36659     36667     36668
     36661     36659     36667     36669     36661     36659     36667     36670
     36661     36662     36664     36665     36661     36662     36664     36666
     36661     36662     36664     36676     36662     36661     36659     36667
     36662     36664     36676     36677     36662     36664     36676     36678
     36662     36664     36676     36679     36663     36662     36664     36665
     36663     36662     36664     36666     36663     36662     36664     36676
     36664     36676     36679     36680     36664     36676     36679     36681
     36664     36676     36679     36682     36665     36664     36676     36677
     36665     36664     36676     36678     36665     36664     36676     36679
     36666     36664     36676     36677     36666     36664     36676     36678
     36666     36664     36676     36679     36667     36670     36671     36672
     36667     36670     36671     36673     36668     36667     36670     36671
     36669     36667     36670     36671     36670     36671     36673     36674
     36670     36671     36673     36675     36670     36671     36673     36720
     36671     36673     36720     36721     36671     36673     36720     36722
     36671     36673     36720     36723     36672     36671     36673     36674
     36672     36671     36673     36675     36672     36671     36673     36720
     36673     36720     36723     36724     36673     36720     36723     36725
     36673     36720     36723     36726     36674     36673     36720     36721
     36674     36673     36720     36722     36674     36673     36720     36723
     36675     36673     36720     36721     36675     36673     36720     36722
     36675     36673     36720     36723     36676     36679     36682     36683
     36676     36679     36682     36684     36676     36679     36682     36685
     36677     36676     36679     36680     36677     36676     36679     36681
     36677     36676     36679     36682     36678     36676     36679     36680
     36678     36676     36679     36681     36678     36676     36679     36682
     36679     36682     36685     36686     36679     36682     36685     36687
     36679     36682     36685     36688     36680     36679     36682     36683
     36680     36679     36682     36684     36680     36679     36682     36685
     36681     36679     36682     36683     36681     36679     36682     36684
     36681     36679     36682     36685     36682     36685     36688     36689
     36682     36685     36688     36690     36682     36685     36688     36691
     36683     36682     36685     36686     36683     36682     36685     36687
     36683     36682     36685     36688     36684     36682     36685     36686
     36684     36682     36685     36687     36684     36682     36685     36688
     36685     36688     36691     36692     36685     36688     36691     36693
     36685     36688     36691     36694     36686     36685     36688     36689
     36686     36685     36688     36690     36686     36685     36688     36691
     36687     36685     36688     36689     36687     36685     36688     36690
     36687     36685     36688     36691     36688     36691     36694     36695
     36688     36691     36694     36696     36688     36691     36694     36699
     36689     36688     36691     36692     36689     36688     36691     36693
     36689     36688     36691     36694     36690     36688     36691     36692
     36690     36688     36691     36693     36690     36688     36691     36694
     36691     36694     36696     36697     36691     36694     36696     36698
     36691     36694     36696     36699     36691     36694     36699     36696
     36691     36694     36699     36700     36691     36694     36699     36701
     36692     36691     36694     36695     36692     36691     36694     36696
     36692     36691     36694     36699     36693     36691     36694     36695
     36693     36691     36694     36696     36693     36691     36694     36699
     36694     36696     36699     36700     36694     36696     36699     36701
     36694     36699     36696     36697     36694     36699     36696     36698
     36694     36699     36701     36702     36694     36699     36701     36703
     36694     36699     36701     36704     36695     36694     36696     36697
     36695     36694     36696     36698     36695     36694     36696     36699
     36695     36694     36699     36696     36695     36694     36699     36700
     36695     36694     36699     36701     36696     36694     36699     36700
     36696     36694     36699     36701     36696     36699     36701     36702
     36696     36699     36701     36703     36696     36699     36701     36704
     36697     36696     36694     36699     36697     36696     36699     36700
     36697     36696     36699     36701     36698     36696     36694     36699
     36698     36696     36699     36700     36698     36696     36699     36701
     36699     36701     36704     36705     36699     36701     36704     36706
     36699     36701     36704     36707     36700     36699     36701     36702
     36700     36699     36701     36703     36700     36699     36701     36704
     36701     36704     36707     36708     36701     36704     36707     36709
     36701     36704     36707     36710     36702     36701     36704     36705
     36702     36701     36704     36706     36702     36701     36704     36707
     36703     36701     36704     36705     36703     36701     36704     36706
     36703     36701     36704     36707     36704     36707     36710     36711
     36704     36707     36710     36712     36704     36707     36710     36713
     36705     36704     36707     36708     36705     36704     36707     36709
     36705     36704     36707     36710     36706     36704     36707     36708
     36706     36704     36707     36709     36706     36704     36707     36710
     36707     36710     36713     36714     36707     36710     36713     36715
     36707     36710     36713     36716     36708     36707     36710     36711
     36708     36707     36710     36712     36708     36707     36710     36713
     36709     36707     36710     36711     36709     36707     36710     36712
     36709     36707     36710     36713     36710     36713     36716     36717
     36710     36713     36716     36718     36710     36713     36716     36719
     36711     36710     36713     36714     36711     36710     36713     36715
     36711     36710     36713     36716     36712     36710     36713     36714
     36712     36710     36713     36715     36712     36710     36713     36716
     36714     36713     36716     36717     36714     36713     36716     36718
     36714     36713     36716     36719     36715     36713     36716     36717
     36715     36713     36716     36718     36715     36713     36716     36719
     36720     36723     36726     36727     36720     36723     36726     36728
     36720     36723     36726     36729     36721     36720     36723     36724
     36721     36720     36723     36725     36721     36720     36723     36726
     36722     36720     36723     36724     36722     36720     36723     36725
     36722     36720     36723     36726     36723     36726     36729     36730
     36723     36726     36729     36731     36723     36726     36729     36732
     36724     36723     36726     36727     36724     36723     36726     36728
     36724     36723     36726     36729     36725     36723     36726     36727
     36725     36723     36726     36728     36725     36723     36726     36729
     36726     36729     36732     36733     36726     36729     36732     36734
     36726     36729     36732     36735     36727     36726     36729     36730
     36727     36726     36729     36731     36727     36726     36729     36732
     36728     36726     36729     36730     36728     36726     36729     36731
     36728     36726     36729     36732     36729     36732     36735     36736
     36729     36732     36735     36737     36729     36732     36735     36738
     36730     36729     36732     36733     36730     36729     36732     36734
     36730     36729     36732     36735     36731     36729     36732     36733
     36731     36729     36732     36734     36731     36729     36732     36735
     36732     36735     36738     36739     36732     36735     36738     36740
     36732     36735     36738     36741     36733     36732     36735     36736
     36733     36732     36735     36737     36733     36732     36735     36738
     36734     36732     36735     36736     36734     36732     36735     36737
     36734     36732     36735     36738     36735     36738     36741     36742
     36735     36738     36741     36743     36735     36738     36741     36744
     36736     36735     36738     36739     36736     36735     36738     36740
     36736     36735     36738     36741     36737     36735     36738     36739
     36737     36735     36738     36740     36737     36735     36738     36741
     36738     36741     36744     36745     36738     36741     36744     36746
     36738     36741     36744     36747     36739     36738     36741     36742
     36739     36738     36741     36743     36739     36738     36741     36744
     36740     36738     36741     36742     36740     36738     36741     36743
     36740     36738     36741     36744     36741     36744     36747     36748
     36741     36744     36747     36749     36741     36744     36747     36750
     36742     36741     36744     36745     36742     36741     36744     36746
     36742     36741     36744     36747     36743     36741     36744     36745
     36743     36741     36744     36746     36743     36741     36744     36747
     36744     36747     36750     36751     36744     36747     36750     36752
     36744     36747     36750     36753     36745     36744     36747     36748
     36745     36744     36747     36749     36745     36744     36747     36750
     36746     36744     36747     36748     36746     36744     36747     36749
     36746     36744     36747     36750     36747     36750     36753     36754
     36747     36750     36753     36755     36747     36750     36753     36756
     36748     36747     36750     36751     36748     36747     36750     36752
     36748     36747     36750     36753     36749     36747     36750     36751
     36749     36747     36750     36752     36749     36747     36750     36753
     36750     36753     36756     36757     36750     36753     36756     36758
     36750     36753     36756     36759     36751     36750     36753     36754
     36751     36750     36753     36755     36751     36750     36753     36756
     36752     36750     36753     36754     36752     36750     36753     36755
     36752     36750     36753     36756     36753     36756     36759     36760
     36753     36756     36759     36761     36753     36756     36759     36762
     36754     36753     36756     36757     36754     36753     36756     36758
     36754     36753     36756     36759     36755     36753     36756     36757
     36755     36753     36756     36758     36755     36753     36756     36759
     36757     36756     36759     36760     36757     36756     36759     36761
     36757     36756     36759     36762     36758     36756     36759     36760
     36758     36756     36759     36761     36758     36756     36759     36762
     36763     36767     36770     36771     36763     36767     36770     36772
     36763     36767     36770     36777     36764     36763     36767     36768
     36764     36763     36767     36769     36764     36763     36767     36770
     36765     36763     36767     36768     36765     36763     36767     36769
     36765     36763     36767     36770     36766     36763     36767     36768
     36766     36763     36767     36769     36766     36763     36767     36770
     36767     36770     36777     36773     36768     36767     36770     36771
     36768     36767     36770     36772     36768     36767     36770     36777
     36769     36767     36770     36771     36769     36767     36770     36772
     36769     36767     36770     36777     36770     36777     36773     36774
     36770     36777     36773     36775     36770     36777     36773     36776
     36771     36770     36777     36773     36772     36770     36777     36773
     36773     36776     36778     36779     36773     36776     36778     36780
     36773     36776     36778     36781     36774     36773     36776     36778
     36775     36773     36776     36778     36776     36778     36781     36782
     36776     36778     36781     36783     36776     36778     36781     36789
     36777     36773     36776     36778     36778     36781     36783     36784
     36778     36781     36789     36790     36778     36781     36789     36791
     36778     36781     36789     36792     36779     36778     36781     36782
     36779     36778     36781     36783     36779     36778     36781     36789
     36780     36778     36781     36782     36780     36778     36781     36783
     36780     36778     36781     36789     36781     36783     36784     36785
     36781     36783     36784     36786     36781     36789     36792     36793
     36782     36781     36783     36784     36782     36781     36789     36790
     36782     36781     36789     36791     36782     36781     36789     36792
     36783     36781     36789     36790     36783     36781     36789     36791
     36783     36781     36789     36792     36783     36784     36786     36787
     36783     36784     36786     36788     36783     36784     36786     36798
     36784     36783     36781     36789     36784     36786     36798     36799
     36784     36786     36798     36800     36784     36786     36798     36801
     36785     36784     36786     36787     36785     36784     36786     36788
     36785     36784     36786     36798     36786     36798     36801     36802
     36786     36798     36801     36803     36786     36798     36801     36804
     36787     36786     36798     36799     36787     36786     36798     36800
     36787     36786     36798     36801     36788     36786     36798     36799
     36788     36786     36798     36800     36788     36786     36798     36801
     36789     36792     36793     36794     36789     36792     36793     36795
     36790     36789     36792     36793     36791     36789     36792     36793
     36792     36793     36795     36796     36792     36793     36795     36797
     36792     36793     36795     36842     36793     36795     36842     36843
     36793     36795     36842     36844     36793     36795     36842     36845
     36794     36793     36795     36796     36794     36793     36795     36797
     36794     36793     36795     36842     36795     36842     36845     36846
     36795     36842     36845     36847     36795     36842     36845     36848
     36796     36795     36842     36843     36796     36795     36842     36844
     36796     36795     36842     36845     36797     36795     36842     36843
     36797     36795     36842     36844     36797     36795     36842     36845
     36798     36801     36804     36805     36798     36801     36804     36806
     36798     36801     36804     36807     36799     36798     36801     36802
     36799     36798     36801     36803     36799     36798     36801     36804
     36800     36798     36801     36802     36800     36798     36801     36803
     36800     36798     36801     36804     36801     36804     36807     36808
     36801     36804     36807     36809     36801     36804     36807     36810
     36802     36801     36804     36805     36802     36801     36804     36806
     36802     36801     36804     36807     36803     36801     36804     36805
     36803     36801     36804     36806     36803     36801     36804     36807
     36804     36807     36810     36811     36804     36807     36810     36812
     36804     36807     36810     36813     36805     36804     36807     36808
     36805     36804     36807     36809     36805     36804     36807     36810
     36806     36804     36807     36808     36806     36804     36807     36809
     36806     36804     36807     36810     36807     36810     36813     36814
     36807     36810     36813     36815     36807     36810     36813     36816
     36808     36807     36810     36811     36808     36807     36810     36812
     36808     36807     36810     36813     36809     36807     36810     36811
     36809     36807     36810     36812     36809     36807     36810     36813
     36810     36813     36816     36817     36810     36813     36816     36818
     36810     36813     36816     36821     36811     36810     36813     36814
     36811     36810     36813     36815     36811     36810     36813     36816
     36812     36810     36813     36814     36812     36810     36813     36815
     36812     36810     36813     36816     36813     36816     36818     36819
     36813     36816     36818     36820     36813     36816     36818     36821
     36813     36816     36821     36818     36813     36816     36821     36822
     36813     36816     36821     36823     36814     36813     36816     36817
     36814     36813     36816     36818     36814     36813     36816     36821
     36815     36813     36816     36817     36815     36813     36816     36818
     36815     36813     36816     36821     36816     36818     36821     36822
     36816     36818     36821     36823     36816     36821     36818     36819
     36816     36821     36818     36820     36816     36821     36823     36824
     36816     36821     36823     36825     36816     36821     36823     36826
     36817     36816     36818     36819     36817     36816     36818     36820
     36817     36816     36818     36821     36817     36816     36821     36818
     36817     36816     36821     36822     36817     36816     36821     36823
     36818     36816     36821     36822     36818     36816     36821     36823
     36818     36821     36823     36824     36818     36821     36823     36825
     36818     36821     36823     36826     36819     36818     36816     36821
     36819     36818     36821     36822     36819     36818     36821     36823
     36820     36818     36816     36821     36820     36818     36821     36822
     36820     36818     36821     36823     36821     36823     36826     36827
     36821     36823     36826     36828     36821     36823     36826     36829
     36822     36821     36823     36824     36822     36821     36823     36825
     36822     36821     36823     36826     36823     36826     36829     36830
     36823     36826     36829     36831     36823     36826     36829     36832
     36824     36823     36826     36827     36824     36823     36826     36828
     36824     36823     36826     36829     36825     36823     36826     36827
     36825     36823     36826     36828     36825     36823     36826     36829
     36826     36829     36832     36833     36826     36829     36832     36834
     36826     36829     36832     36835     36827     36826     36829     36830
     36827     36826     36829     36831     36827     36826     36829     36832
     36828     36826     36829     36830     36828     36826     36829     36831
     36828     36826     36829     36832     36829     36832     36835     36836
     36829     36832     36835     36837     36829     36832     36835     36838
     36830     36829     36832     36833     36830     36829     36832     36834
     36830     36829     36832     36835     36831     36829     36832     36833
     36831     36829     36832     36834     36831     36829     36832     36835
     36832     36835     36838     36839     36832     36835     36838     36840
     36832     36835     36838     36841     36833     36832     36835     36836
     36833     36832     36835     36837     36833     36832     36835     36838
     36834     36832     36835     36836     36834     36832     36835     36837
     36834     36832     36835     36838     36836     36835     36838     36839
     36836     36835     36838     36840     36836     36835     36838     36841
     36837     36835     36838     36839     36837     36835     36838     36840
     36837     36835     36838     36841     36842     36845     36848     36849
     36842     36845     36848     36850     36842     36845     36848     36851
     36843     36842     36845     36846     36843     36842     36845     36847
     36843     36842     36845     36848     36844     36842     36845     36846
     36844     36842     36845     36847     36844     36842     36845     36848
     36845     36848     36851     36852     36845     36848     36851     36853
     36845     36848     36851     36854     36846     36845     36848     36849
     36846     36845     36848     36850     36846     36845     36848     36851
     36847     36845     36848     36849     36847     36845     36848     36850
     36847     36845     36848     36851     36848     36851     36854     36855
     36848     36851     36854     36856     36848     36851     36854     36857
     36849     36848     36851     36852     36849     36848     36851     36853
     36849     36848     36851     36854     36850     36848     36851     36852
     36850     36848     36851     36853     36850     36848     36851     36854
     36851     36854     36857     36858     36851     36854     36857     36859
     36851     36854     36857     36860     36852     36851     36854     36855
     36852     36851     36854     36856     36852     36851     36854     36857
     36853     36851     36854     36855     36853     36851     36854     36856
     36853     36851     36854     36857     36854     36857     36860     36861
     36854     36857     36860     36862     36854     36857     36860     36863
     36855     36854     36857     36858     36855     36854     36857     36859
     36855     36854     36857     36860     36856     36854     36857     36858
     36856     36854     36857     36859     36856     36854     36857     36860
     36857     36860     36863     36864     36857     36860     36863     36865
     36857     36860     36863     36866     36858     36857     36860     36861
     36858     36857     36860     36862     36858     36857     36860     36863
     36859     36857     36860     36861     36859     36857     36860     36862
     36859     36857     36860     36863     36860     36863     36866     36867
     36860     36863     36866     36868     36860     36863     36866     36869
     36861     36860     36863     36864     36861     36860     36863     36865
     36861     36860     36863     36866     36862     36860     36863     36864
     36862     36860     36863     36865     36862     36860     36863     36866
     36863     36866     36869     36870     36863     36866     36869     36871
     36863     36866     36869     36872     36864     36863     36866     36867
     36864     36863     36866     36868     36864     36863     36866     36869
     36865     36863     36866     36867     36865     36863     36866     36868
     36865     36863     36866     36869     36866     36869     36872     36873
     36866     36869     36872     36874     36866     36869     36872     36875
     36867     36866     36869     36870     36867     36866     36869     36871
     36867     36866     36869     36872     36868     36866     36869     36870
     36868     36866     36869     36871     36868     36866     36869     36872
     36869     36872     36875     36876     36869     36872     36875     36877
     36869     36872     36875     36878     36870     36869     36872     36873
     36870     36869     36872     36874     36870     36869     36872     36875
     36871     36869     36872     36873     36871     36869     36872     36874
     36871     36869     36872     36875     36872     36875     36878     36879
     36872     36875     36878     36880     36872     36875     36878     36881
     36873     36872     36875     36876     36873     36872     36875     36877
     36873     36872     36875     36878     36874     36872     36875     36876
     36874     36872     36875     36877     36874     36872     36875     36878
     36875     36878     36881     36882     36875     36878     36881     36883
     36875     36878     36881     36884     36876     36875     36878     36879
     36876     36875     36878     36880     36876     36875     36878     36881
     36877     36875     36878     36879     36877     36875     36878     36880
     36877     36875     36878     36881     36879     36878     36881     36882
     36879     36878     36881     36883     36879     36878     36881     36884
     36880     36878     36881     36882     36880     36878     36881     36883
     36880     36878     36881     36884     36885     36889     36892     36893
     36885     36889     36892     36894     36885     36889     36892     36899
     36886     36885     36889     36890     36886     36885     36889     36891
     36886     36885     36889     36892     36887     36885     36889     36890
     36887     36885     36889     36891     36887     36885     36889     36892
     36888     36885     36889     36890     36888     36885     36889     36891
     36888     36885     36889     36892     36889     36892     36899     36895
     36890     36889     36892     36893     36890     36889     36892     36894
     36890     36889     36892     36899     36891     36889     36892     36893
     36891     36889     36892     36894     36891     36889     36892     36899
     36892     36899     36895     36896     36892     36899     36895     36897
     36892     36899     36895     36898     36893     36892     36899     36895
     36894     36892     36899     36895     36895     36898     36900     36901
     36895     36898     36900     36902     36895     36898     36900     36903
     36896     36895     36898     36900     36897     36895     36898     36900
     36898     36900     36903     36904     36898     36900     36903     36905
     36898     36900     36903     36911     36899     36895     36898     36900
     36900     36903     36905     36906     36900     36903     36911     36912
     36900     36903     36911     36913     36900     36903     36911     36914
     36901     36900     36903     36904     36901     36900     36903     36905
     36901     36900     36903     36911     36902     36900     36903     36904
     36902     36900     36903     36905     36902     36900     36903     36911
     36903     36905     36906     36907     36903     36905     36906     36908
     36903     36911     36914     36915     36904     36903     36905     36906
     36904     36903     36911     36912     36904     36903     36911     36913
     36904     36903     36911     36914     36905     36903     36911     36912
     36905     36903     36911     36913     36905     36903     36911     36914
     36905     36906     36908     36909     36905     36906     36908     36910
     36905     36906     36908     36920     36906     36905     36903     36911
     36906     36908     36920     36921     36906     36908     36920     36922
     36906     36908     36920     36923     36907     36906     36908     36909
     36907     36906     36908     36910     36907     36906     36908     36920
     36908     36920     36923     36924     36908     36920     36923     36925
     36908     36920     36923     36926     36909     36908     36920     36921
     36909     36908     36920     36922     36909     36908     36920     36923
     36910     36908     36920     36921     36910     36908     36920     36922
     36910     36908     36920     36923     36911     36914     36915     36916
     36911     36914     36915     36917     36912     36911     36914     36915
     36913     36911     36914     36915     36914     36915     36917     36918
     36914     36915     36917     36919     36914     36915     36917     36964
     36915     36917     36964     36965     36915     36917     36964     36966
     36915     36917     36964     36967     36916     36915     36917     36918
     36916     36915     36917     36919     36916     36915     36917     36964
     36917     36964     36967     36968     36917     36964     36967     36969
     36917     36964     36967     36970     36918     36917     36964     36965
     36918     36917     36964     36966     36918     36917     36964     36967
     36919     36917     36964     36965     36919     36917     36964     36966
     36919     36917     36964     36967     36920     36923     36926     36927
     36920     36923     36926     36928     36920     36923     36926     36929
     36921     36920     36923     36924     36921     36920     36923     36925
     36921     36920     36923     36926     36922     36920     36923     36924
     36922     36920     36923     36925     36922     36920     36923     36926
     36923     36926     36929     36930     36923     36926     36929     36931
     36923     36926     36929     36932     36924     36923     36926     36927
     36924     36923     36926     36928     36924     36923     36926     36929
     36925     36923     36926     36927     36925     36923     36926     36928
     36925     36923     36926     36929     36926     36929     36932     36933
     36926     36929     36932     36934     36926     36929     36932     36935
     36927     36926     36929     36930     36927     36926     36929     36931
     36927     36926     36929     36932     36928     36926     36929     36930
     36928     36926     36929     36931     36928     36926     36929     36932
     36929     36932     36935     36936     36929     36932     36935     36937
     36929     36932     36935     36938     36930     36929     36932     36933
     36930     36929     36932     36934     36930     36929     36932     36935
     36931     36929     36932     36933     36931     36929     36932     36934
     36931     36929     36932     36935     36932     36935     36938     36939
     36932     36935     36938     36940     36932     36935     36938     36943
     36933     36932     36935     36936     36933     36932     36935     36937
     36933     36932     36935     36938     36934     36932     36935     36936
     36934     36932     36935     36937     36934     36932     36935     36938
     36935     36938     36940     36941     36935     36938     36940     36942
     36935     36938     36940     36943     36935     36938     36943     36940
     36935     36938     36943     36944     36935     36938     36943     36945
     36936     36935     36938     36939     36936     36935     36938     36940
     36936     36935     36938     36943     36937     36935     36938     36939
     36937     36935     36938     36940     36937     36935     36938     36943
     36938     36940     36943     36944     36938     36940     36943     36945
     36938     36943     36940     36941     36938     36943     36940     36942
     36938     36943     36945     36946     36938     36943     36945     36947
     36938     36943     36945     36948     36939     36938     36940     36941
     36939     36938     36940     36942     36939     36938     36940     36943
     36939     36938     36943     36940     36939     36938     36943     36944
     36939     36938     36943     36945     36940     36938     36943     36944
     36940     36938     36943     36945     36940     36943     36945     36946
     36940     36943     36945     36947     36940     36943     36945     36948
     36941     36940     36938     36943     36941     36940     36943     36944
     36941     36940     36943     36945     36942     36940     36938     36943
     36942     36940     36943     36944     36942     36940     36943     36945
     36943     36945     36948     36949     36943     36945     36948     36950
     36943     36945     36948     36951     36944     36943     36945     36946
     36944     36943     36945     36947     36944     36943     36945     36948
     36945     36948     36951     36952     36945     36948     36951     36953
     36945     36948     36951     36954     36946     36945     36948     36949
     36946     36945     36948     36950     36946     36945     36948     36951
     36947     36945     36948     36949     36947     36945     36948     36950
     36947     36945     36948     36951     36948     36951     36954     36955
     36948     36951     36954     36956     36948     36951     36954     36957
     36949     36948     36951     36952     36949     36948     36951     36953
     36949     36948     36951     36954     36950     36948     36951     36952
     36950     36948     36951     36953     36950     36948     36951     36954
     36951     36954     36957     36958     36951     36954     36957     36959
     36951     36954     36957     36960     36952     36951     36954     36955
     36952     36951     36954     36956     36952     36951     36954     36957
     36953     36951     36954     36955     36953     36951     36954     36956
     36953     36951     36954     36957     36954     36957     36960     36961
     36954     36957     36960     36962     36954     36957     36960     36963
     36955     36954     36957     36958     36955     36954     36957     36959
     36955     36954     36957     36960     36956     36954     36957     36958
     36956     36954     36957     36959     36956     36954     36957     36960
     36958     36957     36960     36961     36958     36957     36960     36962
     36958     36957     36960     36963     36959     36957     36960     36961
     36959     36957     36960     36962     36959     36957     36960     36963
     36964     36967     36970     36971     36964     36967     36970     36972
     36964     36967     36970     36973     36965     36964     36967     36968
     36965     36964     36967     36969     36965     36964     36967     36970
     36966     36964     36967     36968     36966     36964     36967     36969
     36966     36964     36967     36970     36967     36970     36973     36974
     36967     36970     36973     36975     36967     36970     36973     36976
     36968     36967     36970     36971     36968     36967     36970     36972
     36968     36967     36970     36973     36969     36967     36970     36971
     36969     36967     36970     36972     36969     36967     36970     36973
     36970     36973     36976     36977     36970     36973     36976     36978
     36970     36973     36976     36979     36971     36970     36973     36974
     36971     36970     36973     36975     36971     36970     36973     36976
     36972     36970     36973     36974     36972     36970     36973     36975
     36972     36970     36973     36976     36973     36976     36979     36980
     36973     36976     36979     36981     36973     36976     36979     36982
     36974     36973     36976     36977     36974     36973     36976     36978
     36974     36973     36976     36979     36975     36973     36976     36977
     36975     36973     36976     36978     36975     36973     36976     36979
     36976     36979     36982     36983     36976     36979     36982     36984
     36976     36979     36982     36985     36977     36976     36979     36980
     36977     36976     36979     36981     36977     36976     36979     36982
     36978     36976     36979     36980     36978     36976     36979     36981
     36978     36976     36979     36982     36979     36982     36985     36986
     36979     36982     36985     36987     36979     36982     36985     36988
     36980     36979     36982     36983     36980     36979     36982     36984
     36980     36979     36982     36985     36981     36979     36982     36983
     36981     36979     36982     36984     36981     36979     36982     36985
     36982     36985     36988     36989     36982     36985     36988     36990
     36982     36985     36988     36991     36983     36982     36985     36986
     36983     36982     36985     36987     36983     36982     36985     36988
     36984     36982     36985     36986     36984     36982     36985     36987
     36984     36982     36985     36988     36985     36988     36991     36992
     36985     36988     36991     36993     36985     36988     36991     36994
     36986     36985     36988     36989     36986     36985     36988     36990
     36986     36985     36988     36991     36987     36985     36988     36989
     36987     36985     36988     36990     36987     36985     36988     36991
     36988     36991     36994     36995     36988     36991     36994     36996
     36988     36991     36994     36997     36989     36988     36991     36992
     36989     36988     36991     36993     36989     36988     36991     36994
     36990     36988     36991     36992     36990     36988     36991     36993
     36990     36988     36991     36994     36991     36994     36997     36998
     36991     36994     36997     36999     36991     36994     36997     37000
     36992     36991     36994     36995     36992     36991     36994     36996
     36992     36991     36994     36997     36993     36991     36994     36995
     36993     36991     36994     36996     36993     36991     36994     36997
     36994     36997     37000     37001     36994     36997     37000     37002
     36994     36997     37000     37003     36995     36994     36997     36998
     36995     36994     36997     36999     36995     36994     36997     37000
     36996     36994     36997     36998     36996     36994     36997     36999
     36996     36994     36997     37000     36997     37000     37003     37004
     36997     37000     37003     37005     36997     37000     37003     37006
     36998     36997     37000     37001     36998     36997     37000     37002
     36998     36997     37000     37003     36999     36997     37000     37001
     36999     36997     37000     37002     36999     36997     37000     37003
     37001     37000     37003     37004     37001     37000     37003     37005
     37001     37000     37003     37006     37002     37000     37003     37004
     37002     37000     37003     37005     37002     37000     37003     37006
     37007     37011     37014     37015     37007     37011     37014     37016
     37007     37011     37014     37021     37008     37007     37011     37012
     37008     37007     37011     37013     37008     37007     37011     37014
     37009     37007     37011     37012     37009     37007     37011     37013
     37009     37007     37011     37014     37010     37007     37011     37012
     37010     37007     37011     37013     37010     37007     37011     37014
     37011     37014     37021     37017     37012     37011     37014     37015
     37012     37011     37014     37016     37012     37011     37014     37021
     37013     37011     37014     37015     37013     37011     37014     37016
     37013     37011     37014     37021     37014     37021     37017     37018
     37014     37021     37017     37019     37014     37021     37017     37020
     37015     37014     37021     37017     37016     37014     37021     37017
     37017     37020     37022     37023     37017     37020     37022     37024
     37017     37020     37022     37025     37018     37017     37020     37022
     37019     37017     37020     37022     37020     37022     37025     37026
     37020     37022     37025     37027     37020     37022     37025     37033
     37021     37017     37020     37022     37022     37025     37027     37028
     37022     37025     37033     37034     37022     37025     37033     37035
     37022     37025     37033     37036     37023     37022     37025     37026
     37023     37022     37025     37027     37023     37022     37025     37033
     37024     37022     37025     37026     37024     37022     37025     37027
     37024     37022     37025     37033     37025     37027     37028     37029
     37025     37027     37028     37030     37025     37033     37036     37037
     37026     37025     37027     37028     37026     37025     37033     37034
     37026     37025     37033     37035     37026     37025     37033     37036
     37027     37025     37033     37034     37027     37025     37033     37035
     37027     37025     37033     37036     37027     37028     37030     37031
     37027     37028     37030     37032     37027     37028     37030     37042
     37028     37027     37025     37033     37028     37030     37042     37043
     37028     37030     37042     37044     37028     37030     37042     37045
     37029     37028     37030     37031     37029     37028     37030     37032
     37029     37028     37030     37042     37030     37042     37045     37046
     37030     37042     37045     37047     37030     37042     37045     37048
     37031     37030     37042     37043     37031     37030     37042     37044
     37031     37030     37042     37045     37032     37030     37042     37043
     37032     37030     37042     37044     37032     37030     37042     37045
     37033     37036     37037     37038     37033     37036     37037     37039
     37034     37033     37036     37037     37035     37033     37036     37037
     37036     37037     37039     37040     37036     37037     37039     37041
     37036     37037     37039     37086     37037     37039     37086     37087
     37037     37039     37086     37088     37037     37039     37086     37089
     37038     37037     37039     37040     37038     37037     37039     37041
     37038     37037     37039     37086     37039     37086     37089     37090
     37039     37086     37089     37091     37039     37086     37089     37092
     37040     37039     37086     37087     37040     37039     37086     37088
     37040     37039     37086     37089     37041     37039     37086     37087
     37041     37039     37086     37088     37041     37039     37086     37089
     37042     37045     37048     37049     37042     37045     37048     37050
     37042     37045     37048     37051     37043     37042     37045     37046
     37043     37042     37045     37047     37043     37042     37045     37048
     37044     37042     37045     37046     37044     37042     37045     37047
     37044     37042     37045     37048     37045     37048     37051     37052
     37045     37048     37051     37053     37045     37048     37051     37054
     37046     37045     37048     37049     37046     37045     37048     37050
     37046     37045     37048     37051     37047     37045     37048     37049
     37047     37045     37048     37050     37047     37045     37048     37051
     37048     37051     37054     37055     37048     37051     37054     37056
     37048     37051     37054     37057     37049     37048     37051     37052
     37049     37048     37051     37053     37049     37048     37051     37054
     37050     37048     37051     37052     37050     37048     37051     37053
     37050     37048     37051     37054     37051     37054     37057     37058
     37051     37054     37057     37059     37051     37054     37057     37060
     37052     37051     37054     37055     37052     37051     37054     37056
     37052     37051     37054     37057     37053     37051     37054     37055
     37053     37051     37054     37056     37053     37051     37054     37057
     37054     37057     37060     37061     37054     37057     37060     37062
     37054     37057     37060     37065     37055     37054     37057     37058
     37055     37054     37057     37059     37055     37054     37057     37060
     37056     37054     37057     37058     37056     37054     37057     37059
     37056     37054     37057     37060     37057     37060     37062     37063
     37057     37060     37062     37064     37057     37060     37062     37065
     37057     37060     37065     37062     37057     37060     37065     37066
     37057     37060     37065     37067     37058     37057     37060     37061
     37058     37057     37060     37062     37058     37057     37060     37065
     37059     37057     37060     37061     37059     37057     37060     37062
     37059     37057     37060     37065     37060     37062     37065     37066
     37060     37062     37065     37067     37060     37065     37062     37063
     37060     37065     37062     37064     37060     37065     37067     37068
     37060     37065     37067     37069     37060     37065     37067     37070
     37061     37060     37062     37063     37061     37060     37062     37064
     37061     37060     37062     37065     37061     37060     37065     37062
     37061     37060     37065     37066     37061     37060     37065     37067
     37062     37060     37065     37066     37062     37060     37065     37067
     37062     37065     37067     37068     37062     37065     37067     37069
     37062     37065     37067     37070     37063     37062     37060     37065
     37063     37062     37065     37066     37063     37062     37065     37067
     37064     37062     37060     37065     37064     37062     37065     37066
     37064     37062     37065     37067     37065     37067     37070     37071
     37065     37067     37070     37072     37065     37067     37070     37073
     37066     37065     37067     37068     37066     37065     37067     37069
     37066     37065     37067     37070     37067     37070     37073     37074
     37067     37070     37073     37075     37067     37070     37073     37076
     37068     37067     37070     37071     37068     37067     37070     37072
     37068     37067     37070     37073     37069     37067     37070     37071
     37069     37067     37070     37072     37069     37067     37070     37073
     37070     37073     37076     37077     37070     37073     37076     37078
     37070     37073     37076     37079     37071     37070     37073     37074
     37071     37070     37073     37075     37071     37070     37073     37076
     37072     37070     37073     37074     37072     37070     37073     37075
     37072     37070     37073     37076     37073     37076     37079     37080
     37073     37076     37079     37081     37073     37076     37079     37082
     37074     37073     37076     37077     37074     37073     37076     37078
     37074     37073     37076     37079     37075     37073     37076     37077
     37075     37073     37076     37078     37075     37073     37076     37079
     37076     37079     37082     37083     37076     37079     37082     37084
     37076     37079     37082     37085     37077     37076     37079     37080
     37077     37076     37079     37081     37077     37076     37079     37082
     37078     37076     37079     37080     37078     37076     37079     37081
     37078     37076     37079     37082     37080     37079     37082     37083
     37080     37079     37082     37084     37080     37079     37082     37085
     37081     37079     37082     37083     37081     37079     37082     37084
     37081     37079     37082     37085     37086     37089     37092     37093
     37086     37089     37092     37094     37086     37089     37092     37095
     37087     37086     37089     37090     37087     37086     37089     37091
     37087     37086     37089     37092     37088     37086     37089     37090
     37088     37086     37089     37091     37088     37086     37089     37092
     37089     37092     37095     37096     37089     37092     37095     37097
     37089     37092     37095     37098     37090     37089     37092     37093
     37090     37089     37092     37094     37090     37089     37092     37095
     37091     37089     37092     37093     37091     37089     37092     37094
     37091     37089     37092     37095     37092     37095     37098     37099
     37092     37095     37098     37100     37092     37095     37098     37101
     37093     37092     37095     37096     37093     37092     37095     37097
     37093     37092     37095     37098     37094     37092     37095     37096
     37094     37092     37095     37097     37094     37092     37095     37098
     37095     37098     37101     37102     37095     37098     37101     37103
     37095     37098     37101     37104     37096     37095     37098     37099
     37096     37095     37098     37100     37096     37095     37098     37101
     37097     37095     37098     37099     37097     37095     37098     37100
     37097     37095     37098     37101     37098     37101     37104     37105
     37098     37101     37104     37106     37098     37101     37104     37107
     37099     37098     37101     37102     37099     37098     37101     37103
     37099     37098     37101     37104     37100     37098     37101     37102
     37100     37098     37101     37103     37100     37098     37101     37104
     37101     37104     37107     37108     37101     37104     37107     37109
     37101     37104     37107     37110     37102     37101     37104     37105
     37102     37101     37104     37106     37102     37101     37104     37107
     37103     37101     37104     37105     37103     37101     37104     37106
     37103     37101     37104     37107     37104     37107     37110     37111
     37104     37107     37110     37112     37104     37107     37110     37113
     37105     37104     37107     37108     37105     37104     37107     37109
     37105     37104     37107     37110     37106     37104     37107     37108
     37106     37104     37107     37109     37106     37104     37107     37110
     37107     37110     37113     37114     37107     37110     37113     37115
     37107     37110     37113     37116     37108     37107     37110     37111
     37108     37107     37110     37112     37108     37107     37110     37113
     37109     37107     37110     37111     37109     37107     37110     37112
     37109     37107     37110     37113     37110     37113     37116     37117
     37110     37113     37116     37118     37110     37113     37116     37119
     37111     37110     37113     37114     37111     37110     37113     37115
     37111     37110     37113     37116     37112     37110     37113     37114
     37112     37110     37113     37115     37112     37110     37113     37116
     37113     37116     37119     37120     37113     37116     37119     37121
     37113     37116     37119     37122     37114     37113     37116     37117
     37114     37113     37116     37118     37114     37113     37116     37119
     37115     37113     37116     37117     37115     37113     37116     37118
     37115     37113     37116     37119     37116     37119     37122     37123
     37116     37119     37122     37124     37116     37119     37122     37125
     37117     37116     37119     37120     37117     37116     37119     37121
     37117     37116     37119     37122     37118     37116     37119     37120
     37118     37116     37119     37121     37118     37116     37119     37122
     37119     37122     37125     37126     37119     37122     37125     37127
     37119     37122     37125     37128     37120     37119     37122     37123
     37120     37119     37122     37124     37120     37119     37122     37125
     37121     37119     37122     37123     37121     37119     37122     37124
     37121     37119     37122     37125     37123     37122     37125     37126
     37123     37122     37125     37127     37123     37122     37125     37128
     37124     37122     37125     37126     37124     37122     37125     37127
     37124     37122     37125     37128     37129     37133     37136     37137
     37129     37133     37136     37138     37129     37133     37136     37143
     37130     37129     37133     37134     37130     37129     37133     37135
     37130     37129     37133     37136     37131     37129     37133     37134
     37131     37129     37133     37135     37131     37129     37133     37136
     37132     37129     37133     37134     37132     37129     37133     37135
     37132     37129     37133     37136     37133     37136     37143     37139
     37134     37133     37136     37137     37134     37133     37136     37138
     37134     37133     37136     37143     37135     37133     37136     37137
     37135     37133     37136     37138     37135     37133     37136     37143
     37136     37143     37139     37140     37136     37143     37139     37141
     37136     37143     37139     37142     37137     37136     37143     37139
     37138     37136     37143     37139     37139     37142     37144     37145
     37139     37142     37144     37146     37139     37142     37144     37147
     37140     37139     37142     37144     37141     37139     37142     37144
     37142     37144     37147     37148     37142     37144     37147     37149
     37142     37144     37147     37155     37143     37139     37142     37144
     37144     37147     37149     37150     37144     37147     37155     37156
     37144     37147     37155     37157     37144     37147     37155     37158
     37145     37144     37147     37148     37145     37144     37147     37149
     37145     37144     37147     37155     37146     37144     37147     37148
     37146     37144     37147     37149     37146     37144     37147     37155
     37147     37149     37150     37151     37147     37149     37150     37152
     37147     37155     37158     37159     37148     37147     37149     37150
     37148     37147     37155     37156     37148     37147     37155     37157
     37148     37147     37155     37158     37149     37147     37155     37156
     37149     37147     37155     37157     37149     37147     37155     37158
     37149     37150     37152     37153     37149     37150     37152     37154
     37149     37150     37152     37164     37150     37149     37147     37155
     37150     37152     37164     37165     37150     37152     37164     37166
     37150     37152     37164     37167     37151     37150     37152     37153
     37151     37150     37152     37154     37151     37150     37152     37164
     37152     37164     37167     37168     37152     37164     37167     37169
     37152     37164     37167     37170     37153     37152     37164     37165
     37153     37152     37164     37166     37153     37152     37164     37167
     37154     37152     37164     37165     37154     37152     37164     37166
     37154     37152     37164     37167     37155     37158     37159     37160
     37155     37158     37159     37161     37156     37155     37158     37159
     37157     37155     37158     37159     37158     37159     37161     37162
     37158     37159     37161     37163     37158     37159     37161     37208
     37159     37161     37208     37209     37159     37161     37208     37210
     37159     37161     37208     37211     37160     37159     37161     37162
     37160     37159     37161     37163     37160     37159     37161     37208
     37161     37208     37211     37212     37161     37208     37211     37213
     37161     37208     37211     37214     37162     37161     37208     37209
     37162     37161     37208     37210     37162     37161     37208     37211
     37163     37161     37208     37209     37163     37161     37208     37210
     37163     37161     37208     37211     37164     37167     37170     37171
     37164     37167     37170     37172     37164     37167     37170     37173
     37165     37164     37167     37168     37165     37164     37167     37169
     37165     37164     37167     37170     37166     37164     37167     37168
     37166     37164     37167     37169     37166     37164     37167     37170
     37167     37170     37173     37174     37167     37170     37173     37175
     37167     37170     37173     37176     37168     37167     37170     37171
     37168     37167     37170     37172     37168     37167     37170     37173
     37169     37167     37170     37171     37169     37167     37170     37172
     37169     37167     37170     37173     37170     37173     37176     37177
     37170     37173     37176     37178     37170     37173     37176     37179
     37171     37170     37173     37174     37171     37170     37173     37175
     37171     37170     37173     37176     37172     37170     37173     37174
     37172     37170     37173     37175     37172     37170     37173     37176
     37173     37176     37179     37180     37173     37176     37179     37181
     37173     37176     37179     37182     37174     37173     37176     37177
     37174     37173     37176     37178     37174     37173     37176     37179
     37175     37173     37176     37177     37175     37173     37176     37178
     37175     37173     37176     37179     37176     37179     37182     37183
     37176     37179     37182     37184     37176     37179     37182     37187
     37177     37176     37179     37180     37177     37176     37179     37181
     37177     37176     37179     37182     37178     37176     37179     37180
     37178     37176     37179     37181     37178     37176     37179     37182
     37179     37182     37184     37185     37179     37182     37184     37186
     37179     37182     37184     37187     37179     37182     37187     37184
     37179     37182     37187     37188     37179     37182     37187     37189
     37180     37179     37182     37183     37180     37179     37182     37184
     37180     37179     37182     37187     37181     37179     37182     37183
     37181     37179     37182     37184     37181     37179     37182     37187
     37182     37184     37187     37188     37182     37184     37187     37189
     37182     37187     37184     37185     37182     37187     37184     37186
     37182     37187     37189     37190     37182     37187     37189     37191
     37182     37187     37189     37192     37183     37182     37184     37185
     37183     37182     37184     37186     37183     37182     37184     37187
     37183     37182     37187     37184     37183     37182     37187     37188
     37183     37182     37187     37189     37184     37182     37187     37188
     37184     37182     37187     37189     37184     37187     37189     37190
     37184     37187     37189     37191     37184     37187     37189     37192
     37185     37184     37182     37187     37185     37184     37187     37188
     37185     37184     37187     37189     37186     37184     37182     37187
     37186     37184     37187     37188     37186     37184     37187     37189
     37187     37189     37192     37193     37187     37189     37192     37194
     37187     37189     37192     37195     37188     37187     37189     37190
     37188     37187     37189     37191     37188     37187     37189     37192
     37189     37192     37195     37196     37189     37192     37195     37197
     37189     37192     37195     37198     37190     37189     37192     37193
     37190     37189     37192     37194     37190     37189     37192     37195
     37191     37189     37192     37193     37191     37189     37192     37194
     37191     37189     37192     37195     37192     37195     37198     37199
     37192     37195     37198     37200     37192     37195     37198     37201
     37193     37192     37195     37196     37193     37192     37195     37197
     37193     37192     37195     37198     37194     37192     37195     37196
     37194     37192     37195     37197     37194     37192     37195     37198
     37195     37198     37201     37202     37195     37198     37201     37203
     37195     37198     37201     37204     37196     37195     37198     37199
     37196     37195     37198     37200     37196     37195     37198     37201
     37197     37195     37198     37199     37197     37195     37198     37200
     37197     37195     37198     37201     37198     37201     37204     37205
     37198     37201     37204     37206     37198     37201     37204     37207
     37199     37198     37201     37202     37199     37198     37201     37203
     37199     37198     37201     37204     37200     37198     37201     37202
     37200     37198     37201     37203     37200     37198     37201     37204
     37202     37201     37204     37205     37202     37201     37204     37206
     37202     37201     37204     37207     37203     37201     37204     37205
     37203     37201     37204     37206     37203     37201     37204     37207
     37208     37211     37214     37215     37208     37211     37214     37216
     37208     37211     37214     37217     37209     37208     37211     37212
     37209     37208     37211     37213     37209     37208     37211     37214
     37210     37208     37211     37212     37210     37208     37211     37213
     37210     37208     37211     37214     37211     37214     37217     37218
     37211     37214     37217     37219     37211     37214     37217     37220
     37212     37211     37214     37215     37212     37211     37214     37216
     37212     37211     37214     37217     37213     37211     37214     37215
     37213     37211     37214     37216     37213     37211     37214     37217
     37214     37217     37220     37221     37214     37217     37220     37222
     37214     37217     37220     37223     37215     37214     37217     37218
     37215     37214     37217     37219     37215     37214     37217     37220
     37216     37214     37217     37218     37216     37214     37217     37219
     37216     37214     37217     37220     37217     37220     37223     37224
     37217     37220     37223     37225     37217     37220     37223     37226
     37218     37217     37220     37221     37218     37217     37220     37222
     37218     37217     37220     37223     37219     37217     37220     37221
     37219     37217     37220     37222     37219     37217     37220     37223
     37220     37223     37226     37227     37220     37223     37226     37228
     37220     37223     37226     37229     37221     37220     37223     37224
     37221     37220     37223     37225     37221     37220     37223     37226
     37222     37220     37223     37224     37222     37220     37223     37225
     37222     37220     37223     37226     37223     37226     37229     37230
     37223     37226     37229     37231     37223     37226     37229     37232
     37224     37223     37226     37227     37224     37223     37226     37228
     37224     37223     37226     37229     37225     37223     37226     37227
     37225     37223     37226     37228     37225     37223     37226     37229
     37226     37229     37232     37233     37226     37229     37232     37234
     37226     37229     37232     37235     37227     37226     37229     37230
     37227     37226     37229     37231     37227     37226     37229     37232
     37228     37226     37229     37230     37228     37226     37229     37231
     37228     37226     37229     37232     37229     37232     37235     37236
     37229     37232     37235     37237     37229     37232     37235     37238
     37230     37229     37232     37233     37230     37229     37232     37234
     37230     37229     37232     37235     37231     37229     37232     37233
     37231     37229     37232     37234     37231     37229     37232     37235
     37232     37235     37238     37239     37232     37235     37238     37240
     37232     37235     37238     37241     37233     37232     37235     37236
     37233     37232     37235     37237     37233     37232     37235     37238
     37234     37232     37235     37236     37234     37232     37235     37237
     37234     37232     37235     37238     37235     37238     37241     37242
     37235     37238     37241     37243     37235     37238     37241     37244
     37236     37235     37238     37239     37236     37235     37238     37240
     37236     37235     37238     37241     37237     37235     37238     37239
     37237     37235     37238     37240     37237     37235     37238     37241
     37238     37241     37244     37245     37238     37241     37244     37246
     37238     37241     37244     37247     37239     37238     37241     37242
     37239     37238     37241     37243     37239     37238     37241     37244
     37240     37238     37241     37242     37240     37238     37241     37243
     37240     37238     37241     37244     37241     37244     37247     37248
     37241     37244     37247     37249     37241     37244     37247     37250
     37242     37241     37244     37245     37242     37241     37244     37246
     37242     37241     37244     37247     37243     37241     37244     37245
     37243     37241     37244     37246     37243     37241     37244     37247
     37245     37244     37247     37248     37245     37244     37247     37249
     37245     37244     37247     37250     37246     37244     37247     37248
     37246     37244     37247     37249     37246     37244     37247     37250
     37251     37255     37258     37259     37251     37255     37258     37260
     37251     37255     37258     37265     37252     37251     37255     37256
     37252     37251     37255     37257     37252     37251     37255     37258
     37253     37251     37255     37256     37253     37251     37255     37257
     37253     37251     37255     37258     37254     37251     37255     37256
     37254     37251     37255     37257     37254     37251     37255     37258
     37255     37258     37265     37261     37256     37255     37258     37259
     37256     37255     37258     37260     37256     37255     37258     37265
     37257     37255     37258     37259     37257     37255     37258     37260
     37257     37255     37258     37265     37258     37265     37261     37262
     37258     37265     37261     37263     37258     37265     37261     37264
     37259     37258     37265     37261     37260     37258     37265     37261
     37261     37264     37266     37267     37261     37264     37266     37268
     37261     37264     37266     37269     37262     37261     37264     37266
     37263     37261     37264     37266     37264     37266     37269     37270
     37264     37266     37269     37271     37264     37266     37269     37277
     37265     37261     37264     37266     37266     37269     37271     37272
     37266     37269     37277     37278     37266     37269     37277     37279
     37266     37269     37277     37280     37267     37266     37269     37270
     37267     37266     37269     37271     37267     37266     37269     37277
     37268     37266     37269     37270     37268     37266     37269     37271
     37268     37266     37269     37277     37269     37271     37272     37273
     37269     37271     37272     37274     37269     37277     37280     37281
     37270     37269     37271     37272     37270     37269     37277     37278
     37270     37269     37277     37279     37270     37269     37277     37280
     37271     37269     37277     37278     37271     37269     37277     37279
     37271     37269     37277     37280     37271     37272     37274     37275
     37271     37272     37274     37276     37271     37272     37274     37286
     37272     37271     37269     37277     37272     37274     37286     37287
     37272     37274     37286     37288     37272     37274     37286     37289
     37273     37272     37274     37275     37273     37272     37274     37276
     37273     37272     37274     37286     37274     37286     37289     37290
     37274     37286     37289     37291     37274     37286     37289     37292
     37275     37274     37286     37287     37275     37274     37286     37288
     37275     37274     37286     37289     37276     37274     37286     37287
     37276     37274     37286     37288     37276     37274     37286     37289
     37277     37280     37281     37282     37277     37280     37281     37283
     37278     37277     37280     37281     37279     37277     37280     37281
     37280     37281     37283     37284     37280     37281     37283     37285
     37280     37281     37283     37330     37281     37283     37330     37331
     37281     37283     37330     37332     37281     37283     37330     37333
     37282     37281     37283     37284     37282     37281     37283     37285
     37282     37281     37283     37330     37283     37330     37333     37334
     37283     37330     37333     37335     37283     37330     37333     37336
     37284     37283     37330     37331     37284     37283     37330     37332
     37284     37283     37330     37333     37285     37283     37330     37331
     37285     37283     37330     37332     37285     37283     37330     37333
     37286     37289     37292     37293     37286     37289     37292     37294
     37286     37289     37292     37295     37287     37286     37289     37290
     37287     37286     37289     37291     37287     37286     37289     37292
     37288     37286     37289     37290     37288     37286     37289     37291
     37288     37286     37289     37292     37289     37292     37295     37296
     37289     37292     37295     37297     37289     37292     37295     37298
     37290     37289     37292     37293     37290     37289     37292     37294
     37290     37289     37292     37295     37291     37289     37292     37293
     37291     37289     37292     37294     37291     37289     37292     37295
     37292     37295     37298     37299     37292     37295     37298     37300
     37292     37295     37298     37301     37293     37292     37295     37296
     37293     37292     37295     37297     37293     37292     37295     37298
     37294     37292     37295     37296     37294     37292     37295     37297
     37294     37292     37295     37298     37295     37298     37301     37302
     37295     37298     37301     37303     37295     37298     37301     37304
     37296     37295     37298     37299     37296     37295     37298     37300
     37296     37295     37298     37301     37297     37295     37298     37299
     37297     37295     37298     37300     37297     37295     37298     37301
     37298     37301     37304     37305     37298     37301     37304     37306
     37298     37301     37304     37309     37299     37298     37301     37302
     37299     37298     37301     37303     37299     37298     37301     37304
     37300     37298     37301     37302     37300     37298     37301     37303
     37300     37298     37301     37304     37301     37304     37306     37307
     37301     37304     37306     37308     37301     37304     37306     37309
     37301     37304     37309     37306     37301     37304     37309     37310
     37301     37304     37309     37311     37302     37301     37304     37305
     37302     37301     37304     37306     37302     37301     37304     37309
     37303     37301     37304     37305     37303     37301     37304     37306
     37303     37301     37304     37309     37304     37306     37309     37310
     37304     37306     37309     37311     37304     37309     37306     37307
     37304     37309     37306     37308     37304     37309     37311     37312
     37304     37309     37311     37313     37304     37309     37311     37314
     37305     37304     37306     37307     37305     37304     37306     37308
     37305     37304     37306     37309     37305     37304     37309     37306
     37305     37304     37309     37310     37305     37304     37309     37311
     37306     37304     37309     37310     37306     37304     37309     37311
     37306     37309     37311     37312     37306     37309     37311     37313
     37306     37309     37311     37314     37307     37306     37304     37309
     37307     37306     37309     37310     37307     37306     37309     37311
     37308     37306     37304     37309     37308     37306     37309     37310
     37308     37306     37309     37311     37309     37311     37314     37315
     37309     37311     37314     37316     37309     37311     37314     37317
     37310     37309     37311     37312     37310     37309     37311     37313
     37310     37309     37311     37314     37311     37314     37317     37318
     37311     37314     37317     37319     37311     37314     37317     37320
     37312     37311     37314     37315     37312     37311     37314     37316
     37312     37311     37314     37317     37313     37311     37314     37315
     37313     37311     37314     37316     37313     37311     37314     37317
     37314     37317     37320     37321     37314     37317     37320     37322
     37314     37317     37320     37323     37315     37314     37317     37318
     37315     37314     37317     37319     37315     37314     37317     37320
     37316     37314     37317     37318     37316     37314     37317     37319
     37316     37314     37317     37320     37317     37320     37323     37324
     37317     37320     37323     37325     37317     37320     37323     37326
     37318     37317     37320     37321     37318     37317     37320     37322
     37318     37317     37320     37323     37319     37317     37320     37321
     37319     37317     37320     37322     37319     37317     37320     37323
     37320     37323     37326     37327     37320     37323     37326     37328
     37320     37323     37326     37329     37321     37320     37323     37324
     37321     37320     37323     37325     37321     37320     37323     37326
     37322     37320     37323     37324     37322     37320     37323     37325
     37322     37320     37323     37326     37324     37323     37326     37327
     37324     37323     37326     37328     37324     37323     37326     37329
     37325     37323     37326     37327     37325     37323     37326     37328
     37325     37323     37326     37329     37330     37333     37336     37337
     37330     37333     37336     37338     37330     37333     37336     37339
     37331     37330     37333     37334     37331     37330     37333     37335
     37331     37330     37333     37336     37332     37330     37333     37334
     37332     37330     37333     37335     37332     37330     37333     37336
     37333     37336     37339     37340     37333     37336     37339     37341
     37333     37336     37339     37342     37334     37333     37336     37337
     37334     37333     37336     37338     37334     37333     37336     37339
     37335     37333     37336     37337     37335     37333     37336     37338
     37335     37333     37336     37339     37336     37339     37342     37343
     37336     37339     37342     37344     37336     37339     37342     37345
     37337     37336     37339     37340     37337     37336     37339     37341
     37337     37336     37339     37342     37338     37336     37339     37340
     37338     37336     37339     37341     37338     37336     37339     37342
     37339     37342     37345     37346     37339     37342     37345     37347
     37339     37342     37345     37348     37340     37339     37342     37343
     37340     37339     37342     37344     37340     37339     37342     37345
     37341     37339     37342     37343     37341     37339     37342     37344
     37341     37339     37342     37345     37342     37345     37348     37349
     37342     37345     37348     37350     37342     37345     37348     37351
     37343     37342     37345     37346     37343     37342     37345     37347
     37343     37342     37345     37348     37344     37342     37345     37346
     37344     37342     37345     37347     37344     37342     37345     37348
     37345     37348     37351     37352     37345     37348     37351     37353
     37345     37348     37351     37354     37346     37345     37348     37349
     37346     37345     37348     37350     37346     37345     37348     37351
     37347     37345     37348     37349     37347     37345     37348     37350
     37347     37345     37348     37351     37348     37351     37354     37355
     37348     37351     37354     37356     37348     37351     37354     37357
     37349     37348     37351     37352     37349     37348     37351     37353
     37349     37348     37351     37354     37350     37348     37351     37352
     37350     37348     37351     37353     37350     37348     37351     37354
     37351     37354     37357     37358     37351     37354     37357     37359
     37351     37354     37357     37360     37352     37351     37354     37355
     37352     37351     37354     37356     37352     37351     37354     37357
     37353     37351     37354     37355     37353     37351     37354     37356
     37353     37351     37354     37357     37354     37357     37360     37361
     37354     37357     37360     37362     37354     37357     37360     37363
     37355     37354     37357     37358     37355     37354     37357     37359
     37355     37354     37357     37360     37356     37354     37357     37358
     37356     37354     37357     37359     37356     37354     37357     37360
     37357     37360     37363     37364     37357     37360     37363     37365
     37357     37360     37363     37366     37358     37357     37360     37361
     37358     37357     37360     37362     37358     37357     37360     37363
     37359     37357     37360     37361     37359     37357     37360     37362
     37359     37357     37360     37363     37360     37363     37366     37367
     37360     37363     37366     37368     37360     37363     37366     37369
     37361     37360     37363     37364     37361     37360     37363     37365
     37361     37360     37363     37366     37362     37360     37363     37364
     37362     37360     37363     37365     37362     37360     37363     37366
     37363     37366     37369     37370     37363     37366     37369     37371
     37363     37366     37369     37372     37364     37363     37366     37367
     37364     37363     37366     37368     37364     37363     37366     37369
     37365     37363     37366     37367     37365     37363     37366     37368
     37365     37363     37366     37369     37367     37366     37369     37370
     37367     37366     37369     37371     37367     37366     37369     37372
     37368     37366     37369     37370     37368     37366     37369     37371
     37368     37366     37369     37372     37373     37378     37380     37381
     37373     37378     37382     37383     37373     37378     37382     37384
     37373     37378     37382     37389     37374     37373     37376     37377
     37374     37373     37378     37379     37374     37373     37378     37380
     37374     37373     37378     37382     37375     37373     37376     37377
     37375     37373     37378     37379     37375     37373     37378     37380
     37375     37373     37378     37382     37376     37373     37378     37379
     37376     37373     37378     37380     37376     37373     37378     37382
     37377     37376     37373     37378     37378     37382     37389     37385
     37379     37378     37380     37381     37379     37378     37382     37383
     37379     37378     37382     37384     37379     37378     37382     37389
     37380     37378     37382     37383     37380     37378     37382     37384
     37380     37378     37382     37389     37381     37380     37378     37382
     37382     37389     37385     37386     37382     37389     37385     37387
     37382     37389     37385     37388     37383     37382     37389     37385
     37384     37382     37389     37385     37385     37388     37390     37391
     37385     37388     37390     37392     37385     37388     37390     37393
     37386     37385     37388     37390     37387     37385     37388     37390
     37388     37390     37393     37394     37388     37390     37393     37395
     37388     37390     37393     37401     37389     37385     37388     37390
     37390     37393     37395     37396     37390     37393     37401     37402
     37390     37393     37401     37403     37390     37393     37401     37404
     37391     37390     37393     37394     37391     37390     37393     37395
     37391     37390     37393     37401     37392     37390     37393     37394
     37392     37390     37393     37395     37392     37390     37393     37401
     37393     37395     37396     37397     37393     37395     37396     37398
     37393     37401     37404     37405     37394     37393     37395     37396
     37394     37393     37401     37402     37394     37393     37401     37403
     37394     37393     37401     37404     37395     37393     37401     37402
     37395     37393     37401     37403     37395     37393     37401     37404
     37395     37396     37398     37399     37395     37396     37398     37400
     37395     37396     37398     37410     37396     37395     37393     37401
     37396     37398     37410     37411     37396     37398     37410     37412
     37396     37398     37410     37413     37397     37396     37398     37399
     37397     37396     37398     37400     37397     37396     37398     37410
     37398     37410     37413     37414     37398     37410     37413     37415
     37398     37410     37413     37416     37399     37398     37410     37411
     37399     37398     37410     37412     37399     37398     37410     37413
     37400     37398     37410     37411     37400     37398     37410     37412
     37400     37398     37410     37413     37401     37404     37405     37406
     37401     37404     37405     37407     37402     37401     37404     37405
     37403     37401     37404     37405     37404     37405     37407     37408
     37404     37405     37407     37409     37404     37405     37407     37454
     37405     37407     37454     37455     37405     37407     37454     37456
     37405     37407     37454     37457     37406     37405     37407     37408
     37406     37405     37407     37409     37406     37405     37407     37454
     37407     37454     37457     37458     37407     37454     37457     37459
     37407     37454     37457     37460     37408     37407     37454     37455
     37408     37407     37454     37456     37408     37407     37454     37457
     37409     37407     37454     37455     37409     37407     37454     37456
     37409     37407     37454     37457     37410     37413     37416     37417
     37410     37413     37416     37418     37410     37413     37416     37419
     37411     37410     37413     37414     37411     37410     37413     37415
     37411     37410     37413     37416     37412     37410     37413     37414
     37412     37410     37413     37415     37412     37410     37413     37416
     37413     37416     37419     37420     37413     37416     37419     37421
     37413     37416     37419     37422     37414     37413     37416     37417
     37414     37413     37416     37418     37414     37413     37416     37419
     37415     37413     37416     37417     37415     37413     37416     37418
     37415     37413     37416     37419     37416     37419     37422     37423
     37416     37419     37422     37424     37416     37419     37422     37425
     37417     37416     37419     37420     37417     37416     37419     37421
     37417     37416     37419     37422     37418     37416     37419     37420
     37418     37416     37419     37421     37418     37416     37419     37422
     37419     37422     37425     37426     37419     37422     37425     37427
     37419     37422     37425     37428     37420     37419     37422     37423
     37420     37419     37422     37424     37420     37419     37422     37425
     37421     37419     37422     37423     37421     37419     37422     37424
     37421     37419     37422     37425     37422     37425     37428     37429
     37422     37425     37428     37430     37422     37425     37428     37433
     37423     37422     37425     37426     37423     37422     37425     37427
     37423     37422     37425     37428     37424     37422     37425     37426
     37424     37422     37425     37427     37424     37422     37425     37428
     37425     37428     37430     37431     37425     37428     37430     37432
     37425     37428     37430     37433     37425     37428     37433     37430
     37425     37428     37433     37434     37425     37428     37433     37435
     37426     37425     37428     37429     37426     37425     37428     37430
     37426     37425     37428     37433     37427     37425     37428     37429
     37427     37425     37428     37430     37427     37425     37428     37433
     37428     37430     37433     37434     37428     37430     37433     37435
     37428     37433     37430     37431     37428     37433     37430     37432
     37428     37433     37435     37436     37428     37433     37435     37437
     37428     37433     37435     37438     37429     37428     37430     37431
     37429     37428     37430     37432     37429     37428     37430     37433
     37429     37428     37433     37430     37429     37428     37433     37434
     37429     37428     37433     37435     37430     37428     37433     37434
     37430     37428     37433     37435     37430     37433     37435     37436
     37430     37433     37435     37437     37430     37433     37435     37438
     37431     37430     37428     37433     37431     37430     37433     37434
     37431     37430     37433     37435     37432     37430     37428     37433
     37432     37430     37433     37434     37432     37430     37433     37435
     37433     37435     37438     37439     37433     37435     37438     37440
     37433     37435     37438     37441     37434     37433     37435     37436
     37434     37433     37435     37437     37434     37433     37435     37438
     37435     37438     37441     37442     37435     37438     37441     37443
     37435     37438     37441     37444     37436     37435     37438     37439
     37436     37435     37438     37440     37436     37435     37438     37441
     37437     37435     37438     37439     37437     37435     37438     37440
     37437     37435     37438     37441     37438     37441     37444     37445
     37438     37441     37444     37446     37438     37441     37444     37447
     37439     37438     37441     37442     37439     37438     37441     37443
     37439     37438     37441     37444     37440     37438     37441     37442
     37440     37438     37441     37443     37440     37438     37441     37444
     37441     37444     37447     37448     37441     37444     37447     37449
     37441     37444     37447     37450     37442     37441     37444     37445
     37442     37441     37444     37446     37442     37441     37444     37447
     37443     37441     37444     37445     37443     37441     37444     37446
     37443     37441     37444     37447     37444     37447     37450     37451
     37444     37447     37450     37452     37444     37447     37450     37453
     37445     37444     37447     37448     37445     37444     37447     37449
     37445     37444     37447     37450     37446     37444     37447     37448
     37446     37444     37447     37449     37446     37444     37447     37450
     37448     37447     37450     37451     37448     37447     37450     37452
     37448     37447     37450     37453     37449     37447     37450     37451
     37449     37447     37450     37452     37449     37447     37450     37453
     37454     37457     37460     37461     37454     37457     37460     37462
     37454     37457     37460     37463     37455     37454     37457     37458
     37455     37454     37457     37459     37455     37454     37457     37460
     37456     37454     37457     37458     37456     37454     37457     37459
     37456     37454     37457     37460     37457     37460     37463     37464
     37457     37460     37463     37465     37457     37460     37463     37466
     37458     37457     37460     37461     37458     37457     37460     37462
     37458     37457     37460     37463     37459     37457     37460     37461
     37459     37457     37460     37462     37459     37457     37460     37463
     37460     37463     37466     37467     37460     37463     37466     37468
     37460     37463     37466     37469     37461     37460     37463     37464
     37461     37460     37463     37465     37461     37460     37463     37466
     37462     37460     37463     37464     37462     37460     37463     37465
     37462     37460     37463     37466     37463     37466     37469     37470
     37463     37466     37469     37471     37463     37466     37469     37472
     37464     37463     37466     37467     37464     37463     37466     37468
     37464     37463     37466     37469     37465     37463     37466     37467
     37465     37463     37466     37468     37465     37463     37466     37469
     37466     37469     37472     37473     37466     37469     37472     37474
     37466     37469     37472     37475     37467     37466     37469     37470
     37467     37466     37469     37471     37467     37466     37469     37472
     37468     37466     37469     37470     37468     37466     37469     37471
     37468     37466     37469     37472     37469     37472     37475     37476
     37469     37472     37475     37477     37469     37472     37475     37478
     37470     37469     37472     37473     37470     37469     37472     37474
     37470     37469     37472     37475     37471     37469     37472     37473
     37471     37469     37472     37474     37471     37469     37472     37475
     37472     37475     37478     37479     37472     37475     37478     37480
     37472     37475     37478     37481     37473     37472     37475     37476
     37473     37472     37475     37477     37473     37472     37475     37478
     37474     37472     37475     37476     37474     37472     37475     37477
     37474     37472     37475     37478     37475     37478     37481     37482
     37475     37478     37481     37483     37475     37478     37481     37484
     37476     37475     37478     37479     37476     37475     37478     37480
     37476     37475     37478     37481     37477     37475     37478     37479
     37477     37475     37478     37480     37477     37475     37478     37481
     37478     37481     37484     37485     37478     37481     37484     37486
     37478     37481     37484     37487     37479     37478     37481     37482
     37479     37478     37481     37483     37479     37478     37481     37484
     37480     37478     37481     37482     37480     37478     37481     37483
     37480     37478     37481     37484     37481     37484     37487     37488
     37481     37484     37487     37489     37481     37484     37487     37490
     37482     37481     37484     37485     37482     37481     37484     37486
     37482     37481     37484     37487     37483     37481     37484     37485
     37483     37481     37484     37486     37483     37481     37484     37487
     37484     37487     37490     37491     37484     37487     37490     37492
     37484     37487     37490     37493     37485     37484     37487     37488
     37485     37484     37487     37489     37485     37484     37487     37490
     37486     37484     37487     37488     37486     37484     37487     37489
     37486     37484     37487     37490     37487     37490     37493     37494
     37487     37490     37493     37495     37487     37490     37493     37496
     37488     37487     37490     37491     37488     37487     37490     37492
     37488     37487     37490     37493     37489     37487     37490     37491
     37489     37487     37490     37492     37489     37487     37490     37493
     37491     37490     37493     37494     37491     37490     37493     37495
     37491     37490     37493     37496     37492     37490     37493     37494
     37492     37490     37493     37495     37492     37490     37493     37496
     37497     37501     37504     37505     37497     37501     37504     37506
     37497     37501     37504     37511     37498     37497     37501     37502
     37498     37497     37501     37503     37498     37497     37501     37504
     37499     37497     37501     37502     37499     37497     37501     37503
     37499     37497     37501     37504     37500     37497     37501     37502
     37500     37497     37501     37503     37500     37497     37501     37504
     37501     37504     37511     37507     37502     37501     37504     37505
     37502     37501     37504     37506     37502     37501     37504     37511
     37503     37501     37504     37505     37503     37501     37504     37506
     37503     37501     37504     37511     37504     37511     37507     37508
     37504     37511     37507     37509     37504     37511     37507     37510
     37505     37504     37511     37507     37506     37504     37511     37507
     37507     37510     37512     37513     37507     37510     37512     37514
     37507     37510     37512     37515     37508     37507     37510     37512
     37509     37507     37510     37512     37510     37512     37515     37516
     37510     37512     37515     37517     37510     37512     37515     37523
     37511     37507     37510     37512     37512     37515     37517     37518
     37512     37515     37523     37524     37512     37515     37523     37525
     37512     37515     37523     37526     37513     37512     37515     37516
     37513     37512     37515     37517     37513     37512     37515     37523
     37514     37512     37515     37516     37514     37512     37515     37517
     37514     37512     37515     37523     37515     37517     37518     37519
     37515     37517     37518     37520     37515     37523     37526     37527
     37516     37515     37517     37518     37516     37515     37523     37524
     37516     37515     37523     37525     37516     37515     37523     37526
     37517     37515     37523     37524     37517     37515     37523     37525
     37517     37515     37523     37526     37517     37518     37520     37521
     37517     37518     37520     37522     37517     37518     37520     37532
     37518     37517     37515     37523     37518     37520     37532     37533
     37518     37520     37532     37534     37518     37520     37532     37535
     37519     37518     37520     37521     37519     37518     37520     37522
     37519     37518     37520     37532     37520     37532     37535     37536
     37520     37532     37535     37537     37520     37532     37535     37538
     37521     37520     37532     37533     37521     37520     37532     37534
     37521     37520     37532     37535     37522     37520     37532     37533
     37522     37520     37532     37534     37522     37520     37532     37535
     37523     37526     37527     37528     37523     37526     37527     37529
     37524     37523     37526     37527     37525     37523     37526     37527
     37526     37527     37529     37530     37526     37527     37529     37531
     37526     37527     37529     37576     37527     37529     37576     37577
     37527     37529     37576     37578     37527     37529     37576     37579
     37528     37527     37529     37530     37528     37527     37529     37531
     37528     37527     37529     37576     37529     37576     37579     37580
     37529     37576     37579     37581     37529     37576     37579     37582
     37530     37529     37576     37577     37530     37529     37576     37578
     37530     37529     37576     37579     37531     37529     37576     37577
     37531     37529     37576     37578     37531     37529     37576     37579
     37532     37535     37538     37539     37532     37535     37538     37540
     37532     37535     37538     37541     37533     37532     37535     37536
     37533     37532     37535     37537     37533     37532     37535     37538
     37534     37532     37535     37536     37534     37532     37535     37537
     37534     37532     37535     37538     37535     37538     37541     37542
     37535     37538     37541     37543     37535     37538     37541     37544
     37536     37535     37538     37539     37536     37535     37538     37540
     37536     37535     37538     37541     37537     37535     37538     37539
     37537     37535     37538     37540     37537     37535     37538     37541
     37538     37541     37544     37545     37538     37541     37544     37546
     37538     37541     37544     37547     37539     37538     37541     37542
     37539     37538     37541     37543     37539     37538     37541     37544
     37540     37538     37541     37542     37540     37538     37541     37543
     37540     37538     37541     37544     37541     37544     37547     37548
     37541     37544     37547     37549     37541     37544     37547     37550
     37542     37541     37544     37545     37542     37541     37544     37546
     37542     37541     37544     37547     37543     37541     37544     37545
     37543     37541     37544     37546     37543     37541     37544     37547
     37544     37547     37550     37551     37544     37547     37550     37552
     37544     37547     37550     37555     37545     37544     37547     37548
     37545     37544     37547     37549     37545     37544     37547     37550
     37546     37544     37547     37548     37546     37544     37547     37549
     37546     37544     37547     37550     37547     37550     37552     37553
     37547     37550     37552     37554     37547     37550     37552     37555
     37547     37550     37555     37552     37547     37550     37555     37556
     37547     37550     37555     37557     37548     37547     37550     37551
     37548     37547     37550     37552     37548     37547     37550     37555
     37549     37547     37550     37551     37549     37547     37550     37552
     37549     37547     37550     37555     37550     37552     37555     37556
     37550     37552     37555     37557     37550     37555     37552     37553
     37550     37555     37552     37554     37550     37555     37557     37558
     37550     37555     37557     37559     37550     37555     37557     37560
     37551     37550     37552     37553     37551     37550     37552     37554
     37551     37550     37552     37555     37551     37550     37555     37552
     37551     37550     37555     37556     37551     37550     37555     37557
     37552     37550     37555     37556     37552     37550     37555     37557
     37552     37555     37557     37558     37552     37555     37557     37559
     37552     37555     37557     37560     37553     37552     37550     37555
     37553     37552     37555     37556     37553     37552     37555     37557
     37554     37552     37550     37555     37554     37552     37555     37556
     37554     37552     37555     37557     37555     37557     37560     37561
     37555     37557     37560     37562     37555     37557     37560     37563
     37556     37555     37557     37558     37556     37555     37557     37559
     37556     37555     37557     37560     37557     37560     37563     37564
     37557     37560     37563     37565     37557     37560     37563     37566
     37558     37557     37560     37561     37558     37557     37560     37562
     37558     37557     37560     37563     37559     37557     37560     37561
     37559     37557     37560     37562     37559     37557     37560     37563
     37560     37563     37566     37567     37560     37563     37566     37568
     37560     37563     37566     37569     37561     37560     37563     37564
     37561     37560     37563     37565     37561     37560     37563     37566
     37562     37560     37563     37564     37562     37560     37563     37565
     37562     37560     37563     37566     37563     37566     37569     37570
     37563     37566     37569     37571     37563     37566     37569     37572
     37564     37563     37566     37567     37564     37563     37566     37568
     37564     37563     37566     37569     37565     37563     37566     37567
     37565     37563     37566     37568     37565     37563     37566     37569
     37566     37569     37572     37573     37566     37569     37572     37574
     37566     37569     37572     37575     37567     37566     37569     37570
     37567     37566     37569     37571     37567     37566     37569     37572
     37568     37566     37569     37570     37568     37566     37569     37571
     37568     37566     37569     37572     37570     37569     37572     37573
     37570     37569     37572     37574     37570     37569     37572     37575
     37571     37569     37572     37573     37571     37569     37572     37574
     37571     37569     37572     37575     37576     37579     37582     37583
     37576     37579     37582     37584     37576     37579     37582     37585
     37577     37576     37579     37580     37577     37576     37579     37581
     37577     37576     37579     37582     37578     37576     37579     37580
     37578     37576     37579     37581     37578     37576     37579     37582
     37579     37582     37585     37586     37579     37582     37585     37587
     37579     37582     37585     37588     37580     37579     37582     37583
     37580     37579     37582     37584     37580     37579     37582     37585
     37581     37579     37582     37583     37581     37579     37582     37584
     37581     37579     37582     37585     37582     37585     37588     37589
     37582     37585     37588     37590     37582     37585     37588     37591
     37583     37582     37585     37586     37583     37582     37585     37587
     37583     37582     37585     37588     37584     37582     37585     37586
     37584     37582     37585     37587     37584     37582     37585     37588
     37585     37588     37591     37592     37585     37588     37591     37593
     37585     37588     37591     37594     37586     37585     37588     37589
     37586     37585     37588     37590     37586     37585     37588     37591
     37587     37585     37588     37589     37587     37585     37588     37590
     37587     37585     37588     37591     37588     37591     37594     37595
     37588     37591     37594     37596     37588     37591     37594     37597
     37589     37588     37591     37592     37589     37588     37591     37593
     37589     37588     37591     37594     37590     37588     37591     37592
     37590     37588     37591     37593     37590     37588     37591     37594
     37591     37594     37597     37598     37591     37594     37597     37599
     37591     37594     37597     37600     37592     37591     37594     37595
     37592     37591     37594     37596     37592     37591     37594     37597
     37593     37591     37594     37595     37593     37591     37594     37596
     37593     37591     37594     37597     37594     37597     37600     37601
     37594     37597     37600     37602     37594     37597     37600     37603
     37595     37594     37597     37598     37595     37594     37597     37599
     37595     37594     37597     37600     37596     37594     37597     37598
     37596     37594     37597     37599     37596     37594     37597     37600
     37597     37600     37603     37604     37597     37600     37603     37605
     37597     37600     37603     37606     37598     37597     37600     37601
     37598     37597     37600     37602     37598     37597     37600     37603
     37599     37597     37600     37601     37599     37597     37600     37602
     37599     37597     37600     37603     37600     37603     37606     37607
     37600     37603     37606     37608     37600     37603     37606     37609
     37601     37600     37603     37604     37601     37600     37603     37605
     37601     37600     37603     37606     37602     37600     37603     37604
     37602     37600     37603     37605     37602     37600     37603     37606
     37603     37606     37609     37610     37603     37606     37609     37611
     37603     37606     37609     37612     37604     37603     37606     37607
     37604     37603     37606     37608     37604     37603     37606     37609
     37605     37603     37606     37607     37605     37603     37606     37608
     37605     37603     37606     37609     37606     37609     37612     37613
     37606     37609     37612     37614     37606     37609     37612     37615
     37607     37606     37609     37610     37607     37606     37609     37611
     37607     37606     37609     37612     37608     37606     37609     37610
     37608     37606     37609     37611     37608     37606     37609     37612
     37609     37612     37615     37616     37609     37612     37615     37617
     37609     37612     37615     37618     37610     37609     37612     37613
     37610     37609     37612     37614     37610     37609     37612     37615
     37611     37609     37612     37613     37611     37609     37612     37614
     37611     37609     37612     37615     37613     37612     37615     37616
     37613     37612     37615     37617     37613     37612     37615     37618
     37614     37612     37615     37616     37614     37612     37615     37617
     37614     37612     37615     37618     37619     37623     37626     37627
     37619     37623     37626     37628     37619     37623     37626     37633
     37620     37619     37623     37624     37620     37619     37623     37625
     37620     37619     37623     37626     37621     37619     37623     37624
     37621     37619     37623     37625     37621     37619     37623     37626
     37622     37619     37623     37624     37622     37619     37623     37625
     37622     37619     37623     37626     37623     37626     37633     37629
     37624     37623     37626     37627     37624     37623     37626     37628
     37624     37623     37626     37633     37625     37623     37626     37627
     37625     37623     37626     37628     37625     37623     37626     37633
     37626     37633     37629     37630     37626     37633     37629     37631
     37626     37633     37629     37632     37627     37626     37633     37629
     37628     37626     37633     37629     37629     37632     37634     37635
     37629     37632     37634     37636     37629     37632     37634     37637
     37630     37629     37632     37634     37631     37629     37632     37634
     37632     37634     37637     37638     37632     37634     37637     37639
     37632     37634     37637     37645     37633     37629     37632     37634
     37634     37637     37639     37640     37634     37637     37645     37646
     37634     37637     37645     37647     37634     37637     37645     37648
     37635     37634     37637     37638     37635     37634     37637     37639
     37635     37634     37637     37645     37636     37634     37637     37638
     37636     37634     37637     37639     37636     37634     37637     37645
     37637     37639     37640     37641     37637     37639     37640     37642
     37637     37645     37648     37649     37638     37637     37639     37640
     37638     37637     37645     37646     37638     37637     37645     37647
     37638     37637     37645     37648     37639     37637     37645     37646
     37639     37637     37645     37647     37639     37637     37645     37648
     37639     37640     37642     37643     37639     37640     37642     37644
     37639     37640     37642     37654     37640     37639     37637     37645
     37640     37642     37654     37655     37640     37642     37654     37656
     37640     37642     37654     37657     37641     37640     37642     37643
     37641     37640     37642     37644     37641     37640     37642     37654
     37642     37654     37657     37658     37642     37654     37657     37659
     37642     37654     37657     37660     37643     37642     37654     37655
     37643     37642     37654     37656     37643     37642     37654     37657
     37644     37642     37654     37655     37644     37642     37654     37656
     37644     37642     37654     37657     37645     37648     37649     37650
     37645     37648     37649     37651     37646     37645     37648     37649
     37647     37645     37648     37649     37648     37649     37651     37652
     37648     37649     37651     37653     37648     37649     37651     37698
     37649     37651     37698     37699     37649     37651     37698     37700
     37649     37651     37698     37701     37650     37649     37651     37652
     37650     37649     37651     37653     37650     37649     37651     37698
     37651     37698     37701     37702     37651     37698     37701     37703
     37651     37698     37701     37704     37652     37651     37698     37699
     37652     37651     37698     37700     37652     37651     37698     37701
     37653     37651     37698     37699     37653     37651     37698     37700
     37653     37651     37698     37701     37654     37657     37660     37661
     37654     37657     37660     37662     37654     37657     37660     37663
     37655     37654     37657     37658     37655     37654     37657     37659
     37655     37654     37657     37660     37656     37654     37657     37658
     37656     37654     37657     37659     37656     37654     37657     37660
     37657     37660     37663     37664     37657     37660     37663     37665
     37657     37660     37663     37666     37658     37657     37660     37661
     37658     37657     37660     37662     37658     37657     37660     37663
     37659     37657     37660     37661     37659     37657     37660     37662
     37659     37657     37660     37663     37660     37663     37666     37667
     37660     37663     37666     37668     37660     37663     37666     37669
     37661     37660     37663     37664     37661     37660     37663     37665
     37661     37660     37663     37666     37662     37660     37663     37664
     37662     37660     37663     37665     37662     37660     37663     37666
     37663     37666     37669     37670     37663     37666     37669     37671
     37663     37666     37669     37672     37664     37663     37666     37667
     37664     37663     37666     37668     37664     37663     37666     37669
     37665     37663     37666     37667     37665     37663     37666     37668
     37665     37663     37666     37669     37666     37669     37672     37673
     37666     37669     37672     37674     37666     37669     37672     37677
     37667     37666     37669     37670     37667     37666     37669     37671
     37667     37666     37669     37672     37668     37666     37669     37670
     37668     37666     37669     37671     37668     37666     37669     37672
     37669     37672     37674     37675     37669     37672     37674     37676
     37669     37672     37674     37677     37669     37672     37677     37674
     37669     37672     37677     37678     37669     37672     37677     37679
     37670     37669     37672     37673     37670     37669     37672     37674
     37670     37669     37672     37677     37671     37669     37672     37673
     37671     37669     37672     37674     37671     37669     37672     37677
     37672     37674     37677     37678     37672     37674     37677     37679
     37672     37677     37674     37675     37672     37677     37674     37676
     37672     37677     37679     37680     37672     37677     37679     37681
     37672     37677     37679     37682     37673     37672     37674     37675
     37673     37672     37674     37676     37673     37672     37674     37677
     37673     37672     37677     37674     37673     37672     37677     37678
     37673     37672     37677     37679     37674     37672     37677     37678
     37674     37672     37677     37679     37674     37677     37679     37680
     37674     37677     37679     37681     37674     37677     37679     37682
     37675     37674     37672     37677     37675     37674     37677     37678
     37675     37674     37677     37679     37676     37674     37672     37677
     37676     37674     37677     37678     37676     37674     37677     37679
     37677     37679     37682     37683     37677     37679     37682     37684
     37677     37679     37682     37685     37678     37677     37679     37680
     37678     37677     37679     37681     37678     37677     37679     37682
     37679     37682     37685     37686     37679     37682     37685     37687
     37679     37682     37685     37688     37680     37679     37682     37683
     37680     37679     37682     37684     37680     37679     37682     37685
     37681     37679     37682     37683     37681     37679     37682     37684
     37681     37679     37682     37685     37682     37685     37688     37689
     37682     37685     37688     37690     37682     37685     37688     37691
     37683     37682     37685     37686     37683     37682     37685     37687
     37683     37682     37685     37688     37684     37682     37685     37686
     37684     37682     37685     37687     37684     37682     37685     37688
     37685     37688     37691     37692     37685     37688     37691     37693
     37685     37688     37691     37694     37686     37685     37688     37689
     37686     37685     37688     37690     37686     37685     37688     37691
     37687     37685     37688     37689     37687     37685     37688     37690
     37687     37685     37688     37691     37688     37691     37694     37695
     37688     37691     37694     37696     37688     37691     37694     37697
     37689     37688     37691     37692     37689     37688     37691     37693
     37689     37688     37691     37694     37690     37688     37691     37692
     37690     37688     37691     37693     37690     37688     37691     37694
     37692     37691     37694     37695     37692     37691     37694     37696
     37692     37691     37694     37697     37693     37691     37694     37695
     37693     37691     37694     37696     37693     37691     37694     37697
     37698     37701     37704     37705     37698     37701     37704     37706
     37698     37701     37704     37707     37699     37698     37701     37702
     37699     37698     37701     37703     37699     37698     37701     37704
     37700     37698     37701     37702     37700     37698     37701     37703
     37700     37698     37701     37704     37701     37704     37707     37708
     37701     37704     37707     37709     37701     37704     37707     37710
     37702     37701     37704     37705     37702     37701     37704     37706
     37702     37701     37704     37707     37703     37701     37704     37705
     37703     37701     37704     37706     37703     37701     37704     37707
     37704     37707     37710     37711     37704     37707     37710     37712
     37704     37707     37710     37713     37705     37704     37707     37708
     37705     37704     37707     37709     37705     37704     37707     37710
     37706     37704     37707     37708     37706     37704     37707     37709
     37706     37704     37707     37710     37707     37710     37713     37714
     37707     37710     37713     37715     37707     37710     37713     37716
     37708     37707     37710     37711     37708     37707     37710     37712
     37708     37707     37710     37713     37709     37707     37710     37711
     37709     37707     37710     37712     37709     37707     37710     37713
     37710     37713     37716     37717     37710     37713     37716     37718
     37710     37713     37716     37719     37711     37710     37713     37714
     37711     37710     37713     37715     37711     37710     37713     37716
     37712     37710     37713     37714     37712     37710     37713     37715
     37712     37710     37713     37716     37713     37716     37719     37720
     37713     37716     37719     37721     37713     37716     37719     37722
     37714     37713     37716     37717     37714     37713     37716     37718
     37714     37713     37716     37719     37715     37713     37716     37717
     37715     37713     37716     37718     37715     37713     37716     37719
     37716     37719     37722     37723     37716     37719     37722     37724
     37716     37719     37722     37725     37717     37716     37719     37720
     37717     37716     37719     37721     37717     37716     37719     37722
     37718     37716     37719     37720     37718     37716     37719     37721
     37718     37716     37719     37722     37719     37722     37725     37726
     37719     37722     37725     37727     37719     37722     37725     37728
     37720     37719     37722     37723     37720     37719     37722     37724
     37720     37719     37722     37725     37721     37719     37722     37723
     37721     37719     37722     37724     37721     37719     37722     37725
     37722     37725     37728     37729     37722     37725     37728     37730
     37722     37725     37728     37731     37723     37722     37725     37726
     37723     37722     37725     37727     37723     37722     37725     37728
     37724     37722     37725     37726     37724     37722     37725     37727
     37724     37722     37725     37728     37725     37728     37731     37732
     37725     37728     37731     37733     37725     37728     37731     37734
     37726     37725     37728     37729     37726     37725     37728     37730
     37726     37725     37728     37731     37727     37725     37728     37729
     37727     37725     37728     37730     37727     37725     37728     37731
     37728     37731     37734     37735     37728     37731     37734     37736
     37728     37731     37734     37737     37729     37728     37731     37732
     37729     37728     37731     37733     37729     37728     37731     37734
     37730     37728     37731     37732     37730     37728     37731     37733
     37730     37728     37731     37734     37731     37734     37737     37738
     37731     37734     37737     37739     37731     37734     37737     37740
     37732     37731     37734     37735     37732     37731     37734     37736
     37732     37731     37734     37737     37733     37731     37734     37735
     37733     37731     37734     37736     37733     37731     37734     37737
     37735     37734     37737     37738     37735     37734     37737     37739
     37735     37734     37737     37740     37736     37734     37737     37738
     37736     37734     37737     37739     37736     37734     37737     37740
     37741     37745     37748     37749     37741     37745     37748     37750
     37741     37745     37748     37755     37742     37741     37745     37746
     37742     37741     37745     37747     37742     37741     37745     37748
     37743     37741     37745     37746     37743     37741     37745     37747
     37743     37741     37745     37748     37744     37741     37745     37746
     37744     37741     37745     37747     37744     37741     37745     37748
     37745     37748     37755     37751     37746     37745     37748     37749
     37746     37745     37748     37750     37746     37745     37748     37755
     37747     37745     37748     37749     37747     37745     37748     37750
     37747     37745     37748     37755     37748     37755     37751     37752
     37748     37755     37751     37753     37748     37755     37751     37754
     37749     37748     37755     37751     37750     37748     37755     37751
     37751     37754     37756     37757     37751     37754     37756     37758
     37751     37754     37756     37759     37752     37751     37754     37756
     37753     37751     37754     37756     37754     37756     37759     37760
     37754     37756     37759     37761     37754     37756     37759     37767
     37755     37751     37754     37756     37756     37759     37761     37762
     37756     37759     37767     37768     37756     37759     37767     37769
     37756     37759     37767     37770     37757     37756     37759     37760
     37757     37756     37759     37761     37757     37756     37759     37767
     37758     37756     37759     37760     37758     37756     37759     37761
     37758     37756     37759     37767     37759     37761     37762     37763
     37759     37761     37762     37764     37759     37767     37770     37771
     37760     37759     37761     37762     37760     37759     37767     37768
     37760     37759     37767     37769     37760     37759     37767     37770
     37761     37759     37767     37768     37761     37759     37767     37769
     37761     37759     37767     37770     37761     37762     37764     37765
     37761     37762     37764     37766     37761     37762     37764     37776
     37762     37761     37759     37767     37762     37764     37776     37777
     37762     37764     37776     37778     37762     37764     37776     37779
     37763     37762     37764     37765     37763     37762     37764     37766
     37763     37762     37764     37776     37764     37776     37779     37780
     37764     37776     37779     37781     37764     37776     37779     37782
     37765     37764     37776     37777     37765     37764     37776     37778
     37765     37764     37776     37779     37766     37764     37776     37777
     37766     37764     37776     37778     37766     37764     37776     37779
     37767     37770     37771     37772     37767     37770     37771     37773
     37768     37767     37770     37771     37769     37767     37770     37771
     37770     37771     37773     37774     37770     37771     37773     37775
     37770     37771     37773     37823     37771     37773     37823     37824
     37771     37773     37823     37825     37771     37773     37823     37826
     37772     37771     37773     37774     37772     37771     37773     37775
     37772     37771     37773     37823     37773     37823     37826     37827
     37773     37823     37826     37828     37773     37823     37826     37829
     37774     37773     37823     37824     37774     37773     37823     37825
     37774     37773     37823     37826     37775     37773     37823     37824
     37775     37773     37823     37825     37775     37773     37823     37826
     37776     37779     37782     37783     37776     37779     37782     37784
     37776     37779     37782     37785     37777     37776     37779     37780
     37777     37776     37779     37781     37777     37776     37779     37782
     37778     37776     37779     37780     37778     37776     37779     37781
     37778     37776     37779     37782     37779     37782     37785     37786
     37779     37782     37785     37787     37779     37782     37785     37788
     37780     37779     37782     37783     37780     37779     37782     37784
     37780     37779     37782     37785     37781     37779     37782     37783
     37781     37779     37782     37784     37781     37779     37782     37785
     37782     37785     37788     37789     37782     37785     37788     37790
     37782     37785     37788     37791     37783     37782     37785     37786
     37783     37782     37785     37787     37783     37782     37785     37788
     37784     37782     37785     37786     37784     37782     37785     37787
     37784     37782     37785     37788     37785     37788     37791     37792
     37785     37788     37791     37793     37785     37788     37791     37794
     37786     37785     37788     37789     37786     37785     37788     37790
     37786     37785     37788     37791     37787     37785     37788     37789
     37787     37785     37788     37790     37787     37785     37788     37791
     37788     37791     37794     37795     37788     37791     37794     37796
     37789     37788     37791     37792     37789     37788     37791     37793
     37789     37788     37791     37794     37790     37788     37791     37792
     37790     37788     37791     37793     37790     37788     37791     37794
     37791     37794     37796     37797     37791     37794     37796     37798
     37792     37791     37794     37795     37792     37791     37794     37796
     37793     37791     37794     37795     37793     37791     37794     37796
     37794     37796     37798     37799     37794     37796     37798     37800
     37794     37796     37798     37801     37795     37794     37796     37797
     37795     37794     37796     37798     37796     37798     37801     37802
     37796     37798     37801     37803     37796     37798     37801     37804
     37797     37796     37798     37799     37797     37796     37798     37800
     37797     37796     37798     37801     37798     37801     37804     37805
     37798     37801     37804     37806     37798     37801     37804     37807
     37799     37798     37801     37802     37799     37798     37801     37803
     37799     37798     37801     37804     37800     37798     37801     37802
     37800     37798     37801     37803     37800     37798     37801     37804
     37801     37804     37807     37808     37801     37804     37807     37809
     37801     37804     37807     37810     37802     37801     37804     37805
     37802     37801     37804     37806     37802     37801     37804     37807
     37803     37801     37804     37805     37803     37801     37804     37806
     37803     37801     37804     37807     37804     37807     37810     37811
     37804     37807     37810     37812     37804     37807     37810     37813
     37805     37804     37807     37808     37805     37804     37807     37809
     37805     37804     37807     37810     37806     37804     37807     37808
     37806     37804     37807     37809     37806     37804     37807     37810
     37807     37810     37813     37814     37807     37810     37813     37815
     37807     37810     37813     37816     37808     37807     37810     37811
     37808     37807     37810     37812     37808     37807     37810     37813
     37809     37807     37810     37811     37809     37807     37810     37812
     37809     37807     37810     37813     37810     37813     37816     37817
     37810     37813     37816     37818     37810     37813     37816     37819
     37811     37810     37813     37814     37811     37810     37813     37815
     37811     37810     37813     37816     37812     37810     37813     37814
     37812     37810     37813     37815     37812     37810     37813     37816
     37813     37816     37819     37820     37813     37816     37819     37821
     37813     37816     37819     37822     37814     37813     37816     37817
     37814     37813     37816     37818     37814     37813     37816     37819
     37815     37813     37816     37817     37815     37813     37816     37818
     37815     37813     37816     37819     37817     37816     37819     37820
     37817     37816     37819     37821     37817     37816     37819     37822
     37818     37816     37819     37820     37818     37816     37819     37821
     37818     37816     37819     37822     37823     37826     37829     37830
     37823     37826     37829     37831     37823     37826     37829     37832
     37824     37823     37826     37827     37824     37823     37826     37828
     37824     37823     37826     37829     37825     37823     37826     37827
     37825     37823     37826     37828     37825     37823     37826     37829
     37826     37829     37832     37833     37826     37829     37832     37834
     37826     37829     37832     37835     37827     37826     37829     37830
     37827     37826     37829     37831     37827     37826     37829     37832
     37828     37826     37829     37830     37828     37826     37829     37831
     37828     37826     37829     37832     37829     37832     37835     37836
     37829     37832     37835     37837     37829     37832     37835     37838
     37830     37829     37832     37833     37830     37829     37832     37834
     37830     37829     37832     37835     37831     37829     37832     37833
     37831     37829     37832     37834     37831     37829     37832     37835
     37832     37835     37838     37839     37832     37835     37838     37840
     37832     37835     37838     37841     37833     37832     37835     37836
     37833     37832     37835     37837     37833     37832     37835     37838
     37834     37832     37835     37836     37834     37832     37835     37837
     37834     37832     37835     37838     37835     37838     37841     37842
     37835     37838     37841     37843     37835     37838     37841     37844
     37836     37835     37838     37839     37836     37835     37838     37840
     37836     37835     37838     37841     37837     37835     37838     37839
     37837     37835     37838     37840     37837     37835     37838     37841
     37838     37841     37844     37845     37838     37841     37844     37846
     37838     37841     37844     37847     37839     37838     37841     37842
     37839     37838     37841     37843     37839     37838     37841     37844
     37840     37838     37841     37842     37840     37838     37841     37843
     37840     37838     37841     37844     37841     37844     37847     37848
     37841     37844     37847     37849     37841     37844     37847     37850
     37842     37841     37844     37845     37842     37841     37844     37846
     37842     37841     37844     37847     37843     37841     37844     37845
     37843     37841     37844     37846     37843     37841     37844     37847
     37844     37847     37850     37851     37844     37847     37850     37852
     37844     37847     37850     37853     37845     37844     37847     37848
     37845     37844     37847     37849     37845     37844     37847     37850
     37846     37844     37847     37848     37846     37844     37847     37849
     37846     37844     37847     37850     37847     37850     37853     37854
     37847     37850     37853     37855     37847     37850     37853     37856
     37848     37847     37850     37851     37848     37847     37850     37852
     37848     37847     37850     37853     37849     37847     37850     37851
     37849     37847     37850     37852     37849     37847     37850     37853
     37850     37853     37856     37857     37850     37853     37856     37858
     37850     37853     37856     37859     37851     37850     37853     37854
     37851     37850     37853     37855     37851     37850     37853     37856
     37852     37850     37853     37854     37852     37850     37853     37855
     37852     37850     37853     37856     37853     37856     37859     37860
     37853     37856     37859     37861     37853     37856     37859     37862
     37854     37853     37856     37857     37854     37853     37856     37858
     37854     37853     37856     37859     37855     37853     37856     37857
     37855     37853     37856     37858     37855     37853     37856     37859
     37856     37859     37862     37863     37856     37859     37862     37864
     37856     37859     37862     37865     37857     37856     37859     37860
     37857     37856     37859     37861     37857     37856     37859     37862
     37858     37856     37859     37860     37858     37856     37859     37861
     37858     37856     37859     37862     37860     37859     37862     37863
     37860     37859     37862     37864     37860     37859     37862     37865
     37861     37859     37862     37863     37861     37859     37862     37864
     37861     37859     37862     37865     37866     37870     37873     37874
     37866     37870     37873     37875     37866     37870     37873     37880
     37867     37866     37870     37871     37867     37866     37870     37872
     37867     37866     37870     37873     37868     37866     37870     37871
     37868     37866     37870     37872     37868     37866     37870     37873
     37869     37866     37870     37871     37869     37866     37870     37872
     37869     37866     37870     37873     37870     37873     37880     37876
     37871     37870     37873     37874     37871     37870     37873     37875
     37871     37870     37873     37880     37872     37870     37873     37874
     37872     37870     37873     37875     37872     37870     37873     37880
     37873     37880     37876     37877     37873     37880     37876     37878
     37873     37880     37876     37879     37874     37873     37880     37876
     37875     37873     37880     37876     37876     37879     37881     37882
     37876     37879     37881     37883     37876     37879     37881     37884
     37877     37876     37879     37881     37878     37876     37879     37881
     37879     37881     37884     37885     37879     37881     37884     37886
     37879     37881     37884     37892     37880     37876     37879     37881
     37881     37884     37886     37887     37881     37884     37892     37893
     37881     37884     37892     37894     37881     37884     37892     37895
     37882     37881     37884     37885     37882     37881     37884     37886
     37882     37881     37884     37892     37883     37881     37884     37885
     37883     37881     37884     37886     37883     37881     37884     37892
     37884     37886     37887     37888     37884     37886     37887     37889
     37884     37892     37895     37896     37885     37884     37886     37887
     37885     37884     37892     37893     37885     37884     37892     37894
     37885     37884     37892     37895     37886     37884     37892     37893
     37886     37884     37892     37894     37886     37884     37892     37895
     37886     37887     37889     37890     37886     37887     37889     37891
     37886     37887     37889     37901     37887     37886     37884     37892
     37887     37889     37901     37902     37887     37889     37901     37903
     37887     37889     37901     37904     37888     37887     37889     37890
     37888     37887     37889     37891     37888     37887     37889     37901
     37889     37901     37904     37905     37889     37901     37904     37906
     37889     37901     37904     37907     37890     37889     37901     37902
     37890     37889     37901     37903     37890     37889     37901     37904
     37891     37889     37901     37902     37891     37889     37901     37903
     37891     37889     37901     37904     37892     37895     37896     37897
     37892     37895     37896     37898     37893     37892     37895     37896
     37894     37892     37895     37896     37895     37896     37898     37899
     37895     37896     37898     37900     37895     37896     37898     37945
     37896     37898     37945     37946     37896     37898     37945     37947
     37896     37898     37945     37948     37897     37896     37898     37899
     37897     37896     37898     37900     37897     37896     37898     37945
     37898     37945     37948     37949     37898     37945     37948     37950
     37898     37945     37948     37951     37899     37898     37945     37946
     37899     37898     37945     37947     37899     37898     37945     37948
     37900     37898     37945     37946     37900     37898     37945     37947
     37900     37898     37945     37948     37901     37904     37907     37908
     37901     37904     37907     37909     37901     37904     37907     37910
     37902     37901     37904     37905     37902     37901     37904     37906
     37902     37901     37904     37907     37903     37901     37904     37905
     37903     37901     37904     37906     37903     37901     37904     37907
     37904     37907     37910     37911     37904     37907     37910     37912
     37904     37907     37910     37913     37905     37904     37907     37908
     37905     37904     37907     37909     37905     37904     37907     37910
     37906     37904     37907     37908     37906     37904     37907     37909
     37906     37904     37907     37910     37907     37910     37913     37914
     37907     37910     37913     37915     37907     37910     37913     37916
     37908     37907     37910     37911     37908     37907     37910     37912
     37908     37907     37910     37913     37909     37907     37910     37911
     37909     37907     37910     37912     37909     37907     37910     37913
     37910     37913     37916     37917     37910     37913     37916     37918
     37910     37913     37916     37919     37911     37910     37913     37914
     37911     37910     37913     37915     37911     37910     37913     37916
     37912     37910     37913     37914     37912     37910     37913     37915
     37912     37910     37913     37916     37913     37916     37919     37920
     37913     37916     37919     37921     37913     37916     37919     37924
     37914     37913     37916     37917     37914     37913     37916     37918
     37914     37913     37916     37919     37915     37913     37916     37917
     37915     37913     37916     37918     37915     37913     37916     37919
     37916     37919     37921     37922     37916     37919     37921     37923
     37916     37919     37921     37924     37916     37919     37924     37921
     37916     37919     37924     37925     37916     37919     37924     37926
     37917     37916     37919     37920     37917     37916     37919     37921
     37917     37916     37919     37924     37918     37916     37919     37920
     37918     37916     37919     37921     37918     37916     37919     37924
     37919     37921     37924     37925     37919     37921     37924     37926
     37919     37924     37921     37922     37919     37924     37921     37923
     37919     37924     37926     37927     37919     37924     37926     37928
     37919     37924     37926     37929     37920     37919     37921     37922
     37920     37919     37921     37923     37920     37919     37921     37924
     37920     37919     37924     37921     37920     37919     37924     37925
     37920     37919     37924     37926     37921     37919     37924     37925
     37921     37919     37924     37926     37921     37924     37926     37927
     37921     37924     37926     37928     37921     37924     37926     37929
     37922     37921     37919     37924     37922     37921     37924     37925
     37922     37921     37924     37926     37923     37921     37919     37924
     37923     37921     37924     37925     37923     37921     37924     37926
     37924     37926     37929     37930     37924     37926     37929     37931
     37924     37926     37929     37932     37925     37924     37926     37927
     37925     37924     37926     37928     37925     37924     37926     37929
     37926     37929     37932     37933     37926     37929     37932     37934
     37926     37929     37932     37935     37927     37926     37929     37930
     37927     37926     37929     37931     37927     37926     37929     37932
     37928     37926     37929     37930     37928     37926     37929     37931
     37928     37926     37929     37932     37929     37932     37935     37936
     37929     37932     37935     37937     37929     37932     37935     37938
     37930     37929     37932     37933     37930     37929     37932     37934
     37930     37929     37932     37935     37931     37929     37932     37933
     37931     37929     37932     37934     37931     37929     37932     37935
     37932     37935     37938     37939     37932     37935     37938     37940
     37932     37935     37938     37941     37933     37932     37935     37936
     37933     37932     37935     37937     37933     37932     37935     37938
     37934     37932     37935     37936     37934     37932     37935     37937
     37934     37932     37935     37938     37935     37938     37941     37942
     37935     37938     37941     37943     37935     37938     37941     37944
     37936     37935     37938     37939     37936     37935     37938     37940
     37936     37935     37938     37941     37937     37935     37938     37939
     37937     37935     37938     37940     37937     37935     37938     37941
     37939     37938     37941     37942     37939     37938     37941     37943
     37939     37938     37941     37944     37940     37938     37941     37942
     37940     37938     37941     37943     37940     37938     37941     37944
     37945     37948     37951     37952     37945     37948     37951     37953
     37945     37948     37951     37954     37946     37945     37948     37949
     37946     37945     37948     37950     37946     37945     37948     37951
     37947     37945     37948     37949     37947     37945     37948     37950
     37947     37945     37948     37951     37948     37951     37954     37955
     37948     37951     37954     37956     37948     37951     37954     37957
     37949     37948     37951     37952     37949     37948     37951     37953
     37949     37948     37951     37954     37950     37948     37951     37952
     37950     37948     37951     37953     37950     37948     37951     37954
     37951     37954     37957     37958     37951     37954     37957     37959
     37951     37954     37957     37960     37952     37951     37954     37955
     37952     37951     37954     37956     37952     37951     37954     37957
     37953     37951     37954     37955     37953     37951     37954     37956
     37953     37951     37954     37957     37954     37957     37960     37961
     37954     37957     37960     37962     37954     37957     37960     37963
     37955     37954     37957     37958     37955     37954     37957     37959
     37955     37954     37957     37960     37956     37954     37957     37958
     37956     37954     37957     37959     37956     37954     37957     37960
     37957     37960     37963     37964     37957     37960     37963     37965
     37957     37960     37963     37966     37958     37957     37960     37961
     37958     37957     37960     37962     37958     37957     37960     37963
     37959     37957     37960     37961     37959     37957     37960     37962
     37959     37957     37960     37963     37960     37963     37966     37967
     37960     37963     37966     37968     37960     37963     37966     37969
     37961     37960     37963     37964     37961     37960     37963     37965
     37961     37960     37963     37966     37962     37960     37963     37964
     37962     37960     37963     37965     37962     37960     37963     37966
     37963     37966     37969     37970     37963     37966     37969     37971
     37963     37966     37969     37972     37964     37963     37966     37967
     37964     37963     37966     37968     37964     37963     37966     37969
     37965     37963     37966     37967     37965     37963     37966     37968
     37965     37963     37966     37969     37966     37969     37972     37973
     37966     37969     37972     37974     37966     37969     37972     37975
     37967     37966     37969     37970     37967     37966     37969     37971
     37967     37966     37969     37972     37968     37966     37969     37970
     37968     37966     37969     37971     37968     37966     37969     37972
     37969     37972     37975     37976     37969     37972     37975     37977
     37969     37972     37975     37978     37970     37969     37972     37973
     37970     37969     37972     37974     37970     37969     37972     37975
     37971     37969     37972     37973     37971     37969     37972     37974
     37971     37969     37972     37975     37972     37975     37978     37979
     37972     37975     37978     37980     37972     37975     37978     37981
     37973     37972     37975     37976     37973     37972     37975     37977
     37973     37972     37975     37978     37974     37972     37975     37976
     37974     37972     37975     37977     37974     37972     37975     37978
     37975     37978     37981     37982     37975     37978     37981     37983
     37975     37978     37981     37984     37976     37975     37978     37979
     37976     37975     37978     37980     37976     37975     37978     37981
     37977     37975     37978     37979     37977     37975     37978     37980
     37977     37975     37978     37981     37978     37981     37984     37985
     37978     37981     37984     37986     37978     37981     37984     37987
     37979     37978     37981     37982     37979     37978     37981     37983
     37979     37978     37981     37984     37980     37978     37981     37982
     37980     37978     37981     37983     37980     37978     37981     37984
     37982     37981     37984     37985     37982     37981     37984     37986
     37982     37981     37984     37987     37983     37981     37984     37985
     37983     37981     37984     37986     37983     37981     37984     37987
     37988     37992     37995     37996     37988     37992     37995     37997
     37988     37992     37995     38002     37989     37988     37992     37993
     37989     37988     37992     37994     37989     37988     37992     37995
     37990     37988     37992     37993     37990     37988     37992     37994
     37990     37988     37992     37995     37991     37988     37992     37993
     37991     37988     37992     37994     37991     37988     37992     37995
     37992     37995     38002     37998     37993     37992     37995     37996
     37993     37992     37995     37997     37993     37992     37995     38002
     37994     37992     37995     37996     37994     37992     37995     37997
     37994     37992     37995     38002     37995     38002     37998     37999
     37995     38002     37998     38000     37995     38002     37998     38001
     37996     37995     38002     37998     37997     37995     38002     37998
     37998     38001     38003     38004     37998     38001     38003     38005
     37998     38001     38003     38006     37999     37998     38001     38003
     38000     37998     38001     38003     38001     38003     38006     38007
     38001     38003     38006     38008     38001     38003     38006     38014
     38002     37998     38001     38003     38003     38006     38008     38009
     38003     38006     38014     38015     38003     38006     38014     38016
     38003     38006     38014     38017     38004     38003     38006     38007
     38004     38003     38006     38008     38004     38003     38006     38014
     38005     38003     38006     38007     38005     38003     38006     38008
     38005     38003     38006     38014     38006     38008     38009     38010
     38006     38008     38009     38011     38006     38014     38017     38018
     38007     38006     38008     38009     38007     38006     38014     38015
     38007     38006     38014     38016     38007     38006     38014     38017
     38008     38006     38014     38015     38008     38006     38014     38016
     38008     38006     38014     38017     38008     38009     38011     38012
     38008     38009     38011     38013     38008     38009     38011     38023
     38009     38008     38006     38014     38009     38011     38023     38024
     38009     38011     38023     38025     38009     38011     38023     38026
     38010     38009     38011     38012     38010     38009     38011     38013
     38010     38009     38011     38023     38011     38023     38026     38027
     38011     38023     38026     38028     38011     38023     38026     38029
     38012     38011     38023     38024     38012     38011     38023     38025
     38012     38011     38023     38026     38013     38011     38023     38024
     38013     38011     38023     38025     38013     38011     38023     38026
     38014     38017     38018     38019     38014     38017     38018     38020
     38015     38014     38017     38018     38016     38014     38017     38018
     38017     38018     38020     38021     38017     38018     38020     38022
     38017     38018     38020     38070     38018     38020     38070     38071
     38018     38020     38070     38072     38018     38020     38070     38073
     38019     38018     38020     38021     38019     38018     38020     38022
     38019     38018     38020     38070     38020     38070     38073     38074
     38020     38070     38073     38075     38020     38070     38073     38076
     38021     38020     38070     38071     38021     38020     38070     38072
     38021     38020     38070     38073     38022     38020     38070     38071
     38022     38020     38070     38072     38022     38020     38070     38073
     38023     38026     38029     38030     38023     38026     38029     38031
     38023     38026     38029     38032     38024     38023     38026     38027
     38024     38023     38026     38028     38024     38023     38026     38029
     38025     38023     38026     38027     38025     38023     38026     38028
     38025     38023     38026     38029     38026     38029     38032     38033
     38026     38029     38032     38034     38026     38029     38032     38035
     38027     38026     38029     38030     38027     38026     38029     38031
     38027     38026     38029     38032     38028     38026     38029     38030
     38028     38026     38029     38031     38028     38026     38029     38032
     38029     38032     38035     38036     38029     38032     38035     38037
     38029     38032     38035     38038     38030     38029     38032     38033
     38030     38029     38032     38034     38030     38029     38032     38035
     38031     38029     38032     38033     38031     38029     38032     38034
     38031     38029     38032     38035     38032     38035     38038     38039
     38032     38035     38038     38040     38032     38035     38038     38041
     38033     38032     38035     38036     38033     38032     38035     38037
     38033     38032     38035     38038     38034     38032     38035     38036
     38034     38032     38035     38037     38034     38032     38035     38038
     38035     38038     38041     38042     38035     38038     38041     38043
     38036     38035     38038     38039     38036     38035     38038     38040
     38036     38035     38038     38041     38037     38035     38038     38039
     38037     38035     38038     38040     38037     38035     38038     38041
     38038     38041     38043     38044     38038     38041     38043     38045
     38039     38038     38041     38042     38039     38038     38041     38043
     38040     38038     38041     38042     38040     38038     38041     38043
     38041     38043     38045     38046     38041     38043     38045     38047
     38041     38043     38045     38048     38042     38041     38043     38044
     38042     38041     38043     38045     38043     38045     38048     38049
     38043     38045     38048     38050     38043     38045     38048     38051
     38044     38043     38045     38046     38044     38043     38045     38047
     38044     38043     38045     38048     38045     38048     38051     38052
     38045     38048     38051     38053     38045     38048     38051     38054
     38046     38045     38048     38049     38046     38045     38048     38050
     38046     38045     38048     38051     38047     38045     38048     38049
     38047     38045     38048     38050     38047     38045     38048     38051
     38048     38051     38054     38055     38048     38051     38054     38056
     38048     38051     38054     38057     38049     38048     38051     38052
     38049     38048     38051     38053     38049     38048     38051     38054
     38050     38048     38051     38052     38050     38048     38051     38053
     38050     38048     38051     38054     38051     38054     38057     38058
     38051     38054     38057     38059     38051     38054     38057     38060
     38052     38051     38054     38055     38052     38051     38054     38056
     38052     38051     38054     38057     38053     38051     38054     38055
     38053     38051     38054     38056     38053     38051     38054     38057
     38054     38057     38060     38061     38054     38057     38060     38062
     38054     38057     38060     38063     38055     38054     38057     38058
     38055     38054     38057     38059     38055     38054     38057     38060
     38056     38054     38057     38058     38056     38054     38057     38059
     38056     38054     38057     38060     38057     38060     38063     38064
     38057     38060     38063     38065     38057     38060     38063     38066
     38058     38057     38060     38061     38058     38057     38060     38062
     38058     38057     38060     38063     38059     38057     38060     38061
     38059     38057     38060     38062     38059     38057     38060     38063
     38060     38063     38066     38067     38060     38063     38066     38068
     38060     38063     38066     38069     38061     38060     38063     38064
     38061     38060     38063     38065     38061     38060     38063     38066
     38062     38060     38063     38064     38062     38060     38063     38065
     38062     38060     38063     38066     38064     38063     38066     38067
     38064     38063     38066     38068     38064     38063     38066     38069
     38065     38063     38066     38067     38065     38063     38066     38068
     38065     38063     38066     38069     38070     38073     38076     38077
     38070     38073     38076     38078     38070     38073     38076     38079
     38071     38070     38073     38074     38071     38070     38073     38075
     38071     38070     38073     38076     38072     38070     38073     38074
     38072     38070     38073     38075     38072     38070     38073     38076
     38073     38076     38079     38080     38073     38076     38079     38081
     38073     38076     38079     38082     38074     38073     38076     38077
     38074     38073     38076     38078     38074     38073     38076     38079
     38075     38073     38076     38077     38075     38073     38076     38078
     38075     38073     38076     38079     38076     38079     38082     38083
     38076     38079     38082     38084     38076     38079     38082     38085
     38077     38076     38079     38080     38077     38076     38079     38081
     38077     38076     38079     38082     38078     38076     38079     38080
     38078     38076     38079     38081     38078     38076     38079     38082
     38079     38082     38085     38086     38079     38082     38085     38087
     38079     38082     38085     38088     38080     38079     38082     38083
     38080     38079     38082     38084     38080     38079     38082     38085
     38081     38079     38082     38083     38081     38079     38082     38084
     38081     38079     38082     38085     38082     38085     38088     38089
     38082     38085     38088     38090     38082     38085     38088     38091
     38083     38082     38085     38086     38083     38082     38085     38087
     38083     38082     38085     38088     38084     38082     38085     38086
     38084     38082     38085     38087     38084     38082     38085     38088
     38085     38088     38091     38092     38085     38088     38091     38093
     38085     38088     38091     38094     38086     38085     38088     38089
     38086     38085     38088     38090     38086     38085     38088     38091
     38087     38085     38088     38089     38087     38085     38088     38090
     38087     38085     38088     38091     38088     38091     38094     38095
     38088     38091     38094     38096     38088     38091     38094     38097
     38089     38088     38091     38092     38089     38088     38091     38093
     38089     38088     38091     38094     38090     38088     38091     38092
     38090     38088     38091     38093     38090     38088     38091     38094
     38091     38094     38097     38098     38091     38094     38097     38099
     38091     38094     38097     38100     38092     38091     38094     38095
     38092     38091     38094     38096     38092     38091     38094     38097
     38093     38091     38094     38095     38093     38091     38094     38096
     38093     38091     38094     38097     38094     38097     38100     38101
     38094     38097     38100     38102     38094     38097     38100     38103
     38095     38094     38097     38098     38095     38094     38097     38099
     38095     38094     38097     38100     38096     38094     38097     38098
     38096     38094     38097     38099     38096     38094     38097     38100
     38097     38100     38103     38104     38097     38100     38103     38105
     38097     38100     38103     38106     38098     38097     38100     38101
     38098     38097     38100     38102     38098     38097     38100     38103
     38099     38097     38100     38101     38099     38097     38100     38102
     38099     38097     38100     38103     38100     38103     38106     38107
     38100     38103     38106     38108     38100     38103     38106     38109
     38101     38100     38103     38104     38101     38100     38103     38105
     38101     38100     38103     38106     38102     38100     38103     38104
     38102     38100     38103     38105     38102     38100     38103     38106
     38103     38106     38109     38110     38103     38106     38109     38111
     38103     38106     38109     38112     38104     38103     38106     38107
     38104     38103     38106     38108     38104     38103     38106     38109
     38105     38103     38106     38107     38105     38103     38106     38108
     38105     38103     38106     38109     38107     38106     38109     38110
     38107     38106     38109     38111     38107     38106     38109     38112
     38108     38106     38109     38110     38108     38106     38109     38111
     38108     38106     38109     38112     38113     38117     38120     38121
     38113     38117     38120     38122     38113     38117     38120     38127
     38114     38113     38117     38118     38114     38113     38117     38119
     38114     38113     38117     38120     38115     38113     38117     38118
     38115     38113     38117     38119     38115     38113     38117     38120
     38116     38113     38117     38118     38116     38113     38117     38119
     38116     38113     38117     38120     38117     38120     38127     38123
     38118     38117     38120     38121     38118     38117     38120     38122
     38118     38117     38120     38127     38119     38117     38120     38121
     38119     38117     38120     38122     38119     38117     38120     38127
     38120     38127     38123     38124     38120     38127     38123     38125
     38120     38127     38123     38126     38121     38120     38127     38123
     38122     38120     38127     38123     38123     38126     38128     38129
     38123     38126     38128     38130     38123     38126     38128     38131
     38124     38123     38126     38128     38125     38123     38126     38128
     38126     38128     38131     38132     38126     38128     38131     38133
     38126     38128     38131     38139     38127     38123     38126     38128
     38128     38131     38133     38134     38128     38131     38139     38140
     38128     38131     38139     38141     38128     38131     38139     38142
     38129     38128     38131     38132     38129     38128     38131     38133
     38129     38128     38131     38139     38130     38128     38131     38132
     38130     38128     38131     38133     38130     38128     38131     38139
     38131     38133     38134     38135     38131     38133     38134     38136
     38131     38139     38142     38143     38132     38131     38133     38134
     38132     38131     38139     38140     38132     38131     38139     38141
     38132     38131     38139     38142     38133     38131     38139     38140
     38133     38131     38139     38141     38133     38131     38139     38142
     38133     38134     38136     38137     38133     38134     38136     38138
     38133     38134     38136     38148     38134     38133     38131     38139
     38134     38136     38148     38149     38134     38136     38148     38150
     38134     38136     38148     38151     38135     38134     38136     38137
     38135     38134     38136     38138     38135     38134     38136     38148
     38136     38148     38151     38152     38136     38148     38151     38153
     38136     38148     38151     38154     38137     38136     38148     38149
     38137     38136     38148     38150     38137     38136     38148     38151
     38138     38136     38148     38149     38138     38136     38148     38150
     38138     38136     38148     38151     38139     38142     38143     38144
     38139     38142     38143     38145     38140     38139     38142     38143
     38141     38139     38142     38143     38142     38143     38145     38146
     38142     38143     38145     38147     38142     38143     38145     38189
     38143     38145     38189     38190     38143     38145     38189     38191
     38143     38145     38189     38192     38144     38143     38145     38146
     38144     38143     38145     38147     38144     38143     38145     38189
     38145     38189     38192     38193     38145     38189     38192     38194
     38145     38189     38192     38195     38146     38145     38189     38190
     38146     38145     38189     38191     38146     38145     38189     38192
     38147     38145     38189     38190     38147     38145     38189     38191
     38147     38145     38189     38192     38148     38151     38154     38155
     38148     38151     38154     38156     38148     38151     38154     38157
     38149     38148     38151     38152     38149     38148     38151     38153
     38149     38148     38151     38154     38150     38148     38151     38152
     38150     38148     38151     38153     38150     38148     38151     38154
     38151     38154     38157     38158     38151     38154     38157     38159
     38151     38154     38157     38160     38152     38151     38154     38155
     38152     38151     38154     38156     38152     38151     38154     38157
     38153     38151     38154     38155     38153     38151     38154     38156
     38153     38151     38154     38157     38154     38157     38160     38161
     38154     38157     38160     38162     38154     38157     38160     38163
     38155     38154     38157     38158     38155     38154     38157     38159
     38155     38154     38157     38160     38156     38154     38157     38158
     38156     38154     38157     38159     38156     38154     38157     38160
     38157     38160     38163     38164     38157     38160     38163     38165
     38157     38160     38163     38166     38158     38157     38160     38161
     38158     38157     38160     38162     38158     38157     38160     38163
     38159     38157     38160     38161     38159     38157     38160     38162
     38159     38157     38160     38163     38160     38163     38166     38167
     38160     38163     38166     38168     38161     38160     38163     38164
     38161     38160     38163     38165     38161     38160     38163     38166
     38162     38160     38163     38164     38162     38160     38163     38165
     38162     38160     38163     38166     38163     38166     38168     38169
     38163     38166     38168     38170     38164     38163     38166     38167
     38164     38163     38166     38168     38165     38163     38166     38167
     38165     38163     38166     38168     38166     38168     38170     38171
     38166     38168     38170     38172     38166     38168     38170     38173
     38167     38166     38168     38169     38167     38166     38168     38170
     38168     38170     38173     38174     38168     38170     38173     38175
     38168     38170     38173     38176     38169     38168     38170     38171
     38169     38168     38170     38172     38169     38168     38170     38173
     38170     38173     38176     38177     38170     38173     38176     38178
     38170     38173     38176     38179     38171     38170     38173     38174
     38171     38170     38173     38175     38171     38170     38173     38176
     38172     38170     38173     38174     38172     38170     38173     38175
     38172     38170     38173     38176     38173     38176     38179     38180
     38173     38176     38179     38181     38173     38176     38179     38182
     38174     38173     38176     38177     38174     38173     38176     38178
     38174     38173     38176     38179     38175     38173     38176     38177
     38175     38173     38176     38178     38175     38173     38176     38179
     38176     38179     38182     38183     38176     38179     38182     38184
     38176     38179     38182     38185     38177     38176     38179     38180
     38177     38176     38179     38181     38177     38176     38179     38182
     38178     38176     38179     38180     38178     38176     38179     38181
     38178     38176     38179     38182     38179     38182     38185     38186
     38179     38182     38185     38187     38179     38182     38185     38188
     38180     38179     38182     38183     38180     38179     38182     38184
     38180     38179     38182     38185     38181     38179     38182     38183
     38181     38179     38182     38184     38181     38179     38182     38185
     38183     38182     38185     38186     38183     38182     38185     38187
     38183     38182     38185     38188     38184     38182     38185     38186
     38184     38182     38185     38187     38184     38182     38185     38188
     38189     38192     38195     38196     38189     38192     38195     38197
     38189     38192     38195     38198     38190     38189     38192     38193
     38190     38189     38192     38194     38190     38189     38192     38195
     38191     38189     38192     38193     38191     38189     38192     38194
     38191     38189     38192     38195     38192     38195     38198     38199
     38192     38195     38198     38200     38192     38195     38198     38201
     38193     38192     38195     38196     38193     38192     38195     38197
     38193     38192     38195     38198     38194     38192     38195     38196
     38194     38192     38195     38197     38194     38192     38195     38198
     38195     38198     38201     38202     38195     38198     38201     38203
     38195     38198     38201     38204     38196     38195     38198     38199
     38196     38195     38198     38200     38196     38195     38198     38201
     38197     38195     38198     38199     38197     38195     38198     38200
     38197     38195     38198     38201     38198     38201     38204     38205
     38198     38201     38204     38206     38198     38201     38204     38207
     38199     38198     38201     38202     38199     38198     38201     38203
     38199     38198     38201     38204     38200     38198     38201     38202
     38200     38198     38201     38203     38200     38198     38201     38204
     38201     38204     38207     38208     38201     38204     38207     38209
     38202     38201     38204     38205     38202     38201     38204     38206
     38202     38201     38204     38207     38203     38201     38204     38205
     38203     38201     38204     38206     38203     38201     38204     38207
     38204     38207     38209     38210     38204     38207     38209     38211
     38205     38204     38207     38208     38205     38204     38207     38209
     38206     38204     38207     38208     38206     38204     38207     38209
     38207     38209     38211     38212     38207     38209     38211     38213
     38207     38209     38211     38214     38208     38207     38209     38210
     38208     38207     38209     38211     38209     38211     38214     38215
     38209     38211     38214     38216     38209     38211     38214     38217
     38210     38209     38211     38212     38210     38209     38211     38213
     38210     38209     38211     38214     38211     38214     38217     38218
     38211     38214     38217     38219     38211     38214     38217     38220
     38212     38211     38214     38215     38212     38211     38214     38216
     38212     38211     38214     38217     38213     38211     38214     38215
     38213     38211     38214     38216     38213     38211     38214     38217
     38214     38217     38220     38221     38214     38217     38220     38222
     38214     38217     38220     38223     38215     38214     38217     38218
     38215     38214     38217     38219     38215     38214     38217     38220
     38216     38214     38217     38218     38216     38214     38217     38219
     38216     38214     38217     38220     38217     38220     38223     38224
     38217     38220     38223     38225     38217     38220     38223     38226
     38218     38217     38220     38221     38218     38217     38220     38222
     38218     38217     38220     38223     38219     38217     38220     38221
     38219     38217     38220     38222     38219     38217     38220     38223
     38220     38223     38226     38227     38220     38223     38226     38228
     38220     38223     38226     38229     38221     38220     38223     38224
     38221     38220     38223     38225     38221     38220     38223     38226
     38222     38220     38223     38224     38222     38220     38223     38225
     38222     38220     38223     38226     38223     38226     38229     38230
     38223     38226     38229     38231     38223     38226     38229     38232
     38224     38223     38226     38227     38224     38223     38226     38228
     38224     38223     38226     38229     38225     38223     38226     38227
     38225     38223     38226     38228     38225     38223     38226     38229
     38226     38229     38232     38233     38226     38229     38232     38234
     38226     38229     38232     38235     38227     38226     38229     38230
     38227     38226     38229     38231     38227     38226     38229     38232
     38228     38226     38229     38230     38228     38226     38229     38231
     38228     38226     38229     38232     38230     38229     38232     38233
     38230     38229     38232     38234     38230     38229     38232     38235
     38231     38229     38232     38233     38231     38229     38232     38234
     38231     38229     38232     38235     38236     38240     38243     38244
     38236     38240     38243     38245     38236     38240     38243     38250
     38237     38236     38240     38241     38237     38236     38240     38242
     38237     38236     38240     38243     38238     38236     38240     38241
     38238     38236     38240     38242     38238     38236     38240     38243
     38239     38236     38240     38241     38239     38236     38240     38242
     38239     38236     38240     38243     38240     38243     38250     38246
     38241     38240     38243     38244     38241     38240     38243     38245
     38241     38240     38243     38250     38242     38240     38243     38244
     38242     38240     38243     38245     38242     38240     38243     38250
     38243     38250     38246     38247     38243     38250     38246     38248
     38243     38250     38246     38249     38244     38243     38250     38246
     38245     38243     38250     38246     38246     38249     38251     38252
     38246     38249     38251     38253     38246     38249     38251     38254
     38247     38246     38249     38251     38248     38246     38249     38251
     38249     38251     38254     38255     38249     38251     38254     38256
     38249     38251     38254     38262     38250     38246     38249     38251
     38251     38254     38256     38257     38251     38254     38262     38263
     38251     38254     38262     38264     38251     38254     38262     38265
     38252     38251     38254     38255     38252     38251     38254     38256
     38252     38251     38254     38262     38253     38251     38254     38255
     38253     38251     38254     38256     38253     38251     38254     38262
     38254     38256     38257     38258     38254     38256     38257     38259
     38254     38262     38265     38266     38255     38254     38256     38257
     38255     38254     38262     38263     38255     38254     38262     38264
     38255     38254     38262     38265     38256     38254     38262     38263
     38256     38254     38262     38264     38256     38254     38262     38265
     38256     38257     38259     38260     38256     38257     38259     38261
     38256     38257     38259     38271     38257     38256     38254     38262
     38257     38259     38271     38272     38257     38259     38271     38273
     38257     38259     38271     38274     38258     38257     38259     38260
     38258     38257     38259     38261     38258     38257     38259     38271
     38259     38271     38274     38275     38259     38271     38274     38276
     38259     38271     38274     38277     38260     38259     38271     38272
     38260     38259     38271     38273     38260     38259     38271     38274
     38261     38259     38271     38272     38261     38259     38271     38273
     38261     38259     38271     38274     38262     38265     38266     38267
     38262     38265     38266     38268     38263     38262     38265     38266
     38264     38262     38265     38266     38265     38266     38268     38269
     38265     38266     38268     38270     38265     38266     38268     38315
     38266     38268     38315     38316     38266     38268     38315     38317
     38266     38268     38315     38318     38267     38266     38268     38269
     38267     38266     38268     38270     38267     38266     38268     38315
     38268     38315     38318     38319     38268     38315     38318     38320
     38268     38315     38318     38321     38269     38268     38315     38316
     38269     38268     38315     38317     38269     38268     38315     38318
     38270     38268     38315     38316     38270     38268     38315     38317
     38270     38268     38315     38318     38271     38274     38277     38278
     38271     38274     38277     38279     38271     38274     38277     38280
     38272     38271     38274     38275     38272     38271     38274     38276
     38272     38271     38274     38277     38273     38271     38274     38275
     38273     38271     38274     38276     38273     38271     38274     38277
     38274     38277     38280     38281     38274     38277     38280     38282
     38274     38277     38280     38283     38275     38274     38277     38278
     38275     38274     38277     38279     38275     38274     38277     38280
     38276     38274     38277     38278     38276     38274     38277     38279
     38276     38274     38277     38280     38277     38280     38283     38284
     38277     38280     38283     38285     38277     38280     38283     38286
     38278     38277     38280     38281     38278     38277     38280     38282
     38278     38277     38280     38283     38279     38277     38280     38281
     38279     38277     38280     38282     38279     38277     38280     38283
     38280     38283     38286     38287     38280     38283     38286     38288
     38280     38283     38286     38289     38281     38280     38283     38284
     38281     38280     38283     38285     38281     38280     38283     38286
     38282     38280     38283     38284     38282     38280     38283     38285
     38282     38280     38283     38286     38283     38286     38289     38290
     38283     38286     38289     38291     38283     38286     38289     38294
     38284     38283     38286     38287     38284     38283     38286     38288
     38284     38283     38286     38289     38285     38283     38286     38287
     38285     38283     38286     38288     38285     38283     38286     38289
     38286     38289     38291     38292     38286     38289     38291     38293
     38286     38289     38291     38294     38286     38289     38294     38291
     38286     38289     38294     38295     38286     38289     38294     38296
     38287     38286     38289     38290     38287     38286     38289     38291
     38287     38286     38289     38294     38288     38286     38289     38290
     38288     38286     38289     38291     38288     38286     38289     38294
     38289     38291     38294     38295     38289     38291     38294     38296
     38289     38294     38291     38292     38289     38294     38291     38293
     38289     38294     38296     38297     38289     38294     38296     38298
     38289     38294     38296     38299     38290     38289     38291     38292
     38290     38289     38291     38293     38290     38289     38291     38294
     38290     38289     38294     38291     38290     38289     38294     38295
     38290     38289     38294     38296     38291     38289     38294     38295
     38291     38289     38294     38296     38291     38294     38296     38297
     38291     38294     38296     38298     38291     38294     38296     38299
     38292     38291     38289     38294     38292     38291     38294     38295
     38292     38291     38294     38296     38293     38291     38289     38294
     38293     38291     38294     38295     38293     38291     38294     38296
     38294     38296     38299     38300     38294     38296     38299     38301
     38294     38296     38299     38302     38295     38294     38296     38297
     38295     38294     38296     38298     38295     38294     38296     38299
     38296     38299     38302     38303     38296     38299     38302     38304
     38296     38299     38302     38305     38297     38296     38299     38300
     38297     38296     38299     38301     38297     38296     38299     38302
     38298     38296     38299     38300     38298     38296     38299     38301
     38298     38296     38299     38302     38299     38302     38305     38306
     38299     38302     38305     38307     38299     38302     38305     38308
     38300     38299     38302     38303     38300     38299     38302     38304
     38300     38299     38302     38305     38301     38299     38302     38303
     38301     38299     38302     38304     38301     38299     38302     38305
     38302     38305     38308     38309     38302     38305     38308     38310
     38302     38305     38308     38311     38303     38302     38305     38306
     38303     38302     38305     38307     38303     38302     38305     38308
     38304     38302     38305     38306     38304     38302     38305     38307
     38304     38302     38305     38308     38305     38308     38311     38312
     38305     38308     38311     38313     38305     38308     38311     38314
     38306     38305     38308     38309     38306     38305     38308     38310
     38306     38305     38308     38311     38307     38305     38308     38309
     38307     38305     38308     38310     38307     38305     38308     38311
     38309     38308     38311     38312     38309     38308     38311     38313
     38309     38308     38311     38314     38310     38308     38311     38312
     38310     38308     38311     38313     38310     38308     38311     38314
     38315     38318     38321     38322     38315     38318     38321     38323
     38315     38318     38321     38324     38316     38315     38318     38319
     38316     38315     38318     38320     38316     38315     38318     38321
     38317     38315     38318     38319     38317     38315     38318     38320
     38317     38315     38318     38321     38318     38321     38324     38325
     38318     38321     38324     38326     38318     38321     38324     38327
     38319     38318     38321     38322     38319     38318     38321     38323
     38319     38318     38321     38324     38320     38318     38321     38322
     38320     38318     38321     38323     38320     38318     38321     38324
     38321     38324     38327     38328     38321     38324     38327     38329
     38321     38324     38327     38330     38322     38321     38324     38325
     38322     38321     38324     38326     38322     38321     38324     38327
     38323     38321     38324     38325     38323     38321     38324     38326
     38323     38321     38324     38327     38324     38327     38330     38331
     38324     38327     38330     38332     38324     38327     38330     38333
     38325     38324     38327     38328     38325     38324     38327     38329
     38325     38324     38327     38330     38326     38324     38327     38328
     38326     38324     38327     38329     38326     38324     38327     38330
     38327     38330     38333     38334     38327     38330     38333     38335
     38327     38330     38333     38336     38328     38327     38330     38331
     38328     38327     38330     38332     38328     38327     38330     38333
     38329     38327     38330     38331     38329     38327     38330     38332
     38329     38327     38330     38333     38330     38333     38336     38337
     38330     38333     38336     38338     38330     38333     38336     38339
     38331     38330     38333     38334     38331     38330     38333     38335
     38331     38330     38333     38336     38332     38330     38333     38334
     38332     38330     38333     38335     38332     38330     38333     38336
     38333     38336     38339     38340     38333     38336     38339     38341
     38333     38336     38339     38342     38334     38333     38336     38337
     38334     38333     38336     38338     38334     38333     38336     38339
     38335     38333     38336     38337     38335     38333     38336     38338
     38335     38333     38336     38339     38336     38339     38342     38343
     38336     38339     38342     38344     38336     38339     38342     38345
     38337     38336     38339     38340     38337     38336     38339     38341
     38337     38336     38339     38342     38338     38336     38339     38340
     38338     38336     38339     38341     38338     38336     38339     38342
     38339     38342     38345     38346     38339     38342     38345     38347
     38339     38342     38345     38348     38340     38339     38342     38343
     38340     38339     38342     38344     38340     38339     38342     38345
     38341     38339     38342     38343     38341     38339     38342     38344
     38341     38339     38342     38345     38342     38345     38348     38349
     38342     38345     38348     38350     38342     38345     38348     38351
     38343     38342     38345     38346     38343     38342     38345     38347
     38343     38342     38345     38348     38344     38342     38345     38346
     38344     38342     38345     38347     38344     38342     38345     38348
     38345     38348     38351     38352     38345     38348     38351     38353
     38345     38348     38351     38354     38346     38345     38348     38349
     38346     38345     38348     38350     38346     38345     38348     38351
     38347     38345     38348     38349     38347     38345     38348     38350
     38347     38345     38348     38351     38349     38348     38351     38352
     38349     38348     38351     38353     38349     38348     38351     38354
     38350     38348     38351     38352     38350     38348     38351     38353
     38350     38348     38351     38354     38355     38359     38362     38363
     38355     38359     38362     38364     38355     38359     38362     38369
     38356     38355     38359     38360     38356     38355     38359     38361
     38356     38355     38359     38362     38357     38355     38359     38360
     38357     38355     38359     38361     38357     38355     38359     38362
     38358     38355     38359     38360     38358     38355     38359     38361
     38358     38355     38359     38362     38359     38362     38369     38365
     38360     38359     38362     38363     38360     38359     38362     38364
     38360     38359     38362     38369     38361     38359     38362     38363
     38361     38359     38362     38364     38361     38359     38362     38369
     38362     38369     38365     38366     38362     38369     38365     38367
     38362     38369     38365     38368     38363     38362     38369     38365
     38364     38362     38369     38365     38365     38368     38370     38371
     38365     38368     38370     38372     38365     38368     38370     38373
     38366     38365     38368     38370     38367     38365     38368     38370
     38368     38370     38373     38374     38368     38370     38373     38375
     38368     38370     38373     38381     38369     38365     38368     38370
     38370     38373     38375     38376     38370     38373     38381     38382
     38370     38373     38381     38383     38370     38373     38381     38384
     38371     38370     38373     38374     38371     38370     38373     38375
     38371     38370     38373     38381     38372     38370     38373     38374
     38372     38370     38373     38375     38372     38370     38373     38381
     38373     38375     38376     38377     38373     38375     38376     38378
     38373     38381     38384     38385     38374     38373     38375     38376
     38374     38373     38381     38382     38374     38373     38381     38383
     38374     38373     38381     38384     38375     38373     38381     38382
     38375     38373     38381     38383     38375     38373     38381     38384
     38375     38376     38378     38379     38375     38376     38378     38380
     38375     38376     38378     38390     38376     38375     38373     38381
     38376     38378     38390     38391     38376     38378     38390     38392
     38376     38378     38390     38393     38377     38376     38378     38379
     38377     38376     38378     38380     38377     38376     38378     38390
     38378     38390     38393     38394     38378     38390     38393     38395
     38378     38390     38393     38396     38379     38378     38390     38391
     38379     38378     38390     38392     38379     38378     38390     38393
     38380     38378     38390     38391     38380     38378     38390     38392
     38380     38378     38390     38393     38381     38384     38385     38386
     38381     38384     38385     38387     38382     38381     38384     38385
     38383     38381     38384     38385     38384     38385     38387     38388
     38384     38385     38387     38389     38384     38385     38387     38434
     38385     38387     38434     38435     38385     38387     38434     38436
     38385     38387     38434     38437     38386     38385     38387     38388
     38386     38385     38387     38389     38386     38385     38387     38434
     38387     38434     38437     38438     38387     38434     38437     38439
     38387     38434     38437     38440     38388     38387     38434     38435
     38388     38387     38434     38436     38388     38387     38434     38437
     38389     38387     38434     38435     38389     38387     38434     38436
     38389     38387     38434     38437     38390     38393     38396     38397
     38390     38393     38396     38398     38390     38393     38396     38399
     38391     38390     38393     38394     38391     38390     38393     38395
     38391     38390     38393     38396     38392     38390     38393     38394
     38392     38390     38393     38395     38392     38390     38393     38396
     38393     38396     38399     38400     38393     38396     38399     38401
     38393     38396     38399     38402     38394     38393     38396     38397
     38394     38393     38396     38398     38394     38393     38396     38399
     38395     38393     38396     38397     38395     38393     38396     38398
     38395     38393     38396     38399     38396     38399     38402     38403
     38396     38399     38402     38404     38396     38399     38402     38405
     38397     38396     38399     38400     38397     38396     38399     38401
     38397     38396     38399     38402     38398     38396     38399     38400
     38398     38396     38399     38401     38398     38396     38399     38402
     38399     38402     38405     38406     38399     38402     38405     38407
     38399     38402     38405     38408     38400     38399     38402     38403
     38400     38399     38402     38404     38400     38399     38402     38405
     38401     38399     38402     38403     38401     38399     38402     38404
     38401     38399     38402     38405     38402     38405     38408     38409
     38402     38405     38408     38410     38402     38405     38408     38413
     38403     38402     38405     38406     38403     38402     38405     38407
     38403     38402     38405     38408     38404     38402     38405     38406
     38404     38402     38405     38407     38404     38402     38405     38408
     38405     38408     38410     38411     38405     38408     38410     38412
     38405     38408     38410     38413     38405     38408     38413     38410
     38405     38408     38413     38414     38405     38408     38413     38415
     38406     38405     38408     38409     38406     38405     38408     38410
     38406     38405     38408     38413     38407     38405     38408     38409
     38407     38405     38408     38410     38407     38405     38408     38413
     38408     38410     38413     38414     38408     38410     38413     38415
     38408     38413     38410     38411     38408     38413     38410     38412
     38408     38413     38415     38416     38408     38413     38415     38417
     38408     38413     38415     38418     38409     38408     38410     38411
     38409     38408     38410     38412     38409     38408     38410     38413
     38409     38408     38413     38410     38409     38408     38413     38414
     38409     38408     38413     38415     38410     38408     38413     38414
     38410     38408     38413     38415     38410     38413     38415     38416
     38410     38413     38415     38417     38410     38413     38415     38418
     38411     38410     38408     38413     38411     38410     38413     38414
     38411     38410     38413     38415     38412     38410     38408     38413
     38412     38410     38413     38414     38412     38410     38413     38415
     38413     38415     38418     38419     38413     38415     38418     38420
     38413     38415     38418     38421     38414     38413     38415     38416
     38414     38413     38415     38417     38414     38413     38415     38418
     38415     38418     38421     38422     38415     38418     38421     38423
     38415     38418     38421     38424     38416     38415     38418     38419
     38416     38415     38418     38420     38416     38415     38418     38421
     38417     38415     38418     38419     38417     38415     38418     38420
     38417     38415     38418     38421     38418     38421     38424     38425
     38418     38421     38424     38426     38418     38421     38424     38427
     38419     38418     38421     38422     38419     38418     38421     38423
     38419     38418     38421     38424     38420     38418     38421     38422
     38420     38418     38421     38423     38420     38418     38421     38424
     38421     38424     38427     38428     38421     38424     38427     38429
     38421     38424     38427     38430     38422     38421     38424     38425
     38422     38421     38424     38426     38422     38421     38424     38427
     38423     38421     38424     38425     38423     38421     38424     38426
     38423     38421     38424     38427     38424     38427     38430     38431
     38424     38427     38430     38432     38424     38427     38430     38433
     38425     38424     38427     38428     38425     38424     38427     38429
     38425     38424     38427     38430     38426     38424     38427     38428
     38426     38424     38427     38429     38426     38424     38427     38430
     38428     38427     38430     38431     38428     38427     38430     38432
     38428     38427     38430     38433     38429     38427     38430     38431
     38429     38427     38430     38432     38429     38427     38430     38433
     38434     38437     38440     38441     38434     38437     38440     38442
     38434     38437     38440     38443     38435     38434     38437     38438
     38435     38434     38437     38439     38435     38434     38437     38440
     38436     38434     38437     38438     38436     38434     38437     38439
     38436     38434     38437     38440     38437     38440     38443     38444
     38437     38440     38443     38445     38437     38440     38443     38446
     38438     38437     38440     38441     38438     38437     38440     38442
     38438     38437     38440     38443     38439     38437     38440     38441
     38439     38437     38440     38442     38439     38437     38440     38443
     38440     38443     38446     38447     38440     38443     38446     38448
     38440     38443     38446     38449     38441     38440     38443     38444
     38441     38440     38443     38445     38441     38440     38443     38446
     38442     38440     38443     38444     38442     38440     38443     38445
     38442     38440     38443     38446     38443     38446     38449     38450
     38443     38446     38449     38451     38443     38446     38449     38452
     38444     38443     38446     38447     38444     38443     38446     38448
     38444     38443     38446     38449     38445     38443     38446     38447
     38445     38443     38446     38448     38445     38443     38446     38449
     38446     38449     38452     38453     38446     38449     38452     38454
     38446     38449     38452     38455     38447     38446     38449     38450
     38447     38446     38449     38451     38447     38446     38449     38452
     38448     38446     38449     38450     38448     38446     38449     38451
     38448     38446     38449     38452     38449     38452     38455     38456
     38449     38452     38455     38457     38449     38452     38455     38458
     38450     38449     38452     38453     38450     38449     38452     38454
     38450     38449     38452     38455     38451     38449     38452     38453
     38451     38449     38452     38454     38451     38449     38452     38455
     38452     38455     38458     38459     38452     38455     38458     38460
     38452     38455     38458     38461     38453     38452     38455     38456
     38453     38452     38455     38457     38453     38452     38455     38458
     38454     38452     38455     38456     38454     38452     38455     38457
     38454     38452     38455     38458     38455     38458     38461     38462
     38455     38458     38461     38463     38455     38458     38461     38464
     38456     38455     38458     38459     38456     38455     38458     38460
     38456     38455     38458     38461     38457     38455     38458     38459
     38457     38455     38458     38460     38457     38455     38458     38461
     38458     38461     38464     38465     38458     38461     38464     38466
     38458     38461     38464     38467     38459     38458     38461     38462
     38459     38458     38461     38463     38459     38458     38461     38464
     38460     38458     38461     38462     38460     38458     38461     38463
     38460     38458     38461     38464     38461     38464     38467     38468
     38461     38464     38467     38469     38461     38464     38467     38470
     38462     38461     38464     38465     38462     38461     38464     38466
     38462     38461     38464     38467     38463     38461     38464     38465
     38463     38461     38464     38466     38463     38461     38464     38467
     38464     38467     38470     38471     38464     38467     38470     38472
     38464     38467     38470     38473     38465     38464     38467     38468
     38465     38464     38467     38469     38465     38464     38467     38470
     38466     38464     38467     38468     38466     38464     38467     38469
     38466     38464     38467     38470     38467     38470     38473     38474
     38467     38470     38473     38475     38467     38470     38473     38476
     38468     38467     38470     38471     38468     38467     38470     38472
     38468     38467     38470     38473     38469     38467     38470     38471
     38469     38467     38470     38472     38469     38467     38470     38473
     38471     38470     38473     38474     38471     38470     38473     38475
     38471     38470     38473     38476     38472     38470     38473     38474
     38472     38470     38473     38475     38472     38470     38473     38476
     38477     38481     38484     38485     38477     38481     38484     38486
     38477     38481     38484     38491     38478     38477     38481     38482
     38478     38477     38481     38483     38478     38477     38481     38484
     38479     38477     38481     38482     38479     38477     38481     38483
     38479     38477     38481     38484     38480     38477     38481     38482
     38480     38477     38481     38483     38480     38477     38481     38484
     38481     38484     38491     38487     38482     38481     38484     38485
     38482     38481     38484     38486     38482     38481     38484     38491
     38483     38481     38484     38485     38483     38481     38484     38486
     38483     38481     38484     38491     38484     38491     38487     38488
     38484     38491     38487     38489     38484     38491     38487     38490
     38485     38484     38491     38487     38486     38484     38491     38487
     38487     38490     38492     38493     38487     38490     38492     38494
     38487     38490     38492     38495     38488     38487     38490     38492
     38489     38487     38490     38492     38490     38492     38495     38496
     38490     38492     38495     38497     38490     38492     38495     38503
     38491     38487     38490     38492     38492     38495     38497     38498
     38492     38495     38503     38504     38492     38495     38503     38505
     38492     38495     38503     38506     38493     38492     38495     38496
     38493     38492     38495     38497     38493     38492     38495     38503
     38494     38492     38495     38496     38494     38492     38495     38497
     38494     38492     38495     38503     38495     38497     38498     38499
     38495     38497     38498     38500     38495     38503     38506     38507
     38496     38495     38497     38498     38496     38495     38503     38504
     38496     38495     38503     38505     38496     38495     38503     38506
     38497     38495     38503     38504     38497     38495     38503     38505
     38497     38495     38503     38506     38497     38498     38500     38501
     38497     38498     38500     38502     38497     38498     38500     38512
     38498     38497     38495     38503     38498     38500     38512     38513
     38498     38500     38512     38514     38498     38500     38512     38515
     38499     38498     38500     38501     38499     38498     38500     38502
     38499     38498     38500     38512     38500     38512     38515     38516
     38500     38512     38515     38517     38500     38512     38515     38518
     38501     38500     38512     38513     38501     38500     38512     38514
     38501     38500     38512     38515     38502     38500     38512     38513
     38502     38500     38512     38514     38502     38500     38512     38515
     38503     38506     38507     38508     38503     38506     38507     38509
     38504     38503     38506     38507     38505     38503     38506     38507
     38506     38507     38509     38510     38506     38507     38509     38511
     38506     38507     38509     38556     38507     38509     38556     38557
     38507     38509     38556     38558     38507     38509     38556     38559
     38508     38507     38509     38510     38508     38507     38509     38511
     38508     38507     38509     38556     38509     38556     38559     38560
     38509     38556     38559     38561     38509     38556     38559     38562
     38510     38509     38556     38557     38510     38509     38556     38558
     38510     38509     38556     38559     38511     38509     38556     38557
     38511     38509     38556     38558     38511     38509     38556     38559
     38512     38515     38518     38519     38512     38515     38518     38520
     38512     38515     38518     38521     38513     38512     38515     38516
     38513     38512     38515     38517     38513     38512     38515     38518
     38514     38512     38515     38516     38514     38512     38515     38517
     38514     38512     38515     38518     38515     38518     38521     38522
     38515     38518     38521     38523     38515     38518     38521     38524
     38516     38515     38518     38519     38516     38515     38518     38520
     38516     38515     38518     38521     38517     38515     38518     38519
     38517     38515     38518     38520     38517     38515     38518     38521
     38518     38521     38524     38525     38518     38521     38524     38526
     38518     38521     38524     38527     38519     38518     38521     38522
     38519     38518     38521     38523     38519     38518     38521     38524
     38520     38518     38521     38522     38520     38518     38521     38523
     38520     38518     38521     38524     38521     38524     38527     38528
     38521     38524     38527     38529     38521     38524     38527     38530
     38522     38521     38524     38525     38522     38521     38524     38526
     38522     38521     38524     38527     38523     38521     38524     38525
     38523     38521     38524     38526     38523     38521     38524     38527
     38524     38527     38530     38531     38524     38527     38530     38532
     38524     38527     38530     38535     38525     38524     38527     38528
     38525     38524     38527     38529     38525     38524     38527     38530
     38526     38524     38527     38528     38526     38524     38527     38529
     38526     38524     38527     38530     38527     38530     38532     38533
     38527     38530     38532     38534     38527     38530     38532     38535
     38527     38530     38535     38532     38527     38530     38535     38536
     38527     38530     38535     38537     38528     38527     38530     38531
     38528     38527     38530     38532     38528     38527     38530     38535
     38529     38527     38530     38531     38529     38527     38530     38532
     38529     38527     38530     38535     38530     38532     38535     38536
     38530     38532     38535     38537     38530     38535     38532     38533
     38530     38535     38532     38534     38530     38535     38537     38538
     38530     38535     38537     38539     38530     38535     38537     38540
     38531     38530     38532     38533     38531     38530     38532     38534
     38531     38530     38532     38535     38531     38530     38535     38532
     38531     38530     38535     38536     38531     38530     38535     38537
     38532     38530     38535     38536     38532     38530     38535     38537
     38532     38535     38537     38538     38532     38535     38537     38539
     38532     38535     38537     38540     38533     38532     38530     38535
     38533     38532     38535     38536     38533     38532     38535     38537
     38534     38532     38530     38535     38534     38532     38535     38536
     38534     38532     38535     38537     38535     38537     38540     38541
     38535     38537     38540     38542     38535     38537     38540     38543
     38536     38535     38537     38538     38536     38535     38537     38539
     38536     38535     38537     38540     38537     38540     38543     38544
     38537     38540     38543     38545     38537     38540     38543     38546
     38538     38537     38540     38541     38538     38537     38540     38542
     38538     38537     38540     38543     38539     38537     38540     38541
     38539     38537     38540     38542     38539     38537     38540     38543
     38540     38543     38546     38547     38540     38543     38546     38548
     38540     38543     38546     38549     38541     38540     38543     38544
     38541     38540     38543     38545     38541     38540     38543     38546
     38542     38540     38543     38544     38542     38540     38543     38545
     38542     38540     38543     38546     38543     38546     38549     38550
     38543     38546     38549     38551     38543     38546     38549     38552
     38544     38543     38546     38547     38544     38543     38546     38548
     38544     38543     38546     38549     38545     38543     38546     38547
     38545     38543     38546     38548     38545     38543     38546     38549
     38546     38549     38552     38553     38546     38549     38552     38554
     38546     38549     38552     38555     38547     38546     38549     38550
     38547     38546     38549     38551     38547     38546     38549     38552
     38548     38546     38549     38550     38548     38546     38549     38551
     38548     38546     38549     38552     38550     38549     38552     38553
     38550     38549     38552     38554     38550     38549     38552     38555
     38551     38549     38552     38553     38551     38549     38552     38554
     38551     38549     38552     38555     38556     38559     38562     38563
     38556     38559     38562     38564     38556     38559     38562     38565
     38557     38556     38559     38560     38557     38556     38559     38561
     38557     38556     38559     38562     38558     38556     38559     38560
     38558     38556     38559     38561     38558     38556     38559     38562
     38559     38562     38565     38566     38559     38562     38565     38567
     38559     38562     38565     38568     38560     38559     38562     38563
     38560     38559     38562     38564     38560     38559     38562     38565
     38561     38559     38562     38563     38561     38559     38562     38564
     38561     38559     38562     38565     38562     38565     38568     38569
     38562     38565     38568     38570     38562     38565     38568     38571
     38563     38562     38565     38566     38563     38562     38565     38567
     38563     38562     38565     38568     38564     38562     38565     38566
     38564     38562     38565     38567     38564     38562     38565     38568
     38565     38568     38571     38572     38565     38568     38571     38573
     38565     38568     38571     38574     38566     38565     38568     38569
     38566     38565     38568     38570     38566     38565     38568     38571
     38567     38565     38568     38569     38567     38565     38568     38570
     38567     38565     38568     38571     38568     38571     38574     38575
     38568     38571     38574     38576     38568     38571     38574     38577
     38569     38568     38571     38572     38569     38568     38571     38573
     38569     38568     38571     38574     38570     38568     38571     38572
     38570     38568     38571     38573     38570     38568     38571     38574
     38571     38574     38577     38578     38571     38574     38577     38579
     38571     38574     38577     38580     38572     38571     38574     38575
     38572     38571     38574     38576     38572     38571     38574     38577
     38573     38571     38574     38575     38573     38571     38574     38576
     38573     38571     38574     38577     38574     38577     38580     38581
     38574     38577     38580     38582     38574     38577     38580     38583
     38575     38574     38577     38578     38575     38574     38577     38579
     38575     38574     38577     38580     38576     38574     38577     38578
     38576     38574     38577     38579     38576     38574     38577     38580
     38577     38580     38583     38584     38577     38580     38583     38585
     38577     38580     38583     38586     38578     38577     38580     38581
     38578     38577     38580     38582     38578     38577     38580     38583
     38579     38577     38580     38581     38579     38577     38580     38582
     38579     38577     38580     38583     38580     38583     38586     38587
     38580     38583     38586     38588     38580     38583     38586     38589
     38581     38580     38583     38584     38581     38580     38583     38585
     38581     38580     38583     38586     38582     38580     38583     38584
     38582     38580     38583     38585     38582     38580     38583     38586
     38583     38586     38589     38590     38583     38586     38589     38591
     38583     38586     38589     38592     38584     38583     38586     38587
     38584     38583     38586     38588     38584     38583     38586     38589
     38585     38583     38586     38587     38585     38583     38586     38588
     38585     38583     38586     38589     38586     38589     38592     38593
     38586     38589     38592     38594     38586     38589     38592     38595
     38587     38586     38589     38590     38587     38586     38589     38591
     38587     38586     38589     38592     38588     38586     38589     38590
     38588     38586     38589     38591     38588     38586     38589     38592
     38589     38592     38595     38596     38589     38592     38595     38597
     38589     38592     38595     38598     38590     38589     38592     38593
     38590     38589     38592     38594     38590     38589     38592     38595
     38591     38589     38592     38593     38591     38589     38592     38594
     38591     38589     38592     38595     38593     38592     38595     38596
     38593     38592     38595     38597     38593     38592     38595     38598
     38594     38592     38595     38596     38594     38592     38595     38597
     38594     38592     38595     38598     38599     38603     38606     38607
     38599     38603     38606     38608     38599     38603     38606     38613
     38600     38599     38603     38604     38600     38599     38603     38605
     38600     38599     38603     38606     38601     38599     38603     38604
     38601     38599     38603     38605     38601     38599     38603     38606
     38602     38599     38603     38604     38602     38599     38603     38605
     38602     38599     38603     38606     38603     38606     38613     38609
     38604     38603     38606     38607     38604     38603     38606     38608
     38604     38603     38606     38613     38605     38603     38606     38607
     38605     38603     38606     38608     38605     38603     38606     38613
     38606     38613     38609     38610     38606     38613     38609     38611
     38606     38613     38609     38612     38607     38606     38613     38609
     38608     38606     38613     38609     38609     38612     38614     38615
     38609     38612     38614     38616     38609     38612     38614     38617
     38610     38609     38612     38614     38611     38609     38612     38614
     38612     38614     38617     38618     38612     38614     38617     38619
     38612     38614     38617     38625     38613     38609     38612     38614
     38614     38617     38619     38620     38614     38617     38625     38626
     38614     38617     38625     38627     38614     38617     38625     38628
     38615     38614     38617     38618     38615     38614     38617     38619
     38615     38614     38617     38625     38616     38614     38617     38618
     38616     38614     38617     38619     38616     38614     38617     38625
     38617     38619     38620     38621     38617     38619     38620     38622
     38617     38625     38628     38629     38618     38617     38619     38620
     38618     38617     38625     38626     38618     38617     38625     38627
     38618     38617     38625     38628     38619     38617     38625     38626
     38619     38617     38625     38627     38619     38617     38625     38628
     38619     38620     38622     38623     38619     38620     38622     38624
     38619     38620     38622     38634     38620     38619     38617     38625
     38620     38622     38634     38635     38620     38622     38634     38636
     38620     38622     38634     38637     38621     38620     38622     38623
     38621     38620     38622     38624     38621     38620     38622     38634
     38622     38634     38637     38638     38622     38634     38637     38639
     38622     38634     38637     38640     38623     38622     38634     38635
     38623     38622     38634     38636     38623     38622     38634     38637
     38624     38622     38634     38635     38624     38622     38634     38636
     38624     38622     38634     38637     38625     38628     38629     38630
     38625     38628     38629     38631     38626     38625     38628     38629
     38627     38625     38628     38629     38628     38629     38631     38632
     38628     38629     38631     38633     38628     38629     38631     38681
     38629     38631     38681     38682     38629     38631     38681     38683
     38629     38631     38681     38684     38630     38629     38631     38632
     38630     38629     38631     38633     38630     38629     38631     38681
     38631     38681     38684     38685     38631     38681     38684     38686
     38631     38681     38684     38687     38632     38631     38681     38682
     38632     38631     38681     38683     38632     38631     38681     38684
     38633     38631     38681     38682     38633     38631     38681     38683
     38633     38631     38681     38684     38634     38637     38640     38641
     38634     38637     38640     38642     38634     38637     38640     38643
     38635     38634     38637     38638     38635     38634     38637     38639
     38635     38634     38637     38640     38636     38634     38637     38638
     38636     38634     38637     38639     38636     38634     38637     38640
     38637     38640     38643     38644     38637     38640     38643     38645
     38637     38640     38643     38646     38638     38637     38640     38641
     38638     38637     38640     38642     38638     38637     38640     38643
     38639     38637     38640     38641     38639     38637     38640     38642
     38639     38637     38640     38643     38640     38643     38646     38647
     38640     38643     38646     38648     38640     38643     38646     38649
     38641     38640     38643     38644     38641     38640     38643     38645
     38641     38640     38643     38646     38642     38640     38643     38644
     38642     38640     38643     38645     38642     38640     38643     38646
     38643     38646     38649     38650     38643     38646     38649     38651
     38643     38646     38649     38652     38644     38643     38646     38647
     38644     38643     38646     38648     38644     38643     38646     38649
     38645     38643     38646     38647     38645     38643     38646     38648
     38645     38643     38646     38649     38646     38649     38652     38653
     38646     38649     38652     38654     38647     38646     38649     38650
     38647     38646     38649     38651     38647     38646     38649     38652
     38648     38646     38649     38650     38648     38646     38649     38651
     38648     38646     38649     38652     38649     38652     38654     38655
     38649     38652     38654     38656     38650     38649     38652     38653
     38650     38649     38652     38654     38651     38649     38652     38653
     38651     38649     38652     38654     38652     38654     38656     38657
     38652     38654     38656     38658     38652     38654     38656     38659
     38653     38652     38654     38655     38653     38652     38654     38656
     38654     38656     38659     38660     38654     38656     38659     38661
     38654     38656     38659     38662     38655     38654     38656     38657
     38655     38654     38656     38658     38655     38654     38656     38659
     38656     38659     38662     38663     38656     38659     38662     38664
     38656     38659     38662     38665     38657     38656     38659     38660
     38657     38656     38659     38661     38657     38656     38659     38662
     38658     38656     38659     38660     38658     38656     38659     38661
     38658     38656     38659     38662     38659     38662     38665     38666
     38659     38662     38665     38667     38659     38662     38665     38668
     38660     38659     38662     38663     38660     38659     38662     38664
     38660     38659     38662     38665     38661     38659     38662     38663
     38661     38659     38662     38664     38661     38659     38662     38665
     38662     38665     38668     38669     38662     38665     38668     38670
     38662     38665     38668     38671     38663     38662     38665     38666
     38663     38662     38665     38667     38663     38662     38665     38668
     38664     38662     38665     38666     38664     38662     38665     38667
     38664     38662     38665     38668     38665     38668     38671     38672
     38665     38668     38671     38673     38665     38668     38671     38674
     38666     38665     38668     38669     38666     38665     38668     38670
     38666     38665     38668     38671     38667     38665     38668     38669
     38667     38665     38668     38670     38667     38665     38668     38671
     38668     38671     38674     38675     38668     38671     38674     38676
     38668     38671     38674     38677     38669     38668     38671     38672
     38669     38668     38671     38673     38669     38668     38671     38674
     38670     38668     38671     38672     38670     38668     38671     38673
     38670     38668     38671     38674     38671     38674     38677     38678
     38671     38674     38677     38679     38671     38674     38677     38680
     38672     38671     38674     38675     38672     38671     38674     38676
     38672     38671     38674     38677     38673     38671     38674     38675
     38673     38671     38674     38676     38673     38671     38674     38677
     38675     38674     38677     38678     38675     38674     38677     38679
     38675     38674     38677     38680     38676     38674     38677     38678
     38676     38674     38677     38679     38676     38674     38677     38680
     38681     38684     38687     38688     38681     38684     38687     38689
     38681     38684     38687     38690     38682     38681     38684     38685
     38682     38681     38684     38686     38682     38681     38684     38687
     38683     38681     38684     38685     38683     38681     38684     38686
     38683     38681     38684     38687     38684     38687     38690     38691
     38684     38687     38690     38692     38684     38687     38690     38693
     38685     38684     38687     38688     38685     38684     38687     38689
     38685     38684     38687     38690     38686     38684     38687     38688
     38686     38684     38687     38689     38686     38684     38687     38690
     38687     38690     38693     38694     38687     38690     38693     38695
     38687     38690     38693     38696     38688     38687     38690     38691
     38688     38687     38690     38692     38688     38687     38690     38693
     38689     38687     38690     38691     38689     38687     38690     38692
     38689     38687     38690     38693     38690     38693     38696     38697
     38690     38693     38696     38698     38690     38693     38696     38699
     38691     38690     38693     38694     38691     38690     38693     38695
     38691     38690     38693     38696     38692     38690     38693     38694
     38692     38690     38693     38695     38692     38690     38693     38696
     38693     38696     38699     38700     38693     38696     38699     38701
     38693     38696     38699     38702     38694     38693     38696     38697
     38694     38693     38696     38698     38694     38693     38696     38699
     38695     38693     38696     38697     38695     38693     38696     38698
     38695     38693     38696     38699     38696     38699     38702     38703
     38696     38699     38702     38704     38696     38699     38702     38705
     38697     38696     38699     38700     38697     38696     38699     38701
     38697     38696     38699     38702     38698     38696     38699     38700
     38698     38696     38699     38701     38698     38696     38699     38702
     38699     38702     38705     38706     38699     38702     38705     38707
     38699     38702     38705     38708     38700     38699     38702     38703
     38700     38699     38702     38704     38700     38699     38702     38705
     38701     38699     38702     38703     38701     38699     38702     38704
     38701     38699     38702     38705     38702     38705     38708     38709
     38702     38705     38708     38710     38702     38705     38708     38711
     38703     38702     38705     38706     38703     38702     38705     38707
     38703     38702     38705     38708     38704     38702     38705     38706
     38704     38702     38705     38707     38704     38702     38705     38708
     38705     38708     38711     38712     38705     38708     38711     38713
     38705     38708     38711     38714     38706     38705     38708     38709
     38706     38705     38708     38710     38706     38705     38708     38711
     38707     38705     38708     38709     38707     38705     38708     38710
     38707     38705     38708     38711     38708     38711     38714     38715
     38708     38711     38714     38716     38708     38711     38714     38717
     38709     38708     38711     38712     38709     38708     38711     38713
     38709     38708     38711     38714     38710     38708     38711     38712
     38710     38708     38711     38713     38710     38708     38711     38714
     38711     38714     38717     38718     38711     38714     38717     38719
     38711     38714     38717     38720     38712     38711     38714     38715
     38712     38711     38714     38716     38712     38711     38714     38717
     38713     38711     38714     38715     38713     38711     38714     38716
     38713     38711     38714     38717     38714     38717     38720     38721
     38714     38717     38720     38722     38714     38717     38720     38723
     38715     38714     38717     38718     38715     38714     38717     38719
     38715     38714     38717     38720     38716     38714     38717     38718
     38716     38714     38717     38719     38716     38714     38717     38720
     38718     38717     38720     38721     38718     38717     38720     38722
     38718     38717     38720     38723     38719     38717     38720     38721
     38719     38717     38720     38722     38719     38717     38720     38723
     38724     38728     38731     38732     38724     38728     38731     38733
     38724     38728     38731     38738     38725     38724     38728     38729
     38725     38724     38728     38730     38725     38724     38728     38731
     38726     38724     38728     38729     38726     38724     38728     38730
     38726     38724     38728     38731     38727     38724     38728     38729
     38727     38724     38728     38730     38727     38724     38728     38731
     38728     38731     38738     38734     38729     38728     38731     38732
     38729     38728     38731     38733     38729     38728     38731     38738
     38730     38728     38731     38732     38730     38728     38731     38733
     38730     38728     38731     38738     38731     38738     38734     38735
     38731     38738     38734     38736     38731     38738     38734     38737
     38732     38731     38738     38734     38733     38731     38738     38734
     38734     38737     38739     38740     38734     38737     38739     38741
     38734     38737     38739     38742     38735     38734     38737     38739
     38736     38734     38737     38739     38737     38739     38742     38743
     38737     38739     38742     38744     38737     38739     38742     38750
     38738     38734     38737     38739     38739     38742     38744     38745
     38739     38742     38750     38751     38739     38742     38750     38752
     38739     38742     38750     38753     38740     38739     38742     38743
     38740     38739     38742     38744     38740     38739     38742     38750
     38741     38739     38742     38743     38741     38739     38742     38744
     38741     38739     38742     38750     38742     38744     38745     38746
     38742     38744     38745     38747     38742     38750     38753     38754
     38743     38742     38744     38745     38743     38742     38750     38751
     38743     38742     38750     38752     38743     38742     38750     38753
     38744     38742     38750     38751     38744     38742     38750     38752
     38744     38742     38750     38753     38744     38745     38747     38748
     38744     38745     38747     38749     38744     38745     38747     38759
     38745     38744     38742     38750     38745     38747     38759     38760
     38745     38747     38759     38761     38745     38747     38759     38762
     38746     38745     38747     38748     38746     38745     38747     38749
     38746     38745     38747     38759     38747     38759     38762     38763
     38747     38759     38762     38764     38747     38759     38762     38765
     38748     38747     38759     38760     38748     38747     38759     38761
     38748     38747     38759     38762     38749     38747     38759     38760
     38749     38747     38759     38761     38749     38747     38759     38762
     38750     38753     38754     38755     38750     38753     38754     38756
     38751     38750     38753     38754     38752     38750     38753     38754
     38753     38754     38756     38757     38753     38754     38756     38758
     38753     38754     38756     38803     38754     38756     38803     38804
     38754     38756     38803     38805     38754     38756     38803     38806
     38755     38754     38756     38757     38755     38754     38756     38758
     38755     38754     38756     38803     38756     38803     38806     38807
     38756     38803     38806     38808     38756     38803     38806     38809
     38757     38756     38803     38804     38757     38756     38803     38805
     38757     38756     38803     38806     38758     38756     38803     38804
     38758     38756     38803     38805     38758     38756     38803     38806
     38759     38762     38765     38766     38759     38762     38765     38767
     38759     38762     38765     38768     38760     38759     38762     38763
     38760     38759     38762     38764     38760     38759     38762     38765
     38761     38759     38762     38763     38761     38759     38762     38764
     38761     38759     38762     38765     38762     38765     38768     38769
     38762     38765     38768     38770     38762     38765     38768     38771
     38763     38762     38765     38766     38763     38762     38765     38767
     38763     38762     38765     38768     38764     38762     38765     38766
     38764     38762     38765     38767     38764     38762     38765     38768
     38765     38768     38771     38772     38765     38768     38771     38773
     38765     38768     38771     38774     38766     38765     38768     38769
     38766     38765     38768     38770     38766     38765     38768     38771
     38767     38765     38768     38769     38767     38765     38768     38770
     38767     38765     38768     38771     38768     38771     38774     38775
     38768     38771     38774     38776     38768     38771     38774     38777
     38769     38768     38771     38772     38769     38768     38771     38773
     38769     38768     38771     38774     38770     38768     38771     38772
     38770     38768     38771     38773     38770     38768     38771     38774
     38771     38774     38777     38778     38771     38774     38777     38779
     38771     38774     38777     38782     38772     38771     38774     38775
     38772     38771     38774     38776     38772     38771     38774     38777
     38773     38771     38774     38775     38773     38771     38774     38776
     38773     38771     38774     38777     38774     38777     38779     38780
     38774     38777     38779     38781     38774     38777     38779     38782
     38774     38777     38782     38779     38774     38777     38782     38783
     38774     38777     38782     38784     38775     38774     38777     38778
     38775     38774     38777     38779     38775     38774     38777     38782
     38776     38774     38777     38778     38776     38774     38777     38779
     38776     38774     38777     38782     38777     38779     38782     38783
     38777     38779     38782     38784     38777     38782     38779     38780
     38777     38782     38779     38781     38777     38782     38784     38785
     38777     38782     38784     38786     38777     38782     38784     38787
     38778     38777     38779     38780     38778     38777     38779     38781
     38778     38777     38779     38782     38778     38777     38782     38779
     38778     38777     38782     38783     38778     38777     38782     38784
     38779     38777     38782     38783     38779     38777     38782     38784
     38779     38782     38784     38785     38779     38782     38784     38786
     38779     38782     38784     38787     38780     38779     38777     38782
     38780     38779     38782     38783     38780     38779     38782     38784
     38781     38779     38777     38782     38781     38779     38782     38783
     38781     38779     38782     38784     38782     38784     38787     38788
     38782     38784     38787     38789     38782     38784     38787     38790
     38783     38782     38784     38785     38783     38782     38784     38786
     38783     38782     38784     38787     38784     38787     38790     38791
     38784     38787     38790     38792     38784     38787     38790     38793
     38785     38784     38787     38788     38785     38784     38787     38789
     38785     38784     38787     38790     38786     38784     38787     38788
     38786     38784     38787     38789     38786     38784     38787     38790
     38787     38790     38793     38794     38787     38790     38793     38795
     38787     38790     38793     38796     38788     38787     38790     38791
     38788     38787     38790     38792     38788     38787     38790     38793
     38789     38787     38790     38791     38789     38787     38790     38792
     38789     38787     38790     38793     38790     38793     38796     38797
     38790     38793     38796     38798     38790     38793     38796     38799
     38791     38790     38793     38794     38791     38790     38793     38795
     38791     38790     38793     38796     38792     38790     38793     38794
     38792     38790     38793     38795     38792     38790     38793     38796
     38793     38796     38799     38800     38793     38796     38799     38801
     38793     38796     38799     38802     38794     38793     38796     38797
     38794     38793     38796     38798     38794     38793     38796     38799
     38795     38793     38796     38797     38795     38793     38796     38798
     38795     38793     38796     38799     38797     38796     38799     38800
     38797     38796     38799     38801     38797     38796     38799     38802
     38798     38796     38799     38800     38798     38796     38799     38801
     38798     38796     38799     38802     38803     38806     38809     38810
     38803     38806     38809     38811     38803     38806     38809     38812
     38804     38803     38806     38807     38804     38803     38806     38808
     38804     38803     38806     38809     38805     38803     38806     38807
     38805     38803     38806     38808     38805     38803     38806     38809
     38806     38809     38812     38813     38806     38809     38812     38814
     38806     38809     38812     38815     38807     38806     38809     38810
     38807     38806     38809     38811     38807     38806     38809     38812
     38808     38806     38809     38810     38808     38806     38809     38811
     38808     38806     38809     38812     38809     38812     38815     38816
     38809     38812     38815     38817     38809     38812     38815     38818
     38810     38809     38812     38813     38810     38809     38812     38814
     38810     38809     38812     38815     38811     38809     38812     38813
     38811     38809     38812     38814     38811     38809     38812     38815
     38812     38815     38818     38819     38812     38815     38818     38820
     38812     38815     38818     38821     38813     38812     38815     38816
     38813     38812     38815     38817     38813     38812     38815     38818
     38814     38812     38815     38816     38814     38812     38815     38817
     38814     38812     38815     38818     38815     38818     38821     38822
     38815     38818     38821     38823     38815     38818     38821     38824
     38816     38815     38818     38819     38816     38815     38818     38820
     38816     38815     38818     38821     38817     38815     38818     38819
     38817     38815     38818     38820     38817     38815     38818     38821
     38818     38821     38824     38825     38818     38821     38824     38826
     38818     38821     38824     38827     38819     38818     38821     38822
     38819     38818     38821     38823     38819     38818     38821     38824
     38820     38818     38821     38822     38820     38818     38821     38823
     38820     38818     38821     38824     38821     38824     38827     38828
     38821     38824     38827     38829     38821     38824     38827     38830
     38822     38821     38824     38825     38822     38821     38824     38826
     38822     38821     38824     38827     38823     38821     38824     38825
     38823     38821     38824     38826     38823     38821     38824     38827
     38824     38827     38830     38831     38824     38827     38830     38832
     38824     38827     38830     38833     38825     38824     38827     38828
     38825     38824     38827     38829     38825     38824     38827     38830
     38826     38824     38827     38828     38826     38824     38827     38829
     38826     38824     38827     38830     38827     38830     38833     38834
     38827     38830     38833     38835     38827     38830     38833     38836
     38828     38827     38830     38831     38828     38827     38830     38832
     38828     38827     38830     38833     38829     38827     38830     38831
     38829     38827     38830     38832     38829     38827     38830     38833
     38830     38833     38836     38837     38830     38833     38836     38838
     38830     38833     38836     38839     38831     38830     38833     38834
     38831     38830     38833     38835     38831     38830     38833     38836
     38832     38830     38833     38834     38832     38830     38833     38835
     38832     38830     38833     38836     38833     38836     38839     38840
     38833     38836     38839     38841     38833     38836     38839     38842
     38834     38833     38836     38837     38834     38833     38836     38838
     38834     38833     38836     38839     38835     38833     38836     38837
     38835     38833     38836     38838     38835     38833     38836     38839
     38836     38839     38842     38843     38836     38839     38842     38844
     38836     38839     38842     38845     38837     38836     38839     38840
     38837     38836     38839     38841     38837     38836     38839     38842
     38838     38836     38839     38840     38838     38836     38839     38841
     38838     38836     38839     38842     38840     38839     38842     38843
     38840     38839     38842     38844     38840     38839     38842     38845
     38841     38839     38842     38843     38841     38839     38842     38844
     38841     38839     38842     38845     38846     38850     38853     38854
     38846     38850     38853     38855     38846     38850     38853     38860
     38847     38846     38850     38851     38847     38846     38850     38852
     38847     38846     38850     38853     38848     38846     38850     38851
     38848     38846     38850     38852     38848     38846     38850     38853
     38849     38846     38850     38851     38849     38846     38850     38852
     38849     38846     38850     38853     38850     38853     38860     38856
     38851     38850     38853     38854     38851     38850     38853     38855
     38851     38850     38853     38860     38852     38850     38853     38854
     38852     38850     38853     38855     38852     38850     38853     38860
     38853     38860     38856     38857     38853     38860     38856     38858
     38853     38860     38856     38859     38854     38853     38860     38856
     38855     38853     38860     38856     38856     38859     38861     38862
     38856     38859     38861     38863     38856     38859     38861     38864
     38857     38856     38859     38861     38858     38856     38859     38861
     38859     38861     38864     38865     38859     38861     38864     38866
     38859     38861     38864     38872     38860     38856     38859     38861
     38861     38864     38866     38867     38861     38864     38872     38873
     38861     38864     38872     38874     38861     38864     38872     38875
     38862     38861     38864     38865     38862     38861     38864     38866
     38862     38861     38864     38872     38863     38861     38864     38865
     38863     38861     38864     38866     38863     38861     38864     38872
     38864     38866     38867     38868     38864     38866     38867     38869
     38864     38872     38875     38876     38865     38864     38866     38867
     38865     38864     38872     38873     38865     38864     38872     38874
     38865     38864     38872     38875     38866     38864     38872     38873
     38866     38864     38872     38874     38866     38864     38872     38875
     38866     38867     38869     38870     38866     38867     38869     38871
     38866     38867     38869     38881     38867     38866     38864     38872
     38867     38869     38881     38882     38867     38869     38881     38883
     38867     38869     38881     38884     38868     38867     38869     38870
     38868     38867     38869     38871     38868     38867     38869     38881
     38869     38881     38884     38885     38869     38881     38884     38886
     38869     38881     38884     38887     38870     38869     38881     38882
     38870     38869     38881     38883     38870     38869     38881     38884
     38871     38869     38881     38882     38871     38869     38881     38883
     38871     38869     38881     38884     38872     38875     38876     38877
     38872     38875     38876     38878     38873     38872     38875     38876
     38874     38872     38875     38876     38875     38876     38878     38879
     38875     38876     38878     38880     38875     38876     38878     38925
     38876     38878     38925     38926     38876     38878     38925     38927
     38876     38878     38925     38928     38877     38876     38878     38879
     38877     38876     38878     38880     38877     38876     38878     38925
     38878     38925     38928     38929     38878     38925     38928     38930
     38878     38925     38928     38931     38879     38878     38925     38926
     38879     38878     38925     38927     38879     38878     38925     38928
     38880     38878     38925     38926     38880     38878     38925     38927
     38880     38878     38925     38928     38881     38884     38887     38888
     38881     38884     38887     38889     38881     38884     38887     38890
     38882     38881     38884     38885     38882     38881     38884     38886
     38882     38881     38884     38887     38883     38881     38884     38885
     38883     38881     38884     38886     38883     38881     38884     38887
     38884     38887     38890     38891     38884     38887     38890     38892
     38884     38887     38890     38893     38885     38884     38887     38888
     38885     38884     38887     38889     38885     38884     38887     38890
     38886     38884     38887     38888     38886     38884     38887     38889
     38886     38884     38887     38890     38887     38890     38893     38894
     38887     38890     38893     38895     38887     38890     38893     38896
     38888     38887     38890     38891     38888     38887     38890     38892
     38888     38887     38890     38893     38889     38887     38890     38891
     38889     38887     38890     38892     38889     38887     38890     38893
     38890     38893     38896     38897     38890     38893     38896     38898
     38890     38893     38896     38899     38891     38890     38893     38894
     38891     38890     38893     38895     38891     38890     38893     38896
     38892     38890     38893     38894     38892     38890     38893     38895
     38892     38890     38893     38896     38893     38896     38899     38900
     38893     38896     38899     38901     38893     38896     38899     38904
     38894     38893     38896     38897     38894     38893     38896     38898
     38894     38893     38896     38899     38895     38893     38896     38897
     38895     38893     38896     38898     38895     38893     38896     38899
     38896     38899     38901     38902     38896     38899     38901     38903
     38896     38899     38901     38904     38896     38899     38904     38901
     38896     38899     38904     38905     38896     38899     38904     38906
     38897     38896     38899     38900     38897     38896     38899     38901
     38897     38896     38899     38904     38898     38896     38899     38900
     38898     38896     38899     38901     38898     38896     38899     38904
     38899     38901     38904     38905     38899     38901     38904     38906
     38899     38904     38901     38902     38899     38904     38901     38903
     38899     38904     38906     38907     38899     38904     38906     38908
     38899     38904     38906     38909     38900     38899     38901     38902
     38900     38899     38901     38903     38900     38899     38901     38904
     38900     38899     38904     38901     38900     38899     38904     38905
     38900     38899     38904     38906     38901     38899     38904     38905
     38901     38899     38904     38906     38901     38904     38906     38907
     38901     38904     38906     38908     38901     38904     38906     38909
     38902     38901     38899     38904     38902     38901     38904     38905
     38902     38901     38904     38906     38903     38901     38899     38904
     38903     38901     38904     38905     38903     38901     38904     38906
     38904     38906     38909     38910     38904     38906     38909     38911
     38904     38906     38909     38912     38905     38904     38906     38907
     38905     38904     38906     38908     38905     38904     38906     38909
     38906     38909     38912     38913     38906     38909     38912     38914
     38906     38909     38912     38915     38907     38906     38909     38910
     38907     38906     38909     38911     38907     38906     38909     38912
     38908     38906     38909     38910     38908     38906     38909     38911
     38908     38906     38909     38912     38909     38912     38915     38916
     38909     38912     38915     38917     38909     38912     38915     38918
     38910     38909     38912     38913     38910     38909     38912     38914
     38910     38909     38912     38915     38911     38909     38912     38913
     38911     38909     38912     38914     38911     38909     38912     38915
     38912     38915     38918     38919     38912     38915     38918     38920
     38912     38915     38918     38921     38913     38912     38915     38916
     38913     38912     38915     38917     38913     38912     38915     38918
     38914     38912     38915     38916     38914     38912     38915     38917
     38914     38912     38915     38918     38915     38918     38921     38922
     38915     38918     38921     38923     38915     38918     38921     38924
     38916     38915     38918     38919     38916     38915     38918     38920
     38916     38915     38918     38921     38917     38915     38918     38919
     38917     38915     38918     38920     38917     38915     38918     38921
     38919     38918     38921     38922     38919     38918     38921     38923
     38919     38918     38921     38924     38920     38918     38921     38922
     38920     38918     38921     38923     38920     38918     38921     38924
     38925     38928     38931     38932     38925     38928     38931     38933
     38925     38928     38931     38934     38926     38925     38928     38929
     38926     38925     38928     38930     38926     38925     38928     38931
     38927     38925     38928     38929     38927     38925     38928     38930
     38927     38925     38928     38931     38928     38931     38934     38935
     38928     38931     38934     38936     38928     38931     38934     38937
     38929     38928     38931     38932     38929     38928     38931     38933
     38929     38928     38931     38934     38930     38928     38931     38932
     38930     38928     38931     38933     38930     38928     38931     38934
     38931     38934     38937     38938     38931     38934     38937     38939
     38931     38934     38937     38940     38932     38931     38934     38935
     38932     38931     38934     38936     38932     38931     38934     38937
     38933     38931     38934     38935     38933     38931     38934     38936
     38933     38931     38934     38937     38934     38937     38940     38941
     38934     38937     38940     38942     38934     38937     38940     38943
     38935     38934     38937     38938     38935     38934     38937     38939
     38935     38934     38937     38940     38936     38934     38937     38938
     38936     38934     38937     38939     38936     38934     38937     38940
     38937     38940     38943     38944     38937     38940     38943     38945
     38937     38940     38943     38946     38938     38937     38940     38941
     38938     38937     38940     38942     38938     38937     38940     38943
     38939     38937     38940     38941     38939     38937     38940     38942
     38939     38937     38940     38943     38940     38943     38946     38947
     38940     38943     38946     38948     38940     38943     38946     38949
     38941     38940     38943     38944     38941     38940     38943     38945
     38941     38940     38943     38946     38942     38940     38943     38944
     38942     38940     38943     38945     38942     38940     38943     38946
     38943     38946     38949     38950     38943     38946     38949     38951
     38943     38946     38949     38952     38944     38943     38946     38947
     38944     38943     38946     38948     38944     38943     38946     38949
     38945     38943     38946     38947     38945     38943     38946     38948
     38945     38943     38946     38949     38946     38949     38952     38953
     38946     38949     38952     38954     38946     38949     38952     38955
     38947     38946     38949     38950     38947     38946     38949     38951
     38947     38946     38949     38952     38948     38946     38949     38950
     38948     38946     38949     38951     38948     38946     38949     38952
     38949     38952     38955     38956     38949     38952     38955     38957
     38949     38952     38955     38958     38950     38949     38952     38953
     38950     38949     38952     38954     38950     38949     38952     38955
     38951     38949     38952     38953     38951     38949     38952     38954
     38951     38949     38952     38955     38952     38955     38958     38959
     38952     38955     38958     38960     38952     38955     38958     38961
     38953     38952     38955     38956     38953     38952     38955     38957
     38953     38952     38955     38958     38954     38952     38955     38956
     38954     38952     38955     38957     38954     38952     38955     38958
     38955     38958     38961     38962     38955     38958     38961     38963
     38955     38958     38961     38964     38956     38955     38958     38959
     38956     38955     38958     38960     38956     38955     38958     38961
     38957     38955     38958     38959     38957     38955     38958     38960
     38957     38955     38958     38961     38959     38958     38961     38962
     38959     38958     38961     38963     38959     38958     38961     38964
     38960     38958     38961     38962     38960     38958     38961     38963
     38960     38958     38961     38964     38965     38969     38972     38973
     38965     38969     38972     38974     38965     38969     38972     38979
     38966     38965     38969     38970     38966     38965     38969     38971
     38966     38965     38969     38972     38967     38965     38969     38970
     38967     38965     38969     38971     38967     38965     38969     38972
     38968     38965     38969     38970     38968     38965     38969     38971
     38968     38965     38969     38972     38969     38972     38979     38975
     38970     38969     38972     38973     38970     38969     38972     38974
     38970     38969     38972     38979     38971     38969     38972     38973
     38971     38969     38972     38974     38971     38969     38972     38979
     38972     38979     38975     38976     38972     38979     38975     38977
     38972     38979     38975     38978     38973     38972     38979     38975
     38974     38972     38979     38975     38975     38978     38980     38981
     38975     38978     38980     38982     38975     38978     38980     38983
     38976     38975     38978     38980     38977     38975     38978     38980
     38978     38980     38983     38984     38978     38980     38983     38985
     38978     38980     38983     38991     38979     38975     38978     38980
     38980     38983     38985     38986     38980     38983     38991     38992
     38980     38983     38991     38993     38980     38983     38991     38994
     38981     38980     38983     38984     38981     38980     38983     38985
     38981     38980     38983     38991     38982     38980     38983     38984
     38982     38980     38983     38985     38982     38980     38983     38991
     38983     38985     38986     38987     38983     38985     38986     38988
     38983     38991     38994     38995     38984     38983     38985     38986
     38984     38983     38991     38992     38984     38983     38991     38993
     38984     38983     38991     38994     38985     38983     38991     38992
     38985     38983     38991     38993     38985     38983     38991     38994
     38985     38986     38988     38989     38985     38986     38988     38990
     38985     38986     38988     39000     38986     38985     38983     38991
     38986     38988     39000     39001     38986     38988     39000     39002
     38986     38988     39000     39003     38987     38986     38988     38989
     38987     38986     38988     38990     38987     38986     38988     39000
     38988     39000     39003     39004     38988     39000     39003     39005
     38988     39000     39003     39006     38989     38988     39000     39001
     38989     38988     39000     39002     38989     38988     39000     39003
     38990     38988     39000     39001     38990     38988     39000     39002
     38990     38988     39000     39003     38991     38994     38995     38996
     38991     38994     38995     38997     38992     38991     38994     38995
     38993     38991     38994     38995     38994     38995     38997     38998
     38994     38995     38997     38999     38994     38995     38997     39044
     38995     38997     39044     39045     38995     38997     39044     39046
     38995     38997     39044     39047     38996     38995     38997     38998
     38996     38995     38997     38999     38996     38995     38997     39044
     38997     39044     39047     39048     38997     39044     39047     39049
     38997     39044     39047     39050     38998     38997     39044     39045
     38998     38997     39044     39046     38998     38997     39044     39047
     38999     38997     39044     39045     38999     38997     39044     39046
     38999     38997     39044     39047     39000     39003     39006     39007
     39000     39003     39006     39008     39000     39003     39006     39009
     39001     39000     39003     39004     39001     39000     39003     39005
     39001     39000     39003     39006     39002     39000     39003     39004
     39002     39000     39003     39005     39002     39000     39003     39006
     39003     39006     39009     39010     39003     39006     39009     39011
     39003     39006     39009     39012     39004     39003     39006     39007
     39004     39003     39006     39008     39004     39003     39006     39009
     39005     39003     39006     39007     39005     39003     39006     39008
     39005     39003     39006     39009     39006     39009     39012     39013
     39006     39009     39012     39014     39006     39009     39012     39015
     39007     39006     39009     39010     39007     39006     39009     39011
     39007     39006     39009     39012     39008     39006     39009     39010
     39008     39006     39009     39011     39008     39006     39009     39012
     39009     39012     39015     39016     39009     39012     39015     39017
     39009     39012     39015     39018     39010     39009     39012     39013
     39010     39009     39012     39014     39010     39009     39012     39015
     39011     39009     39012     39013     39011     39009     39012     39014
     39011     39009     39012     39015     39012     39015     39018     39019
     39012     39015     39018     39020     39012     39015     39018     39023
     39013     39012     39015     39016     39013     39012     39015     39017
     39013     39012     39015     39018     39014     39012     39015     39016
     39014     39012     39015     39017     39014     39012     39015     39018
     39015     39018     39020     39021     39015     39018     39020     39022
     39015     39018     39020     39023     39015     39018     39023     39020
     39015     39018     39023     39024     39015     39018     39023     39025
     39016     39015     39018     39019     39016     39015     39018     39020
     39016     39015     39018     39023     39017     39015     39018     39019
     39017     39015     39018     39020     39017     39015     39018     39023
     39018     39020     39023     39024     39018     39020     39023     39025
     39018     39023     39020     39021     39018     39023     39020     39022
     39018     39023     39025     39026     39018     39023     39025     39027
     39018     39023     39025     39028     39019     39018     39020     39021
     39019     39018     39020     39022     39019     39018     39020     39023
     39019     39018     39023     39020     39019     39018     39023     39024
     39019     39018     39023     39025     39020     39018     39023     39024
     39020     39018     39023     39025     39020     39023     39025     39026
     39020     39023     39025     39027     39020     39023     39025     39028
     39021     39020     39018     39023     39021     39020     39023     39024
     39021     39020     39023     39025     39022     39020     39018     39023
     39022     39020     39023     39024     39022     39020     39023     39025
     39023     39025     39028     39029     39023     39025     39028     39030
     39023     39025     39028     39031     39024     39023     39025     39026
     39024     39023     39025     39027     39024     39023     39025     39028
     39025     39028     39031     39032     39025     39028     39031     39033
     39025     39028     39031     39034     39026     39025     39028     39029
     39026     39025     39028     39030     39026     39025     39028     39031
     39027     39025     39028     39029     39027     39025     39028     39030
     39027     39025     39028     39031     39028     39031     39034     39035
     39028     39031     39034     39036     39028     39031     39034     39037
     39029     39028     39031     39032     39029     39028     39031     39033
     39029     39028     39031     39034     39030     39028     39031     39032
     39030     39028     39031     39033     39030     39028     39031     39034
     39031     39034     39037     39038     39031     39034     39037     39039
     39031     39034     39037     39040     39032     39031     39034     39035
     39032     39031     39034     39036     39032     39031     39034     39037
     39033     39031     39034     39035     39033     39031     39034     39036
     39033     39031     39034     39037     39034     39037     39040     39041
     39034     39037     39040     39042     39034     39037     39040     39043
     39035     39034     39037     39038     39035     39034     39037     39039
     39035     39034     39037     39040     39036     39034     39037     39038
     39036     39034     39037     39039     39036     39034     39037     39040
     39038     39037     39040     39041     39038     39037     39040     39042
     39038     39037     39040     39043     39039     39037     39040     39041
     39039     39037     39040     39042     39039     39037     39040     39043
     39044     39047     39050     39051     39044     39047     39050     39052
     39044     39047     39050     39053     39045     39044     39047     39048
     39045     39044     39047     39049     39045     39044     39047     39050
     39046     39044     39047     39048     39046     39044     39047     39049
     39046     39044     39047     39050     39047     39050     39053     39054
     39047     39050     39053     39055     39047     39050     39053     39056
     39048     39047     39050     39051     39048     39047     39050     39052
     39048     39047     39050     39053     39049     39047     39050     39051
     39049     39047     39050     39052     39049     39047     39050     39053
     39050     39053     39056     39057     39050     39053     39056     39058
     39050     39053     39056     39059     39051     39050     39053     39054
     39051     39050     39053     39055     39051     39050     39053     39056
     39052     39050     39053     39054     39052     39050     39053     39055
     39052     39050     39053     39056     39053     39056     39059     39060
     39053     39056     39059     39061     39053     39056     39059     39062
     39054     39053     39056     39057     39054     39053     39056     39058
     39054     39053     39056     39059     39055     39053     39056     39057
     39055     39053     39056     39058     39055     39053     39056     39059
     39056     39059     39062     39063     39056     39059     39062     39064
     39056     39059     39062     39065     39057     39056     39059     39060
     39057     39056     39059     39061     39057     39056     39059     39062
     39058     39056     39059     39060     39058     39056     39059     39061
     39058     39056     39059     39062     39059     39062     39065     39066
     39059     39062     39065     39067     39059     39062     39065     39068
     39060     39059     39062     39063     39060     39059     39062     39064
     39060     39059     39062     39065     39061     39059     39062     39063
     39061     39059     39062     39064     39061     39059     39062     39065
     39062     39065     39068     39069     39062     39065     39068     39070
     39062     39065     39068     39071     39063     39062     39065     39066
     39063     39062     39065     39067     39063     39062     39065     39068
     39064     39062     39065     39066     39064     39062     39065     39067
     39064     39062     39065     39068     39065     39068     39071     39072
     39065     39068     39071     39073     39065     39068     39071     39074
     39066     39065     39068     39069     39066     39065     39068     39070
     39066     39065     39068     39071     39067     39065     39068     39069
     39067     39065     39068     39070     39067     39065     39068     39071
     39068     39071     39074     39075     39068     39071     39074     39076
     39068     39071     39074     39077     39069     39068     39071     39072
     39069     39068     39071     39073     39069     39068     39071     39074
     39070     39068     39071     39072     39070     39068     39071     39073
     39070     39068     39071     39074     39071     39074     39077     39078
     39071     39074     39077     39079     39071     39074     39077     39080
     39072     39071     39074     39075     39072     39071     39074     39076
     39072     39071     39074     39077     39073     39071     39074     39075
     39073     39071     39074     39076     39073     39071     39074     39077
     39074     39077     39080     39081     39074     39077     39080     39082
     39074     39077     39080     39083     39075     39074     39077     39078
     39075     39074     39077     39079     39075     39074     39077     39080
     39076     39074     39077     39078     39076     39074     39077     39079
     39076     39074     39077     39080     39078     39077     39080     39081
     39078     39077     39080     39082     39078     39077     39080     39083
     39079     39077     39080     39081     39079     39077     39080     39082
     39079     39077     39080     39083     39084     39088     39091     39092
     39084     39088     39091     39093     39084     39088     39091     39098
     39085     39084     39088     39089     39085     39084     39088     39090
     39085     39084     39088     39091     39086     39084     39088     39089
     39086     39084     39088     39090     39086     39084     39088     39091
     39087     39084     39088     39089     39087     39084     39088     39090
     39087     39084     39088     39091     39088     39091     39098     39094
     39089     39088     39091     39092     39089     39088     39091     39093
     39089     39088     39091     39098     39090     39088     39091     39092
     39090     39088     39091     39093     39090     39088     39091     39098
     39091     39098     39094     39095     39091     39098     39094     39096
     39091     39098     39094     39097     39092     39091     39098     39094
     39093     39091     39098     39094     39094     39097     39099     39100
     39094     39097     39099     39101     39094     39097     39099     39102
     39095     39094     39097     39099     39096     39094     39097     39099
     39097     39099     39102     39103     39097     39099     39102     39104
     39097     39099     39102     39110     39098     39094     39097     39099
     39099     39102     39104     39105     39099     39102     39110     39111
     39099     39102     39110     39112     39099     39102     39110     39113
     39100     39099     39102     39103     39100     39099     39102     39104
     39100     39099     39102     39110     39101     39099     39102     39103
     39101     39099     39102     39104     39101     39099     39102     39110
     39102     39104     39105     39106     39102     39104     39105     39107
     39102     39110     39113     39114     39103     39102     39104     39105
     39103     39102     39110     39111     39103     39102     39110     39112
     39103     39102     39110     39113     39104     39102     39110     39111
     39104     39102     39110     39112     39104     39102     39110     39113
     39104     39105     39107     39108     39104     39105     39107     39109
     39104     39105     39107     39119     39105     39104     39102     39110
     39105     39107     39119     39120     39105     39107     39119     39121
     39105     39107     39119     39122     39106     39105     39107     39108
     39106     39105     39107     39109     39106     39105     39107     39119
     39107     39119     39122     39123     39107     39119     39122     39124
     39107     39119     39122     39125     39108     39107     39119     39120
     39108     39107     39119     39121     39108     39107     39119     39122
     39109     39107     39119     39120     39109     39107     39119     39121
     39109     39107     39119     39122     39110     39113     39114     39115
     39110     39113     39114     39116     39111     39110     39113     39114
     39112     39110     39113     39114     39113     39114     39116     39117
     39113     39114     39116     39118     39113     39114     39116     39166
     39114     39116     39166     39167     39114     39116     39166     39168
     39114     39116     39166     39169     39115     39114     39116     39117
     39115     39114     39116     39118     39115     39114     39116     39166
     39116     39166     39169     39170     39116     39166     39169     39171
     39116     39166     39169     39172     39117     39116     39166     39167
     39117     39116     39166     39168     39117     39116     39166     39169
     39118     39116     39166     39167     39118     39116     39166     39168
     39118     39116     39166     39169     39119     39122     39125     39126
     39119     39122     39125     39127     39119     39122     39125     39128
     39120     39119     39122     39123     39120     39119     39122     39124
     39120     39119     39122     39125     39121     39119     39122     39123
     39121     39119     39122     39124     39121     39119     39122     39125
     39122     39125     39128     39129     39122     39125     39128     39130
     39122     39125     39128     39131     39123     39122     39125     39126
     39123     39122     39125     39127     39123     39122     39125     39128
     39124     39122     39125     39126     39124     39122     39125     39127
     39124     39122     39125     39128     39125     39128     39131     39132
     39125     39128     39131     39133     39125     39128     39131     39134
     39126     39125     39128     39129     39126     39125     39128     39130
     39126     39125     39128     39131     39127     39125     39128     39129
     39127     39125     39128     39130     39127     39125     39128     39131
     39128     39131     39134     39135     39128     39131     39134     39136
     39128     39131     39134     39137     39129     39128     39131     39132
     39129     39128     39131     39133     39129     39128     39131     39134
     39130     39128     39131     39132     39130     39128     39131     39133
     39130     39128     39131     39134     39131     39134     39137     39138
     39131     39134     39137     39139     39132     39131     39134     39135
     39132     39131     39134     39136     39132     39131     39134     39137
     39133     39131     39134     39135     39133     39131     39134     39136
     39133     39131     39134     39137     39134     39137     39139     39140
     39134     39137     39139     39141     39135     39134     39137     39138
     39135     39134     39137     39139     39136     39134     39137     39138
     39136     39134     39137     39139     39137     39139     39141     39142
     39137     39139     39141     39143     39137     39139     39141     39144
     39138     39137     39139     39140     39138     39137     39139     39141
     39139     39141     39144     39145     39139     39141     39144     39146
     39139     39141     39144     39147     39140     39139     39141     39142
     39140     39139     39141     39143     39140     39139     39141     39144
     39141     39144     39147     39148     39141     39144     39147     39149
     39141     39144     39147     39150     39142     39141     39144     39145
     39142     39141     39144     39146     39142     39141     39144     39147
     39143     39141     39144     39145     39143     39141     39144     39146
     39143     39141     39144     39147     39144     39147     39150     39151
     39144     39147     39150     39152     39144     39147     39150     39153
     39145     39144     39147     39148     39145     39144     39147     39149
     39145     39144     39147     39150     39146     39144     39147     39148
     39146     39144     39147     39149     39146     39144     39147     39150
     39147     39150     39153     39154     39147     39150     39153     39155
     39147     39150     39153     39156     39148     39147     39150     39151
     39148     39147     39150     39152     39148     39147     39150     39153
     39149     39147     39150     39151     39149     39147     39150     39152
     39149     39147     39150     39153     39150     39153     39156     39157
     39150     39153     39156     39158     39150     39153     39156     39159
     39151     39150     39153     39154     39151     39150     39153     39155
     39151     39150     39153     39156     39152     39150     39153     39154
     39152     39150     39153     39155     39152     39150     39153     39156
     39153     39156     39159     39160     39153     39156     39159     39161
     39153     39156     39159     39162     39154     39153     39156     39157
     39154     39153     39156     39158     39154     39153     39156     39159
     39155     39153     39156     39157     39155     39153     39156     39158
     39155     39153     39156     39159     39156     39159     39162     39163
     39156     39159     39162     39164     39156     39159     39162     39165
     39157     39156     39159     39160     39157     39156     39159     39161
     39157     39156     39159     39162     39158     39156     39159     39160
     39158     39156     39159     39161     39158     39156     39159     39162
     39160     39159     39162     39163     39160     39159     39162     39164
     39160     39159     39162     39165     39161     39159     39162     39163
     39161     39159     39162     39164     39161     39159     39162     39165
     39166     39169     39172     39173     39166     39169     39172     39174
     39166     39169     39172     39175     39167     39166     39169     39170
     39167     39166     39169     39171     39167     39166     39169     39172
     39168     39166     39169     39170     39168     39166     39169     39171
     39168     39166     39169     39172     39169     39172     39175     39176
     39169     39172     39175     39177     39169     39172     39175     39178
     39170     39169     39172     39173     39170     39169     39172     39174
     39170     39169     39172     39175     39171     39169     39172     39173
     39171     39169     39172     39174     39171     39169     39172     39175
     39172     39175     39178     39179     39172     39175     39178     39180
     39172     39175     39178     39181     39173     39172     39175     39176
     39173     39172     39175     39177     39173     39172     39175     39178
     39174     39172     39175     39176     39174     39172     39175     39177
     39174     39172     39175     39178     39175     39178     39181     39182
     39175     39178     39181     39183     39175     39178     39181     39184
     39176     39175     39178     39179     39176     39175     39178     39180
     39176     39175     39178     39181     39177     39175     39178     39179
     39177     39175     39178     39180     39177     39175     39178     39181
     39178     39181     39184     39185     39178     39181     39184     39186
     39178     39181     39184     39187     39179     39178     39181     39182
     39179     39178     39181     39183     39179     39178     39181     39184
     39180     39178     39181     39182     39180     39178     39181     39183
     39180     39178     39181     39184     39181     39184     39187     39188
     39181     39184     39187     39189     39181     39184     39187     39190
     39182     39181     39184     39185     39182     39181     39184     39186
     39182     39181     39184     39187     39183     39181     39184     39185
     39183     39181     39184     39186     39183     39181     39184     39187
     39184     39187     39190     39191     39184     39187     39190     39192
     39184     39187     39190     39193     39185     39184     39187     39188
     39185     39184     39187     39189     39185     39184     39187     39190
     39186     39184     39187     39188     39186     39184     39187     39189
     39186     39184     39187     39190     39187     39190     39193     39194
     39187     39190     39193     39195     39187     39190     39193     39196
     39188     39187     39190     39191     39188     39187     39190     39192
     39188     39187     39190     39193     39189     39187     39190     39191
     39189     39187     39190     39192     39189     39187     39190     39193
     39190     39193     39196     39197     39190     39193     39196     39198
     39190     39193     39196     39199     39191     39190     39193     39194
     39191     39190     39193     39195     39191     39190     39193     39196
     39192     39190     39193     39194     39192     39190     39193     39195
     39192     39190     39193     39196     39193     39196     39199     39200
     39193     39196     39199     39201     39193     39196     39199     39202
     39194     39193     39196     39197     39194     39193     39196     39198
     39194     39193     39196     39199     39195     39193     39196     39197
     39195     39193     39196     39198     39195     39193     39196     39199
     39196     39199     39202     39203     39196     39199     39202     39204
     39196     39199     39202     39205     39197     39196     39199     39200
     39197     39196     39199     39201     39197     39196     39199     39202
     39198     39196     39199     39200     39198     39196     39199     39201
     39198     39196     39199     39202     39199     39202     39205     39206
     39199     39202     39205     39207     39199     39202     39205     39208
     39200     39199     39202     39203     39200     39199     39202     39204
     39200     39199     39202     39205     39201     39199     39202     39203
     39201     39199     39202     39204     39201     39199     39202     39205
     39203     39202     39205     39206     39203     39202     39205     39207
     39203     39202     39205     39208     39204     39202     39205     39206
     39204     39202     39205     39207     39204     39202     39205     39208
     39209     39213     39216     39217     39209     39213     39216     39218
     39209     39213     39216     39223     39210     39209     39213     39214
     39210     39209     39213     39215     39210     39209     39213     39216
     39211     39209     39213     39214     39211     39209     39213     39215
     39211     39209     39213     39216     39212     39209     39213     39214
     39212     39209     39213     39215     39212     39209     39213     39216
     39213     39216     39223     39219     39214     39213     39216     39217
     39214     39213     39216     39218     39214     39213     39216     39223
     39215     39213     39216     39217     39215     39213     39216     39218
     39215     39213     39216     39223     39216     39223     39219     39220
     39216     39223     39219     39221     39216     39223     39219     39222
     39217     39216     39223     39219     39218     39216     39223     39219
     39219     39222     39224     39225     39219     39222     39224     39226
     39219     39222     39224     39227     39220     39219     39222     39224
     39221     39219     39222     39224     39222     39224     39227     39228
     39222     39224     39227     39229     39222     39224     39227     39235
     39223     39219     39222     39224     39224     39227     39229     39230
     39224     39227     39235     39236     39224     39227     39235     39237
     39224     39227     39235     39238     39225     39224     39227     39228
     39225     39224     39227     39229     39225     39224     39227     39235
     39226     39224     39227     39228     39226     39224     39227     39229
     39226     39224     39227     39235     39227     39229     39230     39231
     39227     39229     39230     39232     39227     39235     39238     39239
     39228     39227     39229     39230     39228     39227     39235     39236
     39228     39227     39235     39237     39228     39227     39235     39238
     39229     39227     39235     39236     39229     39227     39235     39237
     39229     39227     39235     39238     39229     39230     39232     39233
     39229     39230     39232     39234     39229     39230     39232     39244
     39230     39229     39227     39235     39230     39232     39244     39245
     39230     39232     39244     39246     39230     39232     39244     39247
     39231     39230     39232     39233     39231     39230     39232     39234
     39231     39230     39232     39244     39232     39244     39247     39248
     39232     39244     39247     39249     39232     39244     39247     39250
     39233     39232     39244     39245     39233     39232     39244     39246
     39233     39232     39244     39247     39234     39232     39244     39245
     39234     39232     39244     39246     39234     39232     39244     39247
     39235     39238     39239     39240     39235     39238     39239     39241
     39236     39235     39238     39239     39237     39235     39238     39239
     39238     39239     39241     39242     39238     39239     39241     39243
     39238     39239     39241     39288     39239     39241     39288     39289
     39239     39241     39288     39290     39239     39241     39288     39291
     39240     39239     39241     39242     39240     39239     39241     39243
     39240     39239     39241     39288     39241     39288     39291     39292
     39241     39288     39291     39293     39241     39288     39291     39294
     39242     39241     39288     39289     39242     39241     39288     39290
     39242     39241     39288     39291     39243     39241     39288     39289
     39243     39241     39288     39290     39243     39241     39288     39291
     39244     39247     39250     39251     39244     39247     39250     39252
     39244     39247     39250     39253     39245     39244     39247     39248
     39245     39244     39247     39249     39245     39244     39247     39250
     39246     39244     39247     39248     39246     39244     39247     39249
     39246     39244     39247     39250     39247     39250     39253     39254
     39247     39250     39253     39255     39247     39250     39253     39256
     39248     39247     39250     39251     39248     39247     39250     39252
     39248     39247     39250     39253     39249     39247     39250     39251
     39249     39247     39250     39252     39249     39247     39250     39253
     39250     39253     39256     39257     39250     39253     39256     39258
     39250     39253     39256     39259     39251     39250     39253     39254
     39251     39250     39253     39255     39251     39250     39253     39256
     39252     39250     39253     39254     39252     39250     39253     39255
     39252     39250     39253     39256     39253     39256     39259     39260
     39253     39256     39259     39261     39253     39256     39259     39262
     39254     39253     39256     39257     39254     39253     39256     39258
     39254     39253     39256     39259     39255     39253     39256     39257
     39255     39253     39256     39258     39255     39253     39256     39259
     39256     39259     39262     39263     39256     39259     39262     39264
     39256     39259     39262     39267     39257     39256     39259     39260
     39257     39256     39259     39261     39257     39256     39259     39262
     39258     39256     39259     39260     39258     39256     39259     39261
     39258     39256     39259     39262     39259     39262     39264     39265
     39259     39262     39264     39266     39259     39262     39264     39267
     39259     39262     39267     39264     39259     39262     39267     39268
     39259     39262     39267     39269     39260     39259     39262     39263
     39260     39259     39262     39264     39260     39259     39262     39267
     39261     39259     39262     39263     39261     39259     39262     39264
     39261     39259     39262     39267     39262     39264     39267     39268
     39262     39264     39267     39269     39262     39267     39264     39265
     39262     39267     39264     39266     39262     39267     39269     39270
     39262     39267     39269     39271     39262     39267     39269     39272
     39263     39262     39264     39265     39263     39262     39264     39266
     39263     39262     39264     39267     39263     39262     39267     39264
     39263     39262     39267     39268     39263     39262     39267     39269
     39264     39262     39267     39268     39264     39262     39267     39269
     39264     39267     39269     39270     39264     39267     39269     39271
     39264     39267     39269     39272     39265     39264     39262     39267
     39265     39264     39267     39268     39265     39264     39267     39269
     39266     39264     39262     39267     39266     39264     39267     39268
     39266     39264     39267     39269     39267     39269     39272     39273
     39267     39269     39272     39274     39267     39269     39272     39275
     39268     39267     39269     39270     39268     39267     39269     39271
     39268     39267     39269     39272     39269     39272     39275     39276
     39269     39272     39275     39277     39269     39272     39275     39278
     39270     39269     39272     39273     39270     39269     39272     39274
     39270     39269     39272     39275     39271     39269     39272     39273
     39271     39269     39272     39274     39271     39269     39272     39275
     39272     39275     39278     39279     39272     39275     39278     39280
     39272     39275     39278     39281     39273     39272     39275     39276
     39273     39272     39275     39277     39273     39272     39275     39278
     39274     39272     39275     39276     39274     39272     39275     39277
     39274     39272     39275     39278     39275     39278     39281     39282
     39275     39278     39281     39283     39275     39278     39281     39284
     39276     39275     39278     39279     39276     39275     39278     39280
     39276     39275     39278     39281     39277     39275     39278     39279
     39277     39275     39278     39280     39277     39275     39278     39281
     39278     39281     39284     39285     39278     39281     39284     39286
     39278     39281     39284     39287     39279     39278     39281     39282
     39279     39278     39281     39283     39279     39278     39281     39284
     39280     39278     39281     39282     39280     39278     39281     39283
     39280     39278     39281     39284     39282     39281     39284     39285
     39282     39281     39284     39286     39282     39281     39284     39287
     39283     39281     39284     39285     39283     39281     39284     39286
     39283     39281     39284     39287     39288     39291     39294     39295
     39288     39291     39294     39296     39288     39291     39294     39297
     39289     39288     39291     39292     39289     39288     39291     39293
     39289     39288     39291     39294     39290     39288     39291     39292
     39290     39288     39291     39293     39290     39288     39291     39294
     39291     39294     39297     39298     39291     39294     39297     39299
     39291     39294     39297     39300     39292     39291     39294     39295
     39292     39291     39294     39296     39292     39291     39294     39297
     39293     39291     39294     39295     39293     39291     39294     39296
     39293     39291     39294     39297     39294     39297     39300     39301
     39294     39297     39300     39302     39294     39297     39300     39303
     39295     39294     39297     39298     39295     39294     39297     39299
     39295     39294     39297     39300     39296     39294     39297     39298
     39296     39294     39297     39299     39296     39294     39297     39300
     39297     39300     39303     39304     39297     39300     39303     39305
     39297     39300     39303     39306     39298     39297     39300     39301
     39298     39297     39300     39302     39298     39297     39300     39303
     39299     39297     39300     39301     39299     39297     39300     39302
     39299     39297     39300     39303     39300     39303     39306     39307
     39300     39303     39306     39308     39300     39303     39306     39309
     39301     39300     39303     39304     39301     39300     39303     39305
     39301     39300     39303     39306     39302     39300     39303     39304
     39302     39300     39303     39305     39302     39300     39303     39306
     39303     39306     39309     39310     39303     39306     39309     39311
     39303     39306     39309     39312     39304     39303     39306     39307
     39304     39303     39306     39308     39304     39303     39306     39309
     39305     39303     39306     39307     39305     39303     39306     39308
     39305     39303     39306     39309     39306     39309     39312     39313
     39306     39309     39312     39314     39306     39309     39312     39315
     39307     39306     39309     39310     39307     39306     39309     39311
     39307     39306     39309     39312     39308     39306     39309     39310
     39308     39306     39309     39311     39308     39306     39309     39312
     39309     39312     39315     39316     39309     39312     39315     39317
     39309     39312     39315     39318     39310     39309     39312     39313
     39310     39309     39312     39314     39310     39309     39312     39315
     39311     39309     39312     39313     39311     39309     39312     39314
     39311     39309     39312     39315     39312     39315     39318     39319
     39312     39315     39318     39320     39312     39315     39318     39321
     39313     39312     39315     39316     39313     39312     39315     39317
     39313     39312     39315     39318     39314     39312     39315     39316
     39314     39312     39315     39317     39314     39312     39315     39318
     39315     39318     39321     39322     39315     39318     39321     39323
     39315     39318     39321     39324     39316     39315     39318     39319
     39316     39315     39318     39320     39316     39315     39318     39321
     39317     39315     39318     39319     39317     39315     39318     39320
     39317     39315     39318     39321     39318     39321     39324     39325
     39318     39321     39324     39326     39318     39321     39324     39327
     39319     39318     39321     39322     39319     39318     39321     39323
     39319     39318     39321     39324     39320     39318     39321     39322
     39320     39318     39321     39323     39320     39318     39321     39324
     39321     39324     39327     39328     39321     39324     39327     39329
     39321     39324     39327     39330     39322     39321     39324     39325
     39322     39321     39324     39326     39322     39321     39324     39327
     39323     39321     39324     39325     39323     39321     39324     39326
     39323     39321     39324     39327     39325     39324     39327     39328
     39325     39324     39327     39329     39325     39324     39327     39330
     39326     39324     39327     39328     39326     39324     39327     39329
     39326     39324     39327     39330     39331     39336     39338     39339
     39331     39336     39340     39341     39331     39336     39340     39342
     39331     39336     39340     39347     39332     39331     39334     39335
     39332     39331     39336     39337     39332     39331     39336     39338
     39332     39331     39336     39340     39333     39331     39334     39335
     39333     39331     39336     39337     39333     39331     39336     39338
     39333     39331     39336     39340     39334     39331     39336     39337
     39334     39331     39336     39338     39334     39331     39336     39340
     39335     39334     39331     39336     39336     39340     39347     39343
     39337     39336     39338     39339     39337     39336     39340     39341
     39337     39336     39340     39342     39337     39336     39340     39347
     39338     39336     39340     39341     39338     39336     39340     39342
     39338     39336     39340     39347     39339     39338     39336     39340
     39340     39347     39343     39344     39340     39347     39343     39345
     39340     39347     39343     39346     39341     39340     39347     39343
     39342     39340     39347     39343     39343     39346     39348     39349
     39343     39346     39348     39350     39343     39346     39348     39351
     39344     39343     39346     39348     39345     39343     39346     39348
     39346     39348     39351     39352     39346     39348     39351     39353
     39346     39348     39351     39359     39347     39343     39346     39348
     39348     39351     39353     39354     39348     39351     39359     39360
     39348     39351     39359     39361     39348     39351     39359     39362
     39349     39348     39351     39352     39349     39348     39351     39353
     39349     39348     39351     39359     39350     39348     39351     39352
     39350     39348     39351     39353     39350     39348     39351     39359
     39351     39353     39354     39355     39351     39353     39354     39356
     39351     39359     39362     39363     39352     39351     39353     39354
     39352     39351     39359     39360     39352     39351     39359     39361
     39352     39351     39359     39362     39353     39351     39359     39360
     39353     39351     39359     39361     39353     39351     39359     39362
     39353     39354     39356     39357     39353     39354     39356     39358
     39353     39354     39356     39368     39354     39353     39351     39359
     39354     39356     39368     39369     39354     39356     39368     39370
     39354     39356     39368     39371     39355     39354     39356     39357
     39355     39354     39356     39358     39355     39354     39356     39368
     39356     39368     39371     39372     39356     39368     39371     39373
     39356     39368     39371     39374     39357     39356     39368     39369
     39357     39356     39368     39370     39357     39356     39368     39371
     39358     39356     39368     39369     39358     39356     39368     39370
     39358     39356     39368     39371     39359     39362     39363     39364
     39359     39362     39363     39365     39360     39359     39362     39363
     39361     39359     39362     39363     39362     39363     39365     39366
     39362     39363     39365     39367     39362     39363     39365     39412
     39363     39365     39412     39413     39363     39365     39412     39414
     39363     39365     39412     39415     39364     39363     39365     39366
     39364     39363     39365     39367     39364     39363     39365     39412
     39365     39412     39415     39416     39365     39412     39415     39417
     39365     39412     39415     39418     39366     39365     39412     39413
     39366     39365     39412     39414     39366     39365     39412     39415
     39367     39365     39412     39413     39367     39365     39412     39414
     39367     39365     39412     39415     39368     39371     39374     39375
     39368     39371     39374     39376     39368     39371     39374     39377
     39369     39368     39371     39372     39369     39368     39371     39373
     39369     39368     39371     39374     39370     39368     39371     39372
     39370     39368     39371     39373     39370     39368     39371     39374
     39371     39374     39377     39378     39371     39374     39377     39379
     39371     39374     39377     39380     39372     39371     39374     39375
     39372     39371     39374     39376     39372     39371     39374     39377
     39373     39371     39374     39375     39373     39371     39374     39376
     39373     39371     39374     39377     39374     39377     39380     39381
     39374     39377     39380     39382     39374     39377     39380     39383
     39375     39374     39377     39378     39375     39374     39377     39379
     39375     39374     39377     39380     39376     39374     39377     39378
     39376     39374     39377     39379     39376     39374     39377     39380
     39377     39380     39383     39384     39377     39380     39383     39385
     39377     39380     39383     39386     39378     39377     39380     39381
     39378     39377     39380     39382     39378     39377     39380     39383
     39379     39377     39380     39381     39379     39377     39380     39382
     39379     39377     39380     39383     39380     39383     39386     39387
     39380     39383     39386     39388     39380     39383     39386     39391
     39381     39380     39383     39384     39381     39380     39383     39385
     39381     39380     39383     39386     39382     39380     39383     39384
     39382     39380     39383     39385     39382     39380     39383     39386
     39383     39386     39388     39389     39383     39386     39388     39390
     39383     39386     39388     39391     39383     39386     39391     39388
     39383     39386     39391     39392     39383     39386     39391     39393
     39384     39383     39386     39387     39384     39383     39386     39388
     39384     39383     39386     39391     39385     39383     39386     39387
     39385     39383     39386     39388     39385     39383     39386     39391
     39386     39388     39391     39392     39386     39388     39391     39393
     39386     39391     39388     39389     39386     39391     39388     39390
     39386     39391     39393     39394     39386     39391     39393     39395
     39386     39391     39393     39396     39387     39386     39388     39389
     39387     39386     39388     39390     39387     39386     39388     39391
     39387     39386     39391     39388     39387     39386     39391     39392
     39387     39386     39391     39393     39388     39386     39391     39392
     39388     39386     39391     39393     39388     39391     39393     39394
     39388     39391     39393     39395     39388     39391     39393     39396
     39389     39388     39386     39391     39389     39388     39391     39392
     39389     39388     39391     39393     39390     39388     39386     39391
     39390     39388     39391     39392     39390     39388     39391     39393
     39391     39393     39396     39397     39391     39393     39396     39398
     39391     39393     39396     39399     39392     39391     39393     39394
     39392     39391     39393     39395     39392     39391     39393     39396
     39393     39396     39399     39400     39393     39396     39399     39401
     39393     39396     39399     39402     39394     39393     39396     39397
     39394     39393     39396     39398     39394     39393     39396     39399
     39395     39393     39396     39397     39395     39393     39396     39398
     39395     39393     39396     39399     39396     39399     39402     39403
     39396     39399     39402     39404     39396     39399     39402     39405
     39397     39396     39399     39400     39397     39396     39399     39401
     39397     39396     39399     39402     39398     39396     39399     39400
     39398     39396     39399     39401     39398     39396     39399     39402
     39399     39402     39405     39406     39399     39402     39405     39407
     39399     39402     39405     39408     39400     39399     39402     39403
     39400     39399     39402     39404     39400     39399     39402     39405
     39401     39399     39402     39403     39401     39399     39402     39404
     39401     39399     39402     39405     39402     39405     39408     39409
     39402     39405     39408     39410     39402     39405     39408     39411
     39403     39402     39405     39406     39403     39402     39405     39407
     39403     39402     39405     39408     39404     39402     39405     39406
     39404     39402     39405     39407     39404     39402     39405     39408
     39406     39405     39408     39409     39406     39405     39408     39410
     39406     39405     39408     39411     39407     39405     39408     39409
     39407     39405     39408     39410     39407     39405     39408     39411
     39412     39415     39418     39419     39412     39415     39418     39420
     39412     39415     39418     39421     39413     39412     39415     39416
     39413     39412     39415     39417     39413     39412     39415     39418
     39414     39412     39415     39416     39414     39412     39415     39417
     39414     39412     39415     39418     39415     39418     39421     39422
     39415     39418     39421     39423     39415     39418     39421     39424
     39416     39415     39418     39419     39416     39415     39418     39420
     39416     39415     39418     39421     39417     39415     39418     39419
     39417     39415     39418     39420     39417     39415     39418     39421
     39418     39421     39424     39425     39418     39421     39424     39426
     39418     39421     39424     39427     39419     39418     39421     39422
     39419     39418     39421     39423     39419     39418     39421     39424
     39420     39418     39421     39422     39420     39418     39421     39423
     39420     39418     39421     39424     39421     39424     39427     39428
     39421     39424     39427     39429     39421     39424     39427     39430
     39422     39421     39424     39425     39422     39421     39424     39426
     39422     39421     39424     39427     39423     39421     39424     39425
     39423     39421     39424     39426     39423     39421     39424     39427
     39424     39427     39430     39431     39424     39427     39430     39432
     39424     39427     39430     39433     39425     39424     39427     39428
     39425     39424     39427     39429     39425     39424     39427     39430
     39426     39424     39427     39428     39426     39424     39427     39429
     39426     39424     39427     39430     39427     39430     39433     39434
     39427     39430     39433     39435     39427     39430     39433     39436
     39428     39427     39430     39431     39428     39427     39430     39432
     39428     39427     39430     39433     39429     39427     39430     39431
     39429     39427     39430     39432     39429     39427     39430     39433
     39430     39433     39436     39437     39430     39433     39436     39438
     39430     39433     39436     39439     39431     39430     39433     39434
     39431     39430     39433     39435     39431     39430     39433     39436
     39432     39430     39433     39434     39432     39430     39433     39435
     39432     39430     39433     39436     39433     39436     39439     39440
     39433     39436     39439     39441     39433     39436     39439     39442
     39434     39433     39436     39437     39434     39433     39436     39438
     39434     39433     39436     39439     39435     39433     39436     39437
     39435     39433     39436     39438     39435     39433     39436     39439
     39436     39439     39442     39443     39436     39439     39442     39444
     39436     39439     39442     39445     39437     39436     39439     39440
     39437     39436     39439     39441     39437     39436     39439     39442
     39438     39436     39439     39440     39438     39436     39439     39441
     39438     39436     39439     39442     39439     39442     39445     39446
     39439     39442     39445     39447     39439     39442     39445     39448
     39440     39439     39442     39443     39440     39439     39442     39444
     39440     39439     39442     39445     39441     39439     39442     39443
     39441     39439     39442     39444     39441     39439     39442     39445
     39442     39445     39448     39449     39442     39445     39448     39450
     39442     39445     39448     39451     39443     39442     39445     39446
     39443     39442     39445     39447     39443     39442     39445     39448
     39444     39442     39445     39446     39444     39442     39445     39447
     39444     39442     39445     39448     39445     39448     39451     39452
     39445     39448     39451     39453     39445     39448     39451     39454
     39446     39445     39448     39449     39446     39445     39448     39450
     39446     39445     39448     39451     39447     39445     39448     39449
     39447     39445     39448     39450     39447     39445     39448     39451
     39449     39448     39451     39452     39449     39448     39451     39453
     39449     39448     39451     39454     39450     39448     39451     39452
     39450     39448     39451     39453     39450     39448     39451     39454
     39455     39460     39462     39463     39455     39460     39464     39465
     39455     39460     39464     39466     39455     39460     39464     39471
     39456     39455     39458     39459     39456     39455     39460     39461
     39456     39455     39460     39462     39456     39455     39460     39464
     39457     39455     39458     39459     39457     39455     39460     39461
     39457     39455     39460     39462     39457     39455     39460     39464
     39458     39455     39460     39461     39458     39455     39460     39462
     39458     39455     39460     39464     39459     39458     39455     39460
     39460     39464     39471     39467     39461     39460     39462     39463
     39461     39460     39464     39465     39461     39460     39464     39466
     39461     39460     39464     39471     39462     39460     39464     39465
     39462     39460     39464     39466     39462     39460     39464     39471
     39463     39462     39460     39464     39464     39471     39467     39468
     39464     39471     39467     39469     39464     39471     39467     39470
     39465     39464     39471     39467     39466     39464     39471     39467
     39467     39470     39472     39473     39467     39470     39472     39474
     39467     39470     39472     39475     39468     39467     39470     39472
     39469     39467     39470     39472     39470     39472     39475     39476
     39470     39472     39475     39477     39470     39472     39475     39483
     39471     39467     39470     39472     39472     39475     39477     39478
     39472     39475     39483     39484     39472     39475     39483     39485
     39472     39475     39483     39486     39473     39472     39475     39476
     39473     39472     39475     39477     39473     39472     39475     39483
     39474     39472     39475     39476     39474     39472     39475     39477
     39474     39472     39475     39483     39475     39477     39478     39479
     39475     39477     39478     39480     39475     39483     39486     39487
     39476     39475     39477     39478     39476     39475     39483     39484
     39476     39475     39483     39485     39476     39475     39483     39486
     39477     39475     39483     39484     39477     39475     39483     39485
     39477     39475     39483     39486     39477     39478     39480     39481
     39477     39478     39480     39482     39477     39478     39480     39492
     39478     39477     39475     39483     39478     39480     39492     39493
     39478     39480     39492     39494     39478     39480     39492     39495
     39479     39478     39480     39481     39479     39478     39480     39482
     39479     39478     39480     39492     39480     39492     39495     39496
     39480     39492     39495     39497     39480     39492     39495     39498
     39481     39480     39492     39493     39481     39480     39492     39494
     39481     39480     39492     39495     39482     39480     39492     39493
     39482     39480     39492     39494     39482     39480     39492     39495
     39483     39486     39487     39488     39483     39486     39487     39489
     39484     39483     39486     39487     39485     39483     39486     39487
     39486     39487     39489     39490     39486     39487     39489     39491
     39486     39487     39489     39533     39487     39489     39533     39534
     39487     39489     39533     39535     39487     39489     39533     39536
     39488     39487     39489     39490     39488     39487     39489     39491
     39488     39487     39489     39533     39489     39533     39536     39537
     39489     39533     39536     39538     39489     39533     39536     39539
     39490     39489     39533     39534     39490     39489     39533     39535
     39490     39489     39533     39536     39491     39489     39533     39534
     39491     39489     39533     39535     39491     39489     39533     39536
     39492     39495     39498     39499     39492     39495     39498     39500
     39492     39495     39498     39501     39493     39492     39495     39496
     39493     39492     39495     39497     39493     39492     39495     39498
     39494     39492     39495     39496     39494     39492     39495     39497
     39494     39492     39495     39498     39495     39498     39501     39502
     39495     39498     39501     39503     39495     39498     39501     39504
     39496     39495     39498     39499     39496     39495     39498     39500
     39496     39495     39498     39501     39497     39495     39498     39499
     39497     39495     39498     39500     39497     39495     39498     39501
     39498     39501     39504     39505     39498     39501     39504     39506
     39498     39501     39504     39507     39499     39498     39501     39502
     39499     39498     39501     39503     39499     39498     39501     39504
     39500     39498     39501     39502     39500     39498     39501     39503
     39500     39498     39501     39504     39501     39504     39507     39508
     39501     39504     39507     39509     39501     39504     39507     39510
     39502     39501     39504     39505     39502     39501     39504     39506
     39502     39501     39504     39507     39503     39501     39504     39505
     39503     39501     39504     39506     39503     39501     39504     39507
     39504     39507     39510     39511     39504     39507     39510     39512
     39505     39504     39507     39508     39505     39504     39507     39509
     39505     39504     39507     39510     39506     39504     39507     39508
     39506     39504     39507     39509     39506     39504     39507     39510
     39507     39510     39512     39513     39507     39510     39512     39514
     39508     39507     39510     39511     39508     39507     39510     39512
     39509     39507     39510     39511     39509     39507     39510     39512
     39510     39512     39514     39515     39510     39512     39514     39516
     39510     39512     39514     39517     39511     39510     39512     39513
     39511     39510     39512     39514     39512     39514     39517     39518
     39512     39514     39517     39519     39512     39514     39517     39520
     39513     39512     39514     39515     39513     39512     39514     39516
     39513     39512     39514     39517     39514     39517     39520     39521
     39514     39517     39520     39522     39514     39517     39520     39523
     39515     39514     39517     39518     39515     39514     39517     39519
     39515     39514     39517     39520     39516     39514     39517     39518
     39516     39514     39517     39519     39516     39514     39517     39520
     39517     39520     39523     39524     39517     39520     39523     39525
     39517     39520     39523     39526     39518     39517     39520     39521
     39518     39517     39520     39522     39518     39517     39520     39523
     39519     39517     39520     39521     39519     39517     39520     39522
     39519     39517     39520     39523     39520     39523     39526     39527
     39520     39523     39526     39528     39520     39523     39526     39529
     39521     39520     39523     39524     39521     39520     39523     39525
     39521     39520     39523     39526     39522     39520     39523     39524
     39522     39520     39523     39525     39522     39520     39523     39526
     39523     39526     39529     39530     39523     39526     39529     39531
     39523     39526     39529     39532     39524     39523     39526     39527
     39524     39523     39526     39528     39524     39523     39526     39529
     39525     39523     39526     39527     39525     39523     39526     39528
     39525     39523     39526     39529     39527     39526     39529     39530
     39527     39526     39529     39531     39527     39526     39529     39532
     39528     39526     39529     39530     39528     39526     39529     39531
     39528     39526     39529     39532     39533     39536     39539     39540
     39533     39536     39539     39541     39533     39536     39539     39542
     39534     39533     39536     39537     39534     39533     39536     39538
     39534     39533     39536     39539     39535     39533     39536     39537
     39535     39533     39536     39538     39535     39533     39536     39539
     39536     39539     39542     39543     39536     39539     39542     39544
     39536     39539     39542     39545     39537     39536     39539     39540
     39537     39536     39539     39541     39537     39536     39539     39542
     39538     39536     39539     39540     39538     39536     39539     39541
     39538     39536     39539     39542     39539     39542     39545     39546
     39539     39542     39545     39547     39539     39542     39545     39548
     39540     39539     39542     39543     39540     39539     39542     39544
     39540     39539     39542     39545     39541     39539     39542     39543
     39541     39539     39542     39544     39541     39539     39542     39545
     39542     39545     39548     39549     39542     39545     39548     39550
     39542     39545     39548     39551     39543     39542     39545     39546
     39543     39542     39545     39547     39543     39542     39545     39548
     39544     39542     39545     39546     39544     39542     39545     39547
     39544     39542     39545     39548     39545     39548     39551     39552
     39545     39548     39551     39553     39545     39548     39551     39554
     39546     39545     39548     39549     39546     39545     39548     39550
     39546     39545     39548     39551     39547     39545     39548     39549
     39547     39545     39548     39550     39547     39545     39548     39551
     39548     39551     39554     39555     39548     39551     39554     39556
     39548     39551     39554     39557     39549     39548     39551     39552
     39549     39548     39551     39553     39549     39548     39551     39554
     39550     39548     39551     39552     39550     39548     39551     39553
     39550     39548     39551     39554     39551     39554     39557     39558
     39551     39554     39557     39559     39551     39554     39557     39560
     39552     39551     39554     39555     39552     39551     39554     39556
     39552     39551     39554     39557     39553     39551     39554     39555
     39553     39551     39554     39556     39553     39551     39554     39557
     39554     39557     39560     39561     39554     39557     39560     39562
     39554     39557     39560     39563     39555     39554     39557     39558
     39555     39554     39557     39559     39555     39554     39557     39560
     39556     39554     39557     39558     39556     39554     39557     39559
     39556     39554     39557     39560     39557     39560     39563     39564
     39557     39560     39563     39565     39557     39560     39563     39566
     39558     39557     39560     39561     39558     39557     39560     39562
     39558     39557     39560     39563     39559     39557     39560     39561
     39559     39557     39560     39562     39559     39557     39560     39563
     39560     39563     39566     39567     39560     39563     39566     39568
     39560     39563     39566     39569     39561     39560     39563     39564
     39561     39560     39563     39565     39561     39560     39563     39566
     39562     39560     39563     39564     39562     39560     39563     39565
     39562     39560     39563     39566     39563     39566     39569     39570
     39563     39566     39569     39571     39563     39566     39569     39572
     39564     39563     39566     39567     39564     39563     39566     39568
     39564     39563     39566     39569     39565     39563     39566     39567
     39565     39563     39566     39568     39565     39563     39566     39569
     39566     39569     39572     39573     39566     39569     39572     39574
     39566     39569     39572     39575     39567     39566     39569     39570
     39567     39566     39569     39571     39567     39566     39569     39572
     39568     39566     39569     39570     39568     39566     39569     39571
     39568     39566     39569     39572     39570     39569     39572     39573
     39570     39569     39572     39574     39570     39569     39572     39575
     39571     39569     39572     39573     39571     39569     39572     39574
     39571     39569     39572     39575     39576     39582     39579     39580
     39576     39582     39579     39581     39576     39582     39579     39583
     39576     39587     39589     39590     39576     39587     39591     39592
     39576     39587     39591     39593     39576     39587     39591     39597
     39577     39576     39582     39579     39577     39576     39587     39588
     39577     39576     39587     39589     39577     39576     39587     39591
     39578     39576     39582     39579     39578     39576     39587     39588
     39578     39576     39587     39589     39578     39576     39587     39591
     39579     39582     39576     39587     39579     39583     39584     39585
     39579     39583     39584     39586     39579     39583     39584     39619
     39580     39579     39583     39584     39581     39579     39583     39584
     39582     39576     39587     39588     39582     39576     39587     39589
     39582     39576     39587     39591     39582     39579     39583     39584
     39583     39584     39619     39620     39583     39584     39619     39621
     39583     39584     39619     39627     39584     39619     39621     39622
     39584     39619     39627     39628     39584     39619     39627     39629
     39584     39619     39627     39630     39585     39584     39619     39620
     39585     39584     39619     39621     39585     39584     39619     39627
     39586     39584     39619     39620     39586     39584     39619     39621
     39586     39584     39619     39627     39587     39591     39597     39594
     39588     39587     39589     39590     39588     39587     39591     39592
     39588     39587     39591     39593     39588     39587     39591     39597
     39589     39587     39591     39592     39589     39587     39591     39593
     39589     39587     39591     39597     39590     39589     39587     39591
     39591     39597     39594     39595     39591     39597     39594     39596
     39591     39597     39594     39598     39592     39591     39597     39594
     39593     39591     39597     39594     39594     39598     39599     39600
     39594     39598     39599     39601     39594     39598     39599     39602
     39595     39594     39598     39599     39596     39594     39598     39599
     39597     39594     39598     39599     39598     39599     39602     39603
     39598     39599     39602     39604     39598     39599     39602     39610
     39599     39602     39604     39605     39599     39602     39610     39611
     39599     39602     39610     39612     39599     39602     39610     39613
     39600     39599     39602     39603     39600     39599     39602     39604
     39600     39599     39602     39610     39601     39599     39602     39603
     39601     39599     39602     39604     39601     39599     39602     39610
     39602     39604     39605     39606     39602     39604     39605     39607
     39602     39610     39613     39614     39603     39602     39604     39605
     39603     39602     39610     39611     39603     39602     39610     39612
     39603     39602     39610     39613     39604     39602     39610     39611
     39604     39602     39610     39612     39604     39602     39610     39613
     39604     39605     39607     39608     39604     39605     39607     39609
     39604     39605     39607     39636     39605     39604     39602     39610
     39605     39607     39636     39637     39605     39607     39636     39638
     39605     39607     39636     39639     39606     39605     39607     39608
     39606     39605     39607     39609     39606     39605     39607     39636
     39607     39636     39639     39640     39607     39636     39639     39641
     39607     39636     39639     39642     39608     39607     39636     39637
     39608     39607     39636     39638     39608     39607     39636     39639
     39609     39607     39636     39637     39609     39607     39636     39638
     39609     39607     39636     39639     39610     39613     39614     39615
     39610     39613     39614     39616     39611     39610     39613     39614
     39612     39610     39613     39614     39613     39614     39616     39617
     39613     39614     39616     39618     39613     39614     39616     39683
     39614     39616     39683     39684     39614     39616     39683     39685
     39614     39616     39683     39686     39615     39614     39616     39617
     39615     39614     39616     39618     39615     39614     39616     39683
     39616     39683     39686     39687     39616     39683     39686     39688
     39616     39683     39686     39689     39617     39616     39683     39684
     39617     39616     39683     39685     39617     39616     39683     39686
     39618     39616     39683     39684     39618     39616     39683     39685
     39618     39616     39683     39686     39619     39621     39622     39623
     39619     39621     39622     39624     39619     39627     39630     39631
     39620     39619     39621     39622     39620     39619     39627     39628
     39620     39619     39627     39629     39620     39619     39627     39630
     39621     39619     39627     39628     39621     39619     39627     39629
     39621     39619     39627     39630     39621     39622     39624     39625
     39621     39622     39624     39626     39621     39622     39624     39726
     39622     39621     39619     39627     39622     39624     39726     39727
     39622     39624     39726     39728     39622     39624     39726     39729
     39623     39622     39624     39625     39623     39622     39624     39626
     39623     39622     39624     39726     39624     39726     39729     39730
     39624     39726     39729     39731     39624     39726     39729     39732
     39625     39624     39726     39727     39625     39624     39726     39728
     39625     39624     39726     39729     39626     39624     39726     39727
     39626     39624     39726     39728     39626     39624     39726     39729
     39627     39630     39631     39632     39627     39630     39631     39633
     39628     39627     39630     39631     39629     39627     39630     39631
     39630     39631     39633     39634     39630     39631     39633     39635
     39630     39631     39633     39773     39631     39633     39773     39774
     39631     39633     39773     39775     39631     39633     39773     39776
     39632     39631     39633     39634     39632     39631     39633     39635
     39632     39631     39633     39773     39633     39773     39776     39777
     39633     39773     39776     39778     39633     39773     39776     39779
     39634     39633     39773     39774     39634     39633     39773     39775
     39634     39633     39773     39776     39635     39633     39773     39774
     39635     39633     39773     39775     39635     39633     39773     39776
     39636     39639     39642     39643     39636     39639     39642     39644
     39636     39639     39642     39645     39637     39636     39639     39640
     39637     39636     39639     39641     39637     39636     39639     39642
     39638     39636     39639     39640     39638     39636     39639     39641
     39638     39636     39639     39642     39639     39642     39645     39646
     39639     39642     39645     39647     39639     39642     39645     39648
     39640     39639     39642     39643     39640     39639     39642     39644
     39640     39639     39642     39645     39641     39639     39642     39643
     39641     39639     39642     39644     39641     39639     39642     39645
     39642     39645     39648     39649     39642     39645     39648     39650
     39642     39645     39648     39651     39643     39642     39645     39646
     39643     39642     39645     39647     39643     39642     39645     39648
     39644     39642     39645     39646     39644     39642     39645     39647
     39644     39642     39645     39648     39645     39648     39651     39652
     39645     39648     39651     39653     39645     39648     39651     39654
     39646     39645     39648     39649     39646     39645     39648     39650
     39646     39645     39648     39651     39647     39645     39648     39649
     39647     39645     39648     39650     39647     39645     39648     39651
     39648     39651     39654     39655     39648     39651     39654     39656
     39648     39651     39654     39657     39649     39648     39651     39652
     39649     39648     39651     39653     39649     39648     39651     39654
     39650     39648     39651     39652     39650     39648     39651     39653
     39650     39648     39651     39654     39651     39654     39657     39658
     39651     39654     39657     39659     39651     39654     39657     39660
     39652     39651     39654     39655     39652     39651     39654     39656
     39652     39651     39654     39657     39653     39651     39654     39655
     39653     39651     39654     39656     39653     39651     39654     39657
     39654     39657     39660     39661     39654     39657     39660     39662
     39655     39654     39657     39658     39655     39654     39657     39659
     39655     39654     39657     39660     39656     39654     39657     39658
     39656     39654     39657     39659     39656     39654     39657     39660
     39657     39660     39662     39663     39657     39660     39662     39664
     39658     39657     39660     39661     39658     39657     39660     39662
     39659     39657     39660     39661     39659     39657     39660     39662
     39660     39662     39664     39665     39660     39662     39664     39666
     39660     39662     39664     39667     39661     39660     39662     39663
     39661     39660     39662     39664     39662     39664     39667     39668
     39662     39664     39667     39669     39662     39664     39667     39670
     39663     39662     39664     39665     39663     39662     39664     39666
     39663     39662     39664     39667     39664     39667     39670     39671
     39664     39667     39670     39672     39664     39667     39670     39673
     39665     39664     39667     39668     39665     39664     39667     39669
     39665     39664     39667     39670     39666     39664     39667     39668
     39666     39664     39667     39669     39666     39664     39667     39670
     39667     39670     39673     39674     39667     39670     39673     39675
     39667     39670     39673     39676     39668     39667     39670     39671
     39668     39667     39670     39672     39668     39667     39670     39673
     39669     39667     39670     39671     39669     39667     39670     39672
     39669     39667     39670     39673     39670     39673     39676     39677
     39670     39673     39676     39678     39670     39673     39676     39679
     39671     39670     39673     39674     39671     39670     39673     39675
     39671     39670     39673     39676     39672     39670     39673     39674
     39672     39670     39673     39675     39672     39670     39673     39676
     39673     39676     39679     39680     39673     39676     39679     39681
     39673     39676     39679     39682     39674     39673     39676     39677
     39674     39673     39676     39678     39674     39673     39676     39679
     39675     39673     39676     39677     39675     39673     39676     39678
     39675     39673     39676     39679     39677     39676     39679     39680
     39677     39676     39679     39681     39677     39676     39679     39682
     39678     39676     39679     39680     39678     39676     39679     39681
     39678     39676     39679     39682     39683     39686     39689     39690
     39683     39686     39689     39691     39683     39686     39689     39692
     39684     39683     39686     39687     39684     39683     39686     39688
     39684     39683     39686     39689     39685     39683     39686     39687
     39685     39683     39686     39688     39685     39683     39686     39689
     39686     39689     39692     39693     39686     39689     39692     39694
     39686     39689     39692     39695     39687     39686     39689     39690
     39687     39686     39689     39691     39687     39686     39689     39692
     39688     39686     39689     39690     39688     39686     39689     39691
     39688     39686     39689     39692     39689     39692     39695     39696
     39689     39692     39695     39697     39689     39692     39695     39698
     39690     39689     39692     39693     39690     39689     39692     39694
     39690     39689     39692     39695     39691     39689     39692     39693
     39691     39689     39692     39694     39691     39689     39692     39695
     39692     39695     39698     39699     39692     39695     39698     39700
     39692     39695     39698     39701     39693     39692     39695     39696
     39693     39692     39695     39697     39693     39692     39695     39698
     39694     39692     39695     39696     39694     39692     39695     39697
     39694     39692     39695     39698     39695     39698     39701     39702
     39695     39698     39701     39703     39695     39698     39701     39704
     39696     39695     39698     39699     39696     39695     39698     39700
     39696     39695     39698     39701     39697     39695     39698     39699
     39697     39695     39698     39700     39697     39695     39698     39701
     39698     39701     39704     39705     39698     39701     39704     39706
     39698     39701     39704     39707     39699     39698     39701     39702
     39699     39698     39701     39703     39699     39698     39701     39704
     39700     39698     39701     39702     39700     39698     39701     39703
     39700     39698     39701     39704     39701     39704     39707     39708
     39701     39704     39707     39709     39701     39704     39707     39710
     39702     39701     39704     39705     39702     39701     39704     39706
     39702     39701     39704     39707     39703     39701     39704     39705
     39703     39701     39704     39706     39703     39701     39704     39707
     39704     39707     39710     39711     39704     39707     39710     39712
     39704     39707     39710     39713     39705     39704     39707     39708
     39705     39704     39707     39709     39705     39704     39707     39710
     39706     39704     39707     39708     39706     39704     39707     39709
     39706     39704     39707     39710     39707     39710     39713     39714
     39707     39710     39713     39715     39707     39710     39713     39716
     39708     39707     39710     39711     39708     39707     39710     39712
     39708     39707     39710     39713     39709     39707     39710     39711
     39709     39707     39710     39712     39709     39707     39710     39713
     39710     39713     39716     39717     39710     39713     39716     39718
     39710     39713     39716     39719     39711     39710     39713     39714
     39711     39710     39713     39715     39711     39710     39713     39716
     39712     39710     39713     39714     39712     39710     39713     39715
     39712     39710     39713     39716     39713     39716     39719     39720
     39713     39716     39719     39721     39713     39716     39719     39722
     39714     39713     39716     39717     39714     39713     39716     39718
     39714     39713     39716     39719     39715     39713     39716     39717
     39715     39713     39716     39718     39715     39713     39716     39719
     39716     39719     39722     39723     39716     39719     39722     39724
     39716     39719     39722     39725     39717     39716     39719     39720
     39717     39716     39719     39721     39717     39716     39719     39722
     39718     39716     39719     39720     39718     39716     39719     39721
     39718     39716     39719     39722     39720     39719     39722     39723
     39720     39719     39722     39724     39720     39719     39722     39725
     39721     39719     39722     39723     39721     39719     39722     39724
     39721     39719     39722     39725     39726     39729     39732     39733
     39726     39729     39732     39734     39726     39729     39732     39735
     39727     39726     39729     39730     39727     39726     39729     39731
     39727     39726     39729     39732     39728     39726     39729     39730
     39728     39726     39729     39731     39728     39726     39729     39732
     39729     39732     39735     39736     39729     39732     39735     39737
     39729     39732     39735     39738     39730     39729     39732     39733
     39730     39729     39732     39734     39730     39729     39732     39735
     39731     39729     39732     39733     39731     39729     39732     39734
     39731     39729     39732     39735     39732     39735     39738     39739
     39732     39735     39738     39740     39732     39735     39738     39741
     39733     39732     39735     39736     39733     39732     39735     39737
     39733     39732     39735     39738     39734     39732     39735     39736
     39734     39732     39735     39737     39734     39732     39735     39738
     39735     39738     39741     39742     39735     39738     39741     39743
     39735     39738     39741     39744     39736     39735     39738     39739
     39736     39735     39738     39740     39736     39735     39738     39741
     39737     39735     39738     39739     39737     39735     39738     39740
     39737     39735     39738     39741     39738     39741     39744     39745
     39738     39741     39744     39746     39738     39741     39744     39747
     39739     39738     39741     39742     39739     39738     39741     39743
     39739     39738     39741     39744     39740     39738     39741     39742
     39740     39738     39741     39743     39740     39738     39741     39744
     39741     39744     39747     39748     39741     39744     39747     39749
     39741     39744     39747     39750     39742     39741     39744     39745
     39742     39741     39744     39746     39742     39741     39744     39747
     39743     39741     39744     39745     39743     39741     39744     39746
     39743     39741     39744     39747     39744     39747     39750     39751
     39744     39747     39750     39752     39745     39744     39747     39748
     39745     39744     39747     39749     39745     39744     39747     39750
     39746     39744     39747     39748     39746     39744     39747     39749
     39746     39744     39747     39750     39747     39750     39752     39753
     39747     39750     39752     39754     39748     39747     39750     39751
     39748     39747     39750     39752     39749     39747     39750     39751
     39749     39747     39750     39752     39750     39752     39754     39755
     39750     39752     39754     39756     39750     39752     39754     39757
     39751     39750     39752     39753     39751     39750     39752     39754
     39752     39754     39757     39758     39752     39754     39757     39759
     39752     39754     39757     39760     39753     39752     39754     39755
     39753     39752     39754     39756     39753     39752     39754     39757
     39754     39757     39760     39761     39754     39757     39760     39762
     39754     39757     39760     39763     39755     39754     39757     39758
     39755     39754     39757     39759     39755     39754     39757     39760
     39756     39754     39757     39758     39756     39754     39757     39759
     39756     39754     39757     39760     39757     39760     39763     39764
     39757     39760     39763     39765     39757     39760     39763     39766
     39758     39757     39760     39761     39758     39757     39760     39762
     39758     39757     39760     39763     39759     39757     39760     39761
     39759     39757     39760     39762     39759     39757     39760     39763
     39760     39763     39766     39767     39760     39763     39766     39768
     39760     39763     39766     39769     39761     39760     39763     39764
     39761     39760     39763     39765     39761     39760     39763     39766
     39762     39760     39763     39764     39762     39760     39763     39765
     39762     39760     39763     39766     39763     39766     39769     39770
     39763     39766     39769     39771     39763     39766     39769     39772
     39764     39763     39766     39767     39764     39763     39766     39768
     39764     39763     39766     39769     39765     39763     39766     39767
     39765     39763     39766     39768     39765     39763     39766     39769
     39767     39766     39769     39770     39767     39766     39769     39771
     39767     39766     39769     39772     39768     39766     39769     39770
     39768     39766     39769     39771     39768     39766     39769     39772
     39773     39776     39779     39780     39773     39776     39779     39781
     39773     39776     39779     39782     39774     39773     39776     39777
     39774     39773     39776     39778     39774     39773     39776     39779
     39775     39773     39776     39777     39775     39773     39776     39778
     39775     39773     39776     39779     39776     39779     39782     39783
     39776     39779     39782     39784     39776     39779     39782     39785
     39777     39776     39779     39780     39777     39776     39779     39781
     39777     39776     39779     39782     39778     39776     39779     39780
     39778     39776     39779     39781     39778     39776     39779     39782
     39779     39782     39785     39786     39779     39782     39785     39787
     39779     39782     39785     39788     39780     39779     39782     39783
     39780     39779     39782     39784     39780     39779     39782     39785
     39781     39779     39782     39783     39781     39779     39782     39784
     39781     39779     39782     39785     39782     39785     39788     39789
     39782     39785     39788     39790     39782     39785     39788     39791
     39783     39782     39785     39786     39783     39782     39785     39787
     39783     39782     39785     39788     39784     39782     39785     39786
     39784     39782     39785     39787     39784     39782     39785     39788
     39785     39788     39791     39792     39785     39788     39791     39793
     39785     39788     39791     39794     39786     39785     39788     39789
     39786     39785     39788     39790     39786     39785     39788     39791
     39787     39785     39788     39789     39787     39785     39788     39790
     39787     39785     39788     39791     39788     39791     39794     39795
     39788     39791     39794     39796     39788     39791     39794     39797
     39789     39788     39791     39792     39789     39788     39791     39793
     39789     39788     39791     39794     39790     39788     39791     39792
     39790     39788     39791     39793     39790     39788     39791     39794
     39791     39794     39797     39798     39791     39794     39797     39799
     39791     39794     39797     39800     39792     39791     39794     39795
     39792     39791     39794     39796     39792     39791     39794     39797
     39793     39791     39794     39795     39793     39791     39794     39796
     39793     39791     39794     39797     39794     39797     39800     39801
     39794     39797     39800     39802     39794     39797     39800     39803
     39795     39794     39797     39798     39795     39794     39797     39799
     39795     39794     39797     39800     39796     39794     39797     39798
     39796     39794     39797     39799     39796     39794     39797     39800
     39797     39800     39803     39804     39797     39800     39803     39805
     39797     39800     39803     39806     39798     39797     39800     39801
     39798     39797     39800     39802     39798     39797     39800     39803
     39799     39797     39800     39801     39799     39797     39800     39802
     39799     39797     39800     39803     39800     39803     39806     39807
     39800     39803     39806     39808     39800     39803     39806     39809
     39801     39800     39803     39804     39801     39800     39803     39805
     39801     39800     39803     39806     39802     39800     39803     39804
     39802     39800     39803     39805     39802     39800     39803     39806
     39803     39806     39809     39810     39803     39806     39809     39811
     39803     39806     39809     39812     39804     39803     39806     39807
     39804     39803     39806     39808     39804     39803     39806     39809
     39805     39803     39806     39807     39805     39803     39806     39808
     39805     39803     39806     39809     39806     39809     39812     39813
     39806     39809     39812     39814     39806     39809     39812     39815
     39807     39806     39809     39810     39807     39806     39809     39811
     39807     39806     39809     39812     39808     39806     39809     39810
     39808     39806     39809     39811     39808     39806     39809     39812
     39810     39809     39812     39813     39810     39809     39812     39814
     39810     39809     39812     39815     39811     39809     39812     39813
     39811     39809     39812     39814     39811     39809     39812     39815
     39816     39820     39823     39824     39816     39820     39823     39825
     39816     39820     39823     39830     39817     39816     39820     39821
     39817     39816     39820     39822     39817     39816     39820     39823
     39818     39816     39820     39821     39818     39816     39820     39822
     39818     39816     39820     39823     39819     39816     39820     39821
     39819     39816     39820     39822     39819     39816     39820     39823
     39820     39823     39830     39826     39821     39820     39823     39824
     39821     39820     39823     39825     39821     39820     39823     39830
     39822     39820     39823     39824     39822     39820     39823     39825
     39822     39820     39823     39830     39823     39830     39826     39827
     39823     39830     39826     39828     39823     39830     39826     39829
     39824     39823     39830     39826     39825     39823     39830     39826
     39826     39829     39831     39832     39826     39829     39831     39833
     39826     39829     39831     39834     39827     39826     39829     39831
     39828     39826     39829     39831     39829     39831     39834     39835
     39829     39831     39834     39836     39829     39831     39834     39842
     39830     39826     39829     39831     39831     39834     39836     39837
     39831     39834     39842     39843     39831     39834     39842     39844
     39831     39834     39842     39845     39832     39831     39834     39835
     39832     39831     39834     39836     39832     39831     39834     39842
     39833     39831     39834     39835     39833     39831     39834     39836
     39833     39831     39834     39842     39834     39836     39837     39838
     39834     39836     39837     39839     39834     39842     39845     39846
     39835     39834     39836     39837     39835     39834     39842     39843
     39835     39834     39842     39844     39835     39834     39842     39845
     39836     39834     39842     39843     39836     39834     39842     39844
     39836     39834     39842     39845     39836     39837     39839     39840
     39836     39837     39839     39841     39836     39837     39839     39851
     39837     39836     39834     39842     39837     39839     39851     39852
     39837     39839     39851     39853     39837     39839     39851     39854
     39838     39837     39839     39840     39838     39837     39839     39841
     39838     39837     39839     39851     39839     39851     39854     39855
     39839     39851     39854     39856     39839     39851     39854     39857
     39840     39839     39851     39852     39840     39839     39851     39853
     39840     39839     39851     39854     39841     39839     39851     39852
     39841     39839     39851     39853     39841     39839     39851     39854
     39842     39845     39846     39847     39842     39845     39846     39848
     39843     39842     39845     39846     39844     39842     39845     39846
     39845     39846     39848     39849     39845     39846     39848     39850
     39845     39846     39848     39895     39846     39848     39895     39896
     39846     39848     39895     39897     39846     39848     39895     39898
     39847     39846     39848     39849     39847     39846     39848     39850
     39847     39846     39848     39895     39848     39895     39898     39899
     39848     39895     39898     39900     39848     39895     39898     39901
     39849     39848     39895     39896     39849     39848     39895     39897
     39849     39848     39895     39898     39850     39848     39895     39896
     39850     39848     39895     39897     39850     39848     39895     39898
     39851     39854     39857     39858     39851     39854     39857     39859
     39851     39854     39857     39860     39852     39851     39854     39855
     39852     39851     39854     39856     39852     39851     39854     39857
     39853     39851     39854     39855     39853     39851     39854     39856
     39853     39851     39854     39857     39854     39857     39860     39861
     39854     39857     39860     39862     39854     39857     39860     39863
     39855     39854     39857     39858     39855     39854     39857     39859
     39855     39854     39857     39860     39856     39854     39857     39858
     39856     39854     39857     39859     39856     39854     39857     39860
     39857     39860     39863     39864     39857     39860     39863     39865
     39857     39860     39863     39866     39858     39857     39860     39861
     39858     39857     39860     39862     39858     39857     39860     39863
     39859     39857     39860     39861     39859     39857     39860     39862
     39859     39857     39860     39863     39860     39863     39866     39867
     39860     39863     39866     39868     39860     39863     39866     39869
     39861     39860     39863     39864     39861     39860     39863     39865
     39861     39860     39863     39866     39862     39860     39863     39864
     39862     39860     39863     39865     39862     39860     39863     39866
     39863     39866     39869     39870     39863     39866     39869     39871
     39863     39866     39869     39874     39864     39863     39866     39867
     39864     39863     39866     39868     39864     39863     39866     39869
     39865     39863     39866     39867     39865     39863     39866     39868
     39865     39863     39866     39869     39866     39869     39871     39872
     39866     39869     39871     39873     39866     39869     39871     39874
     39866     39869     39874     39871     39866     39869     39874     39875
     39866     39869     39874     39876     39867     39866     39869     39870
     39867     39866     39869     39871     39867     39866     39869     39874
     39868     39866     39869     39870     39868     39866     39869     39871
     39868     39866     39869     39874     39869     39871     39874     39875
     39869     39871     39874     39876     39869     39874     39871     39872
     39869     39874     39871     39873     39869     39874     39876     39877
     39869     39874     39876     39878     39869     39874     39876     39879
     39870     39869     39871     39872     39870     39869     39871     39873
     39870     39869     39871     39874     39870     39869     39874     39871
     39870     39869     39874     39875     39870     39869     39874     39876
     39871     39869     39874     39875     39871     39869     39874     39876
     39871     39874     39876     39877     39871     39874     39876     39878
     39871     39874     39876     39879     39872     39871     39869     39874
     39872     39871     39874     39875     39872     39871     39874     39876
     39873     39871     39869     39874     39873     39871     39874     39875
     39873     39871     39874     39876     39874     39876     39879     39880
     39874     39876     39879     39881     39874     39876     39879     39882
     39875     39874     39876     39877     39875     39874     39876     39878
     39875     39874     39876     39879     39876     39879     39882     39883
     39876     39879     39882     39884     39876     39879     39882     39885
     39877     39876     39879     39880     39877     39876     39879     39881
     39877     39876     39879     39882     39878     39876     39879     39880
     39878     39876     39879     39881     39878     39876     39879     39882
     39879     39882     39885     39886     39879     39882     39885     39887
     39879     39882     39885     39888     39880     39879     39882     39883
     39880     39879     39882     39884     39880     39879     39882     39885
     39881     39879     39882     39883     39881     39879     39882     39884
     39881     39879     39882     39885     39882     39885     39888     39889
     39882     39885     39888     39890     39882     39885     39888     39891
     39883     39882     39885     39886     39883     39882     39885     39887
     39883     39882     39885     39888     39884     39882     39885     39886
     39884     39882     39885     39887     39884     39882     39885     39888
     39885     39888     39891     39892     39885     39888     39891     39893
     39885     39888     39891     39894     39886     39885     39888     39889
     39886     39885     39888     39890     39886     39885     39888     39891
     39887     39885     39888     39889     39887     39885     39888     39890
     39887     39885     39888     39891     39889     39888     39891     39892
     39889     39888     39891     39893     39889     39888     39891     39894
     39890     39888     39891     39892     39890     39888     39891     39893
     39890     39888     39891     39894     39895     39898     39901     39902
     39895     39898     39901     39903     39895     39898     39901     39904
     39896     39895     39898     39899     39896     39895     39898     39900
     39896     39895     39898     39901     39897     39895     39898     39899
     39897     39895     39898     39900     39897     39895     39898     39901
     39898     39901     39904     39905     39898     39901     39904     39906
     39898     39901     39904     39907     39899     39898     39901     39902
     39899     39898     39901     39903     39899     39898     39901     39904
     39900     39898     39901     39902     39900     39898     39901     39903
     39900     39898     39901     39904     39901     39904     39907     39908
     39901     39904     39907     39909     39901     39904     39907     39910
     39902     39901     39904     39905     39902     39901     39904     39906
     39902     39901     39904     39907     39903     39901     39904     39905
     39903     39901     39904     39906     39903     39901     39904     39907
     39904     39907     39910     39911     39904     39907     39910     39912
     39904     39907     39910     39913     39905     39904     39907     39908
     39905     39904     39907     39909     39905     39904     39907     39910
     39906     39904     39907     39908     39906     39904     39907     39909
     39906     39904     39907     39910     39907     39910     39913     39914
     39907     39910     39913     39915     39907     39910     39913     39916
     39908     39907     39910     39911     39908     39907     39910     39912
     39908     39907     39910     39913     39909     39907     39910     39911
     39909     39907     39910     39912     39909     39907     39910     39913
     39910     39913     39916     39917     39910     39913     39916     39918
     39910     39913     39916     39919     39911     39910     39913     39914
     39911     39910     39913     39915     39911     39910     39913     39916
     39912     39910     39913     39914     39912     39910     39913     39915
     39912     39910     39913     39916     39913     39916     39919     39920
     39913     39916     39919     39921     39913     39916     39919     39922
     39914     39913     39916     39917     39914     39913     39916     39918
     39914     39913     39916     39919     39915     39913     39916     39917
     39915     39913     39916     39918     39915     39913     39916     39919
     39916     39919     39922     39923     39916     39919     39922     39924
     39916     39919     39922     39925     39917     39916     39919     39920
     39917     39916     39919     39921     39917     39916     39919     39922
     39918     39916     39919     39920     39918     39916     39919     39921
     39918     39916     39919     39922     39919     39922     39925     39926
     39919     39922     39925     39927     39919     39922     39925     39928
     39920     39919     39922     39923     39920     39919     39922     39924
     39920     39919     39922     39925     39921     39919     39922     39923
     39921     39919     39922     39924     39921     39919     39922     39925
     39922     39925     39928     39929     39922     39925     39928     39930
     39922     39925     39928     39931     39923     39922     39925     39926
     39923     39922     39925     39927     39923     39922     39925     39928
     39924     39922     39925     39926     39924     39922     39925     39927
     39924     39922     39925     39928     39925     39928     39931     39932
     39925     39928     39931     39933     39925     39928     39931     39934
     39926     39925     39928     39929     39926     39925     39928     39930
     39926     39925     39928     39931     39927     39925     39928     39929
     39927     39925     39928     39930     39927     39925     39928     39931
     39929     39928     39931     39932     39929     39928     39931     39933
     39929     39928     39931     39934     39930     39928     39931     39932
     39930     39928     39931     39933     39930     39928     39931     39934
     39935     39940     39942     39943     39935     39940     39944     39945
     39935     39940     39944     39946     39935     39940     39944     39951
     39936     39935     39938     39939     39936     39935     39940     39941
     39936     39935     39940     39942     39936     39935     39940     39944
     39937     39935     39938     39939     39937     39935     39940     39941
     39937     39935     39940     39942     39937     39935     39940     39944
     39938     39935     39940     39941     39938     39935     39940     39942
     39938     39935     39940     39944     39939     39938     39935     39940
     39940     39944     39951     39947     39941     39940     39942     39943
     39941     39940     39944     39945     39941     39940     39944     39946
     39941     39940     39944     39951     39942     39940     39944     39945
     39942     39940     39944     39946     39942     39940     39944     39951
     39943     39942     39940     39944     39944     39951     39947     39948
     39944     39951     39947     39949     39944     39951     39947     39950
     39945     39944     39951     39947     39946     39944     39951     39947
     39947     39950     39952     39953     39947     39950     39952     39954
     39947     39950     39952     39955     39948     39947     39950     39952
     39949     39947     39950     39952     39950     39952     39955     39956
     39950     39952     39955     39957     39950     39952     39955     39963
     39951     39947     39950     39952     39952     39955     39957     39958
     39952     39955     39963     39964     39952     39955     39963     39965
     39952     39955     39963     39966     39953     39952     39955     39956
     39953     39952     39955     39957     39953     39952     39955     39963
     39954     39952     39955     39956     39954     39952     39955     39957
     39954     39952     39955     39963     39955     39957     39958     39959
     39955     39957     39958     39960     39955     39963     39966     39967
     39956     39955     39957     39958     39956     39955     39963     39964
     39956     39955     39963     39965     39956     39955     39963     39966
     39957     39955     39963     39964     39957     39955     39963     39965
     39957     39955     39963     39966     39957     39958     39960     39961
     39957     39958     39960     39962     39957     39958     39960     39972
     39958     39957     39955     39963     39958     39960     39972     39973
     39958     39960     39972     39974     39958     39960     39972     39975
     39959     39958     39960     39961     39959     39958     39960     39962
     39959     39958     39960     39972     39960     39972     39975     39976
     39960     39972     39975     39977     39960     39972     39975     39978
     39961     39960     39972     39973     39961     39960     39972     39974
     39961     39960     39972     39975     39962     39960     39972     39973
     39962     39960     39972     39974     39962     39960     39972     39975
     39963     39966     39967     39968     39963     39966     39967     39969
     39964     39963     39966     39967     39965     39963     39966     39967
     39966     39967     39969     39970     39966     39967     39969     39971
     39966     39967     39969     40016     39967     39969     40016     40017
     39967     39969     40016     40018     39967     39969     40016     40019
     39968     39967     39969     39970     39968     39967     39969     39971
     39968     39967     39969     40016     39969     40016     40019     40020
     39969     40016     40019     40021     39969     40016     40019     40022
     39970     39969     40016     40017     39970     39969     40016     40018
     39970     39969     40016     40019     39971     39969     40016     40017
     39971     39969     40016     40018     39971     39969     40016     40019
     39972     39975     39978     39979     39972     39975     39978     39980
     39972     39975     39978     39981     39973     39972     39975     39976
     39973     39972     39975     39977     39973     39972     39975     39978
     39974     39972     39975     39976     39974     39972     39975     39977
     39974     39972     39975     39978     39975     39978     39981     39982
     39975     39978     39981     39983     39975     39978     39981     39984
     39976     39975     39978     39979     39976     39975     39978     39980
     39976     39975     39978     39981     39977     39975     39978     39979
     39977     39975     39978     39980     39977     39975     39978     39981
     39978     39981     39984     39985     39978     39981     39984     39986
     39978     39981     39984     39987     39979     39978     39981     39982
     39979     39978     39981     39983     39979     39978     39981     39984
     39980     39978     39981     39982     39980     39978     39981     39983
     39980     39978     39981     39984     39981     39984     39987     39988
     39981     39984     39987     39989     39981     39984     39987     39990
     39982     39981     39984     39985     39982     39981     39984     39986
     39982     39981     39984     39987     39983     39981     39984     39985
     39983     39981     39984     39986     39983     39981     39984     39987
     39984     39987     39990     39991     39984     39987     39990     39992
     39984     39987     39990     39995     39985     39984     39987     39988
     39985     39984     39987     39989     39985     39984     39987     39990
     39986     39984     39987     39988     39986     39984     39987     39989
     39986     39984     39987     39990     39987     39990     39992     39993
     39987     39990     39992     39994     39987     39990     39992     39995
     39987     39990     39995     39992     39987     39990     39995     39996
     39987     39990     39995     39997     39988     39987     39990     39991
     39988     39987     39990     39992     39988     39987     39990     39995
     39989     39987     39990     39991     39989     39987     39990     39992
     39989     39987     39990     39995     39990     39992     39995     39996
     39990     39992     39995     39997     39990     39995     39992     39993
     39990     39995     39992     39994     39990     39995     39997     39998
     39990     39995     39997     39999     39990     39995     39997     40000
     39991     39990     39992     39993     39991     39990     39992     39994
     39991     39990     39992     39995     39991     39990     39995     39992
     39991     39990     39995     39996     39991     39990     39995     39997
     39992     39990     39995     39996     39992     39990     39995     39997
     39992     39995     39997     39998     39992     39995     39997     39999
     39992     39995     39997     40000     39993     39992     39990     39995
     39993     39992     39995     39996     39993     39992     39995     39997
     39994     39992     39990     39995     39994     39992     39995     39996
     39994     39992     39995     39997     39995     39997     40000     40001
     39995     39997     40000     40002     39995     39997     40000     40003
     39996     39995     39997     39998     39996     39995     39997     39999
     39996     39995     39997     40000     39997     40000     40003     40004
     39997     40000     40003     40005     39997     40000     40003     40006
     39998     39997     40000     40001     39998     39997     40000     40002
     39998     39997     40000     40003     39999     39997     40000     40001
     39999     39997     40000     40002     39999     39997     40000     40003
     40000     40003     40006     40007     40000     40003     40006     40008
     40000     40003     40006     40009     40001     40000     40003     40004
     40001     40000     40003     40005     40001     40000     40003     40006
     40002     40000     40003     40004     40002     40000     40003     40005
     40002     40000     40003     40006     40003     40006     40009     40010
     40003     40006     40009     40011     40003     40006     40009     40012
     40004     40003     40006     40007     40004     40003     40006     40008
     40004     40003     40006     40009     40005     40003     40006     40007
     40005     40003     40006     40008     40005     40003     40006     40009
     40006     40009     40012     40013     40006     40009     40012     40014
     40006     40009     40012     40015     40007     40006     40009     40010
     40007     40006     40009     40011     40007     40006     40009     40012
     40008     40006     40009     40010     40008     40006     40009     40011
     40008     40006     40009     40012     40010     40009     40012     40013
     40010     40009     40012     40014     40010     40009     40012     40015
     40011     40009     40012     40013     40011     40009     40012     40014
     40011     40009     40012     40015     40016     40019     40022     40023
     40016     40019     40022     40024     40016     40019     40022     40025
     40017     40016     40019     40020     40017     40016     40019     40021
     40017     40016     40019     40022     40018     40016     40019     40020
     40018     40016     40019     40021     40018     40016     40019     40022
     40019     40022     40025     40026     40019     40022     40025     40027
     40019     40022     40025     40028     40020     40019     40022     40023
     40020     40019     40022     40024     40020     40019     40022     40025
     40021     40019     40022     40023     40021     40019     40022     40024
     40021     40019     40022     40025     40022     40025     40028     40029
     40022     40025     40028     40030     40022     40025     40028     40031
     40023     40022     40025     40026     40023     40022     40025     40027
     40023     40022     40025     40028     40024     40022     40025     40026
     40024     40022     40025     40027     40024     40022     40025     40028
     40025     40028     40031     40032     40025     40028     40031     40033
     40025     40028     40031     40034     40026     40025     40028     40029
     40026     40025     40028     40030     40026     40025     40028     40031
     40027     40025     40028     40029     40027     40025     40028     40030
     40027     40025     40028     40031     40028     40031     40034     40035
     40028     40031     40034     40036     40028     40031     40034     40037
     40029     40028     40031     40032     40029     40028     40031     40033
     40029     40028     40031     40034     40030     40028     40031     40032
     40030     40028     40031     40033     40030     40028     40031     40034
     40031     40034     40037     40038     40031     40034     40037     40039
     40031     40034     40037     40040     40032     40031     40034     40035
     40032     40031     40034     40036     40032     40031     40034     40037
     40033     40031     40034     40035     40033     40031     40034     40036
     40033     40031     40034     40037     40034     40037     40040     40041
     40034     40037     40040     40042     40034     40037     40040     40043
     40035     40034     40037     40038     40035     40034     40037     40039
     40035     40034     40037     40040     40036     40034     40037     40038
     40036     40034     40037     40039     40036     40034     40037     40040
     40037     40040     40043     40044     40037     40040     40043     40045
     40037     40040     40043     40046     40038     40037     40040     40041
     40038     40037     40040     40042     40038     40037     40040     40043
     40039     40037     40040     40041     40039     40037     40040     40042
     40039     40037     40040     40043     40040     40043     40046     40047
     40040     40043     40046     40048     40040     40043     40046     40049
     40041     40040     40043     40044     40041     40040     40043     40045
     40041     40040     40043     40046     40042     40040     40043     40044
     40042     40040     40043     40045     40042     40040     40043     40046
     40043     40046     40049     40050     40043     40046     40049     40051
     40043     40046     40049     40052     40044     40043     40046     40047
     40044     40043     40046     40048     40044     40043     40046     40049
     40045     40043     40046     40047     40045     40043     40046     40048
     40045     40043     40046     40049     40046     40049     40052     40053
     40046     40049     40052     40054     40046     40049     40052     40055
     40047     40046     40049     40050     40047     40046     40049     40051
     40047     40046     40049     40052     40048     40046     40049     40050
     40048     40046     40049     40051     40048     40046     40049     40052
     40049     40052     40055     40056     40049     40052     40055     40057
     40049     40052     40055     40058     40050     40049     40052     40053
     40050     40049     40052     40054     40050     40049     40052     40055
     40051     40049     40052     40053     40051     40049     40052     40054
     40051     40049     40052     40055     40053     40052     40055     40056
     40053     40052     40055     40057     40053     40052     40055     40058
     40054     40052     40055     40056     40054     40052     40055     40057
     40054     40052     40055     40058     40059     40063     40066     40067
     40059     40063     40066     40068     40059     40063     40066     40073
     40060     40059     40063     40064     40060     40059     40063     40065
     40060     40059     40063     40066     40061     40059     40063     40064
     40061     40059     40063     40065     40061     40059     40063     40066
     40062     40059     40063     40064     40062     40059     40063     40065
     40062     40059     40063     40066     40063     40066     40073     40069
     40064     40063     40066     40067     40064     40063     40066     40068
     40064     40063     40066     40073     40065     40063     40066     40067
     40065     40063     40066     40068     40065     40063     40066     40073
     40066     40073     40069     40070     40066     40073     40069     40071
     40066     40073     40069     40072     40067     40066     40073     40069
     40068     40066     40073     40069     40069     40072     40074     40075
     40069     40072     40074     40076     40069     40072     40074     40077
     40070     40069     40072     40074     40071     40069     40072     40074
     40072     40074     40077     40078     40072     40074     40077     40079
     40072     40074     40077     40085     40073     40069     40072     40074
     40074     40077     40079     40080     40074     40077     40085     40086
     40074     40077     40085     40087     40074     40077     40085     40088
     40075     40074     40077     40078     40075     40074     40077     40079
     40075     40074     40077     40085     40076     40074     40077     40078
     40076     40074     40077     40079     40076     40074     40077     40085
     40077     40079     40080     40081     40077     40079     40080     40082
     40077     40085     40088     40089     40078     40077     40079     40080
     40078     40077     40085     40086     40078     40077     40085     40087
     40078     40077     40085     40088     40079     40077     40085     40086
     40079     40077     40085     40087     40079     40077     40085     40088
     40079     40080     40082     40083     40079     40080     40082     40084
     40079     40080     40082     40094     40080     40079     40077     40085
     40080     40082     40094     40095     40080     40082     40094     40096
     40080     40082     40094     40097     40081     40080     40082     40083
     40081     40080     40082     40084     40081     40080     40082     40094
     40082     40094     40097     40098     40082     40094     40097     40099
     40082     40094     40097     40100     40083     40082     40094     40095
     40083     40082     40094     40096     40083     40082     40094     40097
     40084     40082     40094     40095     40084     40082     40094     40096
     40084     40082     40094     40097     40085     40088     40089     40090
     40085     40088     40089     40091     40086     40085     40088     40089
     40087     40085     40088     40089     40088     40089     40091     40092
     40088     40089     40091     40093     40088     40089     40091     40138
     40089     40091     40138     40139     40089     40091     40138     40140
     40089     40091     40138     40141     40090     40089     40091     40092
     40090     40089     40091     40093     40090     40089     40091     40138
     40091     40138     40141     40142     40091     40138     40141     40143
     40091     40138     40141     40144     40092     40091     40138     40139
     40092     40091     40138     40140     40092     40091     40138     40141
     40093     40091     40138     40139     40093     40091     40138     40140
     40093     40091     40138     40141     40094     40097     40100     40101
     40094     40097     40100     40102     40094     40097     40100     40103
     40095     40094     40097     40098     40095     40094     40097     40099
     40095     40094     40097     40100     40096     40094     40097     40098
     40096     40094     40097     40099     40096     40094     40097     40100
     40097     40100     40103     40104     40097     40100     40103     40105
     40097     40100     40103     40106     40098     40097     40100     40101
     40098     40097     40100     40102     40098     40097     40100     40103
     40099     40097     40100     40101     40099     40097     40100     40102
     40099     40097     40100     40103     40100     40103     40106     40107
     40100     40103     40106     40108     40100     40103     40106     40109
     40101     40100     40103     40104     40101     40100     40103     40105
     40101     40100     40103     40106     40102     40100     40103     40104
     40102     40100     40103     40105     40102     40100     40103     40106
     40103     40106     40109     40110     40103     40106     40109     40111
     40103     40106     40109     40112     40104     40103     40106     40107
     40104     40103     40106     40108     40104     40103     40106     40109
     40105     40103     40106     40107     40105     40103     40106     40108
     40105     40103     40106     40109     40106     40109     40112     40113
     40106     40109     40112     40114     40106     40109     40112     40117
     40107     40106     40109     40110     40107     40106     40109     40111
     40107     40106     40109     40112     40108     40106     40109     40110
     40108     40106     40109     40111     40108     40106     40109     40112
     40109     40112     40114     40115     40109     40112     40114     40116
     40109     40112     40114     40117     40109     40112     40117     40114
     40109     40112     40117     40118     40109     40112     40117     40119
     40110     40109     40112     40113     40110     40109     40112     40114
     40110     40109     40112     40117     40111     40109     40112     40113
     40111     40109     40112     40114     40111     40109     40112     40117
     40112     40114     40117     40118     40112     40114     40117     40119
     40112     40117     40114     40115     40112     40117     40114     40116
     40112     40117     40119     40120     40112     40117     40119     40121
     40112     40117     40119     40122     40113     40112     40114     40115
     40113     40112     40114     40116     40113     40112     40114     40117
     40113     40112     40117     40114     40113     40112     40117     40118
     40113     40112     40117     40119     40114     40112     40117     40118
     40114     40112     40117     40119     40114     40117     40119     40120
     40114     40117     40119     40121     40114     40117     40119     40122
     40115     40114     40112     40117     40115     40114     40117     40118
     40115     40114     40117     40119     40116     40114     40112     40117
     40116     40114     40117     40118     40116     40114     40117     40119
     40117     40119     40122     40123     40117     40119     40122     40124
     40117     40119     40122     40125     40118     40117     40119     40120
     40118     40117     40119     40121     40118     40117     40119     40122
     40119     40122     40125     40126     40119     40122     40125     40127
     40119     40122     40125     40128     40120     40119     40122     40123
     40120     40119     40122     40124     40120     40119     40122     40125
     40121     40119     40122     40123     40121     40119     40122     40124
     40121     40119     40122     40125     40122     40125     40128     40129
     40122     40125     40128     40130     40122     40125     40128     40131
     40123     40122     40125     40126     40123     40122     40125     40127
     40123     40122     40125     40128     40124     40122     40125     40126
     40124     40122     40125     40127     40124     40122     40125     40128
     40125     40128     40131     40132     40125     40128     40131     40133
     40125     40128     40131     40134     40126     40125     40128     40129
     40126     40125     40128     40130     40126     40125     40128     40131
     40127     40125     40128     40129     40127     40125     40128     40130
     40127     40125     40128     40131     40128     40131     40134     40135
     40128     40131     40134     40136     40128     40131     40134     40137
     40129     40128     40131     40132     40129     40128     40131     40133
     40129     40128     40131     40134     40130     40128     40131     40132
     40130     40128     40131     40133     40130     40128     40131     40134
     40132     40131     40134     40135     40132     40131     40134     40136
     40132     40131     40134     40137     40133     40131     40134     40135
     40133     40131     40134     40136     40133     40131     40134     40137
     40138     40141     40144     40145     40138     40141     40144     40146
     40138     40141     40144     40147     40139     40138     40141     40142
     40139     40138     40141     40143     40139     40138     40141     40144
     40140     40138     40141     40142     40140     40138     40141     40143
     40140     40138     40141     40144     40141     40144     40147     40148
     40141     40144     40147     40149     40141     40144     40147     40150
     40142     40141     40144     40145     40142     40141     40144     40146
     40142     40141     40144     40147     40143     40141     40144     40145
     40143     40141     40144     40146     40143     40141     40144     40147
     40144     40147     40150     40151     40144     40147     40150     40152
     40144     40147     40150     40153     40145     40144     40147     40148
     40145     40144     40147     40149     40145     40144     40147     40150
     40146     40144     40147     40148     40146     40144     40147     40149
     40146     40144     40147     40150     40147     40150     40153     40154
     40147     40150     40153     40155     40147     40150     40153     40156
     40148     40147     40150     40151     40148     40147     40150     40152
     40148     40147     40150     40153     40149     40147     40150     40151
     40149     40147     40150     40152     40149     40147     40150     40153
     40150     40153     40156     40157     40150     40153     40156     40158
     40150     40153     40156     40159     40151     40150     40153     40154
     40151     40150     40153     40155     40151     40150     40153     40156
     40152     40150     40153     40154     40152     40150     40153     40155
     40152     40150     40153     40156     40153     40156     40159     40160
     40153     40156     40159     40161     40153     40156     40159     40162
     40154     40153     40156     40157     40154     40153     40156     40158
     40154     40153     40156     40159     40155     40153     40156     40157
     40155     40153     40156     40158     40155     40153     40156     40159
     40156     40159     40162     40163     40156     40159     40162     40164
     40156     40159     40162     40165     40157     40156     40159     40160
     40157     40156     40159     40161     40157     40156     40159     40162
     40158     40156     40159     40160     40158     40156     40159     40161
     40158     40156     40159     40162     40159     40162     40165     40166
     40159     40162     40165     40167     40159     40162     40165     40168
     40160     40159     40162     40163     40160     40159     40162     40164
     40160     40159     40162     40165     40161     40159     40162     40163
     40161     40159     40162     40164     40161     40159     40162     40165
     40162     40165     40168     40169     40162     40165     40168     40170
     40162     40165     40168     40171     40163     40162     40165     40166
     40163     40162     40165     40167     40163     40162     40165     40168
     40164     40162     40165     40166     40164     40162     40165     40167
     40164     40162     40165     40168     40165     40168     40171     40172
     40165     40168     40171     40173     40165     40168     40171     40174
     40166     40165     40168     40169     40166     40165     40168     40170
     40166     40165     40168     40171     40167     40165     40168     40169
     40167     40165     40168     40170     40167     40165     40168     40171
     40168     40171     40174     40175     40168     40171     40174     40176
     40168     40171     40174     40177     40169     40168     40171     40172
     40169     40168     40171     40173     40169     40168     40171     40174
     40170     40168     40171     40172     40170     40168     40171     40173
     40170     40168     40171     40174     40171     40174     40177     40178
     40171     40174     40177     40179     40171     40174     40177     40180
     40172     40171     40174     40175     40172     40171     40174     40176
     40172     40171     40174     40177     40173     40171     40174     40175
     40173     40171     40174     40176     40173     40171     40174     40177
     40175     40174     40177     40178     40175     40174     40177     40179
     40175     40174     40177     40180     40176     40174     40177     40178
     40176     40174     40177     40179     40176     40174     40177     40180
     40181     40185     40188     40189     40181     40185     40188     40190
     40181     40185     40188     40195     40182     40181     40185     40186
     40182     40181     40185     40187     40182     40181     40185     40188
     40183     40181     40185     40186     40183     40181     40185     40187
     40183     40181     40185     40188     40184     40181     40185     40186
     40184     40181     40185     40187     40184     40181     40185     40188
     40185     40188     40195     40191     40186     40185     40188     40189
     40186     40185     40188     40190     40186     40185     40188     40195
     40187     40185     40188     40189     40187     40185     40188     40190
     40187     40185     40188     40195     40188     40195     40191     40192
     40188     40195     40191     40193     40188     40195     40191     40194
     40189     40188     40195     40191     40190     40188     40195     40191
     40191     40194     40196     40197     40191     40194     40196     40198
     40191     40194     40196     40199     40192     40191     40194     40196
     40193     40191     40194     40196     40194     40196     40199     40200
     40194     40196     40199     40201     40194     40196     40199     40207
     40195     40191     40194     40196     40196     40199     40201     40202
     40196     40199     40207     40208     40196     40199     40207     40209
     40196     40199     40207     40210     40197     40196     40199     40200
     40197     40196     40199     40201     40197     40196     40199     40207
     40198     40196     40199     40200     40198     40196     40199     40201
     40198     40196     40199     40207     40199     40201     40202     40203
     40199     40201     40202     40204     40199     40207     40210     40211
     40200     40199     40201     40202     40200     40199     40207     40208
     40200     40199     40207     40209     40200     40199     40207     40210
     40201     40199     40207     40208     40201     40199     40207     40209
     40201     40199     40207     40210     40201     40202     40204     40205
     40201     40202     40204     40206     40201     40202     40204     40216
     40202     40201     40199     40207     40202     40204     40216     40217
     40202     40204     40216     40218     40202     40204     40216     40219
     40203     40202     40204     40205     40203     40202     40204     40206
     40203     40202     40204     40216     40204     40216     40219     40220
     40204     40216     40219     40221     40204     40216     40219     40222
     40205     40204     40216     40217     40205     40204     40216     40218
     40205     40204     40216     40219     40206     40204     40216     40217
     40206     40204     40216     40218     40206     40204     40216     40219
     40207     40210     40211     40212     40207     40210     40211     40213
     40208     40207     40210     40211     40209     40207     40210     40211
     40210     40211     40213     40214     40210     40211     40213     40215
     40210     40211     40213     40260     40211     40213     40260     40261
     40211     40213     40260     40262     40211     40213     40260     40263
     40212     40211     40213     40214     40212     40211     40213     40215
     40212     40211     40213     40260     40213     40260     40263     40264
     40213     40260     40263     40265     40213     40260     40263     40266
     40214     40213     40260     40261     40214     40213     40260     40262
     40214     40213     40260     40263     40215     40213     40260     40261
     40215     40213     40260     40262     40215     40213     40260     40263
     40216     40219     40222     40223     40216     40219     40222     40224
     40216     40219     40222     40225     40217     40216     40219     40220
     40217     40216     40219     40221     40217     40216     40219     40222
     40218     40216     40219     40220     40218     40216     40219     40221
     40218     40216     40219     40222     40219     40222     40225     40226
     40219     40222     40225     40227     40219     40222     40225     40228
     40220     40219     40222     40223     40220     40219     40222     40224
     40220     40219     40222     40225     40221     40219     40222     40223
     40221     40219     40222     40224     40221     40219     40222     40225
     40222     40225     40228     40229     40222     40225     40228     40230
     40222     40225     40228     40231     40223     40222     40225     40226
     40223     40222     40225     40227     40223     40222     40225     40228
     40224     40222     40225     40226     40224     40222     40225     40227
     40224     40222     40225     40228     40225     40228     40231     40232
     40225     40228     40231     40233     40225     40228     40231     40234
     40226     40225     40228     40229     40226     40225     40228     40230
     40226     40225     40228     40231     40227     40225     40228     40229
     40227     40225     40228     40230     40227     40225     40228     40231
     40228     40231     40234     40235     40228     40231     40234     40236
     40228     40231     40234     40239     40229     40228     40231     40232
     40229     40228     40231     40233     40229     40228     40231     40234
     40230     40228     40231     40232     40230     40228     40231     40233
     40230     40228     40231     40234     40231     40234     40236     40237
     40231     40234     40236     40238     40231     40234     40236     40239
     40231     40234     40239     40236     40231     40234     40239     40240
     40231     40234     40239     40241     40232     40231     40234     40235
     40232     40231     40234     40236     40232     40231     40234     40239
     40233     40231     40234     40235     40233     40231     40234     40236
     40233     40231     40234     40239     40234     40236     40239     40240
     40234     40236     40239     40241     40234     40239     40236     40237
     40234     40239     40236     40238     40234     40239     40241     40242
     40234     40239     40241     40243     40234     40239     40241     40244
     40235     40234     40236     40237     40235     40234     40236     40238
     40235     40234     40236     40239     40235     40234     40239     40236
     40235     40234     40239     40240     40235     40234     40239     40241
     40236     40234     40239     40240     40236     40234     40239     40241
     40236     40239     40241     40242     40236     40239     40241     40243
     40236     40239     40241     40244     40237     40236     40234     40239
     40237     40236     40239     40240     40237     40236     40239     40241
     40238     40236     40234     40239     40238     40236     40239     40240
     40238     40236     40239     40241     40239     40241     40244     40245
     40239     40241     40244     40246     40239     40241     40244     40247
     40240     40239     40241     40242     40240     40239     40241     40243
     40240     40239     40241     40244     40241     40244     40247     40248
     40241     40244     40247     40249     40241     40244     40247     40250
     40242     40241     40244     40245     40242     40241     40244     40246
     40242     40241     40244     40247     40243     40241     40244     40245
     40243     40241     40244     40246     40243     40241     40244     40247
     40244     40247     40250     40251     40244     40247     40250     40252
     40244     40247     40250     40253     40245     40244     40247     40248
     40245     40244     40247     40249     40245     40244     40247     40250
     40246     40244     40247     40248     40246     40244     40247     40249
     40246     40244     40247     40250     40247     40250     40253     40254
     40247     40250     40253     40255     40247     40250     40253     40256
     40248     40247     40250     40251     40248     40247     40250     40252
     40248     40247     40250     40253     40249     40247     40250     40251
     40249     40247     40250     40252     40249     40247     40250     40253
     40250     40253     40256     40257     40250     40253     40256     40258
     40250     40253     40256     40259     40251     40250     40253     40254
     40251     40250     40253     40255     40251     40250     40253     40256
     40252     40250     40253     40254     40252     40250     40253     40255
     40252     40250     40253     40256     40254     40253     40256     40257
     40254     40253     40256     40258     40254     40253     40256     40259
     40255     40253     40256     40257     40255     40253     40256     40258
     40255     40253     40256     40259     40260     40263     40266     40267
     40260     40263     40266     40268     40260     40263     40266     40269
     40261     40260     40263     40264     40261     40260     40263     40265
     40261     40260     40263     40266     40262     40260     40263     40264
     40262     40260     40263     40265     40262     40260     40263     40266
     40263     40266     40269     40270     40263     40266     40269     40271
     40263     40266     40269     40272     40264     40263     40266     40267
     40264     40263     40266     40268     40264     40263     40266     40269
     40265     40263     40266     40267     40265     40263     40266     40268
     40265     40263     40266     40269     40266     40269     40272     40273
     40266     40269     40272     40274     40266     40269     40272     40275
     40267     40266     40269     40270     40267     40266     40269     40271
     40267     40266     40269     40272     40268     40266     40269     40270
     40268     40266     40269     40271     40268     40266     40269     40272
     40269     40272     40275     40276     40269     40272     40275     40277
     40269     40272     40275     40278     40270     40269     40272     40273
     40270     40269     40272     40274     40270     40269     40272     40275
     40271     40269     40272     40273     40271     40269     40272     40274
     40271     40269     40272     40275     40272     40275     40278     40279
     40272     40275     40278     40280     40272     40275     40278     40281
     40273     40272     40275     40276     40273     40272     40275     40277
     40273     40272     40275     40278     40274     40272     40275     40276
     40274     40272     40275     40277     40274     40272     40275     40278
     40275     40278     40281     40282     40275     40278     40281     40283
     40275     40278     40281     40284     40276     40275     40278     40279
     40276     40275     40278     40280     40276     40275     40278     40281
     40277     40275     40278     40279     40277     40275     40278     40280
     40277     40275     40278     40281     40278     40281     40284     40285
     40278     40281     40284     40286     40278     40281     40284     40287
     40279     40278     40281     40282     40279     40278     40281     40283
     40279     40278     40281     40284     40280     40278     40281     40282
     40280     40278     40281     40283     40280     40278     40281     40284
     40281     40284     40287     40288     40281     40284     40287     40289
     40281     40284     40287     40290     40282     40281     40284     40285
     40282     40281     40284     40286     40282     40281     40284     40287
     40283     40281     40284     40285     40283     40281     40284     40286
     40283     40281     40284     40287     40284     40287     40290     40291
     40284     40287     40290     40292     40284     40287     40290     40293
     40285     40284     40287     40288     40285     40284     40287     40289
     40285     40284     40287     40290     40286     40284     40287     40288
     40286     40284     40287     40289     40286     40284     40287     40290
     40287     40290     40293     40294     40287     40290     40293     40295
     40287     40290     40293     40296     40288     40287     40290     40291
     40288     40287     40290     40292     40288     40287     40290     40293
     40289     40287     40290     40291     40289     40287     40290     40292
     40289     40287     40290     40293     40290     40293     40296     40297
     40290     40293     40296     40298     40290     40293     40296     40299
     40291     40290     40293     40294     40291     40290     40293     40295
     40291     40290     40293     40296     40292     40290     40293     40294
     40292     40290     40293     40295     40292     40290     40293     40296
     40293     40296     40299     40300     40293     40296     40299     40301
     40293     40296     40299     40302     40294     40293     40296     40297
     40294     40293     40296     40298     40294     40293     40296     40299
     40295     40293     40296     40297     40295     40293     40296     40298
     40295     40293     40296     40299     40297     40296     40299     40300
     40297     40296     40299     40301     40297     40296     40299     40302
     40298     40296     40299     40300     40298     40296     40299     40301
     40298     40296     40299     40302     40303     40307     40310     40311
     40303     40307     40310     40312     40303     40307     40310     40317
     40304     40303     40307     40308     40304     40303     40307     40309
     40304     40303     40307     40310     40305     40303     40307     40308
     40305     40303     40307     40309     40305     40303     40307     40310
     40306     40303     40307     40308     40306     40303     40307     40309
     40306     40303     40307     40310     40307     40310     40317     40313
     40308     40307     40310     40311     40308     40307     40310     40312
     40308     40307     40310     40317     40309     40307     40310     40311
     40309     40307     40310     40312     40309     40307     40310     40317
     40310     40317     40313     40314     40310     40317     40313     40315
     40310     40317     40313     40316     40311     40310     40317     40313
     40312     40310     40317     40313     40313     40316     40318     40319
     40313     40316     40318     40320     40313     40316     40318     40321
     40314     40313     40316     40318     40315     40313     40316     40318
     40316     40318     40321     40322     40316     40318     40321     40323
     40316     40318     40321     40329     40317     40313     40316     40318
     40318     40321     40323     40324     40318     40321     40329     40330
     40318     40321     40329     40331     40318     40321     40329     40332
     40319     40318     40321     40322     40319     40318     40321     40323
     40319     40318     40321     40329     40320     40318     40321     40322
     40320     40318     40321     40323     40320     40318     40321     40329
     40321     40323     40324     40325     40321     40323     40324     40326
     40321     40329     40332     40333     40322     40321     40323     40324
     40322     40321     40329     40330     40322     40321     40329     40331
     40322     40321     40329     40332     40323     40321     40329     40330
     40323     40321     40329     40331     40323     40321     40329     40332
     40323     40324     40326     40327     40323     40324     40326     40328
     40323     40324     40326     40338     40324     40323     40321     40329
     40324     40326     40338     40339     40324     40326     40338     40340
     40324     40326     40338     40341     40325     40324     40326     40327
     40325     40324     40326     40328     40325     40324     40326     40338
     40326     40338     40341     40342     40326     40338     40341     40343
     40326     40338     40341     40344     40327     40326     40338     40339
     40327     40326     40338     40340     40327     40326     40338     40341
     40328     40326     40338     40339     40328     40326     40338     40340
     40328     40326     40338     40341     40329     40332     40333     40334
     40329     40332     40333     40335     40330     40329     40332     40333
     40331     40329     40332     40333     40332     40333     40335     40336
     40332     40333     40335     40337     40332     40333     40335     40382
     40333     40335     40382     40383     40333     40335     40382     40384
     40333     40335     40382     40385     40334     40333     40335     40336
     40334     40333     40335     40337     40334     40333     40335     40382
     40335     40382     40385     40386     40335     40382     40385     40387
     40335     40382     40385     40388     40336     40335     40382     40383
     40336     40335     40382     40384     40336     40335     40382     40385
     40337     40335     40382     40383     40337     40335     40382     40384
     40337     40335     40382     40385     40338     40341     40344     40345
     40338     40341     40344     40346     40338     40341     40344     40347
     40339     40338     40341     40342     40339     40338     40341     40343
     40339     40338     40341     40344     40340     40338     40341     40342
     40340     40338     40341     40343     40340     40338     40341     40344
     40341     40344     40347     40348     40341     40344     40347     40349
     40341     40344     40347     40350     40342     40341     40344     40345
     40342     40341     40344     40346     40342     40341     40344     40347
     40343     40341     40344     40345     40343     40341     40344     40346
     40343     40341     40344     40347     40344     40347     40350     40351
     40344     40347     40350     40352     40344     40347     40350     40353
     40345     40344     40347     40348     40345     40344     40347     40349
     40345     40344     40347     40350     40346     40344     40347     40348
     40346     40344     40347     40349     40346     40344     40347     40350
     40347     40350     40353     40354     40347     40350     40353     40355
     40347     40350     40353     40356     40348     40347     40350     40351
     40348     40347     40350     40352     40348     40347     40350     40353
     40349     40347     40350     40351     40349     40347     40350     40352
     40349     40347     40350     40353     40350     40353     40356     40357
     40350     40353     40356     40358     40350     40353     40356     40361
     40351     40350     40353     40354     40351     40350     40353     40355
     40351     40350     40353     40356     40352     40350     40353     40354
     40352     40350     40353     40355     40352     40350     40353     40356
     40353     40356     40358     40359     40353     40356     40358     40360
     40353     40356     40358     40361     40353     40356     40361     40358
     40353     40356     40361     40362     40353     40356     40361     40363
     40354     40353     40356     40357     40354     40353     40356     40358
     40354     40353     40356     40361     40355     40353     40356     40357
     40355     40353     40356     40358     40355     40353     40356     40361
     40356     40358     40361     40362     40356     40358     40361     40363
     40356     40361     40358     40359     40356     40361     40358     40360
     40356     40361     40363     40364     40356     40361     40363     40365
     40356     40361     40363     40366     40357     40356     40358     40359
     40357     40356     40358     40360     40357     40356     40358     40361
     40357     40356     40361     40358     40357     40356     40361     40362
     40357     40356     40361     40363     40358     40356     40361     40362
     40358     40356     40361     40363     40358     40361     40363     40364
     40358     40361     40363     40365     40358     40361     40363     40366
     40359     40358     40356     40361     40359     40358     40361     40362
     40359     40358     40361     40363     40360     40358     40356     40361
     40360     40358     40361     40362     40360     40358     40361     40363
     40361     40363     40366     40367     40361     40363     40366     40368
     40361     40363     40366     40369     40362     40361     40363     40364
     40362     40361     40363     40365     40362     40361     40363     40366
     40363     40366     40369     40370     40363     40366     40369     40371
     40363     40366     40369     40372     40364     40363     40366     40367
     40364     40363     40366     40368     40364     40363     40366     40369
     40365     40363     40366     40367     40365     40363     40366     40368
     40365     40363     40366     40369     40366     40369     40372     40373
     40366     40369     40372     40374     40366     40369     40372     40375
     40367     40366     40369     40370     40367     40366     40369     40371
     40367     40366     40369     40372     40368     40366     40369     40370
     40368     40366     40369     40371     40368     40366     40369     40372
     40369     40372     40375     40376     40369     40372     40375     40377
     40369     40372     40375     40378     40370     40369     40372     40373
     40370     40369     40372     40374     40370     40369     40372     40375
     40371     40369     40372     40373     40371     40369     40372     40374
     40371     40369     40372     40375     40372     40375     40378     40379
     40372     40375     40378     40380     40372     40375     40378     40381
     40373     40372     40375     40376     40373     40372     40375     40377
     40373     40372     40375     40378     40374     40372     40375     40376
     40374     40372     40375     40377     40374     40372     40375     40378
     40376     40375     40378     40379     40376     40375     40378     40380
     40376     40375     40378     40381     40377     40375     40378     40379
     40377     40375     40378     40380     40377     40375     40378     40381
     40382     40385     40388     40389     40382     40385     40388     40390
     40382     40385     40388     40391     40383     40382     40385     40386
     40383     40382     40385     40387     40383     40382     40385     40388
     40384     40382     40385     40386     40384     40382     40385     40387
     40384     40382     40385     40388     40385     40388     40391     40392
     40385     40388     40391     40393     40385     40388     40391     40394
     40386     40385     40388     40389     40386     40385     40388     40390
     40386     40385     40388     40391     40387     40385     40388     40389
     40387     40385     40388     40390     40387     40385     40388     40391
     40388     40391     40394     40395     40388     40391     40394     40396
     40388     40391     40394     40397     40389     40388     40391     40392
     40389     40388     40391     40393     40389     40388     40391     40394
     40390     40388     40391     40392     40390     40388     40391     40393
     40390     40388     40391     40394     40391     40394     40397     40398
     40391     40394     40397     40399     40391     40394     40397     40400
     40392     40391     40394     40395     40392     40391     40394     40396
     40392     40391     40394     40397     40393     40391     40394     40395
     40393     40391     40394     40396     40393     40391     40394     40397
     40394     40397     40400     40401     40394     40397     40400     40402
     40394     40397     40400     40403     40395     40394     40397     40398
     40395     40394     40397     40399     40395     40394     40397     40400
     40396     40394     40397     40398     40396     40394     40397     40399
     40396     40394     40397     40400     40397     40400     40403     40404
     40397     40400     40403     40405     40397     40400     40403     40406
     40398     40397     40400     40401     40398     40397     40400     40402
     40398     40397     40400     40403     40399     40397     40400     40401
     40399     40397     40400     40402     40399     40397     40400     40403
     40400     40403     40406     40407     40400     40403     40406     40408
     40400     40403     40406     40409     40401     40400     40403     40404
     40401     40400     40403     40405     40401     40400     40403     40406
     40402     40400     40403     40404     40402     40400     40403     40405
     40402     40400     40403     40406     40403     40406     40409     40410
     40403     40406     40409     40411     40403     40406     40409     40412
     40404     40403     40406     40407     40404     40403     40406     40408
     40404     40403     40406     40409     40405     40403     40406     40407
     40405     40403     40406     40408     40405     40403     40406     40409
     40406     40409     40412     40413     40406     40409     40412     40414
     40406     40409     40412     40415     40407     40406     40409     40410
     40407     40406     40409     40411     40407     40406     40409     40412
     40408     40406     40409     40410     40408     40406     40409     40411
     40408     40406     40409     40412     40409     40412     40415     40416
     40409     40412     40415     40417     40409     40412     40415     40418
     40410     40409     40412     40413     40410     40409     40412     40414
     40410     40409     40412     40415     40411     40409     40412     40413
     40411     40409     40412     40414     40411     40409     40412     40415
     40412     40415     40418     40419     40412     40415     40418     40420
     40412     40415     40418     40421     40413     40412     40415     40416
     40413     40412     40415     40417     40413     40412     40415     40418
     40414     40412     40415     40416     40414     40412     40415     40417
     40414     40412     40415     40418     40416     40415     40418     40419
     40416     40415     40418     40420     40416     40415     40418     40421
     40417     40415     40418     40419     40417     40415     40418     40420
     40417     40415     40418     40421     40422     40427     40429     40430
     40422     40427     40431     40432     40422     40427     40431     40433
     40422     40427     40431     40438     40423     40422     40425     40426
     40423     40422     40427     40428     40423     40422     40427     40429
     40423     40422     40427     40431     40424     40422     40425     40426
     40424     40422     40427     40428     40424     40422     40427     40429
     40424     40422     40427     40431     40425     40422     40427     40428
     40425     40422     40427     40429     40425     40422     40427     40431
     40426     40425     40422     40427     40427     40431     40438     40434
     40428     40427     40429     40430     40428     40427     40431     40432
     40428     40427     40431     40433     40428     40427     40431     40438
     40429     40427     40431     40432     40429     40427     40431     40433
     40429     40427     40431     40438     40430     40429     40427     40431
     40431     40438     40434     40435     40431     40438     40434     40436
     40431     40438     40434     40437     40432     40431     40438     40434
     40433     40431     40438     40434     40434     40437     40439     40440
     40434     40437     40439     40441     40434     40437     40439     40442
     40435     40434     40437     40439     40436     40434     40437     40439
     40437     40439     40442     40443     40437     40439     40442     40444
     40437     40439     40442     40450     40438     40434     40437     40439
     40439     40442     40444     40445     40439     40442     40450     40451
     40439     40442     40450     40452     40439     40442     40450     40453
     40440     40439     40442     40443     40440     40439     40442     40444
     40440     40439     40442     40450     40441     40439     40442     40443
     40441     40439     40442     40444     40441     40439     40442     40450
     40442     40444     40445     40446     40442     40444     40445     40447
     40442     40450     40453     40454     40443     40442     40444     40445
     40443     40442     40450     40451     40443     40442     40450     40452
     40443     40442     40450     40453     40444     40442     40450     40451
     40444     40442     40450     40452     40444     40442     40450     40453
     40444     40445     40447     40448     40444     40445     40447     40449
     40444     40445     40447     40459     40445     40444     40442     40450
     40445     40447     40459     40460     40445     40447     40459     40461
     40445     40447     40459     40462     40446     40445     40447     40448
     40446     40445     40447     40449     40446     40445     40447     40459
     40447     40459     40462     40463     40447     40459     40462     40464
     40447     40459     40462     40465     40448     40447     40459     40460
     40448     40447     40459     40461     40448     40447     40459     40462
     40449     40447     40459     40460     40449     40447     40459     40461
     40449     40447     40459     40462     40450     40453     40454     40455
     40450     40453     40454     40456     40451     40450     40453     40454
     40452     40450     40453     40454     40453     40454     40456     40457
     40453     40454     40456     40458     40453     40454     40456     40500
     40454     40456     40500     40501     40454     40456     40500     40502
     40454     40456     40500     40503     40455     40454     40456     40457
     40455     40454     40456     40458     40455     40454     40456     40500
     40456     40500     40503     40504     40456     40500     40503     40505
     40456     40500     40503     40506     40457     40456     40500     40501
     40457     40456     40500     40502     40457     40456     40500     40503
     40458     40456     40500     40501     40458     40456     40500     40502
     40458     40456     40500     40503     40459     40462     40465     40466
     40459     40462     40465     40467     40459     40462     40465     40468
     40460     40459     40462     40463     40460     40459     40462     40464
     40460     40459     40462     40465     40461     40459     40462     40463
     40461     40459     40462     40464     40461     40459     40462     40465
     40462     40465     40468     40469     40462     40465     40468     40470
     40462     40465     40468     40471     40463     40462     40465     40466
     40463     40462     40465     40467     40463     40462     40465     40468
     40464     40462     40465     40466     40464     40462     40465     40467
     40464     40462     40465     40468     40465     40468     40471     40472
     40465     40468     40471     40473     40465     40468     40471     40474
     40466     40465     40468     40469     40466     40465     40468     40470
     40466     40465     40468     40471     40467     40465     40468     40469
     40467     40465     40468     40470     40467     40465     40468     40471
     40468     40471     40474     40475     40468     40471     40474     40476
     40468     40471     40474     40477     40469     40468     40471     40472
     40469     40468     40471     40473     40469     40468     40471     40474
     40470     40468     40471     40472     40470     40468     40471     40473
     40470     40468     40471     40474     40471     40474     40477     40478
     40471     40474     40477     40479     40472     40471     40474     40475
     40472     40471     40474     40476     40472     40471     40474     40477
     40473     40471     40474     40475     40473     40471     40474     40476
     40473     40471     40474     40477     40474     40477     40479     40480
     40474     40477     40479     40481     40475     40474     40477     40478
     40475     40474     40477     40479     40476     40474     40477     40478
     40476     40474     40477     40479     40477     40479     40481     40482
     40477     40479     40481     40483     40477     40479     40481     40484
     40478     40477     40479     40480     40478     40477     40479     40481
     40479     40481     40484     40485     40479     40481     40484     40486
     40479     40481     40484     40487     40480     40479     40481     40482
     40480     40479     40481     40483     40480     40479     40481     40484
     40481     40484     40487     40488     40481     40484     40487     40489
     40481     40484     40487     40490     40482     40481     40484     40485
     40482     40481     40484     40486     40482     40481     40484     40487
     40483     40481     40484     40485     40483     40481     40484     40486
     40483     40481     40484     40487     40484     40487     40490     40491
     40484     40487     40490     40492     40484     40487     40490     40493
     40485     40484     40487     40488     40485     40484     40487     40489
     40485     40484     40487     40490     40486     40484     40487     40488
     40486     40484     40487     40489     40486     40484     40487     40490
     40487     40490     40493     40494     40487     40490     40493     40495
     40487     40490     40493     40496     40488     40487     40490     40491
     40488     40487     40490     40492     40488     40487     40490     40493
     40489     40487     40490     40491     40489     40487     40490     40492
     40489     40487     40490     40493     40490     40493     40496     40497
     40490     40493     40496     40498     40490     40493     40496     40499
     40491     40490     40493     40494     40491     40490     40493     40495
     40491     40490     40493     40496     40492     40490     40493     40494
     40492     40490     40493     40495     40492     40490     40493     40496
     40494     40493     40496     40497     40494     40493     40496     40498
     40494     40493     40496     40499     40495     40493     40496     40497
     40495     40493     40496     40498     40495     40493     40496     40499
     40500     40503     40506     40507     40500     40503     40506     40508
     40500     40503     40506     40509     40501     40500     40503     40504
     40501     40500     40503     40505     40501     40500     40503     40506
     40502     40500     40503     40504     40502     40500     40503     40505
     40502     40500     40503     40506     40503     40506     40509     40510
     40503     40506     40509     40511     40503     40506     40509     40512
     40504     40503     40506     40507     40504     40503     40506     40508
     40504     40503     40506     40509     40505     40503     40506     40507
     40505     40503     40506     40508     40505     40503     40506     40509
     40506     40509     40512     40513     40506     40509     40512     40514
     40506     40509     40512     40515     40507     40506     40509     40510
     40507     40506     40509     40511     40507     40506     40509     40512
     40508     40506     40509     40510     40508     40506     40509     40511
     40508     40506     40509     40512     40509     40512     40515     40516
     40509     40512     40515     40517     40509     40512     40515     40518
     40510     40509     40512     40513     40510     40509     40512     40514
     40510     40509     40512     40515     40511     40509     40512     40513
     40511     40509     40512     40514     40511     40509     40512     40515
     40512     40515     40518     40519     40512     40515     40518     40520
     40512     40515     40518     40521     40513     40512     40515     40516
     40513     40512     40515     40517     40513     40512     40515     40518
     40514     40512     40515     40516     40514     40512     40515     40517
     40514     40512     40515     40518     40515     40518     40521     40522
     40515     40518     40521     40523     40515     40518     40521     40524
     40516     40515     40518     40519     40516     40515     40518     40520
     40516     40515     40518     40521     40517     40515     40518     40519
     40517     40515     40518     40520     40517     40515     40518     40521
     40518     40521     40524     40525     40518     40521     40524     40526
     40518     40521     40524     40527     40519     40518     40521     40522
     40519     40518     40521     40523     40519     40518     40521     40524
     40520     40518     40521     40522     40520     40518     40521     40523
     40520     40518     40521     40524     40521     40524     40527     40528
     40521     40524     40527     40529     40521     40524     40527     40530
     40522     40521     40524     40525     40522     40521     40524     40526
     40522     40521     40524     40527     40523     40521     40524     40525
     40523     40521     40524     40526     40523     40521     40524     40527
     40524     40527     40530     40531     40524     40527     40530     40532
     40524     40527     40530     40533     40525     40524     40527     40528
     40525     40524     40527     40529     40525     40524     40527     40530
     40526     40524     40527     40528     40526     40524     40527     40529
     40526     40524     40527     40530     40527     40530     40533     40534
     40527     40530     40533     40535     40527     40530     40533     40536
     40528     40527     40530     40531     40528     40527     40530     40532
     40528     40527     40530     40533     40529     40527     40530     40531
     40529     40527     40530     40532     40529     40527     40530     40533
     40530     40533     40536     40537     40530     40533     40536     40538
     40530     40533     40536     40539     40531     40530     40533     40534
     40531     40530     40533     40535     40531     40530     40533     40536
     40532     40530     40533     40534     40532     40530     40533     40535
     40532     40530     40533     40536     40533     40536     40539     40540
     40533     40536     40539     40541     40533     40536     40539     40542
     40534     40533     40536     40537     40534     40533     40536     40538
     40534     40533     40536     40539     40535     40533     40536     40537
     40535     40533     40536     40538     40535     40533     40536     40539
     40537     40536     40539     40540     40537     40536     40539     40541
     40537     40536     40539     40542     40538     40536     40539     40540
     40538     40536     40539     40541     40538     40536     40539     40542
     40543     40547     40550     40551     40543     40547     40550     40552
     40543     40547     40550     40557     40544     40543     40547     40548
     40544     40543     40547     40549     40544     40543     40547     40550
     40545     40543     40547     40548     40545     40543     40547     40549
     40545     40543     40547     40550     40546     40543     40547     40548
     40546     40543     40547     40549     40546     40543     40547     40550
     40547     40550     40557     40553     40548     40547     40550     40551
     40548     40547     40550     40552     40548     40547     40550     40557
     40549     40547     40550     40551     40549     40547     40550     40552
     40549     40547     40550     40557     40550     40557     40553     40554
     40550     40557     40553     40555     40550     40557     40553     40556
     40551     40550     40557     40553     40552     40550     40557     40553
     40553     40556     40558     40559     40553     40556     40558     40560
     40553     40556     40558     40561     40554     40553     40556     40558
     40555     40553     40556     40558     40556     40558     40561     40562
     40556     40558     40561     40563     40556     40558     40561     40569
     40557     40553     40556     40558     40558     40561     40563     40564
     40558     40561     40569     40570     40558     40561     40569     40571
     40558     40561     40569     40572     40559     40558     40561     40562
     40559     40558     40561     40563     40559     40558     40561     40569
     40560     40558     40561     40562     40560     40558     40561     40563
     40560     40558     40561     40569     40561     40563     40564     40565
     40561     40563     40564     40566     40561     40569     40572     40573
     40562     40561     40563     40564     40562     40561     40569     40570
     40562     40561     40569     40571     40562     40561     40569     40572
     40563     40561     40569     40570     40563     40561     40569     40571
     40563     40561     40569     40572     40563     40564     40566     40567
     40563     40564     40566     40568     40563     40564     40566     40578
     40564     40563     40561     40569     40564     40566     40578     40579
     40564     40566     40578     40580     40564     40566     40578     40581
     40565     40564     40566     40567     40565     40564     40566     40568
     40565     40564     40566     40578     40566     40578     40581     40582
     40566     40578     40581     40583     40566     40578     40581     40584
     40567     40566     40578     40579     40567     40566     40578     40580
     40567     40566     40578     40581     40568     40566     40578     40579
     40568     40566     40578     40580     40568     40566     40578     40581
     40569     40572     40573     40574     40569     40572     40573     40575
     40570     40569     40572     40573     40571     40569     40572     40573
     40572     40573     40575     40576     40572     40573     40575     40577
     40572     40573     40575     40622     40573     40575     40622     40623
     40573     40575     40622     40624     40573     40575     40622     40625
     40574     40573     40575     40576     40574     40573     40575     40577
     40574     40573     40575     40622     40575     40622     40625     40626
     40575     40622     40625     40627     40575     40622     40625     40628
     40576     40575     40622     40623     40576     40575     40622     40624
     40576     40575     40622     40625     40577     40575     40622     40623
     40577     40575     40622     40624     40577     40575     40622     40625
     40578     40581     40584     40585     40578     40581     40584     40586
     40578     40581     40584     40587     40579     40578     40581     40582
     40579     40578     40581     40583     40579     40578     40581     40584
     40580     40578     40581     40582     40580     40578     40581     40583
     40580     40578     40581     40584     40581     40584     40587     40588
     40581     40584     40587     40589     40581     40584     40587     40590
     40582     40581     40584     40585     40582     40581     40584     40586
     40582     40581     40584     40587     40583     40581     40584     40585
     40583     40581     40584     40586     40583     40581     40584     40587
     40584     40587     40590     40591     40584     40587     40590     40592
     40584     40587     40590     40593     40585     40584     40587     40588
     40585     40584     40587     40589     40585     40584     40587     40590
     40586     40584     40587     40588     40586     40584     40587     40589
     40586     40584     40587     40590     40587     40590     40593     40594
     40587     40590     40593     40595     40587     40590     40593     40596
     40588     40587     40590     40591     40588     40587     40590     40592
     40588     40587     40590     40593     40589     40587     40590     40591
     40589     40587     40590     40592     40589     40587     40590     40593
     40590     40593     40596     40597     40590     40593     40596     40598
     40590     40593     40596     40601     40591     40590     40593     40594
     40591     40590     40593     40595     40591     40590     40593     40596
     40592     40590     40593     40594     40592     40590     40593     40595
     40592     40590     40593     40596     40593     40596     40598     40599
     40593     40596     40598     40600     40593     40596     40598     40601
     40593     40596     40601     40598     40593     40596     40601     40602
     40593     40596     40601     40603     40594     40593     40596     40597
     40594     40593     40596     40598     40594     40593     40596     40601
     40595     40593     40596     40597     40595     40593     40596     40598
     40595     40593     40596     40601     40596     40598     40601     40602
     40596     40598     40601     40603     40596     40601     40598     40599
     40596     40601     40598     40600     40596     40601     40603     40604
     40596     40601     40603     40605     40596     40601     40603     40606
     40597     40596     40598     40599     40597     40596     40598     40600
     40597     40596     40598     40601     40597     40596     40601     40598
     40597     40596     40601     40602     40597     40596     40601     40603
     40598     40596     40601     40602     40598     40596     40601     40603
     40598     40601     40603     40604     40598     40601     40603     40605
     40598     40601     40603     40606     40599     40598     40596     40601
     40599     40598     40601     40602     40599     40598     40601     40603
     40600     40598     40596     40601     40600     40598     40601     40602
     40600     40598     40601     40603     40601     40603     40606     40607
     40601     40603     40606     40608     40601     40603     40606     40609
     40602     40601     40603     40604     40602     40601     40603     40605
     40602     40601     40603     40606     40603     40606     40609     40610
     40603     40606     40609     40611     40603     40606     40609     40612
     40604     40603     40606     40607     40604     40603     40606     40608
     40604     40603     40606     40609     40605     40603     40606     40607
     40605     40603     40606     40608     40605     40603     40606     40609
     40606     40609     40612     40613     40606     40609     40612     40614
     40606     40609     40612     40615     40607     40606     40609     40610
     40607     40606     40609     40611     40607     40606     40609     40612
     40608     40606     40609     40610     40608     40606     40609     40611
     40608     40606     40609     40612     40609     40612     40615     40616
     40609     40612     40615     40617     40609     40612     40615     40618
     40610     40609     40612     40613     40610     40609     40612     40614
     40610     40609     40612     40615     40611     40609     40612     40613
     40611     40609     40612     40614     40611     40609     40612     40615
     40612     40615     40618     40619     40612     40615     40618     40620
     40612     40615     40618     40621     40613     40612     40615     40616
     40613     40612     40615     40617     40613     40612     40615     40618
     40614     40612     40615     40616     40614     40612     40615     40617
     40614     40612     40615     40618     40616     40615     40618     40619
     40616     40615     40618     40620     40616     40615     40618     40621
     40617     40615     40618     40619     40617     40615     40618     40620
     40617     40615     40618     40621     40622     40625     40628     40629
     40622     40625     40628     40630     40622     40625     40628     40631
     40623     40622     40625     40626     40623     40622     40625     40627
     40623     40622     40625     40628     40624     40622     40625     40626
     40624     40622     40625     40627     40624     40622     40625     40628
     40625     40628     40631     40632     40625     40628     40631     40633
     40625     40628     40631     40634     40626     40625     40628     40629
     40626     40625     40628     40630     40626     40625     40628     40631
     40627     40625     40628     40629     40627     40625     40628     40630
     40627     40625     40628     40631     40628     40631     40634     40635
     40628     40631     40634     40636     40628     40631     40634     40637
     40629     40628     40631     40632     40629     40628     40631     40633
     40629     40628     40631     40634     40630     40628     40631     40632
     40630     40628     40631     40633     40630     40628     40631     40634
     40631     40634     40637     40638     40631     40634     40637     40639
     40631     40634     40637     40640     40632     40631     40634     40635
     40632     40631     40634     40636     40632     40631     40634     40637
     40633     40631     40634     40635     40633     40631     40634     40636
     40633     40631     40634     40637     40634     40637     40640     40641
     40634     40637     40640     40642     40634     40637     40640     40643
     40635     40634     40637     40638     40635     40634     40637     40639
     40635     40634     40637     40640     40636     40634     40637     40638
     40636     40634     40637     40639     40636     40634     40637     40640
     40637     40640     40643     40644     40637     40640     40643     40645
     40637     40640     40643     40646     40638     40637     40640     40641
     40638     40637     40640     40642     40638     40637     40640     40643
     40639     40637     40640     40641     40639     40637     40640     40642
     40639     40637     40640     40643     40640     40643     40646     40647
     40640     40643     40646     40648     40640     40643     40646     40649
     40641     40640     40643     40644     40641     40640     40643     40645
     40641     40640     40643     40646     40642     40640     40643     40644
     40642     40640     40643     40645     40642     40640     40643     40646
     40643     40646     40649     40650     40643     40646     40649     40651
     40643     40646     40649     40652     40644     40643     40646     40647
     40644     40643     40646     40648     40644     40643     40646     40649
     40645     40643     40646     40647     40645     40643     40646     40648
     40645     40643     40646     40649     40646     40649     40652     40653
     40646     40649     40652     40654     40646     40649     40652     40655
     40647     40646     40649     40650     40647     40646     40649     40651
     40647     40646     40649     40652     40648     40646     40649     40650
     40648     40646     40649     40651     40648     40646     40649     40652
     40649     40652     40655     40656     40649     40652     40655     40657
     40649     40652     40655     40658     40650     40649     40652     40653
     40650     40649     40652     40654     40650     40649     40652     40655
     40651     40649     40652     40653     40651     40649     40652     40654
     40651     40649     40652     40655     40652     40655     40658     40659
     40652     40655     40658     40660     40652     40655     40658     40661
     40653     40652     40655     40656     40653     40652     40655     40657
     40653     40652     40655     40658     40654     40652     40655     40656
     40654     40652     40655     40657     40654     40652     40655     40658
     40656     40655     40658     40659     40656     40655     40658     40660
     40656     40655     40658     40661     40657     40655     40658     40659
     40657     40655     40658     40660     40657     40655     40658     40661
     40662     40667     40669     40670     40662     40667     40671     40672
     40662     40667     40671     40673     40662     40667     40671     40678
     40663     40662     40665     40666     40663     40662     40667     40668
     40663     40662     40667     40669     40663     40662     40667     40671
     40664     40662     40665     40666     40664     40662     40667     40668
     40664     40662     40667     40669     40664     40662     40667     40671
     40665     40662     40667     40668     40665     40662     40667     40669
     40665     40662     40667     40671     40666     40665     40662     40667
     40667     40671     40678     40674     40668     40667     40669     40670
     40668     40667     40671     40672     40668     40667     40671     40673
     40668     40667     40671     40678     40669     40667     40671     40672
     40669     40667     40671     40673     40669     40667     40671     40678
     40670     40669     40667     40671     40671     40678     40674     40675
     40671     40678     40674     40676     40671     40678     40674     40677
     40672     40671     40678     40674     40673     40671     40678     40674
     40674     40677     40679     40680     40674     40677     40679     40681
     40674     40677     40679     40682     40675     40674     40677     40679
     40676     40674     40677     40679     40677     40679     40682     40683
     40677     40679     40682     40684     40677     40679     40682     40690
     40678     40674     40677     40679     40679     40682     40684     40685
     40679     40682     40690     40691     40679     40682     40690     40692
     40679     40682     40690     40693     40680     40679     40682     40683
     40680     40679     40682     40684     40680     40679     40682     40690
     40681     40679     40682     40683     40681     40679     40682     40684
     40681     40679     40682     40690     40682     40684     40685     40686
     40682     40684     40685     40687     40682     40690     40693     40694
     40683     40682     40684     40685     40683     40682     40690     40691
     40683     40682     40690     40692     40683     40682     40690     40693
     40684     40682     40690     40691     40684     40682     40690     40692
     40684     40682     40690     40693     40684     40685     40687     40688
     40684     40685     40687     40689     40684     40685     40687     40699
     40685     40684     40682     40690     40685     40687     40699     40700
     40685     40687     40699     40701     40685     40687     40699     40702
     40686     40685     40687     40688     40686     40685     40687     40689
     40686     40685     40687     40699     40687     40699     40702     40703
     40687     40699     40702     40704     40687     40699     40702     40705
     40688     40687     40699     40700     40688     40687     40699     40701
     40688     40687     40699     40702     40689     40687     40699     40700
     40689     40687     40699     40701     40689     40687     40699     40702
     40690     40693     40694     40695     40690     40693     40694     40696
     40691     40690     40693     40694     40692     40690     40693     40694
     40693     40694     40696     40697     40693     40694     40696     40698
     40693     40694     40696     40740     40694     40696     40740     40741
     40694     40696     40740     40742     40694     40696     40740     40743
     40695     40694     40696     40697     40695     40694     40696     40698
     40695     40694     40696     40740     40696     40740     40743     40744
     40696     40740     40743     40745     40696     40740     40743     40746
     40697     40696     40740     40741     40697     40696     40740     40742
     40697     40696     40740     40743     40698     40696     40740     40741
     40698     40696     40740     40742     40698     40696     40740     40743
     40699     40702     40705     40706     40699     40702     40705     40707
     40699     40702     40705     40708     40700     40699     40702     40703
     40700     40699     40702     40704     40700     40699     40702     40705
     40701     40699     40702     40703     40701     40699     40702     40704
     40701     40699     40702     40705     40702     40705     40708     40709
     40702     40705     40708     40710     40702     40705     40708     40711
     40703     40702     40705     40706     40703     40702     40705     40707
     40703     40702     40705     40708     40704     40702     40705     40706
     40704     40702     40705     40707     40704     40702     40705     40708
     40705     40708     40711     40712     40705     40708     40711     40713
     40705     40708     40711     40714     40706     40705     40708     40709
     40706     40705     40708     40710     40706     40705     40708     40711
     40707     40705     40708     40709     40707     40705     40708     40710
     40707     40705     40708     40711     40708     40711     40714     40715
     40708     40711     40714     40716     40708     40711     40714     40717
     40709     40708     40711     40712     40709     40708     40711     40713
     40709     40708     40711     40714     40710     40708     40711     40712
     40710     40708     40711     40713     40710     40708     40711     40714
     40711     40714     40717     40718     40711     40714     40717     40719
     40712     40711     40714     40715     40712     40711     40714     40716
     40712     40711     40714     40717     40713     40711     40714     40715
     40713     40711     40714     40716     40713     40711     40714     40717
     40714     40717     40719     40720     40714     40717     40719     40721
     40715     40714     40717     40718     40715     40714     40717     40719
     40716     40714     40717     40718     40716     40714     40717     40719
     40717     40719     40721     40722     40717     40719     40721     40723
     40717     40719     40721     40724     40718     40717     40719     40720
     40718     40717     40719     40721     40719     40721     40724     40725
     40719     40721     40724     40726     40719     40721     40724     40727
     40720     40719     40721     40722     40720     40719     40721     40723
     40720     40719     40721     40724     40721     40724     40727     40728
     40721     40724     40727     40729     40721     40724     40727     40730
     40722     40721     40724     40725     40722     40721     40724     40726
     40722     40721     40724     40727     40723     40721     40724     40725
     40723     40721     40724     40726     40723     40721     40724     40727
     40724     40727     40730     40731     40724     40727     40730     40732
     40724     40727     40730     40733     40725     40724     40727     40728
     40725     40724     40727     40729     40725     40724     40727     40730
     40726     40724     40727     40728     40726     40724     40727     40729
     40726     40724     40727     40730     40727     40730     40733     40734
     40727     40730     40733     40735     40727     40730     40733     40736
     40728     40727     40730     40731     40728     40727     40730     40732
     40728     40727     40730     40733     40729     40727     40730     40731
     40729     40727     40730     40732     40729     40727     40730     40733
     40730     40733     40736     40737     40730     40733     40736     40738
     40730     40733     40736     40739     40731     40730     40733     40734
     40731     40730     40733     40735     40731     40730     40733     40736
     40732     40730     40733     40734     40732     40730     40733     40735
     40732     40730     40733     40736     40734     40733     40736     40737
     40734     40733     40736     40738     40734     40733     40736     40739
     40735     40733     40736     40737     40735     40733     40736     40738
     40735     40733     40736     40739     40740     40743     40746     40747
     40740     40743     40746     40748     40740     40743     40746     40749
     40741     40740     40743     40744     40741     40740     40743     40745
     40741     40740     40743     40746     40742     40740     40743     40744
     40742     40740     40743     40745     40742     40740     40743     40746
     40743     40746     40749     40750     40743     40746     40749     40751
     40743     40746     40749     40752     40744     40743     40746     40747
     40744     40743     40746     40748     40744     40743     40746     40749
     40745     40743     40746     40747     40745     40743     40746     40748
     40745     40743     40746     40749     40746     40749     40752     40753
     40746     40749     40752     40754     40746     40749     40752     40755
     40747     40746     40749     40750     40747     40746     40749     40751
     40747     40746     40749     40752     40748     40746     40749     40750
     40748     40746     40749     40751     40748     40746     40749     40752
     40749     40752     40755     40756     40749     40752     40755     40757
     40749     40752     40755     40758     40750     40749     40752     40753
     40750     40749     40752     40754     40750     40749     40752     40755
     40751     40749     40752     40753     40751     40749     40752     40754
     40751     40749     40752     40755     40752     40755     40758     40759
     40752     40755     40758     40760     40752     40755     40758     40761
     40753     40752     40755     40756     40753     40752     40755     40757
     40753     40752     40755     40758     40754     40752     40755     40756
     40754     40752     40755     40757     40754     40752     40755     40758
     40755     40758     40761     40762     40755     40758     40761     40763
     40755     40758     40761     40764     40756     40755     40758     40759
     40756     40755     40758     40760     40756     40755     40758     40761
     40757     40755     40758     40759     40757     40755     40758     40760
     40757     40755     40758     40761     40758     40761     40764     40765
     40758     40761     40764     40766     40758     40761     40764     40767
     40759     40758     40761     40762     40759     40758     40761     40763
     40759     40758     40761     40764     40760     40758     40761     40762
     40760     40758     40761     40763     40760     40758     40761     40764
     40761     40764     40767     40768     40761     40764     40767     40769
     40761     40764     40767     40770     40762     40761     40764     40765
     40762     40761     40764     40766     40762     40761     40764     40767
     40763     40761     40764     40765     40763     40761     40764     40766
     40763     40761     40764     40767     40764     40767     40770     40771
     40764     40767     40770     40772     40764     40767     40770     40773
     40765     40764     40767     40768     40765     40764     40767     40769
     40765     40764     40767     40770     40766     40764     40767     40768
     40766     40764     40767     40769     40766     40764     40767     40770
     40767     40770     40773     40774     40767     40770     40773     40775
     40767     40770     40773     40776     40768     40767     40770     40771
     40768     40767     40770     40772     40768     40767     40770     40773
     40769     40767     40770     40771     40769     40767     40770     40772
     40769     40767     40770     40773     40770     40773     40776     40777
     40770     40773     40776     40778     40770     40773     40776     40779
     40771     40770     40773     40774     40771     40770     40773     40775
     40771     40770     40773     40776     40772     40770     40773     40774
     40772     40770     40773     40775     40772     40770     40773     40776
     40773     40776     40779     40780     40773     40776     40779     40781
     40773     40776     40779     40782     40774     40773     40776     40777
     40774     40773     40776     40778     40774     40773     40776     40779
     40775     40773     40776     40777     40775     40773     40776     40778
     40775     40773     40776     40779     40777     40776     40779     40780
     40777     40776     40779     40781     40777     40776     40779     40782
     40778     40776     40779     40780     40778     40776     40779     40781
     40778     40776     40779     40782     40783     40788     40790     40791
     40783     40788     40792     40793     40783     40788     40792     40794
     40783     40788     40792     40799     40784     40783     40786     40787
     40784     40783     40788     40789     40784     40783     40788     40790
     40784     40783     40788     40792     40785     40783     40786     40787
     40785     40783     40788     40789     40785     40783     40788     40790
     40785     40783     40788     40792     40786     40783     40788     40789
     40786     40783     40788     40790     40786     40783     40788     40792
     40787     40786     40783     40788     40788     40792     40799     40795
     40789     40788     40790     40791     40789     40788     40792     40793
     40789     40788     40792     40794     40789     40788     40792     40799
     40790     40788     40792     40793     40790     40788     40792     40794
     40790     40788     40792     40799     40791     40790     40788     40792
     40792     40799     40795     40796     40792     40799     40795     40797
     40792     40799     40795     40798     40793     40792     40799     40795
     40794     40792     40799     40795     40795     40798     40800     40801
     40795     40798     40800     40802     40795     40798     40800     40803
     40796     40795     40798     40800     40797     40795     40798     40800
     40798     40800     40803     40804     40798     40800     40803     40805
     40798     40800     40803     40811     40799     40795     40798     40800
     40800     40803     40805     40806     40800     40803     40811     40812
     40800     40803     40811     40813     40800     40803     40811     40814
     40801     40800     40803     40804     40801     40800     40803     40805
     40801     40800     40803     40811     40802     40800     40803     40804
     40802     40800     40803     40805     40802     40800     40803     40811
     40803     40805     40806     40807     40803     40805     40806     40808
     40803     40811     40814     40815     40804     40803     40805     40806
     40804     40803     40811     40812     40804     40803     40811     40813
     40804     40803     40811     40814     40805     40803     40811     40812
     40805     40803     40811     40813     40805     40803     40811     40814
     40805     40806     40808     40809     40805     40806     40808     40810
     40805     40806     40808     40820     40806     40805     40803     40811
     40806     40808     40820     40821     40806     40808     40820     40822
     40806     40808     40820     40823     40807     40806     40808     40809
     40807     40806     40808     40810     40807     40806     40808     40820
     40808     40820     40823     40824     40808     40820     40823     40825
     40808     40820     40823     40826     40809     40808     40820     40821
     40809     40808     40820     40822     40809     40808     40820     40823
     40810     40808     40820     40821     40810     40808     40820     40822
     40810     40808     40820     40823     40811     40814     40815     40816
     40811     40814     40815     40817     40812     40811     40814     40815
     40813     40811     40814     40815     40814     40815     40817     40818
     40814     40815     40817     40819     40814     40815     40817     40864
     40815     40817     40864     40865     40815     40817     40864     40866
     40815     40817     40864     40867     40816     40815     40817     40818
     40816     40815     40817     40819     40816     40815     40817     40864
     40817     40864     40867     40868     40817     40864     40867     40869
     40817     40864     40867     40870     40818     40817     40864     40865
     40818     40817     40864     40866     40818     40817     40864     40867
     40819     40817     40864     40865     40819     40817     40864     40866
     40819     40817     40864     40867     40820     40823     40826     40827
     40820     40823     40826     40828     40820     40823     40826     40829
     40821     40820     40823     40824     40821     40820     40823     40825
     40821     40820     40823     40826     40822     40820     40823     40824
     40822     40820     40823     40825     40822     40820     40823     40826
     40823     40826     40829     40830     40823     40826     40829     40831
     40823     40826     40829     40832     40824     40823     40826     40827
     40824     40823     40826     40828     40824     40823     40826     40829
     40825     40823     40826     40827     40825     40823     40826     40828
     40825     40823     40826     40829     40826     40829     40832     40833
     40826     40829     40832     40834     40826     40829     40832     40835
     40827     40826     40829     40830     40827     40826     40829     40831
     40827     40826     40829     40832     40828     40826     40829     40830
     40828     40826     40829     40831     40828     40826     40829     40832
     40829     40832     40835     40836     40829     40832     40835     40837
     40829     40832     40835     40838     40830     40829     40832     40833
     40830     40829     40832     40834     40830     40829     40832     40835
     40831     40829     40832     40833     40831     40829     40832     40834
     40831     40829     40832     40835     40832     40835     40838     40839
     40832     40835     40838     40840     40832     40835     40838     40843
     40833     40832     40835     40836     40833     40832     40835     40837
     40833     40832     40835     40838     40834     40832     40835     40836
     40834     40832     40835     40837     40834     40832     40835     40838
     40835     40838     40840     40841     40835     40838     40840     40842
     40835     40838     40840     40843     40835     40838     40843     40840
     40835     40838     40843     40844     40835     40838     40843     40845
     40836     40835     40838     40839     40836     40835     40838     40840
     40836     40835     40838     40843     40837     40835     40838     40839
     40837     40835     40838     40840     40837     40835     40838     40843
     40838     40840     40843     40844     40838     40840     40843     40845
     40838     40843     40840     40841     40838     40843     40840     40842
     40838     40843     40845     40846     40838     40843     40845     40847
     40838     40843     40845     40848     40839     40838     40840     40841
     40839     40838     40840     40842     40839     40838     40840     40843
     40839     40838     40843     40840     40839     40838     40843     40844
     40839     40838     40843     40845     40840     40838     40843     40844
     40840     40838     40843     40845     40840     40843     40845     40846
     40840     40843     40845     40847     40840     40843     40845     40848
     40841     40840     40838     40843     40841     40840     40843     40844
     40841     40840     40843     40845     40842     40840     40838     40843
     40842     40840     40843     40844     40842     40840     40843     40845
     40843     40845     40848     40849     40843     40845     40848     40850
     40843     40845     40848     40851     40844     40843     40845     40846
     40844     40843     40845     40847     40844     40843     40845     40848
     40845     40848     40851     40852     40845     40848     40851     40853
     40845     40848     40851     40854     40846     40845     40848     40849
     40846     40845     40848     40850     40846     40845     40848     40851
     40847     40845     40848     40849     40847     40845     40848     40850
     40847     40845     40848     40851     40848     40851     40854     40855
     40848     40851     40854     40856     40848     40851     40854     40857
     40849     40848     40851     40852     40849     40848     40851     40853
     40849     40848     40851     40854     40850     40848     40851     40852
     40850     40848     40851     40853     40850     40848     40851     40854
     40851     40854     40857     40858     40851     40854     40857     40859
     40851     40854     40857     40860     40852     40851     40854     40855
     40852     40851     40854     40856     40852     40851     40854     40857
     40853     40851     40854     40855     40853     40851     40854     40856
     40853     40851     40854     40857     40854     40857     40860     40861
     40854     40857     40860     40862     40854     40857     40860     40863
     40855     40854     40857     40858     40855     40854     40857     40859
     40855     40854     40857     40860     40856     40854     40857     40858
     40856     40854     40857     40859     40856     40854     40857     40860
     40858     40857     40860     40861     40858     40857     40860     40862
     40858     40857     40860     40863     40859     40857     40860     40861
     40859     40857     40860     40862     40859     40857     40860     40863
     40864     40867     40870     40871     40864     40867     40870     40872
     40864     40867     40870     40873     40865     40864     40867     40868
     40865     40864     40867     40869     40865     40864     40867     40870
     40866     40864     40867     40868     40866     40864     40867     40869
     40866     40864     40867     40870     40867     40870     40873     40874
     40867     40870     40873     40875     40867     40870     40873     40876
     40868     40867     40870     40871     40868     40867     40870     40872
     40868     40867     40870     40873     40869     40867     40870     40871
     40869     40867     40870     40872     40869     40867     40870     40873
     40870     40873     40876     40877     40870     40873     40876     40878
     40870     40873     40876     40879     40871     40870     40873     40874
     40871     40870     40873     40875     40871     40870     40873     40876
     40872     40870     40873     40874     40872     40870     40873     40875
     40872     40870     40873     40876     40873     40876     40879     40880
     40873     40876     40879     40881     40873     40876     40879     40882
     40874     40873     40876     40877     40874     40873     40876     40878
     40874     40873     40876     40879     40875     40873     40876     40877
     40875     40873     40876     40878     40875     40873     40876     40879
     40876     40879     40882     40883     40876     40879     40882     40884
     40876     40879     40882     40885     40877     40876     40879     40880
     40877     40876     40879     40881     40877     40876     40879     40882
     40878     40876     40879     40880     40878     40876     40879     40881
     40878     40876     40879     40882     40879     40882     40885     40886
     40879     40882     40885     40887     40879     40882     40885     40888
     40880     40879     40882     40883     40880     40879     40882     40884
     40880     40879     40882     40885     40881     40879     40882     40883
     40881     40879     40882     40884     40881     40879     40882     40885
     40882     40885     40888     40889     40882     40885     40888     40890
     40882     40885     40888     40891     40883     40882     40885     40886
     40883     40882     40885     40887     40883     40882     40885     40888
     40884     40882     40885     40886     40884     40882     40885     40887
     40884     40882     40885     40888     40885     40888     40891     40892
     40885     40888     40891     40893     40885     40888     40891     40894
     40886     40885     40888     40889     40886     40885     40888     40890
     40886     40885     40888     40891     40887     40885     40888     40889
     40887     40885     40888     40890     40887     40885     40888     40891
     40888     40891     40894     40895     40888     40891     40894     40896
     40888     40891     40894     40897     40889     40888     40891     40892
     40889     40888     40891     40893     40889     40888     40891     40894
     40890     40888     40891     40892     40890     40888     40891     40893
     40890     40888     40891     40894     40891     40894     40897     40898
     40891     40894     40897     40899     40891     40894     40897     40900
     40892     40891     40894     40895     40892     40891     40894     40896
     40892     40891     40894     40897     40893     40891     40894     40895
     40893     40891     40894     40896     40893     40891     40894     40897
     40894     40897     40900     40901     40894     40897     40900     40902
     40894     40897     40900     40903     40895     40894     40897     40898
     40895     40894     40897     40899     40895     40894     40897     40900
     40896     40894     40897     40898     40896     40894     40897     40899
     40896     40894     40897     40900     40897     40900     40903     40904
     40897     40900     40903     40905     40897     40900     40903     40906
     40898     40897     40900     40901     40898     40897     40900     40902
     40898     40897     40900     40903     40899     40897     40900     40901
     40899     40897     40900     40902     40899     40897     40900     40903
     40901     40900     40903     40904     40901     40900     40903     40905
     40901     40900     40903     40906     40902     40900     40903     40904
     40902     40900     40903     40905     40902     40900     40903     40906
     40907     40911     40914     40915     40907     40911     40914     40916
     40907     40911     40914     40921     40908     40907     40911     40912
     40908     40907     40911     40913     40908     40907     40911     40914
     40909     40907     40911     40912     40909     40907     40911     40913
     40909     40907     40911     40914     40910     40907     40911     40912
     40910     40907     40911     40913     40910     40907     40911     40914
     40911     40914     40921     40917     40912     40911     40914     40915
     40912     40911     40914     40916     40912     40911     40914     40921
     40913     40911     40914     40915     40913     40911     40914     40916
     40913     40911     40914     40921     40914     40921     40917     40918
     40914     40921     40917     40919     40914     40921     40917     40920
     40915     40914     40921     40917     40916     40914     40921     40917
     40917     40920     40922     40923     40917     40920     40922     40924
     40917     40920     40922     40925     40918     40917     40920     40922
     40919     40917     40920     40922     40920     40922     40925     40926
     40920     40922     40925     40927     40920     40922     40925     40933
     40921     40917     40920     40922     40922     40925     40927     40928
     40922     40925     40933     40934     40922     40925     40933     40935
     40922     40925     40933     40936     40923     40922     40925     40926
     40923     40922     40925     40927     40923     40922     40925     40933
     40924     40922     40925     40926     40924     40922     40925     40927
     40924     40922     40925     40933     40925     40927     40928     40929
     40925     40927     40928     40930     40925     40933     40936     40937
     40926     40925     40927     40928     40926     40925     40933     40934
     40926     40925     40933     40935     40926     40925     40933     40936
     40927     40925     40933     40934     40927     40925     40933     40935
     40927     40925     40933     40936     40927     40928     40930     40931
     40927     40928     40930     40932     40927     40928     40930     40942
     40928     40927     40925     40933     40928     40930     40942     40943
     40928     40930     40942     40944     40928     40930     40942     40945
     40929     40928     40930     40931     40929     40928     40930     40932
     40929     40928     40930     40942     40930     40942     40945     40946
     40930     40942     40945     40947     40930     40942     40945     40948
     40931     40930     40942     40943     40931     40930     40942     40944
     40931     40930     40942     40945     40932     40930     40942     40943
     40932     40930     40942     40944     40932     40930     40942     40945
     40933     40936     40937     40938     40933     40936     40937     40939
     40934     40933     40936     40937     40935     40933     40936     40937
     40936     40937     40939     40940     40936     40937     40939     40941
     40936     40937     40939     40986     40937     40939     40986     40987
     40937     40939     40986     40988     40937     40939     40986     40989
     40938     40937     40939     40940     40938     40937     40939     40941
     40938     40937     40939     40986     40939     40986     40989     40990
     40939     40986     40989     40991     40939     40986     40989     40992
     40940     40939     40986     40987     40940     40939     40986     40988
     40940     40939     40986     40989     40941     40939     40986     40987
     40941     40939     40986     40988     40941     40939     40986     40989
     40942     40945     40948     40949     40942     40945     40948     40950
     40942     40945     40948     40951     40943     40942     40945     40946
     40943     40942     40945     40947     40943     40942     40945     40948
     40944     40942     40945     40946     40944     40942     40945     40947
     40944     40942     40945     40948     40945     40948     40951     40952
     40945     40948     40951     40953     40945     40948     40951     40954
     40946     40945     40948     40949     40946     40945     40948     40950
     40946     40945     40948     40951     40947     40945     40948     40949
     40947     40945     40948     40950     40947     40945     40948     40951
     40948     40951     40954     40955     40948     40951     40954     40956
     40948     40951     40954     40957     40949     40948     40951     40952
     40949     40948     40951     40953     40949     40948     40951     40954
     40950     40948     40951     40952     40950     40948     40951     40953
     40950     40948     40951     40954     40951     40954     40957     40958
     40951     40954     40957     40959     40951     40954     40957     40960
     40952     40951     40954     40955     40952     40951     40954     40956
     40952     40951     40954     40957     40953     40951     40954     40955
     40953     40951     40954     40956     40953     40951     40954     40957
     40954     40957     40960     40961     40954     40957     40960     40962
     40954     40957     40960     40965     40955     40954     40957     40958
     40955     40954     40957     40959     40955     40954     40957     40960
     40956     40954     40957     40958     40956     40954     40957     40959
     40956     40954     40957     40960     40957     40960     40962     40963
     40957     40960     40962     40964     40957     40960     40962     40965
     40957     40960     40965     40962     40957     40960     40965     40966
     40957     40960     40965     40967     40958     40957     40960     40961
     40958     40957     40960     40962     40958     40957     40960     40965
     40959     40957     40960     40961     40959     40957     40960     40962
     40959     40957     40960     40965     40960     40962     40965     40966
     40960     40962     40965     40967     40960     40965     40962     40963
     40960     40965     40962     40964     40960     40965     40967     40968
     40960     40965     40967     40969     40960     40965     40967     40970
     40961     40960     40962     40963     40961     40960     40962     40964
     40961     40960     40962     40965     40961     40960     40965     40962
     40961     40960     40965     40966     40961     40960     40965     40967
     40962     40960     40965     40966     40962     40960     40965     40967
     40962     40965     40967     40968     40962     40965     40967     40969
     40962     40965     40967     40970     40963     40962     40960     40965
     40963     40962     40965     40966     40963     40962     40965     40967
     40964     40962     40960     40965     40964     40962     40965     40966
     40964     40962     40965     40967     40965     40967     40970     40971
     40965     40967     40970     40972     40965     40967     40970     40973
     40966     40965     40967     40968     40966     40965     40967     40969
     40966     40965     40967     40970     40967     40970     40973     40974
     40967     40970     40973     40975     40967     40970     40973     40976
     40968     40967     40970     40971     40968     40967     40970     40972
     40968     40967     40970     40973     40969     40967     40970     40971
     40969     40967     40970     40972     40969     40967     40970     40973
     40970     40973     40976     40977     40970     40973     40976     40978
     40970     40973     40976     40979     40971     40970     40973     40974
     40971     40970     40973     40975     40971     40970     40973     40976
     40972     40970     40973     40974     40972     40970     40973     40975
     40972     40970     40973     40976     40973     40976     40979     40980
     40973     40976     40979     40981     40973     40976     40979     40982
     40974     40973     40976     40977     40974     40973     40976     40978
     40974     40973     40976     40979     40975     40973     40976     40977
     40975     40973     40976     40978     40975     40973     40976     40979
     40976     40979     40982     40983     40976     40979     40982     40984
     40976     40979     40982     40985     40977     40976     40979     40980
     40977     40976     40979     40981     40977     40976     40979     40982
     40978     40976     40979     40980     40978     40976     40979     40981
     40978     40976     40979     40982     40980     40979     40982     40983
     40980     40979     40982     40984     40980     40979     40982     40985
     40981     40979     40982     40983     40981     40979     40982     40984
     40981     40979     40982     40985     40986     40989     40992     40993
     40986     40989     40992     40994     40986     40989     40992     40995
     40987     40986     40989     40990     40987     40986     40989     40991
     40987     40986     40989     40992     40988     40986     40989     40990
     40988     40986     40989     40991     40988     40986     40989     40992
     40989     40992     40995     40996     40989     40992     40995     40997
     40989     40992     40995     40998     40990     40989     40992     40993
     40990     40989     40992     40994     40990     40989     40992     40995
     40991     40989     40992     40993     40991     40989     40992     40994
     40991     40989     40992     40995     40992     40995     40998     40999
     40992     40995     40998     41000     40992     40995     40998     41001
     40993     40992     40995     40996     40993     40992     40995     40997
     40993     40992     40995     40998     40994     40992     40995     40996
     40994     40992     40995     40997     40994     40992     40995     40998
     40995     40998     41001     41002     40995     40998     41001     41003
     40995     40998     41001     41004     40996     40995     40998     40999
     40996     40995     40998     41000     40996     40995     40998     41001
     40997     40995     40998     40999     40997     40995     40998     41000
     40997     40995     40998     41001     40998     41001     41004     41005
     40998     41001     41004     41006     40998     41001     41004     41007
     40999     40998     41001     41002     40999     40998     41001     41003
     40999     40998     41001     41004     41000     40998     41001     41002
     41000     40998     41001     41003     41000     40998     41001     41004
     41001     41004     41007     41008     41001     41004     41007     41009
     41001     41004     41007     41010     41002     41001     41004     41005
     41002     41001     41004     41006     41002     41001     41004     41007
     41003     41001     41004     41005     41003     41001     41004     41006
     41003     41001     41004     41007     41004     41007     41010     41011
     41004     41007     41010     41012     41004     41007     41010     41013
     41005     41004     41007     41008     41005     41004     41007     41009
     41005     41004     41007     41010     41006     41004     41007     41008
     41006     41004     41007     41009     41006     41004     41007     41010
     41007     41010     41013     41014     41007     41010     41013     41015
     41007     41010     41013     41016     41008     41007     41010     41011
     41008     41007     41010     41012     41008     41007     41010     41013
     41009     41007     41010     41011     41009     41007     41010     41012
     41009     41007     41010     41013     41010     41013     41016     41017
     41010     41013     41016     41018     41010     41013     41016     41019
     41011     41010     41013     41014     41011     41010     41013     41015
     41011     41010     41013     41016     41012     41010     41013     41014
     41012     41010     41013     41015     41012     41010     41013     41016
     41013     41016     41019     41020     41013     41016     41019     41021
     41013     41016     41019     41022     41014     41013     41016     41017
     41014     41013     41016     41018     41014     41013     41016     41019
     41015     41013     41016     41017     41015     41013     41016     41018
     41015     41013     41016     41019     41016     41019     41022     41023
     41016     41019     41022     41024     41016     41019     41022     41025
     41017     41016     41019     41020     41017     41016     41019     41021
     41017     41016     41019     41022     41018     41016     41019     41020
     41018     41016     41019     41021     41018     41016     41019     41022
     41019     41022     41025     41026     41019     41022     41025     41027
     41019     41022     41025     41028     41020     41019     41022     41023
     41020     41019     41022     41024     41020     41019     41022     41025
     41021     41019     41022     41023     41021     41019     41022     41024
     41021     41019     41022     41025     41023     41022     41025     41026
     41023     41022     41025     41027     41023     41022     41025     41028
     41024     41022     41025     41026     41024     41022     41025     41027
     41024     41022     41025     41028     41029     41033     41036     41037
     41029     41033     41036     41038     41029     41033     41036     41043
     41030     41029     41033     41034     41030     41029     41033     41035
     41030     41029     41033     41036     41031     41029     41033     41034
     41031     41029     41033     41035     41031     41029     41033     41036
     41032     41029     41033     41034     41032     41029     41033     41035
     41032     41029     41033     41036     41033     41036     41043     41039
     41034     41033     41036     41037     41034     41033     41036     41038
     41034     41033     41036     41043     41035     41033     41036     41037
     41035     41033     41036     41038     41035     41033     41036     41043
     41036     41043     41039     41040     41036     41043     41039     41041
     41036     41043     41039     41042     41037     41036     41043     41039
     41038     41036     41043     41039     41039     41042     41044     41045
     41039     41042     41044     41046     41039     41042     41044     41047
     41040     41039     41042     41044     41041     41039     41042     41044
     41042     41044     41047     41048     41042     41044     41047     41049
     41042     41044     41047     41055     41043     41039     41042     41044
     41044     41047     41049     41050     41044     41047     41055     41056
     41044     41047     41055     41057     41044     41047     41055     41058
     41045     41044     41047     41048     41045     41044     41047     41049
     41045     41044     41047     41055     41046     41044     41047     41048
     41046     41044     41047     41049     41046     41044     41047     41055
     41047     41049     41050     41051     41047     41049     41050     41052
     41047     41055     41058     41059     41048     41047     41049     41050
     41048     41047     41055     41056     41048     41047     41055     41057
     41048     41047     41055     41058     41049     41047     41055     41056
     41049     41047     41055     41057     41049     41047     41055     41058
     41049     41050     41052     41053     41049     41050     41052     41054
     41049     41050     41052     41064     41050     41049     41047     41055
     41050     41052     41064     41065     41050     41052     41064     41066
     41050     41052     41064     41067     41051     41050     41052     41053
     41051     41050     41052     41054     41051     41050     41052     41064
     41052     41064     41067     41068     41052     41064     41067     41069
     41052     41064     41067     41070     41053     41052     41064     41065
     41053     41052     41064     41066     41053     41052     41064     41067
     41054     41052     41064     41065     41054     41052     41064     41066
     41054     41052     41064     41067     41055     41058     41059     41060
     41055     41058     41059     41061     41056     41055     41058     41059
     41057     41055     41058     41059     41058     41059     41061     41062
     41058     41059     41061     41063     41058     41059     41061     41105
     41059     41061     41105     41106     41059     41061     41105     41107
     41059     41061     41105     41108     41060     41059     41061     41062
     41060     41059     41061     41063     41060     41059     41061     41105
     41061     41105     41108     41109     41061     41105     41108     41110
     41061     41105     41108     41111     41062     41061     41105     41106
     41062     41061     41105     41107     41062     41061     41105     41108
     41063     41061     41105     41106     41063     41061     41105     41107
     41063     41061     41105     41108     41064     41067     41070     41071
     41064     41067     41070     41072     41064     41067     41070     41073
     41065     41064     41067     41068     41065     41064     41067     41069
     41065     41064     41067     41070     41066     41064     41067     41068
     41066     41064     41067     41069     41066     41064     41067     41070
     41067     41070     41073     41074     41067     41070     41073     41075
     41067     41070     41073     41076     41068     41067     41070     41071
     41068     41067     41070     41072     41068     41067     41070     41073
     41069     41067     41070     41071     41069     41067     41070     41072
     41069     41067     41070     41073     41070     41073     41076     41077
     41070     41073     41076     41078     41070     41073     41076     41079
     41071     41070     41073     41074     41071     41070     41073     41075
     41071     41070     41073     41076     41072     41070     41073     41074
     41072     41070     41073     41075     41072     41070     41073     41076
     41073     41076     41079     41080     41073     41076     41079     41081
     41073     41076     41079     41082     41074     41073     41076     41077
     41074     41073     41076     41078     41074     41073     41076     41079
     41075     41073     41076     41077     41075     41073     41076     41078
     41075     41073     41076     41079     41076     41079     41082     41083
     41076     41079     41082     41084     41077     41076     41079     41080
     41077     41076     41079     41081     41077     41076     41079     41082
     41078     41076     41079     41080     41078     41076     41079     41081
     41078     41076     41079     41082     41079     41082     41084     41085
     41079     41082     41084     41086     41080     41079     41082     41083
     41080     41079     41082     41084     41081     41079     41082     41083
     41081     41079     41082     41084     41082     41084     41086     41087
     41082     41084     41086     41088     41082     41084     41086     41089
     41083     41082     41084     41085     41083     41082     41084     41086
     41084     41086     41089     41090     41084     41086     41089     41091
     41084     41086     41089     41092     41085     41084     41086     41087
     41085     41084     41086     41088     41085     41084     41086     41089
     41086     41089     41092     41093     41086     41089     41092     41094
     41086     41089     41092     41095     41087     41086     41089     41090
     41087     41086     41089     41091     41087     41086     41089     41092
     41088     41086     41089     41090     41088     41086     41089     41091
     41088     41086     41089     41092     41089     41092     41095     41096
     41089     41092     41095     41097     41089     41092     41095     41098
     41090     41089     41092     41093     41090     41089     41092     41094
     41090     41089     41092     41095     41091     41089     41092     41093
     41091     41089     41092     41094     41091     41089     41092     41095
     41092     41095     41098     41099     41092     41095     41098     41100
     41092     41095     41098     41101     41093     41092     41095     41096
     41093     41092     41095     41097     41093     41092     41095     41098
     41094     41092     41095     41096     41094     41092     41095     41097
     41094     41092     41095     41098     41095     41098     41101     41102
     41095     41098     41101     41103     41095     41098     41101     41104
     41096     41095     41098     41099     41096     41095     41098     41100
     41096     41095     41098     41101     41097     41095     41098     41099
     41097     41095     41098     41100     41097     41095     41098     41101
     41099     41098     41101     41102     41099     41098     41101     41103
     41099     41098     41101     41104     41100     41098     41101     41102
     41100     41098     41101     41103     41100     41098     41101     41104
     41105     41108     41111     41112     41105     41108     41111     41113
     41105     41108     41111     41114     41106     41105     41108     41109
     41106     41105     41108     41110     41106     41105     41108     41111
     41107     41105     41108     41109     41107     41105     41108     41110
     41107     41105     41108     41111     41108     41111     41114     41115
     41108     41111     41114     41116     41108     41111     41114     41117
     41109     41108     41111     41112     41109     41108     41111     41113
     41109     41108     41111     41114     41110     41108     41111     41112
     41110     41108     41111     41113     41110     41108     41111     41114
     41111     41114     41117     41118     41111     41114     41117     41119
     41111     41114     41117     41120     41112     41111     41114     41115
     41112     41111     41114     41116     41112     41111     41114     41117
     41113     41111     41114     41115     41113     41111     41114     41116
     41113     41111     41114     41117     41114     41117     41120     41121
     41114     41117     41120     41122     41114     41117     41120     41123
     41115     41114     41117     41118     41115     41114     41117     41119
     41115     41114     41117     41120     41116     41114     41117     41118
     41116     41114     41117     41119     41116     41114     41117     41120
     41117     41120     41123     41124     41117     41120     41123     41125
     41118     41117     41120     41121     41118     41117     41120     41122
     41118     41117     41120     41123     41119     41117     41120     41121
     41119     41117     41120     41122     41119     41117     41120     41123
     41120     41123     41125     41126     41120     41123     41125     41127
     41121     41120     41123     41124     41121     41120     41123     41125
     41122     41120     41123     41124     41122     41120     41123     41125
     41123     41125     41127     41128     41123     41125     41127     41129
     41123     41125     41127     41130     41124     41123     41125     41126
     41124     41123     41125     41127     41125     41127     41130     41131
     41125     41127     41130     41132     41125     41127     41130     41133
     41126     41125     41127     41128     41126     41125     41127     41129
     41126     41125     41127     41130     41127     41130     41133     41134
     41127     41130     41133     41135     41127     41130     41133     41136
     41128     41127     41130     41131     41128     41127     41130     41132
     41128     41127     41130     41133     41129     41127     41130     41131
     41129     41127     41130     41132     41129     41127     41130     41133
     41130     41133     41136     41137     41130     41133     41136     41138
     41130     41133     41136     41139     41131     41130     41133     41134
     41131     41130     41133     41135     41131     41130     41133     41136
     41132     41130     41133     41134     41132     41130     41133     41135
     41132     41130     41133     41136     41133     41136     41139     41140
     41133     41136     41139     41141     41133     41136     41139     41142
     41134     41133     41136     41137     41134     41133     41136     41138
     41134     41133     41136     41139     41135     41133     41136     41137
     41135     41133     41136     41138     41135     41133     41136     41139
     41136     41139     41142     41143     41136     41139     41142     41144
     41136     41139     41142     41145     41137     41136     41139     41140
     41137     41136     41139     41141     41137     41136     41139     41142
     41138     41136     41139     41140     41138     41136     41139     41141
     41138     41136     41139     41142     41139     41142     41145     41146
     41139     41142     41145     41147     41139     41142     41145     41148
     41140     41139     41142     41143     41140     41139     41142     41144
     41140     41139     41142     41145     41141     41139     41142     41143
     41141     41139     41142     41144     41141     41139     41142     41145
     41142     41145     41148     41149     41142     41145     41148     41150
     41142     41145     41148     41151     41143     41142     41145     41146
     41143     41142     41145     41147     41143     41142     41145     41148
     41144     41142     41145     41146     41144     41142     41145     41147
     41144     41142     41145     41148     41146     41145     41148     41149
     41146     41145     41148     41150     41146     41145     41148     41151
     41147     41145     41148     41149     41147     41145     41148     41150
     41147     41145     41148     41151     41152     41156     41159     41160
     41152     41156     41159     41161     41152     41156     41159     41166
     41153     41152     41156     41157     41153     41152     41156     41158
     41153     41152     41156     41159     41154     41152     41156     41157
     41154     41152     41156     41158     41154     41152     41156     41159
     41155     41152     41156     41157     41155     41152     41156     41158
     41155     41152     41156     41159     41156     41159     41166     41162
     41157     41156     41159     41160     41157     41156     41159     41161
     41157     41156     41159     41166     41158     41156     41159     41160
     41158     41156     41159     41161     41158     41156     41159     41166
     41159     41166     41162     41163     41159     41166     41162     41164
     41159     41166     41162     41165     41160     41159     41166     41162
     41161     41159     41166     41162     41162     41165     41167     41168
     41162     41165     41167     41169     41162     41165     41167     41170
     41163     41162     41165     41167     41164     41162     41165     41167
     41165     41167     41170     41171     41165     41167     41170     41172
     41165     41167     41170     41178     41166     41162     41165     41167
     41167     41170     41172     41173     41167     41170     41178     41179
     41167     41170     41178     41180     41167     41170     41178     41181
     41168     41167     41170     41171     41168     41167     41170     41172
     41168     41167     41170     41178     41169     41167     41170     41171
     41169     41167     41170     41172     41169     41167     41170     41178
     41170     41172     41173     41174     41170     41172     41173     41175
     41170     41178     41181     41182     41171     41170     41172     41173
     41171     41170     41178     41179     41171     41170     41178     41180
     41171     41170     41178     41181     41172     41170     41178     41179
     41172     41170     41178     41180     41172     41170     41178     41181
     41172     41173     41175     41176     41172     41173     41175     41177
     41172     41173     41175     41187     41173     41172     41170     41178
     41173     41175     41187     41188     41173     41175     41187     41189
     41173     41175     41187     41190     41174     41173     41175     41176
     41174     41173     41175     41177     41174     41173     41175     41187
     41175     41187     41190     41191     41175     41187     41190     41192
     41175     41187     41190     41193     41176     41175     41187     41188
     41176     41175     41187     41189     41176     41175     41187     41190
     41177     41175     41187     41188     41177     41175     41187     41189
     41177     41175     41187     41190     41178     41181     41182     41183
     41178     41181     41182     41184     41179     41178     41181     41182
     41180     41178     41181     41182     41181     41182     41184     41185
     41181     41182     41184     41186     41181     41182     41184     41228
     41182     41184     41228     41229     41182     41184     41228     41230
     41182     41184     41228     41231     41183     41182     41184     41185
     41183     41182     41184     41186     41183     41182     41184     41228
     41184     41228     41231     41232     41184     41228     41231     41233
     41184     41228     41231     41234     41185     41184     41228     41229
     41185     41184     41228     41230     41185     41184     41228     41231
     41186     41184     41228     41229     41186     41184     41228     41230
     41186     41184     41228     41231     41187     41190     41193     41194
     41187     41190     41193     41195     41187     41190     41193     41196
     41188     41187     41190     41191     41188     41187     41190     41192
     41188     41187     41190     41193     41189     41187     41190     41191
     41189     41187     41190     41192     41189     41187     41190     41193
     41190     41193     41196     41197     41190     41193     41196     41198
     41190     41193     41196     41199     41191     41190     41193     41194
     41191     41190     41193     41195     41191     41190     41193     41196
     41192     41190     41193     41194     41192     41190     41193     41195
     41192     41190     41193     41196     41193     41196     41199     41200
     41193     41196     41199     41201     41193     41196     41199     41202
     41194     41193     41196     41197     41194     41193     41196     41198
     41194     41193     41196     41199     41195     41193     41196     41197
     41195     41193     41196     41198     41195     41193     41196     41199
     41196     41199     41202     41203     41196     41199     41202     41204
     41196     41199     41202     41205     41197     41196     41199     41200
     41197     41196     41199     41201     41197     41196     41199     41202
     41198     41196     41199     41200     41198     41196     41199     41201
     41198     41196     41199     41202     41199     41202     41205     41206
     41199     41202     41205     41207     41200     41199     41202     41203
     41200     41199     41202     41204     41200     41199     41202     41205
     41201     41199     41202     41203     41201     41199     41202     41204
     41201     41199     41202     41205     41202     41205     41207     41208
     41202     41205     41207     41209     41203     41202     41205     41206
     41203     41202     41205     41207     41204     41202     41205     41206
     41204     41202     41205     41207     41205     41207     41209     41210
     41205     41207     41209     41211     41205     41207     41209     41212
     41206     41205     41207     41208     41206     41205     41207     41209
     41207     41209     41212     41213     41207     41209     41212     41214
     41207     41209     41212     41215     41208     41207     41209     41210
     41208     41207     41209     41211     41208     41207     41209     41212
     41209     41212     41215     41216     41209     41212     41215     41217
     41209     41212     41215     41218     41210     41209     41212     41213
     41210     41209     41212     41214     41210     41209     41212     41215
     41211     41209     41212     41213     41211     41209     41212     41214
     41211     41209     41212     41215     41212     41215     41218     41219
     41212     41215     41218     41220     41212     41215     41218     41221
     41213     41212     41215     41216     41213     41212     41215     41217
     41213     41212     41215     41218     41214     41212     41215     41216
     41214     41212     41215     41217     41214     41212     41215     41218
     41215     41218     41221     41222     41215     41218     41221     41223
     41215     41218     41221     41224     41216     41215     41218     41219
     41216     41215     41218     41220     41216     41215     41218     41221
     41217     41215     41218     41219     41217     41215     41218     41220
     41217     41215     41218     41221     41218     41221     41224     41225
     41218     41221     41224     41226     41218     41221     41224     41227
     41219     41218     41221     41222     41219     41218     41221     41223
     41219     41218     41221     41224     41220     41218     41221     41222
     41220     41218     41221     41223     41220     41218     41221     41224
     41222     41221     41224     41225     41222     41221     41224     41226
     41222     41221     41224     41227     41223     41221     41224     41225
     41223     41221     41224     41226     41223     41221     41224     41227
     41228     41231     41234     41235     41228     41231     41234     41236
     41228     41231     41234     41237     41229     41228     41231     41232
     41229     41228     41231     41233     41229     41228     41231     41234
     41230     41228     41231     41232     41230     41228     41231     41233
     41230     41228     41231     41234     41231     41234     41237     41238
     41231     41234     41237     41239     41231     41234     41237     41240
     41232     41231     41234     41235     41232     41231     41234     41236
     41232     41231     41234     41237     41233     41231     41234     41235
     41233     41231     41234     41236     41233     41231     41234     41237
     41234     41237     41240     41241     41234     41237     41240     41242
     41234     41237     41240     41243     41235     41234     41237     41238
     41235     41234     41237     41239     41235     41234     41237     41240
     41236     41234     41237     41238     41236     41234     41237     41239
     41236     41234     41237     41240     41237     41240     41243     41244
     41237     41240     41243     41245     41237     41240     41243     41246
     41238     41237     41240     41241     41238     41237     41240     41242
     41238     41237     41240     41243     41239     41237     41240     41241
     41239     41237     41240     41242     41239     41237     41240     41243
     41240     41243     41246     41247     41240     41243     41246     41248
     41241     41240     41243     41244     41241     41240     41243     41245
     41241     41240     41243     41246     41242     41240     41243     41244
     41242     41240     41243     41245     41242     41240     41243     41246
     41243     41246     41248     41249     41243     41246     41248     41250
     41244     41243     41246     41247     41244     41243     41246     41248
     41245     41243     41246     41247     41245     41243     41246     41248
     41246     41248     41250     41251     41246     41248     41250     41252
     41246     41248     41250     41253     41247     41246     41248     41249
     41247     41246     41248     41250     41248     41250     41253     41254
     41248     41250     41253     41255     41248     41250     41253     41256
     41249     41248     41250     41251     41249     41248     41250     41252
     41249     41248     41250     41253     41250     41253     41256     41257
     41250     41253     41256     41258     41250     41253     41256     41259
     41251     41250     41253     41254     41251     41250     41253     41255
     41251     41250     41253     41256     41252     41250     41253     41254
     41252     41250     41253     41255     41252     41250     41253     41256
     41253     41256     41259     41260     41253     41256     41259     41261
     41253     41256     41259     41262     41254     41253     41256     41257
     41254     41253     41256     41258     41254     41253     41256     41259
     41255     41253     41256     41257     41255     41253     41256     41258
     41255     41253     41256     41259     41256     41259     41262     41263
     41256     41259     41262     41264     41256     41259     41262     41265
     41257     41256     41259     41260     41257     41256     41259     41261
     41257     41256     41259     41262     41258     41256     41259     41260
     41258     41256     41259     41261     41258     41256     41259     41262
     41259     41262     41265     41266     41259     41262     41265     41267
     41259     41262     41265     41268     41260     41259     41262     41263
     41260     41259     41262     41264     41260     41259     41262     41265
     41261     41259     41262     41263     41261     41259     41262     41264
     41261     41259     41262     41265     41262     41265     41268     41269
     41262     41265     41268     41270     41262     41265     41268     41271
     41263     41262     41265     41266     41263     41262     41265     41267
     41263     41262     41265     41268     41264     41262     41265     41266
     41264     41262     41265     41267     41264     41262     41265     41268
     41265     41268     41271     41272     41265     41268     41271     41273
     41265     41268     41271     41274     41266     41265     41268     41269
     41266     41265     41268     41270     41266     41265     41268     41271
     41267     41265     41268     41269     41267     41265     41268     41270
     41267     41265     41268     41271     41269     41268     41271     41272
     41269     41268     41271     41273     41269     41268     41271     41274
     41270     41268     41271     41272     41270     41268     41271     41273
     41270     41268     41271     41274     41275     41279     41282     41283
     41275     41279     41282     41284     41275     41279     41282     41289
     41276     41275     41279     41280     41276     41275     41279     41281
     41276     41275     41279     41282     41277     41275     41279     41280
     41277     41275     41279     41281     41277     41275     41279     41282
     41278     41275     41279     41280     41278     41275     41279     41281
     41278     41275     41279     41282     41279     41282     41289     41285
     41280     41279     41282     41283     41280     41279     41282     41284
     41280     41279     41282     41289     41281     41279     41282     41283
     41281     41279     41282     41284     41281     41279     41282     41289
     41282     41289     41285     41286     41282     41289     41285     41287
     41282     41289     41285     41288     41283     41282     41289     41285
     41284     41282     41289     41285     41285     41288     41290     41291
     41285     41288     41290     41292     41285     41288     41290     41293
     41286     41285     41288     41290     41287     41285     41288     41290
     41288     41290     41293     41294     41288     41290     41293     41295
     41288     41290     41293     41301     41289     41285     41288     41290
     41290     41293     41295     41296     41290     41293     41301     41302
     41290     41293     41301     41303     41290     41293     41301     41304
     41291     41290     41293     41294     41291     41290     41293     41295
     41291     41290     41293     41301     41292     41290     41293     41294
     41292     41290     41293     41295     41292     41290     41293     41301
     41293     41295     41296     41297     41293     41295     41296     41298
     41293     41301     41304     41305     41294     41293     41295     41296
     41294     41293     41301     41302     41294     41293     41301     41303
     41294     41293     41301     41304     41295     41293     41301     41302
     41295     41293     41301     41303     41295     41293     41301     41304
     41295     41296     41298     41299     41295     41296     41298     41300
     41295     41296     41298     41310     41296     41295     41293     41301
     41296     41298     41310     41311     41296     41298     41310     41312
     41296     41298     41310     41313     41297     41296     41298     41299
     41297     41296     41298     41300     41297     41296     41298     41310
     41298     41310     41313     41314     41298     41310     41313     41315
     41298     41310     41313     41316     41299     41298     41310     41311
     41299     41298     41310     41312     41299     41298     41310     41313
     41300     41298     41310     41311     41300     41298     41310     41312
     41300     41298     41310     41313     41301     41304     41305     41306
     41301     41304     41305     41307     41302     41301     41304     41305
     41303     41301     41304     41305     41304     41305     41307     41308
     41304     41305     41307     41309     41304     41305     41307     41354
     41305     41307     41354     41355     41305     41307     41354     41356
     41305     41307     41354     41357     41306     41305     41307     41308
     41306     41305     41307     41309     41306     41305     41307     41354
     41307     41354     41357     41358     41307     41354     41357     41359
     41307     41354     41357     41360     41308     41307     41354     41355
     41308     41307     41354     41356     41308     41307     41354     41357
     41309     41307     41354     41355     41309     41307     41354     41356
     41309     41307     41354     41357     41310     41313     41316     41317
     41310     41313     41316     41318     41310     41313     41316     41319
     41311     41310     41313     41314     41311     41310     41313     41315
     41311     41310     41313     41316     41312     41310     41313     41314
     41312     41310     41313     41315     41312     41310     41313     41316
     41313     41316     41319     41320     41313     41316     41319     41321
     41313     41316     41319     41322     41314     41313     41316     41317
     41314     41313     41316     41318     41314     41313     41316     41319
     41315     41313     41316     41317     41315     41313     41316     41318
     41315     41313     41316     41319     41316     41319     41322     41323
     41316     41319     41322     41324     41316     41319     41322     41325
     41317     41316     41319     41320     41317     41316     41319     41321
     41317     41316     41319     41322     41318     41316     41319     41320
     41318     41316     41319     41321     41318     41316     41319     41322
     41319     41322     41325     41326     41319     41322     41325     41327
     41319     41322     41325     41328     41320     41319     41322     41323
     41320     41319     41322     41324     41320     41319     41322     41325
     41321     41319     41322     41323     41321     41319     41322     41324
     41321     41319     41322     41325     41322     41325     41328     41329
     41322     41325     41328     41330     41322     41325     41328     41333
     41323     41322     41325     41326     41323     41322     41325     41327
     41323     41322     41325     41328     41324     41322     41325     41326
     41324     41322     41325     41327     41324     41322     41325     41328
     41325     41328     41330     41331     41325     41328     41330     41332
     41325     41328     41330     41333     41325     41328     41333     41330
     41325     41328     41333     41334     41325     41328     41333     41335
     41326     41325     41328     41329     41326     41325     41328     41330
     41326     41325     41328     41333     41327     41325     41328     41329
     41327     41325     41328     41330     41327     41325     41328     41333
     41328     41330     41333     41334     41328     41330     41333     41335
     41328     41333     41330     41331     41328     41333     41330     41332
     41328     41333     41335     41336     41328     41333     41335     41337
     41328     41333     41335     41338     41329     41328     41330     41331
     41329     41328     41330     41332     41329     41328     41330     41333
     41329     41328     41333     41330     41329     41328     41333     41334
     41329     41328     41333     41335     41330     41328     41333     41334
     41330     41328     41333     41335     41330     41333     41335     41336
     41330     41333     41335     41337     41330     41333     41335     41338
     41331     41330     41328     41333     41331     41330     41333     41334
     41331     41330     41333     41335     41332     41330     41328     41333
     41332     41330     41333     41334     41332     41330     41333     41335
     41333     41335     41338     41339     41333     41335     41338     41340
     41333     41335     41338     41341     41334     41333     41335     41336
     41334     41333     41335     41337     41334     41333     41335     41338
     41335     41338     41341     41342     41335     41338     41341     41343
     41335     41338     41341     41344     41336     41335     41338     41339
     41336     41335     41338     41340     41336     41335     41338     41341
     41337     41335     41338     41339     41337     41335     41338     41340
     41337     41335     41338     41341     41338     41341     41344     41345
     41338     41341     41344     41346     41338     41341     41344     41347
     41339     41338     41341     41342     41339     41338     41341     41343
     41339     41338     41341     41344     41340     41338     41341     41342
     41340     41338     41341     41343     41340     41338     41341     41344
     41341     41344     41347     41348     41341     41344     41347     41349
     41341     41344     41347     41350     41342     41341     41344     41345
     41342     41341     41344     41346     41342     41341     41344     41347
     41343     41341     41344     41345     41343     41341     41344     41346
     41343     41341     41344     41347     41344     41347     41350     41351
     41344     41347     41350     41352     41344     41347     41350     41353
     41345     41344     41347     41348     41345     41344     41347     41349
     41345     41344     41347     41350     41346     41344     41347     41348
     41346     41344     41347     41349     41346     41344     41347     41350
     41348     41347     41350     41351     41348     41347     41350     41352
     41348     41347     41350     41353     41349     41347     41350     41351
     41349     41347     41350     41352     41349     41347     41350     41353
     41354     41357     41360     41361     41354     41357     41360     41362
     41354     41357     41360     41363     41355     41354     41357     41358
     41355     41354     41357     41359     41355     41354     41357     41360
     41356     41354     41357     41358     41356     41354     41357     41359
     41356     41354     41357     41360     41357     41360     41363     41364
     41357     41360     41363     41365     41357     41360     41363     41366
     41358     41357     41360     41361     41358     41357     41360     41362
     41358     41357     41360     41363     41359     41357     41360     41361
     41359     41357     41360     41362     41359     41357     41360     41363
     41360     41363     41366     41367     41360     41363     41366     41368
     41360     41363     41366     41369     41361     41360     41363     41364
     41361     41360     41363     41365     41361     41360     41363     41366
     41362     41360     41363     41364     41362     41360     41363     41365
     41362     41360     41363     41366     41363     41366     41369     41370
     41363     41366     41369     41371     41363     41366     41369     41372
     41364     41363     41366     41367     41364     41363     41366     41368
     41364     41363     41366     41369     41365     41363     41366     41367
     41365     41363     41366     41368     41365     41363     41366     41369
     41366     41369     41372     41373     41366     41369     41372     41374
     41366     41369     41372     41375     41367     41366     41369     41370
     41367     41366     41369     41371     41367     41366     41369     41372
     41368     41366     41369     41370     41368     41366     41369     41371
     41368     41366     41369     41372     41369     41372     41375     41376
     41369     41372     41375     41377     41369     41372     41375     41378
     41370     41369     41372     41373     41370     41369     41372     41374
     41370     41369     41372     41375     41371     41369     41372     41373
     41371     41369     41372     41374     41371     41369     41372     41375
     41372     41375     41378     41379     41372     41375     41378     41380
     41372     41375     41378     41381     41373     41372     41375     41376
     41373     41372     41375     41377     41373     41372     41375     41378
     41374     41372     41375     41376     41374     41372     41375     41377
     41374     41372     41375     41378     41375     41378     41381     41382
     41375     41378     41381     41383     41375     41378     41381     41384
     41376     41375     41378     41379     41376     41375     41378     41380
     41376     41375     41378     41381     41377     41375     41378     41379
     41377     41375     41378     41380     41377     41375     41378     41381
     41378     41381     41384     41385     41378     41381     41384     41386
     41378     41381     41384     41387     41379     41378     41381     41382
     41379     41378     41381     41383     41379     41378     41381     41384
     41380     41378     41381     41382     41380     41378     41381     41383
     41380     41378     41381     41384     41381     41384     41387     41388
     41381     41384     41387     41389     41381     41384     41387     41390
     41382     41381     41384     41385     41382     41381     41384     41386
     41382     41381     41384     41387     41383     41381     41384     41385
     41383     41381     41384     41386     41383     41381     41384     41387
     41384     41387     41390     41391     41384     41387     41390     41392
     41384     41387     41390     41393     41385     41384     41387     41388
     41385     41384     41387     41389     41385     41384     41387     41390
     41386     41384     41387     41388     41386     41384     41387     41389
     41386     41384     41387     41390     41388     41387     41390     41391
     41388     41387     41390     41392     41388     41387     41390     41393
     41389     41387     41390     41391     41389     41387     41390     41392
     41389     41387     41390     41393     41394     41398     41401     41402
     41394     41398     41401     41403     41394     41398     41401     41408
     41395     41394     41398     41399     41395     41394     41398     41400
     41395     41394     41398     41401     41396     41394     41398     41399
     41396     41394     41398     41400     41396     41394     41398     41401
     41397     41394     41398     41399     41397     41394     41398     41400
     41397     41394     41398     41401     41398     41401     41408     41404
     41399     41398     41401     41402     41399     41398     41401     41403
     41399     41398     41401     41408     41400     41398     41401     41402
     41400     41398     41401     41403     41400     41398     41401     41408
     41401     41408     41404     41405     41401     41408     41404     41406
     41401     41408     41404     41407     41402     41401     41408     41404
     41403     41401     41408     41404     41404     41407     41409     41410
     41404     41407     41409     41411     41404     41407     41409     41412
     41405     41404     41407     41409     41406     41404     41407     41409
     41407     41409     41412     41413     41407     41409     41412     41414
     41407     41409     41412     41420     41408     41404     41407     41409
     41409     41412     41414     41415     41409     41412     41420     41421
     41409     41412     41420     41422     41409     41412     41420     41423
     41410     41409     41412     41413     41410     41409     41412     41414
     41410     41409     41412     41420     41411     41409     41412     41413
     41411     41409     41412     41414     41411     41409     41412     41420
     41412     41414     41415     41416     41412     41414     41415     41417
     41412     41420     41423     41424     41413     41412     41414     41415
     41413     41412     41420     41421     41413     41412     41420     41422
     41413     41412     41420     41423     41414     41412     41420     41421
     41414     41412     41420     41422     41414     41412     41420     41423
     41414     41415     41417     41418     41414     41415     41417     41419
     41414     41415     41417     41429     41415     41414     41412     41420
     41415     41417     41429     41430     41415     41417     41429     41431
     41415     41417     41429     41432     41416     41415     41417     41418
     41416     41415     41417     41419     41416     41415     41417     41429
     41417     41429     41432     41433     41417     41429     41432     41434
     41417     41429     41432     41435     41418     41417     41429     41430
     41418     41417     41429     41431     41418     41417     41429     41432
     41419     41417     41429     41430     41419     41417     41429     41431
     41419     41417     41429     41432     41420     41423     41424     41425
     41420     41423     41424     41426     41421     41420     41423     41424
     41422     41420     41423     41424     41423     41424     41426     41427
     41423     41424     41426     41428     41423     41424     41426     41470
     41424     41426     41470     41471     41424     41426     41470     41472
     41424     41426     41470     41473     41425     41424     41426     41427
     41425     41424     41426     41428     41425     41424     41426     41470
     41426     41470     41473     41474     41426     41470     41473     41475
     41426     41470     41473     41476     41427     41426     41470     41471
     41427     41426     41470     41472     41427     41426     41470     41473
     41428     41426     41470     41471     41428     41426     41470     41472
     41428     41426     41470     41473     41429     41432     41435     41436
     41429     41432     41435     41437     41429     41432     41435     41438
     41430     41429     41432     41433     41430     41429     41432     41434
     41430     41429     41432     41435     41431     41429     41432     41433
     41431     41429     41432     41434     41431     41429     41432     41435
     41432     41435     41438     41439     41432     41435     41438     41440
     41432     41435     41438     41441     41433     41432     41435     41436
     41433     41432     41435     41437     41433     41432     41435     41438
     41434     41432     41435     41436     41434     41432     41435     41437
     41434     41432     41435     41438     41435     41438     41441     41442
     41435     41438     41441     41443     41435     41438     41441     41444
     41436     41435     41438     41439     41436     41435     41438     41440
     41436     41435     41438     41441     41437     41435     41438     41439
     41437     41435     41438     41440     41437     41435     41438     41441
     41438     41441     41444     41445     41438     41441     41444     41446
     41438     41441     41444     41447     41439     41438     41441     41442
     41439     41438     41441     41443     41439     41438     41441     41444
     41440     41438     41441     41442     41440     41438     41441     41443
     41440     41438     41441     41444     41441     41444     41447     41448
     41441     41444     41447     41449     41442     41441     41444     41445
     41442     41441     41444     41446     41442     41441     41444     41447
     41443     41441     41444     41445     41443     41441     41444     41446
     41443     41441     41444     41447     41444     41447     41449     41450
     41444     41447     41449     41451     41445     41444     41447     41448
     41445     41444     41447     41449     41446     41444     41447     41448
     41446     41444     41447     41449     41447     41449     41451     41452
     41447     41449     41451     41453     41447     41449     41451     41454
     41448     41447     41449     41450     41448     41447     41449     41451
     41449     41451     41454     41455     41449     41451     41454     41456
     41449     41451     41454     41457     41450     41449     41451     41452
     41450     41449     41451     41453     41450     41449     41451     41454
     41451     41454     41457     41458     41451     41454     41457     41459
     41451     41454     41457     41460     41452     41451     41454     41455
     41452     41451     41454     41456     41452     41451     41454     41457
     41453     41451     41454     41455     41453     41451     41454     41456
     41453     41451     41454     41457     41454     41457     41460     41461
     41454     41457     41460     41462     41454     41457     41460     41463
     41455     41454     41457     41458     41455     41454     41457     41459
     41455     41454     41457     41460     41456     41454     41457     41458
     41456     41454     41457     41459     41456     41454     41457     41460
     41457     41460     41463     41464     41457     41460     41463     41465
     41457     41460     41463     41466     41458     41457     41460     41461
     41458     41457     41460     41462     41458     41457     41460     41463
     41459     41457     41460     41461     41459     41457     41460     41462
     41459     41457     41460     41463     41460     41463     41466     41467
     41460     41463     41466     41468     41460     41463     41466     41469
     41461     41460     41463     41464     41461     41460     41463     41465
     41461     41460     41463     41466     41462     41460     41463     41464
     41462     41460     41463     41465     41462     41460     41463     41466
     41464     41463     41466     41467     41464     41463     41466     41468
     41464     41463     41466     41469     41465     41463     41466     41467
     41465     41463     41466     41468     41465     41463     41466     41469
     41470     41473     41476     41477     41470     41473     41476     41478
     41470     41473     41476     41479     41471     41470     41473     41474
     41471     41470     41473     41475     41471     41470     41473     41476
     41472     41470     41473     41474     41472     41470     41473     41475
     41472     41470     41473     41476     41473     41476     41479     41480
     41473     41476     41479     41481     41473     41476     41479     41482
     41474     41473     41476     41477     41474     41473     41476     41478
     41474     41473     41476     41479     41475     41473     41476     41477
     41475     41473     41476     41478     41475     41473     41476     41479
     41476     41479     41482     41483     41476     41479     41482     41484
     41476     41479     41482     41485     41477     41476     41479     41480
     41477     41476     41479     41481     41477     41476     41479     41482
     41478     41476     41479     41480     41478     41476     41479     41481
     41478     41476     41479     41482     41479     41482     41485     41486
     41479     41482     41485     41487     41479     41482     41485     41488
     41480     41479     41482     41483     41480     41479     41482     41484
     41480     41479     41482     41485     41481     41479     41482     41483
     41481     41479     41482     41484     41481     41479     41482     41485
     41482     41485     41488     41489     41482     41485     41488     41490
     41483     41482     41485     41486     41483     41482     41485     41487
     41483     41482     41485     41488     41484     41482     41485     41486
     41484     41482     41485     41487     41484     41482     41485     41488
     41485     41488     41490     41491     41485     41488     41490     41492
     41486     41485     41488     41489     41486     41485     41488     41490
     41487     41485     41488     41489     41487     41485     41488     41490
     41488     41490     41492     41493     41488     41490     41492     41494
     41488     41490     41492     41495     41489     41488     41490     41491
     41489     41488     41490     41492     41490     41492     41495     41496
     41490     41492     41495     41497     41490     41492     41495     41498
     41491     41490     41492     41493     41491     41490     41492     41494
     41491     41490     41492     41495     41492     41495     41498     41499
     41492     41495     41498     41500     41492     41495     41498     41501
     41493     41492     41495     41496     41493     41492     41495     41497
     41493     41492     41495     41498     41494     41492     41495     41496
     41494     41492     41495     41497     41494     41492     41495     41498
     41495     41498     41501     41502     41495     41498     41501     41503
     41495     41498     41501     41504     41496     41495     41498     41499
     41496     41495     41498     41500     41496     41495     41498     41501
     41497     41495     41498     41499     41497     41495     41498     41500
     41497     41495     41498     41501     41498     41501     41504     41505
     41498     41501     41504     41506     41498     41501     41504     41507
     41499     41498     41501     41502     41499     41498     41501     41503
     41499     41498     41501     41504     41500     41498     41501     41502
     41500     41498     41501     41503     41500     41498     41501     41504
     41501     41504     41507     41508     41501     41504     41507     41509
     41501     41504     41507     41510     41502     41501     41504     41505
     41502     41501     41504     41506     41502     41501     41504     41507
     41503     41501     41504     41505     41503     41501     41504     41506
     41503     41501     41504     41507     41504     41507     41510     41511
     41504     41507     41510     41512     41504     41507     41510     41513
     41505     41504     41507     41508     41505     41504     41507     41509
     41505     41504     41507     41510     41506     41504     41507     41508
     41506     41504     41507     41509     41506     41504     41507     41510
     41507     41510     41513     41514     41507     41510     41513     41515
     41507     41510     41513     41516     41508     41507     41510     41511
     41508     41507     41510     41512     41508     41507     41510     41513
     41509     41507     41510     41511     41509     41507     41510     41512
     41509     41507     41510     41513     41511     41510     41513     41514
     41511     41510     41513     41515     41511     41510     41513     41516
     41512     41510     41513     41514     41512     41510     41513     41515
     41512     41510     41513     41516     41517     41522     41524     41525
     41517     41522     41526     41527     41517     41522     41526     41528
     41517     41522     41526     41533     41518     41517     41520     41521
     41518     41517     41522     41523     41518     41517     41522     41524
     41518     41517     41522     41526     41519     41517     41520     41521
     41519     41517     41522     41523     41519     41517     41522     41524
     41519     41517     41522     41526     41520     41517     41522     41523
     41520     41517     41522     41524     41520     41517     41522     41526
     41521     41520     41517     41522     41522     41526     41533     41529
     41523     41522     41524     41525     41523     41522     41526     41527
     41523     41522     41526     41528     41523     41522     41526     41533
     41524     41522     41526     41527     41524     41522     41526     41528
     41524     41522     41526     41533     41525     41524     41522     41526
     41526     41533     41529     41530     41526     41533     41529     41531
     41526     41533     41529     41532     41527     41526     41533     41529
     41528     41526     41533     41529     41529     41532     41534     41535
     41529     41532     41534     41536     41529     41532     41534     41537
     41530     41529     41532     41534     41531     41529     41532     41534
     41532     41534     41537     41538     41532     41534     41537     41539
     41532     41534     41537     41545     41533     41529     41532     41534
     41534     41537     41539     41540     41534     41537     41545     41546
     41534     41537     41545     41547     41534     41537     41545     41548
     41535     41534     41537     41538     41535     41534     41537     41539
     41535     41534     41537     41545     41536     41534     41537     41538
     41536     41534     41537     41539     41536     41534     41537     41545
     41537     41539     41540     41541     41537     41539     41540     41542
     41537     41545     41548     41549     41538     41537     41539     41540
     41538     41537     41545     41546     41538     41537     41545     41547
     41538     41537     41545     41548     41539     41537     41545     41546
     41539     41537     41545     41547     41539     41537     41545     41548
     41539     41540     41542     41543     41539     41540     41542     41544
     41539     41540     41542     41554     41540     41539     41537     41545
     41540     41542     41554     41555     41540     41542     41554     41556
     41540     41542     41554     41557     41541     41540     41542     41543
     41541     41540     41542     41544     41541     41540     41542     41554
     41542     41554     41557     41558     41542     41554     41557     41559
     41542     41554     41557     41560     41543     41542     41554     41555
     41543     41542     41554     41556     41543     41542     41554     41557
     41544     41542     41554     41555     41544     41542     41554     41556
     41544     41542     41554     41557     41545     41548     41549     41550
     41545     41548     41549     41551     41546     41545     41548     41549
     41547     41545     41548     41549     41548     41549     41551     41552
     41548     41549     41551     41553     41548     41549     41551     41598
     41549     41551     41598     41599     41549     41551     41598     41600
     41549     41551     41598     41601     41550     41549     41551     41552
     41550     41549     41551     41553     41550     41549     41551     41598
     41551     41598     41601     41602     41551     41598     41601     41603
     41551     41598     41601     41604     41552     41551     41598     41599
     41552     41551     41598     41600     41552     41551     41598     41601
     41553     41551     41598     41599     41553     41551     41598     41600
     41553     41551     41598     41601     41554     41557     41560     41561
     41554     41557     41560     41562     41554     41557     41560     41563
     41555     41554     41557     41558     41555     41554     41557     41559
     41555     41554     41557     41560     41556     41554     41557     41558
     41556     41554     41557     41559     41556     41554     41557     41560
     41557     41560     41563     41564     41557     41560     41563     41565
     41557     41560     41563     41566     41558     41557     41560     41561
     41558     41557     41560     41562     41558     41557     41560     41563
     41559     41557     41560     41561     41559     41557     41560     41562
     41559     41557     41560     41563     41560     41563     41566     41567
     41560     41563     41566     41568     41560     41563     41566     41569
     41561     41560     41563     41564     41561     41560     41563     41565
     41561     41560     41563     41566     41562     41560     41563     41564
     41562     41560     41563     41565     41562     41560     41563     41566
     41563     41566     41569     41570     41563     41566     41569     41571
     41563     41566     41569     41572     41564     41563     41566     41567
     41564     41563     41566     41568     41564     41563     41566     41569
     41565     41563     41566     41567     41565     41563     41566     41568
     41565     41563     41566     41569     41566     41569     41572     41573
     41566     41569     41572     41574     41566     41569     41572     41577
     41567     41566     41569     41570     41567     41566     41569     41571
     41567     41566     41569     41572     41568     41566     41569     41570
     41568     41566     41569     41571     41568     41566     41569     41572
     41569     41572     41574     41575     41569     41572     41574     41576
     41569     41572     41574     41577     41569     41572     41577     41574
     41569     41572     41577     41578     41569     41572     41577     41579
     41570     41569     41572     41573     41570     41569     41572     41574
     41570     41569     41572     41577     41571     41569     41572     41573
     41571     41569     41572     41574     41571     41569     41572     41577
     41572     41574     41577     41578     41572     41574     41577     41579
     41572     41577     41574     41575     41572     41577     41574     41576
     41572     41577     41579     41580     41572     41577     41579     41581
     41572     41577     41579     41582     41573     41572     41574     41575
     41573     41572     41574     41576     41573     41572     41574     41577
     41573     41572     41577     41574     41573     41572     41577     41578
     41573     41572     41577     41579     41574     41572     41577     41578
     41574     41572     41577     41579     41574     41577     41579     41580
     41574     41577     41579     41581     41574     41577     41579     41582
     41575     41574     41572     41577     41575     41574     41577     41578
     41575     41574     41577     41579     41576     41574     41572     41577
     41576     41574     41577     41578     41576     41574     41577     41579
     41577     41579     41582     41583     41577     41579     41582     41584
     41577     41579     41582     41585     41578     41577     41579     41580
     41578     41577     41579     41581     41578     41577     41579     41582
     41579     41582     41585     41586     41579     41582     41585     41587
     41579     41582     41585     41588     41580     41579     41582     41583
     41580     41579     41582     41584     41580     41579     41582     41585
     41581     41579     41582     41583     41581     41579     41582     41584
     41581     41579     41582     41585     41582     41585     41588     41589
     41582     41585     41588     41590     41582     41585     41588     41591
     41583     41582     41585     41586     41583     41582     41585     41587
     41583     41582     41585     41588     41584     41582     41585     41586
     41584     41582     41585     41587     41584     41582     41585     41588
     41585     41588     41591     41592     41585     41588     41591     41593
     41585     41588     41591     41594     41586     41585     41588     41589
     41586     41585     41588     41590     41586     41585     41588     41591
     41587     41585     41588     41589     41587     41585     41588     41590
     41587     41585     41588     41591     41588     41591     41594     41595
     41588     41591     41594     41596     41588     41591     41594     41597
     41589     41588     41591     41592     41589     41588     41591     41593
     41589     41588     41591     41594     41590     41588     41591     41592
     41590     41588     41591     41593     41590     41588     41591     41594
     41592     41591     41594     41595     41592     41591     41594     41596
     41592     41591     41594     41597     41593     41591     41594     41595
     41593     41591     41594     41596     41593     41591     41594     41597
     41598     41601     41604     41605     41598     41601     41604     41606
     41598     41601     41604     41607     41599     41598     41601     41602
     41599     41598     41601     41603     41599     41598     41601     41604
     41600     41598     41601     41602     41600     41598     41601     41603
     41600     41598     41601     41604     41601     41604     41607     41608
     41601     41604     41607     41609     41601     41604     41607     41610
     41602     41601     41604     41605     41602     41601     41604     41606
     41602     41601     41604     41607     41603     41601     41604     41605
     41603     41601     41604     41606     41603     41601     41604     41607
     41604     41607     41610     41611     41604     41607     41610     41612
     41604     41607     41610     41613     41605     41604     41607     41608
     41605     41604     41607     41609     41605     41604     41607     41610
     41606     41604     41607     41608     41606     41604     41607     41609
     41606     41604     41607     41610     41607     41610     41613     41614
     41607     41610     41613     41615     41607     41610     41613     41616
     41608     41607     41610     41611     41608     41607     41610     41612
     41608     41607     41610     41613     41609     41607     41610     41611
     41609     41607     41610     41612     41609     41607     41610     41613
     41610     41613     41616     41617     41610     41613     41616     41618
     41610     41613     41616     41619     41611     41610     41613     41614
     41611     41610     41613     41615     41611     41610     41613     41616
     41612     41610     41613     41614     41612     41610     41613     41615
     41612     41610     41613     41616     41613     41616     41619     41620
     41613     41616     41619     41621     41613     41616     41619     41622
     41614     41613     41616     41617     41614     41613     41616     41618
     41614     41613     41616     41619     41615     41613     41616     41617
     41615     41613     41616     41618     41615     41613     41616     41619
     41616     41619     41622     41623     41616     41619     41622     41624
     41616     41619     41622     41625     41617     41616     41619     41620
     41617     41616     41619     41621     41617     41616     41619     41622
     41618     41616     41619     41620     41618     41616     41619     41621
     41618     41616     41619     41622     41619     41622     41625     41626
     41619     41622     41625     41627     41619     41622     41625     41628
     41620     41619     41622     41623     41620     41619     41622     41624
     41620     41619     41622     41625     41621     41619     41622     41623
     41621     41619     41622     41624     41621     41619     41622     41625
     41622     41625     41628     41629     41622     41625     41628     41630
     41622     41625     41628     41631     41623     41622     41625     41626
     41623     41622     41625     41627     41623     41622     41625     41628
     41624     41622     41625     41626     41624     41622     41625     41627
     41624     41622     41625     41628     41625     41628     41631     41632
     41625     41628     41631     41633     41625     41628     41631     41634
     41626     41625     41628     41629     41626     41625     41628     41630
     41626     41625     41628     41631     41627     41625     41628     41629
     41627     41625     41628     41630     41627     41625     41628     41631
     41628     41631     41634     41635     41628     41631     41634     41636
     41628     41631     41634     41637     41629     41628     41631     41632
     41629     41628     41631     41633     41629     41628     41631     41634
     41630     41628     41631     41632     41630     41628     41631     41633
     41630     41628     41631     41634     41631     41634     41637     41638
     41631     41634     41637     41639     41631     41634     41637     41640
     41632     41631     41634     41635     41632     41631     41634     41636
     41632     41631     41634     41637     41633     41631     41634     41635
     41633     41631     41634     41636     41633     41631     41634     41637
     41635     41634     41637     41638     41635     41634     41637     41639
     41635     41634     41637     41640     41636     41634     41637     41638
     41636     41634     41637     41639     41636     41634     41637     41640
     41641     41645     41648     41649     41641     41645     41648     41650
     41641     41645     41648     41655     41642     41641     41645     41646
     41642     41641     41645     41647     41642     41641     41645     41648
     41643     41641     41645     41646     41643     41641     41645     41647
     41643     41641     41645     41648     41644     41641     41645     41646
     41644     41641     41645     41647     41644     41641     41645     41648
     41645     41648     41655     41651     41646     41645     41648     41649
     41646     41645     41648     41650     41646     41645     41648     41655
     41647     41645     41648     41649     41647     41645     41648     41650
     41647     41645     41648     41655     41648     41655     41651     41652
     41648     41655     41651     41653     41648     41655     41651     41654
     41649     41648     41655     41651     41650     41648     41655     41651
     41651     41654     41656     41657     41651     41654     41656     41658
     41651     41654     41656     41659     41652     41651     41654     41656
     41653     41651     41654     41656     41654     41656     41659     41660
     41654     41656     41659     41661     41654     41656     41659     41667
     41655     41651     41654     41656     41656     41659     41661     41662
     41656     41659     41667     41668     41656     41659     41667     41669
     41656     41659     41667     41670     41657     41656     41659     41660
     41657     41656     41659     41661     41657     41656     41659     41667
     41658     41656     41659     41660     41658     41656     41659     41661
     41658     41656     41659     41667     41659     41661     41662     41663
     41659     41661     41662     41664     41659     41667     41670     41671
     41660     41659     41661     41662     41660     41659     41667     41668
     41660     41659     41667     41669     41660     41659     41667     41670
     41661     41659     41667     41668     41661     41659     41667     41669
     41661     41659     41667     41670     41661     41662     41664     41665
     41661     41662     41664     41666     41661     41662     41664     41676
     41662     41661     41659     41667     41662     41664     41676     41677
     41662     41664     41676     41678     41662     41664     41676     41679
     41663     41662     41664     41665     41663     41662     41664     41666
     41663     41662     41664     41676     41664     41676     41679     41680
     41664     41676     41679     41681     41664     41676     41679     41682
     41665     41664     41676     41677     41665     41664     41676     41678
     41665     41664     41676     41679     41666     41664     41676     41677
     41666     41664     41676     41678     41666     41664     41676     41679
     41667     41670     41671     41672     41667     41670     41671     41673
     41668     41667     41670     41671     41669     41667     41670     41671
     41670     41671     41673     41674     41670     41671     41673     41675
     41670     41671     41673     41720     41671     41673     41720     41721
     41671     41673     41720     41722     41671     41673     41720     41723
     41672     41671     41673     41674     41672     41671     41673     41675
     41672     41671     41673     41720     41673     41720     41723     41724
     41673     41720     41723     41725     41673     41720     41723     41726
     41674     41673     41720     41721     41674     41673     41720     41722
     41674     41673     41720     41723     41675     41673     41720     41721
     41675     41673     41720     41722     41675     41673     41720     41723
     41676     41679     41682     41683     41676     41679     41682     41684
     41676     41679     41682     41685     41677     41676     41679     41680
     41677     41676     41679     41681     41677     41676     41679     41682
     41678     41676     41679     41680     41678     41676     41679     41681
     41678     41676     41679     41682     41679     41682     41685     41686
     41679     41682     41685     41687     41679     41682     41685     41688
     41680     41679     41682     41683     41680     41679     41682     41684
     41680     41679     41682     41685     41681     41679     41682     41683
     41681     41679     41682     41684     41681     41679     41682     41685
     41682     41685     41688     41689     41682     41685     41688     41690
     41682     41685     41688     41691     41683     41682     41685     41686
     41683     41682     41685     41687     41683     41682     41685     41688
     41684     41682     41685     41686     41684     41682     41685     41687
     41684     41682     41685     41688     41685     41688     41691     41692
     41685     41688     41691     41693     41685     41688     41691     41694
     41686     41685     41688     41689     41686     41685     41688     41690
     41686     41685     41688     41691     41687     41685     41688     41689
     41687     41685     41688     41690     41687     41685     41688     41691
     41688     41691     41694     41695     41688     41691     41694     41696
     41688     41691     41694     41699     41689     41688     41691     41692
     41689     41688     41691     41693     41689     41688     41691     41694
     41690     41688     41691     41692     41690     41688     41691     41693
     41690     41688     41691     41694     41691     41694     41696     41697
     41691     41694     41696     41698     41691     41694     41696     41699
     41691     41694     41699     41696     41691     41694     41699     41700
     41691     41694     41699     41701     41692     41691     41694     41695
     41692     41691     41694     41696     41692     41691     41694     41699
     41693     41691     41694     41695     41693     41691     41694     41696
     41693     41691     41694     41699     41694     41696     41699     41700
     41694     41696     41699     41701     41694     41699     41696     41697
     41694     41699     41696     41698     41694     41699     41701     41702
     41694     41699     41701     41703     41694     41699     41701     41704
     41695     41694     41696     41697     41695     41694     41696     41698
     41695     41694     41696     41699     41695     41694     41699     41696
     41695     41694     41699     41700     41695     41694     41699     41701
     41696     41694     41699     41700     41696     41694     41699     41701
     41696     41699     41701     41702     41696     41699     41701     41703
     41696     41699     41701     41704     41697     41696     41694     41699
     41697     41696     41699     41700     41697     41696     41699     41701
     41698     41696     41694     41699     41698     41696     41699     41700
     41698     41696     41699     41701     41699     41701     41704     41705
     41699     41701     41704     41706     41699     41701     41704     41707
     41700     41699     41701     41702     41700     41699     41701     41703
     41700     41699     41701     41704     41701     41704     41707     41708
     41701     41704     41707     41709     41701     41704     41707     41710
     41702     41701     41704     41705     41702     41701     41704     41706
     41702     41701     41704     41707     41703     41701     41704     41705
     41703     41701     41704     41706     41703     41701     41704     41707
     41704     41707     41710     41711     41704     41707     41710     41712
     41704     41707     41710     41713     41705     41704     41707     41708
     41705     41704     41707     41709     41705     41704     41707     41710
     41706     41704     41707     41708     41706     41704     41707     41709
     41706     41704     41707     41710     41707     41710     41713     41714
     41707     41710     41713     41715     41707     41710     41713     41716
     41708     41707     41710     41711     41708     41707     41710     41712
     41708     41707     41710     41713     41709     41707     41710     41711
     41709     41707     41710     41712     41709     41707     41710     41713
     41710     41713     41716     41717     41710     41713     41716     41718
     41710     41713     41716     41719     41711     41710     41713     41714
     41711     41710     41713     41715     41711     41710     41713     41716
     41712     41710     41713     41714     41712     41710     41713     41715
     41712     41710     41713     41716     41714     41713     41716     41717
     41714     41713     41716     41718     41714     41713     41716     41719
     41715     41713     41716     41717     41715     41713     41716     41718
     41715     41713     41716     41719     41720     41723     41726     41727
     41720     41723     41726     41728     41720     41723     41726     41729
     41721     41720     41723     41724     41721     41720     41723     41725
     41721     41720     41723     41726     41722     41720     41723     41724
     41722     41720     41723     41725     41722     41720     41723     41726
     41723     41726     41729     41730     41723     41726     41729     41731
     41723     41726     41729     41732     41724     41723     41726     41727
     41724     41723     41726     41728     41724     41723     41726     41729
     41725     41723     41726     41727     41725     41723     41726     41728
     41725     41723     41726     41729     41726     41729     41732     41733
     41726     41729     41732     41734     41726     41729     41732     41735
     41727     41726     41729     41730     41727     41726     41729     41731
     41727     41726     41729     41732     41728     41726     41729     41730
     41728     41726     41729     41731     41728     41726     41729     41732
     41729     41732     41735     41736     41729     41732     41735     41737
     41729     41732     41735     41738     41730     41729     41732     41733
     41730     41729     41732     41734     41730     41729     41732     41735
     41731     41729     41732     41733     41731     41729     41732     41734
     41731     41729     41732     41735     41732     41735     41738     41739
     41732     41735     41738     41740     41732     41735     41738     41741
     41733     41732     41735     41736     41733     41732     41735     41737
     41733     41732     41735     41738     41734     41732     41735     41736
     41734     41732     41735     41737     41734     41732     41735     41738
     41735     41738     41741     41742     41735     41738     41741     41743
     41735     41738     41741     41744     41736     41735     41738     41739
     41736     41735     41738     41740     41736     41735     41738     41741
     41737     41735     41738     41739     41737     41735     41738     41740
     41737     41735     41738     41741     41738     41741     41744     41745
     41738     41741     41744     41746     41738     41741     41744     41747
     41739     41738     41741     41742     41739     41738     41741     41743
     41739     41738     41741     41744     41740     41738     41741     41742
     41740     41738     41741     41743     41740     41738     41741     41744
     41741     41744     41747     41748     41741     41744     41747     41749
     41741     41744     41747     41750     41742     41741     41744     41745
     41742     41741     41744     41746     41742     41741     41744     41747
     41743     41741     41744     41745     41743     41741     41744     41746
     41743     41741     41744     41747     41744     41747     41750     41751
     41744     41747     41750     41752     41744     41747     41750     41753
     41745     41744     41747     41748     41745     41744     41747     41749
     41745     41744     41747     41750     41746     41744     41747     41748
     41746     41744     41747     41749     41746     41744     41747     41750
     41747     41750     41753     41754     41747     41750     41753     41755
     41747     41750     41753     41756     41748     41747     41750     41751
     41748     41747     41750     41752     41748     41747     41750     41753
     41749     41747     41750     41751     41749     41747     41750     41752
     41749     41747     41750     41753     41750     41753     41756     41757
     41750     41753     41756     41758     41750     41753     41756     41759
     41751     41750     41753     41754     41751     41750     41753     41755
     41751     41750     41753     41756     41752     41750     41753     41754
     41752     41750     41753     41755     41752     41750     41753     41756
     41754     41753     41756     41757     41754     41753     41756     41758
     41754     41753     41756     41759     41755     41753     41756     41757
     41755     41753     41756     41758     41755     41753     41756     41759
     41760     41764     41767     41768     41760     41764     41767     41769
     41760     41764     41767     41774     41761     41760     41764     41765
     41761     41760     41764     41766     41761     41760     41764     41767
     41762     41760     41764     41765     41762     41760     41764     41766
     41762     41760     41764     41767     41763     41760     41764     41765
     41763     41760     41764     41766     41763     41760     41764     41767
     41764     41767     41774     41770     41765     41764     41767     41768
     41765     41764     41767     41769     41765     41764     41767     41774
     41766     41764     41767     41768     41766     41764     41767     41769
     41766     41764     41767     41774     41767     41774     41770     41771
     41767     41774     41770     41772     41767     41774     41770     41773
     41768     41767     41774     41770     41769     41767     41774     41770
     41770     41773     41775     41776     41770     41773     41775     41777
     41770     41773     41775     41778     41771     41770     41773     41775
     41772     41770     41773     41775     41773     41775     41778     41779
     41773     41775     41778     41780     41773     41775     41778     41786
     41774     41770     41773     41775     41775     41778     41780     41781
     41775     41778     41786     41787     41775     41778     41786     41788
     41775     41778     41786     41789     41776     41775     41778     41779
     41776     41775     41778     41780     41776     41775     41778     41786
     41777     41775     41778     41779     41777     41775     41778     41780
     41777     41775     41778     41786     41778     41780     41781     41782
     41778     41780     41781     41783     41778     41786     41789     41790
     41779     41778     41780     41781     41779     41778     41786     41787
     41779     41778     41786     41788     41779     41778     41786     41789
     41780     41778     41786     41787     41780     41778     41786     41788
     41780     41778     41786     41789     41780     41781     41783     41784
     41780     41781     41783     41785     41780     41781     41783     41795
     41781     41780     41778     41786     41781     41783     41795     41796
     41781     41783     41795     41797     41781     41783     41795     41798
     41782     41781     41783     41784     41782     41781     41783     41785
     41782     41781     41783     41795     41783     41795     41798     41799
     41783     41795     41798     41800     41783     41795     41798     41801
     41784     41783     41795     41796     41784     41783     41795     41797
     41784     41783     41795     41798     41785     41783     41795     41796
     41785     41783     41795     41797     41785     41783     41795     41798
     41786     41789     41790     41791     41786     41789     41790     41792
     41787     41786     41789     41790     41788     41786     41789     41790
     41789     41790     41792     41793     41789     41790     41792     41794
     41789     41790     41792     41839     41790     41792     41839     41840
     41790     41792     41839     41841     41790     41792     41839     41842
     41791     41790     41792     41793     41791     41790     41792     41794
     41791     41790     41792     41839     41792     41839     41842     41843
     41792     41839     41842     41844     41792     41839     41842     41845
     41793     41792     41839     41840     41793     41792     41839     41841
     41793     41792     41839     41842     41794     41792     41839     41840
     41794     41792     41839     41841     41794     41792     41839     41842
     41795     41798     41801     41802     41795     41798     41801     41803
     41795     41798     41801     41804     41796     41795     41798     41799
     41796     41795     41798     41800     41796     41795     41798     41801
     41797     41795     41798     41799     41797     41795     41798     41800
     41797     41795     41798     41801     41798     41801     41804     41805
     41798     41801     41804     41806     41798     41801     41804     41807
     41799     41798     41801     41802     41799     41798     41801     41803
     41799     41798     41801     41804     41800     41798     41801     41802
     41800     41798     41801     41803     41800     41798     41801     41804
     41801     41804     41807     41808     41801     41804     41807     41809
     41801     41804     41807     41810     41802     41801     41804     41805
     41802     41801     41804     41806     41802     41801     41804     41807
     41803     41801     41804     41805     41803     41801     41804     41806
     41803     41801     41804     41807     41804     41807     41810     41811
     41804     41807     41810     41812     41804     41807     41810     41813
     41805     41804     41807     41808     41805     41804     41807     41809
     41805     41804     41807     41810     41806     41804     41807     41808
     41806     41804     41807     41809     41806     41804     41807     41810
     41807     41810     41813     41814     41807     41810     41813     41815
     41807     41810     41813     41818     41808     41807     41810     41811
     41808     41807     41810     41812     41808     41807     41810     41813
     41809     41807     41810     41811     41809     41807     41810     41812
     41809     41807     41810     41813     41810     41813     41815     41816
     41810     41813     41815     41817     41810     41813     41815     41818
     41810     41813     41818     41815     41810     41813     41818     41819
     41810     41813     41818     41820     41811     41810     41813     41814
     41811     41810     41813     41815     41811     41810     41813     41818
     41812     41810     41813     41814     41812     41810     41813     41815
     41812     41810     41813     41818     41813     41815     41818     41819
     41813     41815     41818     41820     41813     41818     41815     41816
     41813     41818     41815     41817     41813     41818     41820     41821
     41813     41818     41820     41822     41813     41818     41820     41823
     41814     41813     41815     41816     41814     41813     41815     41817
     41814     41813     41815     41818     41814     41813     41818     41815
     41814     41813     41818     41819     41814     41813     41818     41820
     41815     41813     41818     41819     41815     41813     41818     41820
     41815     41818     41820     41821     41815     41818     41820     41822
     41815     41818     41820     41823     41816     41815     41813     41818
     41816     41815     41818     41819     41816     41815     41818     41820
     41817     41815     41813     41818     41817     41815     41818     41819
     41817     41815     41818     41820     41818     41820     41823     41824
     41818     41820     41823     41825     41818     41820     41823     41826
     41819     41818     41820     41821     41819     41818     41820     41822
     41819     41818     41820     41823     41820     41823     41826     41827
     41820     41823     41826     41828     41820     41823     41826     41829
     41821     41820     41823     41824     41821     41820     41823     41825
     41821     41820     41823     41826     41822     41820     41823     41824
     41822     41820     41823     41825     41822     41820     41823     41826
     41823     41826     41829     41830     41823     41826     41829     41831
     41823     41826     41829     41832     41824     41823     41826     41827
     41824     41823     41826     41828     41824     41823     41826     41829
     41825     41823     41826     41827     41825     41823     41826     41828
     41825     41823     41826     41829     41826     41829     41832     41833
     41826     41829     41832     41834     41826     41829     41832     41835
     41827     41826     41829     41830     41827     41826     41829     41831
     41827     41826     41829     41832     41828     41826     41829     41830
     41828     41826     41829     41831     41828     41826     41829     41832
     41829     41832     41835     41836     41829     41832     41835     41837
     41829     41832     41835     41838     41830     41829     41832     41833
     41830     41829     41832     41834     41830     41829     41832     41835
     41831     41829     41832     41833     41831     41829     41832     41834
     41831     41829     41832     41835     41833     41832     41835     41836
     41833     41832     41835     41837     41833     41832     41835     41838
     41834     41832     41835     41836     41834     41832     41835     41837
     41834     41832     41835     41838     41839     41842     41845     41846
     41839     41842     41845     41847     41839     41842     41845     41848
     41840     41839     41842     41843     41840     41839     41842     41844
     41840     41839     41842     41845     41841     41839     41842     41843
     41841     41839     41842     41844     41841     41839     41842     41845
     41842     41845     41848     41849     41842     41845     41848     41850
     41842     41845     41848     41851     41843     41842     41845     41846
     41843     41842     41845     41847     41843     41842     41845     41848
     41844     41842     41845     41846     41844     41842     41845     41847
     41844     41842     41845     41848     41845     41848     41851     41852
     41845     41848     41851     41853     41845     41848     41851     41854
     41846     41845     41848     41849     41846     41845     41848     41850
     41846     41845     41848     41851     41847     41845     41848     41849
     41847     41845     41848     41850     41847     41845     41848     41851
     41848     41851     41854     41855     41848     41851     41854     41856
     41848     41851     41854     41857     41849     41848     41851     41852
     41849     41848     41851     41853     41849     41848     41851     41854
     41850     41848     41851     41852     41850     41848     41851     41853
     41850     41848     41851     41854     41851     41854     41857     41858
     41851     41854     41857     41859     41851     41854     41857     41860
     41852     41851     41854     41855     41852     41851     41854     41856
     41852     41851     41854     41857     41853     41851     41854     41855
     41853     41851     41854     41856     41853     41851     41854     41857
     41854     41857     41860     41861     41854     41857     41860     41862
     41854     41857     41860     41863     41855     41854     41857     41858
     41855     41854     41857     41859     41855     41854     41857     41860
     41856     41854     41857     41858     41856     41854     41857     41859
     41856     41854     41857     41860     41857     41860     41863     41864
     41857     41860     41863     41865     41857     41860     41863     41866
     41858     41857     41860     41861     41858     41857     41860     41862
     41858     41857     41860     41863     41859     41857     41860     41861
     41859     41857     41860     41862     41859     41857     41860     41863
     41860     41863     41866     41867     41860     41863     41866     41868
     41860     41863     41866     41869     41861     41860     41863     41864
     41861     41860     41863     41865     41861     41860     41863     41866
     41862     41860     41863     41864     41862     41860     41863     41865
     41862     41860     41863     41866     41863     41866     41869     41870
     41863     41866     41869     41871     41863     41866     41869     41872
     41864     41863     41866     41867     41864     41863     41866     41868
     41864     41863     41866     41869     41865     41863     41866     41867
     41865     41863     41866     41868     41865     41863     41866     41869
     41866     41869     41872     41873     41866     41869     41872     41874
     41866     41869     41872     41875     41867     41866     41869     41870
     41867     41866     41869     41871     41867     41866     41869     41872
     41868     41866     41869     41870     41868     41866     41869     41871
     41868     41866     41869     41872     41869     41872     41875     41876
     41869     41872     41875     41877     41869     41872     41875     41878
     41870     41869     41872     41873     41870     41869     41872     41874
     41870     41869     41872     41875     41871     41869     41872     41873
     41871     41869     41872     41874     41871     41869     41872     41875
     41872     41875     41878     41879     41872     41875     41878     41880
     41872     41875     41878     41881     41873     41872     41875     41876
     41873     41872     41875     41877     41873     41872     41875     41878
     41874     41872     41875     41876     41874     41872     41875     41877
     41874     41872     41875     41878     41876     41875     41878     41879
     41876     41875     41878     41880     41876     41875     41878     41881
     41877     41875     41878     41879     41877     41875     41878     41880
     41877     41875     41878     41881     41882     41886     41889     41890
     41882     41886     41889     41891     41882     41886     41889     41896
     41883     41882     41886     41887     41883     41882     41886     41888
     41883     41882     41886     41889     41884     41882     41886     41887
     41884     41882     41886     41888     41884     41882     41886     41889
     41885     41882     41886     41887     41885     41882     41886     41888
     41885     41882     41886     41889     41886     41889     41896     41892
     41887     41886     41889     41890     41887     41886     41889     41891
     41887     41886     41889     41896     41888     41886     41889     41890
     41888     41886     41889     41891     41888     41886     41889     41896
     41889     41896     41892     41893     41889     41896     41892     41894
     41889     41896     41892     41895     41890     41889     41896     41892
     41891     41889     41896     41892     41892     41895     41897     41898
     41892     41895     41897     41899     41892     41895     41897     41900
     41893     41892     41895     41897     41894     41892     41895     41897
     41895     41897     41900     41901     41895     41897     41900     41902
     41895     41897     41900     41908     41896     41892     41895     41897
     41897     41900     41902     41903     41897     41900     41908     41909
     41897     41900     41908     41910     41897     41900     41908     41911
     41898     41897     41900     41901     41898     41897     41900     41902
     41898     41897     41900     41908     41899     41897     41900     41901
     41899     41897     41900     41902     41899     41897     41900     41908
     41900     41902     41903     41904     41900     41902     41903     41905
     41900     41908     41911     41912     41901     41900     41902     41903
     41901     41900     41908     41909     41901     41900     41908     41910
     41901     41900     41908     41911     41902     41900     41908     41909
     41902     41900     41908     41910     41902     41900     41908     41911
     41902     41903     41905     41906     41902     41903     41905     41907
     41902     41903     41905     41917     41903     41902     41900     41908
     41903     41905     41917     41918     41903     41905     41917     41919
     41903     41905     41917     41920     41904     41903     41905     41906
     41904     41903     41905     41907     41904     41903     41905     41917
     41905     41917     41920     41921     41905     41917     41920     41922
     41905     41917     41920     41923     41906     41905     41917     41918
     41906     41905     41917     41919     41906     41905     41917     41920
     41907     41905     41917     41918     41907     41905     41917     41919
     41907     41905     41917     41920     41908     41911     41912     41913
     41908     41911     41912     41914     41909     41908     41911     41912
     41910     41908     41911     41912     41911     41912     41914     41915
     41911     41912     41914     41916     41911     41912     41914     41964
     41912     41914     41964     41965     41912     41914     41964     41966
     41912     41914     41964     41967     41913     41912     41914     41915
     41913     41912     41914     41916     41913     41912     41914     41964
     41914     41964     41967     41968     41914     41964     41967     41969
     41914     41964     41967     41970     41915     41914     41964     41965
     41915     41914     41964     41966     41915     41914     41964     41967
     41916     41914     41964     41965     41916     41914     41964     41966
     41916     41914     41964     41967     41917     41920     41923     41924
     41917     41920     41923     41925     41917     41920     41923     41926
     41918     41917     41920     41921     41918     41917     41920     41922
     41918     41917     41920     41923     41919     41917     41920     41921
     41919     41917     41920     41922     41919     41917     41920     41923
     41920     41923     41926     41927     41920     41923     41926     41928
     41920     41923     41926     41929     41921     41920     41923     41924
     41921     41920     41923     41925     41921     41920     41923     41926
     41922     41920     41923     41924     41922     41920     41923     41925
     41922     41920     41923     41926     41923     41926     41929     41930
     41923     41926     41929     41931     41923     41926     41929     41932
     41924     41923     41926     41927     41924     41923     41926     41928
     41924     41923     41926     41929     41925     41923     41926     41927
     41925     41923     41926     41928     41925     41923     41926     41929
     41926     41929     41932     41933     41926     41929     41932     41934
     41926     41929     41932     41935     41927     41926     41929     41930
     41927     41926     41929     41931     41927     41926     41929     41932
     41928     41926     41929     41930     41928     41926     41929     41931
     41928     41926     41929     41932     41929     41932     41935     41936
     41929     41932     41935     41937     41930     41929     41932     41933
     41930     41929     41932     41934     41930     41929     41932     41935
     41931     41929     41932     41933     41931     41929     41932     41934
     41931     41929     41932     41935     41932     41935     41937     41938
     41932     41935     41937     41939     41933     41932     41935     41936
     41933     41932     41935     41937     41934     41932     41935     41936
     41934     41932     41935     41937     41935     41937     41939     41940
     41935     41937     41939     41941     41935     41937     41939     41942
     41936     41935     41937     41938     41936     41935     41937     41939
     41937     41939     41942     41943     41937     41939     41942     41944
     41937     41939     41942     41945     41938     41937     41939     41940
     41938     41937     41939     41941     41938     41937     41939     41942
     41939     41942     41945     41946     41939     41942     41945     41947
     41939     41942     41945     41948     41940     41939     41942     41943
     41940     41939     41942     41944     41940     41939     41942     41945
     41941     41939     41942     41943     41941     41939     41942     41944
     41941     41939     41942     41945     41942     41945     41948     41949
     41942     41945     41948     41950     41942     41945     41948     41951
     41943     41942     41945     41946     41943     41942     41945     41947
     41943     41942     41945     41948     41944     41942     41945     41946
     41944     41942     41945     41947     41944     41942     41945     41948
     41945     41948     41951     41952     41945     41948     41951     41953
     41945     41948     41951     41954     41946     41945     41948     41949
     41946     41945     41948     41950     41946     41945     41948     41951
     41947     41945     41948     41949     41947     41945     41948     41950
     41947     41945     41948     41951     41948     41951     41954     41955
     41948     41951     41954     41956     41948     41951     41954     41957
     41949     41948     41951     41952     41949     41948     41951     41953
     41949     41948     41951     41954     41950     41948     41951     41952
     41950     41948     41951     41953     41950     41948     41951     41954
     41951     41954     41957     41958     41951     41954     41957     41959
     41951     41954     41957     41960     41952     41951     41954     41955
     41952     41951     41954     41956     41952     41951     41954     41957
     41953     41951     41954     41955     41953     41951     41954     41956
     41953     41951     41954     41957     41954     41957     41960     41961
     41954     41957     41960     41962     41954     41957     41960     41963
     41955     41954     41957     41958     41955     41954     41957     41959
     41955     41954     41957     41960     41956     41954     41957     41958
     41956     41954     41957     41959     41956     41954     41957     41960
     41958     41957     41960     41961     41958     41957     41960     41962
     41958     41957     41960     41963     41959     41957     41960     41961
     41959     41957     41960     41962     41959     41957     41960     41963
     41964     41967     41970     41971     41964     41967     41970     41972
     41964     41967     41970     41973     41965     41964     41967     41968
     41965     41964     41967     41969     41965     41964     41967     41970
     41966     41964     41967     41968     41966     41964     41967     41969
     41966     41964     41967     41970     41967     41970     41973     41974
     41967     41970     41973     41975     41967     41970     41973     41976
     41968     41967     41970     41971     41968     41967     41970     41972
     41968     41967     41970     41973     41969     41967     41970     41971
     41969     41967     41970     41972     41969     41967     41970     41973
     41970     41973     41976     41977     41970     41973     41976     41978
     41970     41973     41976     41979     41971     41970     41973     41974
     41971     41970     41973     41975     41971     41970     41973     41976
     41972     41970     41973     41974     41972     41970     41973     41975
     41972     41970     41973     41976     41973     41976     41979     41980
     41973     41976     41979     41981     41973     41976     41979     41982
     41974     41973     41976     41977     41974     41973     41976     41978
     41974     41973     41976     41979     41975     41973     41976     41977
     41975     41973     41976     41978     41975     41973     41976     41979
     41976     41979     41982     41983     41976     41979     41982     41984
     41976     41979     41982     41985     41977     41976     41979     41980
     41977     41976     41979     41981     41977     41976     41979     41982
     41978     41976     41979     41980     41978     41976     41979     41981
     41978     41976     41979     41982     41979     41982     41985     41986
     41979     41982     41985     41987     41979     41982     41985     41988
     41980     41979     41982     41983     41980     41979     41982     41984
     41980     41979     41982     41985     41981     41979     41982     41983
     41981     41979     41982     41984     41981     41979     41982     41985
     41982     41985     41988     41989     41982     41985     41988     41990
     41982     41985     41988     41991     41983     41982     41985     41986
     41983     41982     41985     41987     41983     41982     41985     41988
     41984     41982     41985     41986     41984     41982     41985     41987
     41984     41982     41985     41988     41985     41988     41991     41992
     41985     41988     41991     41993     41985     41988     41991     41994
     41986     41985     41988     41989     41986     41985     41988     41990
     41986     41985     41988     41991     41987     41985     41988     41989
     41987     41985     41988     41990     41987     41985     41988     41991
     41988     41991     41994     41995     41988     41991     41994     41996
     41988     41991     41994     41997     41989     41988     41991     41992
     41989     41988     41991     41993     41989     41988     41991     41994
     41990     41988     41991     41992     41990     41988     41991     41993
     41990     41988     41991     41994     41991     41994     41997     41998
     41991     41994     41997     41999     41991     41994     41997     42000
     41992     41991     41994     41995     41992     41991     41994     41996
     41992     41991     41994     41997     41993     41991     41994     41995
     41993     41991     41994     41996     41993     41991     41994     41997
     41994     41997     42000     42001     41994     41997     42000     42002
     41994     41997     42000     42003     41995     41994     41997     41998
     41995     41994     41997     41999     41995     41994     41997     42000
     41996     41994     41997     41998     41996     41994     41997     41999
     41996     41994     41997     42000     41997     42000     42003     42004
     41997     42000     42003     42005     41997     42000     42003     42006
     41998     41997     42000     42001     41998     41997     42000     42002
     41998     41997     42000     42003     41999     41997     42000     42001
     41999     41997     42000     42002     41999     41997     42000     42003
     42001     42000     42003     42004     42001     42000     42003     42005
     42001     42000     42003     42006     42002     42000     42003     42004
     42002     42000     42003     42005     42002     42000     42003     42006
     42007     42011     42014     42015     42007     42011     42014     42016
     42007     42011     42014     42021     42008     42007     42011     42012
     42008     42007     42011     42013     42008     42007     42011     42014
     42009     42007     42011     42012     42009     42007     42011     42013
     42009     42007     42011     42014     42010     42007     42011     42012
     42010     42007     42011     42013     42010     42007     42011     42014
     42011     42014     42021     42017     42012     42011     42014     42015
     42012     42011     42014     42016     42012     42011     42014     42021
     42013     42011     42014     42015     42013     42011     42014     42016
     42013     42011     42014     42021     42014     42021     42017     42018
     42014     42021     42017     42019     42014     42021     42017     42020
     42015     42014     42021     42017     42016     42014     42021     42017
     42017     42020     42022     42023     42017     42020     42022     42024
     42017     42020     42022     42025     42018     42017     42020     42022
     42019     42017     42020     42022     42020     42022     42025     42026
     42020     42022     42025     42027     42020     42022     42025     42033
     42021     42017     42020     42022     42022     42025     42027     42028
     42022     42025     42033     42034     42022     42025     42033     42035
     42022     42025     42033     42036     42023     42022     42025     42026
     42023     42022     42025     42027     42023     42022     42025     42033
     42024     42022     42025     42026     42024     42022     42025     42027
     42024     42022     42025     42033     42025     42027     42028     42029
     42025     42027     42028     42030     42025     42033     42036     42037
     42026     42025     42027     42028     42026     42025     42033     42034
     42026     42025     42033     42035     42026     42025     42033     42036
     42027     42025     42033     42034     42027     42025     42033     42035
     42027     42025     42033     42036     42027     42028     42030     42031
     42027     42028     42030     42032     42027     42028     42030     42042
     42028     42027     42025     42033     42028     42030     42042     42043
     42028     42030     42042     42044     42028     42030     42042     42045
     42029     42028     42030     42031     42029     42028     42030     42032
     42029     42028     42030     42042     42030     42042     42045     42046
     42030     42042     42045     42047     42030     42042     42045     42048
     42031     42030     42042     42043     42031     42030     42042     42044
     42031     42030     42042     42045     42032     42030     42042     42043
     42032     42030     42042     42044     42032     42030     42042     42045
     42033     42036     42037     42038     42033     42036     42037     42039
     42034     42033     42036     42037     42035     42033     42036     42037
     42036     42037     42039     42040     42036     42037     42039     42041
     42036     42037     42039     42089     42037     42039     42089     42090
     42037     42039     42089     42091     42037     42039     42089     42092
     42038     42037     42039     42040     42038     42037     42039     42041
     42038     42037     42039     42089     42039     42089     42092     42093
     42039     42089     42092     42094     42039     42089     42092     42095
     42040     42039     42089     42090     42040     42039     42089     42091
     42040     42039     42089     42092     42041     42039     42089     42090
     42041     42039     42089     42091     42041     42039     42089     42092
     42042     42045     42048     42049     42042     42045     42048     42050
     42042     42045     42048     42051     42043     42042     42045     42046
     42043     42042     42045     42047     42043     42042     42045     42048
     42044     42042     42045     42046     42044     42042     42045     42047
     42044     42042     42045     42048     42045     42048     42051     42052
     42045     42048     42051     42053     42045     42048     42051     42054
     42046     42045     42048     42049     42046     42045     42048     42050
     42046     42045     42048     42051     42047     42045     42048     42049
     42047     42045     42048     42050     42047     42045     42048     42051
     42048     42051     42054     42055     42048     42051     42054     42056
     42048     42051     42054     42057     42049     42048     42051     42052
     42049     42048     42051     42053     42049     42048     42051     42054
     42050     42048     42051     42052     42050     42048     42051     42053
     42050     42048     42051     42054     42051     42054     42057     42058
     42051     42054     42057     42059     42051     42054     42057     42060
     42052     42051     42054     42055     42052     42051     42054     42056
     42052     42051     42054     42057     42053     42051     42054     42055
     42053     42051     42054     42056     42053     42051     42054     42057
     42054     42057     42060     42061     42054     42057     42060     42062
     42055     42054     42057     42058     42055     42054     42057     42059
     42055     42054     42057     42060     42056     42054     42057     42058
     42056     42054     42057     42059     42056     42054     42057     42060
     42057     42060     42062     42063     42057     42060     42062     42064
     42058     42057     42060     42061     42058     42057     42060     42062
     42059     42057     42060     42061     42059     42057     42060     42062
     42060     42062     42064     42065     42060     42062     42064     42066
     42060     42062     42064     42067     42061     42060     42062     42063
     42061     42060     42062     42064     42062     42064     42067     42068
     42062     42064     42067     42069     42062     42064     42067     42070
     42063     42062     42064     42065     42063     42062     42064     42066
     42063     42062     42064     42067     42064     42067     42070     42071
     42064     42067     42070     42072     42064     42067     42070     42073
     42065     42064     42067     42068     42065     42064     42067     42069
     42065     42064     42067     42070     42066     42064     42067     42068
     42066     42064     42067     42069     42066     42064     42067     42070
     42067     42070     42073     42074     42067     42070     42073     42075
     42067     42070     42073     42076     42068     42067     42070     42071
     42068     42067     42070     42072     42068     42067     42070     42073
     42069     42067     42070     42071     42069     42067     42070     42072
     42069     42067     42070     42073     42070     42073     42076     42077
     42070     42073     42076     42078     42070     42073     42076     42079
     42071     42070     42073     42074     42071     42070     42073     42075
     42071     42070     42073     42076     42072     42070     42073     42074
     42072     42070     42073     42075     42072     42070     42073     42076
     42073     42076     42079     42080     42073     42076     42079     42081
     42073     42076     42079     42082     42074     42073     42076     42077
     42074     42073     42076     42078     42074     42073     42076     42079
     42075     42073     42076     42077     42075     42073     42076     42078
     42075     42073     42076     42079     42076     42079     42082     42083
     42076     42079     42082     42084     42076     42079     42082     42085
     42077     42076     42079     42080     42077     42076     42079     42081
     42077     42076     42079     42082     42078     42076     42079     42080
     42078     42076     42079     42081     42078     42076     42079     42082
     42079     42082     42085     42086     42079     42082     42085     42087
     42079     42082     42085     42088     42080     42079     42082     42083
     42080     42079     42082     42084     42080     42079     42082     42085
     42081     42079     42082     42083     42081     42079     42082     42084
     42081     42079     42082     42085     42083     42082     42085     42086
     42083     42082     42085     42087     42083     42082     42085     42088
     42084     42082     42085     42086     42084     42082     42085     42087
     42084     42082     42085     42088     42089     42092     42095     42096
     42089     42092     42095     42097     42089     42092     42095     42098
     42090     42089     42092     42093     42090     42089     42092     42094
     42090     42089     42092     42095     42091     42089     42092     42093
     42091     42089     42092     42094     42091     42089     42092     42095
     42092     42095     42098     42099     42092     42095     42098     42100
     42092     42095     42098     42101     42093     42092     42095     42096
     42093     42092     42095     42097     42093     42092     42095     42098
     42094     42092     42095     42096     42094     42092     42095     42097
     42094     42092     42095     42098     42095     42098     42101     42102
     42095     42098     42101     42103     42095     42098     42101     42104
     42096     42095     42098     42099     42096     42095     42098     42100
     42096     42095     42098     42101     42097     42095     42098     42099
     42097     42095     42098     42100     42097     42095     42098     42101
     42098     42101     42104     42105     42098     42101     42104     42106
     42098     42101     42104     42107     42099     42098     42101     42102
     42099     42098     42101     42103     42099     42098     42101     42104
     42100     42098     42101     42102     42100     42098     42101     42103
     42100     42098     42101     42104     42101     42104     42107     42108
     42101     42104     42107     42109     42101     42104     42107     42110
     42102     42101     42104     42105     42102     42101     42104     42106
     42102     42101     42104     42107     42103     42101     42104     42105
     42103     42101     42104     42106     42103     42101     42104     42107
     42104     42107     42110     42111     42104     42107     42110     42112
     42104     42107     42110     42113     42105     42104     42107     42108
     42105     42104     42107     42109     42105     42104     42107     42110
     42106     42104     42107     42108     42106     42104     42107     42109
     42106     42104     42107     42110     42107     42110     42113     42114
     42107     42110     42113     42115     42107     42110     42113     42116
     42108     42107     42110     42111     42108     42107     42110     42112
     42108     42107     42110     42113     42109     42107     42110     42111
     42109     42107     42110     42112     42109     42107     42110     42113
     42110     42113     42116     42117     42110     42113     42116     42118
     42110     42113     42116     42119     42111     42110     42113     42114
     42111     42110     42113     42115     42111     42110     42113     42116
     42112     42110     42113     42114     42112     42110     42113     42115
     42112     42110     42113     42116     42113     42116     42119     42120
     42113     42116     42119     42121     42113     42116     42119     42122
     42114     42113     42116     42117     42114     42113     42116     42118
     42114     42113     42116     42119     42115     42113     42116     42117
     42115     42113     42116     42118     42115     42113     42116     42119
     42116     42119     42122     42123     42116     42119     42122     42124
     42116     42119     42122     42125     42117     42116     42119     42120
     42117     42116     42119     42121     42117     42116     42119     42122
     42118     42116     42119     42120     42118     42116     42119     42121
     42118     42116     42119     42122     42119     42122     42125     42126
     42119     42122     42125     42127     42119     42122     42125     42128
     42120     42119     42122     42123     42120     42119     42122     42124
     42120     42119     42122     42125     42121     42119     42122     42123
     42121     42119     42122     42124     42121     42119     42122     42125
     42122     42125     42128     42129     42122     42125     42128     42130
     42122     42125     42128     42131     42123     42122     42125     42126
     42123     42122     42125     42127     42123     42122     42125     42128
     42124     42122     42125     42126     42124     42122     42125     42127
     42124     42122     42125     42128     42126     42125     42128     42129
     42126     42125     42128     42130     42126     42125     42128     42131
     42127     42125     42128     42129     42127     42125     42128     42130
     42127     42125     42128     42131     42132     42136     42139     42140
     42132     42136     42139     42141     42132     42136     42139     42146
     42133     42132     42136     42137     42133     42132     42136     42138
     42133     42132     42136     42139     42134     42132     42136     42137
     42134     42132     42136     42138     42134     42132     42136     42139
     42135     42132     42136     42137     42135     42132     42136     42138
     42135     42132     42136     42139     42136     42139     42146     42142
     42137     42136     42139     42140     42137     42136     42139     42141
     42137     42136     42139     42146     42138     42136     42139     42140
     42138     42136     42139     42141     42138     42136     42139     42146
     42139     42146     42142     42143     42139     42146     42142     42144
     42139     42146     42142     42145     42140     42139     42146     42142
     42141     42139     42146     42142     42142     42145     42147     42148
     42142     42145     42147     42149     42142     42145     42147     42150
     42143     42142     42145     42147     42144     42142     42145     42147
     42145     42147     42150     42151     42145     42147     42150     42152
     42145     42147     42150     42158     42146     42142     42145     42147
     42147     42150     42152     42153     42147     42150     42158     42159
     42147     42150     42158     42160     42147     42150     42158     42161
     42148     42147     42150     42151     42148     42147     42150     42152
     42148     42147     42150     42158     42149     42147     42150     42151
     42149     42147     42150     42152     42149     42147     42150     42158
     42150     42152     42153     42154     42150     42152     42153     42155
     42150     42158     42161     42162     42151     42150     42152     42153
     42151     42150     42158     42159     42151     42150     42158     42160
     42151     42150     42158     42161     42152     42150     42158     42159
     42152     42150     42158     42160     42152     42150     42158     42161
     42152     42153     42155     42156     42152     42153     42155     42157
     42152     42153     42155     42167     42153     42152     42150     42158
     42153     42155     42167     42168     42153     42155     42167     42169
     42153     42155     42167     42170     42154     42153     42155     42156
     42154     42153     42155     42157     42154     42153     42155     42167
     42155     42167     42170     42171     42155     42167     42170     42172
     42155     42167     42170     42173     42156     42155     42167     42168
     42156     42155     42167     42169     42156     42155     42167     42170
     42157     42155     42167     42168     42157     42155     42167     42169
     42157     42155     42167     42170     42158     42161     42162     42163
     42158     42161     42162     42164     42159     42158     42161     42162
     42160     42158     42161     42162     42161     42162     42164     42165
     42161     42162     42164     42166     42161     42162     42164     42211
     42162     42164     42211     42212     42162     42164     42211     42213
     42162     42164     42211     42214     42163     42162     42164     42165
     42163     42162     42164     42166     42163     42162     42164     42211
     42164     42211     42214     42215     42164     42211     42214     42216
     42164     42211     42214     42217     42165     42164     42211     42212
     42165     42164     42211     42213     42165     42164     42211     42214
     42166     42164     42211     42212     42166     42164     42211     42213
     42166     42164     42211     42214     42167     42170     42173     42174
     42167     42170     42173     42175     42167     42170     42173     42176
     42168     42167     42170     42171     42168     42167     42170     42172
     42168     42167     42170     42173     42169     42167     42170     42171
     42169     42167     42170     42172     42169     42167     42170     42173
     42170     42173     42176     42177     42170     42173     42176     42178
     42170     42173     42176     42179     42171     42170     42173     42174
     42171     42170     42173     42175     42171     42170     42173     42176
     42172     42170     42173     42174     42172     42170     42173     42175
     42172     42170     42173     42176     42173     42176     42179     42180
     42173     42176     42179     42181     42173     42176     42179     42182
     42174     42173     42176     42177     42174     42173     42176     42178
     42174     42173     42176     42179     42175     42173     42176     42177
     42175     42173     42176     42178     42175     42173     42176     42179
     42176     42179     42182     42183     42176     42179     42182     42184
     42176     42179     42182     42185     42177     42176     42179     42180
     42177     42176     42179     42181     42177     42176     42179     42182
     42178     42176     42179     42180     42178     42176     42179     42181
     42178     42176     42179     42182     42179     42182     42185     42186
     42179     42182     42185     42187     42179     42182     42185     42190
     42180     42179     42182     42183     42180     42179     42182     42184
     42180     42179     42182     42185     42181     42179     42182     42183
     42181     42179     42182     42184     42181     42179     42182     42185
     42182     42185     42187     42188     42182     42185     42187     42189
     42182     42185     42187     42190     42182     42185     42190     42187
     42182     42185     42190     42191     42182     42185     42190     42192
     42183     42182     42185     42186     42183     42182     42185     42187
     42183     42182     42185     42190     42184     42182     42185     42186
     42184     42182     42185     42187     42184     42182     42185     42190
     42185     42187     42190     42191     42185     42187     42190     42192
     42185     42190     42187     42188     42185     42190     42187     42189
     42185     42190     42192     42193     42185     42190     42192     42194
     42185     42190     42192     42195     42186     42185     42187     42188
     42186     42185     42187     42189     42186     42185     42187     42190
     42186     42185     42190     42187     42186     42185     42190     42191
     42186     42185     42190     42192     42187     42185     42190     42191
     42187     42185     42190     42192     42187     42190     42192     42193
     42187     42190     42192     42194     42187     42190     42192     42195
     42188     42187     42185     42190     42188     42187     42190     42191
     42188     42187     42190     42192     42189     42187     42185     42190
     42189     42187     42190     42191     42189     42187     42190     42192
     42190     42192     42195     42196     42190     42192     42195     42197
     42190     42192     42195     42198     42191     42190     42192     42193
     42191     42190     42192     42194     42191     42190     42192     42195
     42192     42195     42198     42199     42192     42195     42198     42200
     42192     42195     42198     42201     42193     42192     42195     42196
     42193     42192     42195     42197     42193     42192     42195     42198
     42194     42192     42195     42196     42194     42192     42195     42197
     42194     42192     42195     42198     42195     42198     42201     42202
     42195     42198     42201     42203     42195     42198     42201     42204
     42196     42195     42198     42199     42196     42195     42198     42200
     42196     42195     42198     42201     42197     42195     42198     42199
     42197     42195     42198     42200     42197     42195     42198     42201
     42198     42201     42204     42205     42198     42201     42204     42206
     42198     42201     42204     42207     42199     42198     42201     42202
     42199     42198     42201     42203     42199     42198     42201     42204
     42200     42198     42201     42202     42200     42198     42201     42203
     42200     42198     42201     42204     42201     42204     42207     42208
     42201     42204     42207     42209     42201     42204     42207     42210
     42202     42201     42204     42205     42202     42201     42204     42206
     42202     42201     42204     42207     42203     42201     42204     42205
     42203     42201     42204     42206     42203     42201     42204     42207
     42205     42204     42207     42208     42205     42204     42207     42209
     42205     42204     42207     42210     42206     42204     42207     42208
     42206     42204     42207     42209     42206     42204     42207     42210
     42211     42214     42217     42218     42211     42214     42217     42219
     42211     42214     42217     42220     42212     42211     42214     42215
     42212     42211     42214     42216     42212     42211     42214     42217
     42213     42211     42214     42215     42213     42211     42214     42216
     42213     42211     42214     42217     42214     42217     42220     42221
     42214     42217     42220     42222     42214     42217     42220     42223
     42215     42214     42217     42218     42215     42214     42217     42219
     42215     42214     42217     42220     42216     42214     42217     42218
     42216     42214     42217     42219     42216     42214     42217     42220
     42217     42220     42223     42224     42217     42220     42223     42225
     42217     42220     42223     42226     42218     42217     42220     42221
     42218     42217     42220     42222     42218     42217     42220     42223
     42219     42217     42220     42221     42219     42217     42220     42222
     42219     42217     42220     42223     42220     42223     42226     42227
     42220     42223     42226     42228     42220     42223     42226     42229
     42221     42220     42223     42224     42221     42220     42223     42225
     42221     42220     42223     42226     42222     42220     42223     42224
     42222     42220     42223     42225     42222     42220     42223     42226
     42223     42226     42229     42230     42223     42226     42229     42231
     42223     42226     42229     42232     42224     42223     42226     42227
     42224     42223     42226     42228     42224     42223     42226     42229
     42225     42223     42226     42227     42225     42223     42226     42228
     42225     42223     42226     42229     42226     42229     42232     42233
     42226     42229     42232     42234     42226     42229     42232     42235
     42227     42226     42229     42230     42227     42226     42229     42231
     42227     42226     42229     42232     42228     42226     42229     42230
     42228     42226     42229     42231     42228     42226     42229     42232
     42229     42232     42235     42236     42229     42232     42235     42237
     42229     42232     42235     42238     42230     42229     42232     42233
     42230     42229     42232     42234     42230     42229     42232     42235
     42231     42229     42232     42233     42231     42229     42232     42234
     42231     42229     42232     42235     42232     42235     42238     42239
     42232     42235     42238     42240     42232     42235     42238     42241
     42233     42232     42235     42236     42233     42232     42235     42237
     42233     42232     42235     42238     42234     42232     42235     42236
     42234     42232     42235     42237     42234     42232     42235     42238
     42235     42238     42241     42242     42235     42238     42241     42243
     42235     42238     42241     42244     42236     42235     42238     42239
     42236     42235     42238     42240     42236     42235     42238     42241
     42237     42235     42238     42239     42237     42235     42238     42240
     42237     42235     42238     42241     42238     42241     42244     42245
     42238     42241     42244     42246     42238     42241     42244     42247
     42239     42238     42241     42242     42239     42238     42241     42243
     42239     42238     42241     42244     42240     42238     42241     42242
     42240     42238     42241     42243     42240     42238     42241     42244
     42241     42244     42247     42248     42241     42244     42247     42249
     42241     42244     42247     42250     42242     42241     42244     42245
     42242     42241     42244     42246     42242     42241     42244     42247
     42243     42241     42244     42245     42243     42241     42244     42246
     42243     42241     42244     42247     42244     42247     42250     42251
     42244     42247     42250     42252     42244     42247     42250     42253
     42245     42244     42247     42248     42245     42244     42247     42249
     42245     42244     42247     42250     42246     42244     42247     42248
     42246     42244     42247     42249     42246     42244     42247     42250
     42248     42247     42250     42251     42248     42247     42250     42252
     42248     42247     42250     42253     42249     42247     42250     42251
     42249     42247     42250     42252     42249     42247     42250     42253
     42254     42258     42261     42262     42254     42258     42261     42263
     42254     42258     42261     42268     42255     42254     42258     42259
     42255     42254     42258     42260     42255     42254     42258     42261
     42256     42254     42258     42259     42256     42254     42258     42260
     42256     42254     42258     42261     42257     42254     42258     42259
     42257     42254     42258     42260     42257     42254     42258     42261
     42258     42261     42268     42264     42259     42258     42261     42262
     42259     42258     42261     42263     42259     42258     42261     42268
     42260     42258     42261     42262     42260     42258     42261     42263
     42260     42258     42261     42268     42261     42268     42264     42265
     42261     42268     42264     42266     42261     42268     42264     42267
     42262     42261     42268     42264     42263     42261     42268     42264
     42264     42267     42269     42270     42264     42267     42269     42271
     42264     42267     42269     42272     42265     42264     42267     42269
     42266     42264     42267     42269     42267     42269     42272     42273
     42267     42269     42272     42274     42267     42269     42272     42280
     42268     42264     42267     42269     42269     42272     42274     42275
     42269     42272     42280     42281     42269     42272     42280     42282
     42269     42272     42280     42283     42270     42269     42272     42273
     42270     42269     42272     42274     42270     42269     42272     42280
     42271     42269     42272     42273     42271     42269     42272     42274
     42271     42269     42272     42280     42272     42274     42275     42276
     42272     42274     42275     42277     42272     42280     42283     42284
     42273     42272     42274     42275     42273     42272     42280     42281
     42273     42272     42280     42282     42273     42272     42280     42283
     42274     42272     42280     42281     42274     42272     42280     42282
     42274     42272     42280     42283     42274     42275     42277     42278
     42274     42275     42277     42279     42274     42275     42277     42289
     42275     42274     42272     42280     42275     42277     42289     42290
     42275     42277     42289     42291     42275     42277     42289     42292
     42276     42275     42277     42278     42276     42275     42277     42279
     42276     42275     42277     42289     42277     42289     42292     42293
     42277     42289     42292     42294     42277     42289     42292     42295
     42278     42277     42289     42290     42278     42277     42289     42291
     42278     42277     42289     42292     42279     42277     42289     42290
     42279     42277     42289     42291     42279     42277     42289     42292
     42280     42283     42284     42285     42280     42283     42284     42286
     42281     42280     42283     42284     42282     42280     42283     42284
     42283     42284     42286     42287     42283     42284     42286     42288
     42283     42284     42286     42333     42284     42286     42333     42334
     42284     42286     42333     42335     42284     42286     42333     42336
     42285     42284     42286     42287     42285     42284     42286     42288
     42285     42284     42286     42333     42286     42333     42336     42337
     42286     42333     42336     42338     42286     42333     42336     42339
     42287     42286     42333     42334     42287     42286     42333     42335
     42287     42286     42333     42336     42288     42286     42333     42334
     42288     42286     42333     42335     42288     42286     42333     42336
     42289     42292     42295     42296     42289     42292     42295     42297
     42289     42292     42295     42298     42290     42289     42292     42293
     42290     42289     42292     42294     42290     42289     42292     42295
     42291     42289     42292     42293     42291     42289     42292     42294
     42291     42289     42292     42295     42292     42295     42298     42299
     42292     42295     42298     42300     42292     42295     42298     42301
     42293     42292     42295     42296     42293     42292     42295     42297
     42293     42292     42295     42298     42294     42292     42295     42296
     42294     42292     42295     42297     42294     42292     42295     42298
     42295     42298     42301     42302     42295     42298     42301     42303
     42295     42298     42301     42304     42296     42295     42298     42299
     42296     42295     42298     42300     42296     42295     42298     42301
     42297     42295     42298     42299     42297     42295     42298     42300
     42297     42295     42298     42301     42298     42301     42304     42305
     42298     42301     42304     42306     42298     42301     42304     42307
     42299     42298     42301     42302     42299     42298     42301     42303
     42299     42298     42301     42304     42300     42298     42301     42302
     42300     42298     42301     42303     42300     42298     42301     42304
     42301     42304     42307     42308     42301     42304     42307     42309
     42301     42304     42307     42312     42302     42301     42304     42305
     42302     42301     42304     42306     42302     42301     42304     42307
     42303     42301     42304     42305     42303     42301     42304     42306
     42303     42301     42304     42307     42304     42307     42309     42310
     42304     42307     42309     42311     42304     42307     42309     42312
     42304     42307     42312     42309     42304     42307     42312     42313
     42304     42307     42312     42314     42305     42304     42307     42308
     42305     42304     42307     42309     42305     42304     42307     42312
     42306     42304     42307     42308     42306     42304     42307     42309
     42306     42304     42307     42312     42307     42309     42312     42313
     42307     42309     42312     42314     42307     42312     42309     42310
     42307     42312     42309     42311     42307     42312     42314     42315
     42307     42312     42314     42316     42307     42312     42314     42317
     42308     42307     42309     42310     42308     42307     42309     42311
     42308     42307     42309     42312     42308     42307     42312     42309
     42308     42307     42312     42313     42308     42307     42312     42314
     42309     42307     42312     42313     42309     42307     42312     42314
     42309     42312     42314     42315     42309     42312     42314     42316
     42309     42312     42314     42317     42310     42309     42307     42312
     42310     42309     42312     42313     42310     42309     42312     42314
     42311     42309     42307     42312     42311     42309     42312     42313
     42311     42309     42312     42314     42312     42314     42317     42318
     42312     42314     42317     42319     42312     42314     42317     42320
     42313     42312     42314     42315     42313     42312     42314     42316
     42313     42312     42314     42317     42314     42317     42320     42321
     42314     42317     42320     42322     42314     42317     42320     42323
     42315     42314     42317     42318     42315     42314     42317     42319
     42315     42314     42317     42320     42316     42314     42317     42318
     42316     42314     42317     42319     42316     42314     42317     42320
     42317     42320     42323     42324     42317     42320     42323     42325
     42317     42320     42323     42326     42318     42317     42320     42321
     42318     42317     42320     42322     42318     42317     42320     42323
     42319     42317     42320     42321     42319     42317     42320     42322
     42319     42317     42320     42323     42320     42323     42326     42327
     42320     42323     42326     42328     42320     42323     42326     42329
     42321     42320     42323     42324     42321     42320     42323     42325
     42321     42320     42323     42326     42322     42320     42323     42324
     42322     42320     42323     42325     42322     42320     42323     42326
     42323     42326     42329     42330     42323     42326     42329     42331
     42323     42326     42329     42332     42324     42323     42326     42327
     42324     42323     42326     42328     42324     42323     42326     42329
     42325     42323     42326     42327     42325     42323     42326     42328
     42325     42323     42326     42329     42327     42326     42329     42330
     42327     42326     42329     42331     42327     42326     42329     42332
     42328     42326     42329     42330     42328     42326     42329     42331
     42328     42326     42329     42332     42333     42336     42339     42340
     42333     42336     42339     42341     42333     42336     42339     42342
     42334     42333     42336     42337     42334     42333     42336     42338
     42334     42333     42336     42339     42335     42333     42336     42337
     42335     42333     42336     42338     42335     42333     42336     42339
     42336     42339     42342     42343     42336     42339     42342     42344
     42336     42339     42342     42345     42337     42336     42339     42340
     42337     42336     42339     42341     42337     42336     42339     42342
     42338     42336     42339     42340     42338     42336     42339     42341
     42338     42336     42339     42342     42339     42342     42345     42346
     42339     42342     42345     42347     42339     42342     42345     42348
     42340     42339     42342     42343     42340     42339     42342     42344
     42340     42339     42342     42345     42341     42339     42342     42343
     42341     42339     42342     42344     42341     42339     42342     42345
     42342     42345     42348     42349     42342     42345     42348     42350
     42342     42345     42348     42351     42343     42342     42345     42346
     42343     42342     42345     42347     42343     42342     42345     42348
     42344     42342     42345     42346     42344     42342     42345     42347
     42344     42342     42345     42348     42345     42348     42351     42352
     42345     42348     42351     42353     42345     42348     42351     42354
     42346     42345     42348     42349     42346     42345     42348     42350
     42346     42345     42348     42351     42347     42345     42348     42349
     42347     42345     42348     42350     42347     42345     42348     42351
     42348     42351     42354     42355     42348     42351     42354     42356
     42348     42351     42354     42357     42349     42348     42351     42352
     42349     42348     42351     42353     42349     42348     42351     42354
     42350     42348     42351     42352     42350     42348     42351     42353
     42350     42348     42351     42354     42351     42354     42357     42358
     42351     42354     42357     42359     42351     42354     42357     42360
     42352     42351     42354     42355     42352     42351     42354     42356
     42352     42351     42354     42357     42353     42351     42354     42355
     42353     42351     42354     42356     42353     42351     42354     42357
     42354     42357     42360     42361     42354     42357     42360     42362
     42354     42357     42360     42363     42355     42354     42357     42358
     42355     42354     42357     42359     42355     42354     42357     42360
     42356     42354     42357     42358     42356     42354     42357     42359
     42356     42354     42357     42360     42357     42360     42363     42364
     42357     42360     42363     42365     42357     42360     42363     42366
     42358     42357     42360     42361     42358     42357     42360     42362
     42358     42357     42360     42363     42359     42357     42360     42361
     42359     42357     42360     42362     42359     42357     42360     42363
     42360     42363     42366     42367     42360     42363     42366     42368
     42360     42363     42366     42369     42361     42360     42363     42364
     42361     42360     42363     42365     42361     42360     42363     42366
     42362     42360     42363     42364     42362     42360     42363     42365
     42362     42360     42363     42366     42363     42366     42369     42370
     42363     42366     42369     42371     42363     42366     42369     42372
     42364     42363     42366     42367     42364     42363     42366     42368
     42364     42363     42366     42369     42365     42363     42366     42367
     42365     42363     42366     42368     42365     42363     42366     42369
     42366     42369     42372     42373     42366     42369     42372     42374
     42366     42369     42372     42375     42367     42366     42369     42370
     42367     42366     42369     42371     42367     42366     42369     42372
     42368     42366     42369     42370     42368     42366     42369     42371
     42368     42366     42369     42372     42370     42369     42372     42373
     42370     42369     42372     42374     42370     42369     42372     42375
     42371     42369     42372     42373     42371     42369     42372     42374
     42371     42369     42372     42375     42376     42380     42383     42384
     42376     42380     42383     42385     42376     42380     42383     42390
     42377     42376     42380     42381     42377     42376     42380     42382
     42377     42376     42380     42383     42378     42376     42380     42381
     42378     42376     42380     42382     42378     42376     42380     42383
     42379     42376     42380     42381     42379     42376     42380     42382
     42379     42376     42380     42383     42380     42383     42390     42386
     42381     42380     42383     42384     42381     42380     42383     42385
     42381     42380     42383     42390     42382     42380     42383     42384
     42382     42380     42383     42385     42382     42380     42383     42390
     42383     42390     42386     42387     42383     42390     42386     42388
     42383     42390     42386     42389     42384     42383     42390     42386
     42385     42383     42390     42386     42386     42389     42391     42392
     42386     42389     42391     42393     42386     42389     42391     42394
     42387     42386     42389     42391     42388     42386     42389     42391
     42389     42391     42394     42395     42389     42391     42394     42396
     42389     42391     42394     42402     42390     42386     42389     42391
     42391     42394     42396     42397     42391     42394     42402     42403
     42391     42394     42402     42404     42391     42394     42402     42405
     42392     42391     42394     42395     42392     42391     42394     42396
     42392     42391     42394     42402     42393     42391     42394     42395
     42393     42391     42394     42396     42393     42391     42394     42402
     42394     42396     42397     42398     42394     42396     42397     42399
     42394     42402     42405     42406     42395     42394     42396     42397
     42395     42394     42402     42403     42395     42394     42402     42404
     42395     42394     42402     42405     42396     42394     42402     42403
     42396     42394     42402     42404     42396     42394     42402     42405
     42396     42397     42399     42400     42396     42397     42399     42401
     42396     42397     42399     42411     42397     42396     42394     42402
     42397     42399     42411     42412     42397     42399     42411     42413
     42397     42399     42411     42414     42398     42397     42399     42400
     42398     42397     42399     42401     42398     42397     42399     42411
     42399     42411     42414     42415     42399     42411     42414     42416
     42399     42411     42414     42417     42400     42399     42411     42412
     42400     42399     42411     42413     42400     42399     42411     42414
     42401     42399     42411     42412     42401     42399     42411     42413
     42401     42399     42411     42414     42402     42405     42406     42407
     42402     42405     42406     42408     42403     42402     42405     42406
     42404     42402     42405     42406     42405     42406     42408     42409
     42405     42406     42408     42410     42405     42406     42408     42455
     42406     42408     42455     42456     42406     42408     42455     42457
     42406     42408     42455     42458     42407     42406     42408     42409
     42407     42406     42408     42410     42407     42406     42408     42455
     42408     42455     42458     42459     42408     42455     42458     42460
     42408     42455     42458     42461     42409     42408     42455     42456
     42409     42408     42455     42457     42409     42408     42455     42458
     42410     42408     42455     42456     42410     42408     42455     42457
     42410     42408     42455     42458     42411     42414     42417     42418
     42411     42414     42417     42419     42411     42414     42417     42420
     42412     42411     42414     42415     42412     42411     42414     42416
     42412     42411     42414     42417     42413     42411     42414     42415
     42413     42411     42414     42416     42413     42411     42414     42417
     42414     42417     42420     42421     42414     42417     42420     42422
     42414     42417     42420     42423     42415     42414     42417     42418
     42415     42414     42417     42419     42415     42414     42417     42420
     42416     42414     42417     42418     42416     42414     42417     42419
     42416     42414     42417     42420     42417     42420     42423     42424
     42417     42420     42423     42425     42417     42420     42423     42426
     42418     42417     42420     42421     42418     42417     42420     42422
     42418     42417     42420     42423     42419     42417     42420     42421
     42419     42417     42420     42422     42419     42417     42420     42423
     42420     42423     42426     42427     42420     42423     42426     42428
     42420     42423     42426     42429     42421     42420     42423     42424
     42421     42420     42423     42425     42421     42420     42423     42426
     42422     42420     42423     42424     42422     42420     42423     42425
     42422     42420     42423     42426     42423     42426     42429     42430
     42423     42426     42429     42431     42423     42426     42429     42434
     42424     42423     42426     42427     42424     42423     42426     42428
     42424     42423     42426     42429     42425     42423     42426     42427
     42425     42423     42426     42428     42425     42423     42426     42429
     42426     42429     42431     42432     42426     42429     42431     42433
     42426     42429     42431     42434     42426     42429     42434     42431
     42426     42429     42434     42435     42426     42429     42434     42436
     42427     42426     42429     42430     42427     42426     42429     42431
     42427     42426     42429     42434     42428     42426     42429     42430
     42428     42426     42429     42431     42428     42426     42429     42434
     42429     42431     42434     42435     42429     42431     42434     42436
     42429     42434     42431     42432     42429     42434     42431     42433
     42429     42434     42436     42437     42429     42434     42436     42438
     42429     42434     42436     42439     42430     42429     42431     42432
     42430     42429     42431     42433     42430     42429     42431     42434
     42430     42429     42434     42431     42430     42429     42434     42435
     42430     42429     42434     42436     42431     42429     42434     42435
     42431     42429     42434     42436     42431     42434     42436     42437
     42431     42434     42436     42438     42431     42434     42436     42439
     42432     42431     42429     42434     42432     42431     42434     42435
     42432     42431     42434     42436     42433     42431     42429     42434
     42433     42431     42434     42435     42433     42431     42434     42436
     42434     42436     42439     42440     42434     42436     42439     42441
     42434     42436     42439     42442     42435     42434     42436     42437
     42435     42434     42436     42438     42435     42434     42436     42439
     42436     42439     42442     42443     42436     42439     42442     42444
     42436     42439     42442     42445     42437     42436     42439     42440
     42437     42436     42439     42441     42437     42436     42439     42442
     42438     42436     42439     42440     42438     42436     42439     42441
     42438     42436     42439     42442     42439     42442     42445     42446
     42439     42442     42445     42447     42439     42442     42445     42448
     42440     42439     42442     42443     42440     42439     42442     42444
     42440     42439     42442     42445     42441     42439     42442     42443
     42441     42439     42442     42444     42441     42439     42442     42445
     42442     42445     42448     42449     42442     42445     42448     42450
     42442     42445     42448     42451     42443     42442     42445     42446
     42443     42442     42445     42447     42443     42442     42445     42448
     42444     42442     42445     42446     42444     42442     42445     42447
     42444     42442     42445     42448     42445     42448     42451     42452
     42445     42448     42451     42453     42445     42448     42451     42454
     42446     42445     42448     42449     42446     42445     42448     42450
     42446     42445     42448     42451     42447     42445     42448     42449
     42447     42445     42448     42450     42447     42445     42448     42451
     42449     42448     42451     42452     42449     42448     42451     42453
     42449     42448     42451     42454     42450     42448     42451     42452
     42450     42448     42451     42453     42450     42448     42451     42454
     42455     42458     42461     42462     42455     42458     42461     42463
     42455     42458     42461     42464     42456     42455     42458     42459
     42456     42455     42458     42460     42456     42455     42458     42461
     42457     42455     42458     42459     42457     42455     42458     42460
     42457     42455     42458     42461     42458     42461     42464     42465
     42458     42461     42464     42466     42458     42461     42464     42467
     42459     42458     42461     42462     42459     42458     42461     42463
     42459     42458     42461     42464     42460     42458     42461     42462
     42460     42458     42461     42463     42460     42458     42461     42464
     42461     42464     42467     42468     42461     42464     42467     42469
     42461     42464     42467     42470     42462     42461     42464     42465
     42462     42461     42464     42466     42462     42461     42464     42467
     42463     42461     42464     42465     42463     42461     42464     42466
     42463     42461     42464     42467     42464     42467     42470     42471
     42464     42467     42470     42472     42464     42467     42470     42473
     42465     42464     42467     42468     42465     42464     42467     42469
     42465     42464     42467     42470     42466     42464     42467     42468
     42466     42464     42467     42469     42466     42464     42467     42470
     42467     42470     42473     42474     42467     42470     42473     42475
     42467     42470     42473     42476     42468     42467     42470     42471
     42468     42467     42470     42472     42468     42467     42470     42473
     42469     42467     42470     42471     42469     42467     42470     42472
     42469     42467     42470     42473     42470     42473     42476     42477
     42470     42473     42476     42478     42470     42473     42476     42479
     42471     42470     42473     42474     42471     42470     42473     42475
     42471     42470     42473     42476     42472     42470     42473     42474
     42472     42470     42473     42475     42472     42470     42473     42476
     42473     42476     42479     42480     42473     42476     42479     42481
     42473     42476     42479     42482     42474     42473     42476     42477
     42474     42473     42476     42478     42474     42473     42476     42479
     42475     42473     42476     42477     42475     42473     42476     42478
     42475     42473     42476     42479     42476     42479     42482     42483
     42476     42479     42482     42484     42476     42479     42482     42485
     42477     42476     42479     42480     42477     42476     42479     42481
     42477     42476     42479     42482     42478     42476     42479     42480
     42478     42476     42479     42481     42478     42476     42479     42482
     42479     42482     42485     42486     42479     42482     42485     42487
     42479     42482     42485     42488     42480     42479     42482     42483
     42480     42479     42482     42484     42480     42479     42482     42485
     42481     42479     42482     42483     42481     42479     42482     42484
     42481     42479     42482     42485     42482     42485     42488     42489
     42482     42485     42488     42490     42482     42485     42488     42491
     42483     42482     42485     42486     42483     42482     42485     42487
     42483     42482     42485     42488     42484     42482     42485     42486
     42484     42482     42485     42487     42484     42482     42485     42488
     42485     42488     42491     42492     42485     42488     42491     42493
     42485     42488     42491     42494     42486     42485     42488     42489
     42486     42485     42488     42490     42486     42485     42488     42491
     42487     42485     42488     42489     42487     42485     42488     42490
     42487     42485     42488     42491     42488     42491     42494     42495
     42488     42491     42494     42496     42488     42491     42494     42497
     42489     42488     42491     42492     42489     42488     42491     42493
     42489     42488     42491     42494     42490     42488     42491     42492
     42490     42488     42491     42493     42490     42488     42491     42494
     42492     42491     42494     42495     42492     42491     42494     42496
     42492     42491     42494     42497     42493     42491     42494     42495
     42493     42491     42494     42496     42493     42491     42494     42497
     42498     42502     42505     42506     42498     42502     42505     42507
     42498     42502     42505     42512     42499     42498     42502     42503
     42499     42498     42502     42504     42499     42498     42502     42505
     42500     42498     42502     42503     42500     42498     42502     42504
     42500     42498     42502     42505     42501     42498     42502     42503
     42501     42498     42502     42504     42501     42498     42502     42505
     42502     42505     42512     42508     42503     42502     42505     42506
     42503     42502     42505     42507     42503     42502     42505     42512
     42504     42502     42505     42506     42504     42502     42505     42507
     42504     42502     42505     42512     42505     42512     42508     42509
     42505     42512     42508     42510     42505     42512     42508     42511
     42506     42505     42512     42508     42507     42505     42512     42508
     42508     42511     42513     42514     42508     42511     42513     42515
     42508     42511     42513     42516     42509     42508     42511     42513
     42510     42508     42511     42513     42511     42513     42516     42517
     42511     42513     42516     42518     42511     42513     42516     42524
     42512     42508     42511     42513     42513     42516     42518     42519
     42513     42516     42524     42525     42513     42516     42524     42526
     42513     42516     42524     42527     42514     42513     42516     42517
     42514     42513     42516     42518     42514     42513     42516     42524
     42515     42513     42516     42517     42515     42513     42516     42518
     42515     42513     42516     42524     42516     42518     42519     42520
     42516     42518     42519     42521     42516     42524     42527     42528
     42517     42516     42518     42519     42517     42516     42524     42525
     42517     42516     42524     42526     42517     42516     42524     42527
     42518     42516     42524     42525     42518     42516     42524     42526
     42518     42516     42524     42527     42518     42519     42521     42522
     42518     42519     42521     42523     42518     42519     42521     42533
     42519     42518     42516     42524     42519     42521     42533     42534
     42519     42521     42533     42535     42519     42521     42533     42536
     42520     42519     42521     42522     42520     42519     42521     42523
     42520     42519     42521     42533     42521     42533     42536     42537
     42521     42533     42536     42538     42521     42533     42536     42539
     42522     42521     42533     42534     42522     42521     42533     42535
     42522     42521     42533     42536     42523     42521     42533     42534
     42523     42521     42533     42535     42523     42521     42533     42536
     42524     42527     42528     42529     42524     42527     42528     42530
     42525     42524     42527     42528     42526     42524     42527     42528
     42527     42528     42530     42531     42527     42528     42530     42532
     42527     42528     42530     42577     42528     42530     42577     42578
     42528     42530     42577     42579     42528     42530     42577     42580
     42529     42528     42530     42531     42529     42528     42530     42532
     42529     42528     42530     42577     42530     42577     42580     42581
     42530     42577     42580     42582     42530     42577     42580     42583
     42531     42530     42577     42578     42531     42530     42577     42579
     42531     42530     42577     42580     42532     42530     42577     42578
     42532     42530     42577     42579     42532     42530     42577     42580
     42533     42536     42539     42540     42533     42536     42539     42541
     42533     42536     42539     42542     42534     42533     42536     42537
     42534     42533     42536     42538     42534     42533     42536     42539
     42535     42533     42536     42537     42535     42533     42536     42538
     42535     42533     42536     42539     42536     42539     42542     42543
     42536     42539     42542     42544     42536     42539     42542     42545
     42537     42536     42539     42540     42537     42536     42539     42541
     42537     42536     42539     42542     42538     42536     42539     42540
     42538     42536     42539     42541     42538     42536     42539     42542
     42539     42542     42545     42546     42539     42542     42545     42547
     42539     42542     42545     42548     42540     42539     42542     42543
     42540     42539     42542     42544     42540     42539     42542     42545
     42541     42539     42542     42543     42541     42539     42542     42544
     42541     42539     42542     42545     42542     42545     42548     42549
     42542     42545     42548     42550     42542     42545     42548     42551
     42543     42542     42545     42546     42543     42542     42545     42547
     42543     42542     42545     42548     42544     42542     42545     42546
     42544     42542     42545     42547     42544     42542     42545     42548
     42545     42548     42551     42552     42545     42548     42551     42553
     42545     42548     42551     42556     42546     42545     42548     42549
     42546     42545     42548     42550     42546     42545     42548     42551
     42547     42545     42548     42549     42547     42545     42548     42550
     42547     42545     42548     42551     42548     42551     42553     42554
     42548     42551     42553     42555     42548     42551     42553     42556
     42548     42551     42556     42553     42548     42551     42556     42557
     42548     42551     42556     42558     42549     42548     42551     42552
     42549     42548     42551     42553     42549     42548     42551     42556
     42550     42548     42551     42552     42550     42548     42551     42553
     42550     42548     42551     42556     42551     42553     42556     42557
     42551     42553     42556     42558     42551     42556     42553     42554
     42551     42556     42553     42555     42551     42556     42558     42559
     42551     42556     42558     42560     42551     42556     42558     42561
     42552     42551     42553     42554     42552     42551     42553     42555
     42552     42551     42553     42556     42552     42551     42556     42553
     42552     42551     42556     42557     42552     42551     42556     42558
     42553     42551     42556     42557     42553     42551     42556     42558
     42553     42556     42558     42559     42553     42556     42558     42560
     42553     42556     42558     42561     42554     42553     42551     42556
     42554     42553     42556     42557     42554     42553     42556     42558
     42555     42553     42551     42556     42555     42553     42556     42557
     42555     42553     42556     42558     42556     42558     42561     42562
     42556     42558     42561     42563     42556     42558     42561     42564
     42557     42556     42558     42559     42557     42556     42558     42560
     42557     42556     42558     42561     42558     42561     42564     42565
     42558     42561     42564     42566     42558     42561     42564     42567
     42559     42558     42561     42562     42559     42558     42561     42563
     42559     42558     42561     42564     42560     42558     42561     42562
     42560     42558     42561     42563     42560     42558     42561     42564
     42561     42564     42567     42568     42561     42564     42567     42569
     42561     42564     42567     42570     42562     42561     42564     42565
     42562     42561     42564     42566     42562     42561     42564     42567
     42563     42561     42564     42565     42563     42561     42564     42566
     42563     42561     42564     42567     42564     42567     42570     42571
     42564     42567     42570     42572     42564     42567     42570     42573
     42565     42564     42567     42568     42565     42564     42567     42569
     42565     42564     42567     42570     42566     42564     42567     42568
     42566     42564     42567     42569     42566     42564     42567     42570
     42567     42570     42573     42574     42567     42570     42573     42575
     42567     42570     42573     42576     42568     42567     42570     42571
     42568     42567     42570     42572     42568     42567     42570     42573
     42569     42567     42570     42571     42569     42567     42570     42572
     42569     42567     42570     42573     42571     42570     42573     42574
     42571     42570     42573     42575     42571     42570     42573     42576
     42572     42570     42573     42574     42572     42570     42573     42575
     42572     42570     42573     42576     42577     42580     42583     42584
     42577     42580     42583     42585     42577     42580     42583     42586
     42578     42577     42580     42581     42578     42577     42580     42582
     42578     42577     42580     42583     42579     42577     42580     42581
     42579     42577     42580     42582     42579     42577     42580     42583
     42580     42583     42586     42587     42580     42583     42586     42588
     42580     42583     42586     42589     42581     42580     42583     42584
     42581     42580     42583     42585     42581     42580     42583     42586
     42582     42580     42583     42584     42582     42580     42583     42585
     42582     42580     42583     42586     42583     42586     42589     42590
     42583     42586     42589     42591     42583     42586     42589     42592
     42584     42583     42586     42587     42584     42583     42586     42588
     42584     42583     42586     42589     42585     42583     42586     42587
     42585     42583     42586     42588     42585     42583     42586     42589
     42586     42589     42592     42593     42586     42589     42592     42594
     42586     42589     42592     42595     42587     42586     42589     42590
     42587     42586     42589     42591     42587     42586     42589     42592
     42588     42586     42589     42590     42588     42586     42589     42591
     42588     42586     42589     42592     42589     42592     42595     42596
     42589     42592     42595     42597     42589     42592     42595     42598
     42590     42589     42592     42593     42590     42589     42592     42594
     42590     42589     42592     42595     42591     42589     42592     42593
     42591     42589     42592     42594     42591     42589     42592     42595
     42592     42595     42598     42599     42592     42595     42598     42600
     42592     42595     42598     42601     42593     42592     42595     42596
     42593     42592     42595     42597     42593     42592     42595     42598
     42594     42592     42595     42596     42594     42592     42595     42597
     42594     42592     42595     42598     42595     42598     42601     42602
     42595     42598     42601     42603     42595     42598     42601     42604
     42596     42595     42598     42599     42596     42595     42598     42600
     42596     42595     42598     42601     42597     42595     42598     42599
     42597     42595     42598     42600     42597     42595     42598     42601
     42598     42601     42604     42605     42598     42601     42604     42606
     42598     42601     42604     42607     42599     42598     42601     42602
     42599     42598     42601     42603     42599     42598     42601     42604
     42600     42598     42601     42602     42600     42598     42601     42603
     42600     42598     42601     42604     42601     42604     42607     42608
     42601     42604     42607     42609     42601     42604     42607     42610
     42602     42601     42604     42605     42602     42601     42604     42606
     42602     42601     42604     42607     42603     42601     42604     42605
     42603     42601     42604     42606     42603     42601     42604     42607
     42604     42607     42610     42611     42604     42607     42610     42612
     42604     42607     42610     42613     42605     42604     42607     42608
     42605     42604     42607     42609     42605     42604     42607     42610
     42606     42604     42607     42608     42606     42604     42607     42609
     42606     42604     42607     42610     42607     42610     42613     42614
     42607     42610     42613     42615     42607     42610     42613     42616
     42608     42607     42610     42611     42608     42607     42610     42612
     42608     42607     42610     42613     42609     42607     42610     42611
     42609     42607     42610     42612     42609     42607     42610     42613
     42610     42613     42616     42617     42610     42613     42616     42618
     42610     42613     42616     42619     42611     42610     42613     42614
     42611     42610     42613     42615     42611     42610     42613     42616
     42612     42610     42613     42614     42612     42610     42613     42615
     42612     42610     42613     42616     42614     42613     42616     42617
     42614     42613     42616     42618     42614     42613     42616     42619
     42615     42613     42616     42617     42615     42613     42616     42618
     42615     42613     42616     42619     42620     42624     42627     42628
     42620     42624     42627     42629     42620     42624     42627     42634
     42621     42620     42624     42625     42621     42620     42624     42626
     42621     42620     42624     42627     42622     42620     42624     42625
     42622     42620     42624     42626     42622     42620     42624     42627
     42623     42620     42624     42625     42623     42620     42624     42626
     42623     42620     42624     42627     42624     42627     42634     42630
     42625     42624     42627     42628     42625     42624     42627     42629
     42625     42624     42627     42634     42626     42624     42627     42628
     42626     42624     42627     42629     42626     42624     42627     42634
     42627     42634     42630     42631     42627     42634     42630     42632
     42627     42634     42630     42633     42628     42627     42634     42630
     42629     42627     42634     42630     42630     42633     42635     42636
     42630     42633     42635     42637     42630     42633     42635     42638
     42631     42630     42633     42635     42632     42630     42633     42635
     42633     42635     42638     42639     42633     42635     42638     42640
     42633     42635     42638     42646     42634     42630     42633     42635
     42635     42638     42640     42641     42635     42638     42646     42647
     42635     42638     42646     42648     42635     42638     42646     42649
     42636     42635     42638     42639     42636     42635     42638     42640
     42636     42635     42638     42646     42637     42635     42638     42639
     42637     42635     42638     42640     42637     42635     42638     42646
     42638     42640     42641     42642     42638     42640     42641     42643
     42638     42646     42649     42650     42639     42638     42640     42641
     42639     42638     42646     42647     42639     42638     42646     42648
     42639     42638     42646     42649     42640     42638     42646     42647
     42640     42638     42646     42648     42640     42638     42646     42649
     42640     42641     42643     42644     42640     42641     42643     42645
     42640     42641     42643     42655     42641     42640     42638     42646
     42641     42643     42655     42656     42641     42643     42655     42657
     42641     42643     42655     42658     42642     42641     42643     42644
     42642     42641     42643     42645     42642     42641     42643     42655
     42643     42655     42658     42659     42643     42655     42658     42660
     42643     42655     42658     42661     42644     42643     42655     42656
     42644     42643     42655     42657     42644     42643     42655     42658
     42645     42643     42655     42656     42645     42643     42655     42657
     42645     42643     42655     42658     42646     42649     42650     42651
     42646     42649     42650     42652     42647     42646     42649     42650
     42648     42646     42649     42650     42649     42650     42652     42653
     42649     42650     42652     42654     42649     42650     42652     42699
     42650     42652     42699     42700     42650     42652     42699     42701
     42650     42652     42699     42702     42651     42650     42652     42653
     42651     42650     42652     42654     42651     42650     42652     42699
     42652     42699     42702     42703     42652     42699     42702     42704
     42652     42699     42702     42705     42653     42652     42699     42700
     42653     42652     42699     42701     42653     42652     42699     42702
     42654     42652     42699     42700     42654     42652     42699     42701
     42654     42652     42699     42702     42655     42658     42661     42662
     42655     42658     42661     42663     42655     42658     42661     42664
     42656     42655     42658     42659     42656     42655     42658     42660
     42656     42655     42658     42661     42657     42655     42658     42659
     42657     42655     42658     42660     42657     42655     42658     42661
     42658     42661     42664     42665     42658     42661     42664     42666
     42658     42661     42664     42667     42659     42658     42661     42662
     42659     42658     42661     42663     42659     42658     42661     42664
     42660     42658     42661     42662     42660     42658     42661     42663
     42660     42658     42661     42664     42661     42664     42667     42668
     42661     42664     42667     42669     42661     42664     42667     42670
     42662     42661     42664     42665     42662     42661     42664     42666
     42662     42661     42664     42667     42663     42661     42664     42665
     42663     42661     42664     42666     42663     42661     42664     42667
     42664     42667     42670     42671     42664     42667     42670     42672
     42664     42667     42670     42673     42665     42664     42667     42668
     42665     42664     42667     42669     42665     42664     42667     42670
     42666     42664     42667     42668     42666     42664     42667     42669
     42666     42664     42667     42670     42667     42670     42673     42674
     42667     42670     42673     42675     42667     42670     42673     42678
     42668     42667     42670     42671     42668     42667     42670     42672
     42668     42667     42670     42673     42669     42667     42670     42671
     42669     42667     42670     42672     42669     42667     42670     42673
     42670     42673     42675     42676     42670     42673     42675     42677
     42670     42673     42675     42678     42670     42673     42678     42675
     42670     42673     42678     42679     42670     42673     42678     42680
     42671     42670     42673     42674     42671     42670     42673     42675
     42671     42670     42673     42678     42672     42670     42673     42674
     42672     42670     42673     42675     42672     42670     42673     42678
     42673     42675     42678     42679     42673     42675     42678     42680
     42673     42678     42675     42676     42673     42678     42675     42677
     42673     42678     42680     42681     42673     42678     42680     42682
     42673     42678     42680     42683     42674     42673     42675     42676
     42674     42673     42675     42677     42674     42673     42675     42678
     42674     42673     42678     42675     42674     42673     42678     42679
     42674     42673     42678     42680     42675     42673     42678     42679
     42675     42673     42678     42680     42675     42678     42680     42681
     42675     42678     42680     42682     42675     42678     42680     42683
     42676     42675     42673     42678     42676     42675     42678     42679
     42676     42675     42678     42680     42677     42675     42673     42678
     42677     42675     42678     42679     42677     42675     42678     42680
     42678     42680     42683     42684     42678     42680     42683     42685
     42678     42680     42683     42686     42679     42678     42680     42681
     42679     42678     42680     42682     42679     42678     42680     42683
     42680     42683     42686     42687     42680     42683     42686     42688
     42680     42683     42686     42689     42681     42680     42683     42684
     42681     42680     42683     42685     42681     42680     42683     42686
     42682     42680     42683     42684     42682     42680     42683     42685
     42682     42680     42683     42686     42683     42686     42689     42690
     42683     42686     42689     42691     42683     42686     42689     42692
     42684     42683     42686     42687     42684     42683     42686     42688
     42684     42683     42686     42689     42685     42683     42686     42687
     42685     42683     42686     42688     42685     42683     42686     42689
     42686     42689     42692     42693     42686     42689     42692     42694
     42686     42689     42692     42695     42687     42686     42689     42690
     42687     42686     42689     42691     42687     42686     42689     42692
     42688     42686     42689     42690     42688     42686     42689     42691
     42688     42686     42689     42692     42689     42692     42695     42696
     42689     42692     42695     42697     42689     42692     42695     42698
     42690     42689     42692     42693     42690     42689     42692     42694
     42690     42689     42692     42695     42691     42689     42692     42693
     42691     42689     42692     42694     42691     42689     42692     42695
     42693     42692     42695     42696     42693     42692     42695     42697
     42693     42692     42695     42698     42694     42692     42695     42696
     42694     42692     42695     42697     42694     42692     42695     42698
     42699     42702     42705     42706     42699     42702     42705     42707
     42699     42702     42705     42708     42700     42699     42702     42703
     42700     42699     42702     42704     42700     42699     42702     42705
     42701     42699     42702     42703     42701     42699     42702     42704
     42701     42699     42702     42705     42702     42705     42708     42709
     42702     42705     42708     42710     42702     42705     42708     42711
     42703     42702     42705     42706     42703     42702     42705     42707
     42703     42702     42705     42708     42704     42702     42705     42706
     42704     42702     42705     42707     42704     42702     42705     42708
     42705     42708     42711     42712     42705     42708     42711     42713
     42705     42708     42711     42714     42706     42705     42708     42709
     42706     42705     42708     42710     42706     42705     42708     42711
     42707     42705     42708     42709     42707     42705     42708     42710
     42707     42705     42708     42711     42708     42711     42714     42715
     42708     42711     42714     42716     42708     42711     42714     42717
     42709     42708     42711     42712     42709     42708     42711     42713
     42709     42708     42711     42714     42710     42708     42711     42712
     42710     42708     42711     42713     42710     42708     42711     42714
     42711     42714     42717     42718     42711     42714     42717     42719
     42711     42714     42717     42720     42712     42711     42714     42715
     42712     42711     42714     42716     42712     42711     42714     42717
     42713     42711     42714     42715     42713     42711     42714     42716
     42713     42711     42714     42717     42714     42717     42720     42721
     42714     42717     42720     42722     42714     42717     42720     42723
     42715     42714     42717     42718     42715     42714     42717     42719
     42715     42714     42717     42720     42716     42714     42717     42718
     42716     42714     42717     42719     42716     42714     42717     42720
     42717     42720     42723     42724     42717     42720     42723     42725
     42717     42720     42723     42726     42718     42717     42720     42721
     42718     42717     42720     42722     42718     42717     42720     42723
     42719     42717     42720     42721     42719     42717     42720     42722
     42719     42717     42720     42723     42720     42723     42726     42727
     42720     42723     42726     42728     42720     42723     42726     42729
     42721     42720     42723     42724     42721     42720     42723     42725
     42721     42720     42723     42726     42722     42720     42723     42724
     42722     42720     42723     42725     42722     42720     42723     42726
     42723     42726     42729     42730     42723     42726     42729     42731
     42723     42726     42729     42732     42724     42723     42726     42727
     42724     42723     42726     42728     42724     42723     42726     42729
     42725     42723     42726     42727     42725     42723     42726     42728
     42725     42723     42726     42729     42726     42729     42732     42733
     42726     42729     42732     42734     42726     42729     42732     42735
     42727     42726     42729     42730     42727     42726     42729     42731
     42727     42726     42729     42732     42728     42726     42729     42730
     42728     42726     42729     42731     42728     42726     42729     42732
     42729     42732     42735     42736     42729     42732     42735     42737
     42729     42732     42735     42738     42730     42729     42732     42733
     42730     42729     42732     42734     42730     42729     42732     42735
     42731     42729     42732     42733     42731     42729     42732     42734
     42731     42729     42732     42735     42733     42732     42735     42736
     42733     42732     42735     42737     42733     42732     42735     42738
     42734     42732     42735     42736     42734     42732     42735     42737
     42734     42732     42735     42738     42739     42743     42746     42747
     42739     42743     42746     42748     42739     42743     42746     42753
     42740     42739     42743     42744     42740     42739     42743     42745
     42740     42739     42743     42746     42741     42739     42743     42744
     42741     42739     42743     42745     42741     42739     42743     42746
     42742     42739     42743     42744     42742     42739     42743     42745
     42742     42739     42743     42746     42743     42746     42753     42749
     42744     42743     42746     42747     42744     42743     42746     42748
     42744     42743     42746     42753     42745     42743     42746     42747
     42745     42743     42746     42748     42745     42743     42746     42753
     42746     42753     42749     42750     42746     42753     42749     42751
     42746     42753     42749     42752     42747     42746     42753     42749
     42748     42746     42753     42749     42749     42752     42754     42755
     42749     42752     42754     42756     42749     42752     42754     42757
     42750     42749     42752     42754     42751     42749     42752     42754
     42752     42754     42757     42758     42752     42754     42757     42759
     42752     42754     42757     42765     42753     42749     42752     42754
     42754     42757     42759     42760     42754     42757     42765     42766
     42754     42757     42765     42767     42754     42757     42765     42768
     42755     42754     42757     42758     42755     42754     42757     42759
     42755     42754     42757     42765     42756     42754     42757     42758
     42756     42754     42757     42759     42756     42754     42757     42765
     42757     42759     42760     42761     42757     42759     42760     42762
     42757     42765     42768     42769     42758     42757     42759     42760
     42758     42757     42765     42766     42758     42757     42765     42767
     42758     42757     42765     42768     42759     42757     42765     42766
     42759     42757     42765     42767     42759     42757     42765     42768
     42759     42760     42762     42763     42759     42760     42762     42764
     42759     42760     42762     42774     42760     42759     42757     42765
     42760     42762     42774     42775     42760     42762     42774     42776
     42760     42762     42774     42777     42761     42760     42762     42763
     42761     42760     42762     42764     42761     42760     42762     42774
     42762     42774     42777     42778     42762     42774     42777     42779
     42762     42774     42777     42780     42763     42762     42774     42775
     42763     42762     42774     42776     42763     42762     42774     42777
     42764     42762     42774     42775     42764     42762     42774     42776
     42764     42762     42774     42777     42765     42768     42769     42770
     42765     42768     42769     42771     42766     42765     42768     42769
     42767     42765     42768     42769     42768     42769     42771     42772
     42768     42769     42771     42773     42768     42769     42771     42815
     42769     42771     42815     42816     42769     42771     42815     42817
     42769     42771     42815     42818     42770     42769     42771     42772
     42770     42769     42771     42773     42770     42769     42771     42815
     42771     42815     42818     42819     42771     42815     42818     42820
     42771     42815     42818     42821     42772     42771     42815     42816
     42772     42771     42815     42817     42772     42771     42815     42818
     42773     42771     42815     42816     42773     42771     42815     42817
     42773     42771     42815     42818     42774     42777     42780     42781
     42774     42777     42780     42782     42774     42777     42780     42783
     42775     42774     42777     42778     42775     42774     42777     42779
     42775     42774     42777     42780     42776     42774     42777     42778
     42776     42774     42777     42779     42776     42774     42777     42780
     42777     42780     42783     42784     42777     42780     42783     42785
     42777     42780     42783     42786     42778     42777     42780     42781
     42778     42777     42780     42782     42778     42777     42780     42783
     42779     42777     42780     42781     42779     42777     42780     42782
     42779     42777     42780     42783     42780     42783     42786     42787
     42780     42783     42786     42788     42780     42783     42786     42789
     42781     42780     42783     42784     42781     42780     42783     42785
     42781     42780     42783     42786     42782     42780     42783     42784
     42782     42780     42783     42785     42782     42780     42783     42786
     42783     42786     42789     42790     42783     42786     42789     42791
     42783     42786     42789     42792     42784     42783     42786     42787
     42784     42783     42786     42788     42784     42783     42786     42789
     42785     42783     42786     42787     42785     42783     42786     42788
     42785     42783     42786     42789     42786     42789     42792     42793
     42786     42789     42792     42794     42787     42786     42789     42790
     42787     42786     42789     42791     42787     42786     42789     42792
     42788     42786     42789     42790     42788     42786     42789     42791
     42788     42786     42789     42792     42789     42792     42794     42795
     42789     42792     42794     42796     42790     42789     42792     42793
     42790     42789     42792     42794     42791     42789     42792     42793
     42791     42789     42792     42794     42792     42794     42796     42797
     42792     42794     42796     42798     42792     42794     42796     42799
     42793     42792     42794     42795     42793     42792     42794     42796
     42794     42796     42799     42800     42794     42796     42799     42801
     42794     42796     42799     42802     42795     42794     42796     42797
     42795     42794     42796     42798     42795     42794     42796     42799
     42796     42799     42802     42803     42796     42799     42802     42804
     42796     42799     42802     42805     42797     42796     42799     42800
     42797     42796     42799     42801     42797     42796     42799     42802
     42798     42796     42799     42800     42798     42796     42799     42801
     42798     42796     42799     42802     42799     42802     42805     42806
     42799     42802     42805     42807     42799     42802     42805     42808
     42800     42799     42802     42803     42800     42799     42802     42804
     42800     42799     42802     42805     42801     42799     42802     42803
     42801     42799     42802     42804     42801     42799     42802     42805
     42802     42805     42808     42809     42802     42805     42808     42810
     42802     42805     42808     42811     42803     42802     42805     42806
     42803     42802     42805     42807     42803     42802     42805     42808
     42804     42802     42805     42806     42804     42802     42805     42807
     42804     42802     42805     42808     42805     42808     42811     42812
     42805     42808     42811     42813     42805     42808     42811     42814
     42806     42805     42808     42809     42806     42805     42808     42810
     42806     42805     42808     42811     42807     42805     42808     42809
     42807     42805     42808     42810     42807     42805     42808     42811
     42809     42808     42811     42812     42809     42808     42811     42813
     42809     42808     42811     42814     42810     42808     42811     42812
     42810     42808     42811     42813     42810     42808     42811     42814
     42815     42818     42821     42822     42815     42818     42821     42823
     42815     42818     42821     42824     42816     42815     42818     42819
     42816     42815     42818     42820     42816     42815     42818     42821
     42817     42815     42818     42819     42817     42815     42818     42820
     42817     42815     42818     42821     42818     42821     42824     42825
     42818     42821     42824     42826     42818     42821     42824     42827
     42819     42818     42821     42822     42819     42818     42821     42823
     42819     42818     42821     42824     42820     42818     42821     42822
     42820     42818     42821     42823     42820     42818     42821     42824
     42821     42824     42827     42828     42821     42824     42827     42829
     42821     42824     42827     42830     42822     42821     42824     42825
     42822     42821     42824     42826     42822     42821     42824     42827
     42823     42821     42824     42825     42823     42821     42824     42826
     42823     42821     42824     42827     42824     42827     42830     42831
     42824     42827     42830     42832     42824     42827     42830     42833
     42825     42824     42827     42828     42825     42824     42827     42829
     42825     42824     42827     42830     42826     42824     42827     42828
     42826     42824     42827     42829     42826     42824     42827     42830
     42827     42830     42833     42834     42827     42830     42833     42835
     42828     42827     42830     42831     42828     42827     42830     42832
     42828     42827     42830     42833     42829     42827     42830     42831
     42829     42827     42830     42832     42829     42827     42830     42833
     42830     42833     42835     42836     42830     42833     42835     42837
     42831     42830     42833     42834     42831     42830     42833     42835
     42832     42830     42833     42834     42832     42830     42833     42835
     42833     42835     42837     42838     42833     42835     42837     42839
     42833     42835     42837     42840     42834     42833     42835     42836
     42834     42833     42835     42837     42835     42837     42840     42841
     42835     42837     42840     42842     42835     42837     42840     42843
     42836     42835     42837     42838     42836     42835     42837     42839
     42836     42835     42837     42840     42837     42840     42843     42844
     42837     42840     42843     42845     42837     42840     42843     42846
     42838     42837     42840     42841     42838     42837     42840     42842
     42838     42837     42840     42843     42839     42837     42840     42841
     42839     42837     42840     42842     42839     42837     42840     42843
     42840     42843     42846     42847     42840     42843     42846     42848
     42840     42843     42846     42849     42841     42840     42843     42844
     42841     42840     42843     42845     42841     42840     42843     42846
     42842     42840     42843     42844     42842     42840     42843     42845
     42842     42840     42843     42846     42843     42846     42849     42850
     42843     42846     42849     42851     42843     42846     42849     42852
     42844     42843     42846     42847     42844     42843     42846     42848
     42844     42843     42846     42849     42845     42843     42846     42847
     42845     42843     42846     42848     42845     42843     42846     42849
     42846     42849     42852     42853     42846     42849     42852     42854
     42846     42849     42852     42855     42847     42846     42849     42850
     42847     42846     42849     42851     42847     42846     42849     42852
     42848     42846     42849     42850     42848     42846     42849     42851
     42848     42846     42849     42852     42849     42852     42855     42856
     42849     42852     42855     42857     42849     42852     42855     42858
     42850     42849     42852     42853     42850     42849     42852     42854
     42850     42849     42852     42855     42851     42849     42852     42853
     42851     42849     42852     42854     42851     42849     42852     42855
     42852     42855     42858     42859     42852     42855     42858     42860
     42852     42855     42858     42861     42853     42852     42855     42856
     42853     42852     42855     42857     42853     42852     42855     42858
     42854     42852     42855     42856     42854     42852     42855     42857
     42854     42852     42855     42858     42856     42855     42858     42859
     42856     42855     42858     42860     42856     42855     42858     42861
     42857     42855     42858     42859     42857     42855     42858     42860
     42857     42855     42858     42861     42862     42866     42869     42870
     42862     42866     42869     42871     42862     42866     42869     42876
     42863     42862     42866     42867     42863     42862     42866     42868
     42863     42862     42866     42869     42864     42862     42866     42867
     42864     42862     42866     42868     42864     42862     42866     42869
     42865     42862     42866     42867     42865     42862     42866     42868
     42865     42862     42866     42869     42866     42869     42876     42872
     42867     42866     42869     42870     42867     42866     42869     42871
     42867     42866     42869     42876     42868     42866     42869     42870
     42868     42866     42869     42871     42868     42866     42869     42876
     42869     42876     42872     42873     42869     42876     42872     42874
     42869     42876     42872     42875     42870     42869     42876     42872
     42871     42869     42876     42872     42872     42875     42877     42878
     42872     42875     42877     42879     42872     42875     42877     42880
     42873     42872     42875     42877     42874     42872     42875     42877
     42875     42877     42880     42881     42875     42877     42880     42882
     42875     42877     42880     42888     42876     42872     42875     42877
     42877     42880     42882     42883     42877     42880     42888     42889
     42877     42880     42888     42890     42877     42880     42888     42891
     42878     42877     42880     42881     42878     42877     42880     42882
     42878     42877     42880     42888     42879     42877     42880     42881
     42879     42877     42880     42882     42879     42877     42880     42888
     42880     42882     42883     42884     42880     42882     42883     42885
     42880     42888     42891     42892     42881     42880     42882     42883
     42881     42880     42888     42889     42881     42880     42888     42890
     42881     42880     42888     42891     42882     42880     42888     42889
     42882     42880     42888     42890     42882     42880     42888     42891
     42882     42883     42885     42886     42882     42883     42885     42887
     42882     42883     42885     42897     42883     42882     42880     42888
     42883     42885     42897     42898     42883     42885     42897     42899
     42883     42885     42897     42900     42884     42883     42885     42886
     42884     42883     42885     42887     42884     42883     42885     42897
     42885     42897     42900     42901     42885     42897     42900     42902
     42885     42897     42900     42903     42886     42885     42897     42898
     42886     42885     42897     42899     42886     42885     42897     42900
     42887     42885     42897     42898     42887     42885     42897     42899
     42887     42885     42897     42900     42888     42891     42892     42893
     42888     42891     42892     42894     42889     42888     42891     42892
     42890     42888     42891     42892     42891     42892     42894     42895
     42891     42892     42894     42896     42891     42892     42894     42944
     42892     42894     42944     42945     42892     42894     42944     42946
     42892     42894     42944     42947     42893     42892     42894     42895
     42893     42892     42894     42896     42893     42892     42894     42944
     42894     42944     42947     42948     42894     42944     42947     42949
     42894     42944     42947     42950     42895     42894     42944     42945
     42895     42894     42944     42946     42895     42894     42944     42947
     42896     42894     42944     42945     42896     42894     42944     42946
     42896     42894     42944     42947     42897     42900     42903     42904
     42897     42900     42903     42905     42897     42900     42903     42906
     42898     42897     42900     42901     42898     42897     42900     42902
     42898     42897     42900     42903     42899     42897     42900     42901
     42899     42897     42900     42902     42899     42897     42900     42903
     42900     42903     42906     42907     42900     42903     42906     42908
     42900     42903     42906     42909     42901     42900     42903     42904
     42901     42900     42903     42905     42901     42900     42903     42906
     42902     42900     42903     42904     42902     42900     42903     42905
     42902     42900     42903     42906     42903     42906     42909     42910
     42903     42906     42909     42911     42903     42906     42909     42912
     42904     42903     42906     42907     42904     42903     42906     42908
     42904     42903     42906     42909     42905     42903     42906     42907
     42905     42903     42906     42908     42905     42903     42906     42909
     42906     42909     42912     42913     42906     42909     42912     42914
     42906     42909     42912     42915     42907     42906     42909     42910
     42907     42906     42909     42911     42907     42906     42909     42912
     42908     42906     42909     42910     42908     42906     42909     42911
     42908     42906     42909     42912     42909     42912     42915     42916
     42909     42912     42915     42917     42910     42909     42912     42913
     42910     42909     42912     42914     42910     42909     42912     42915
     42911     42909     42912     42913     42911     42909     42912     42914
     42911     42909     42912     42915     42912     42915     42917     42918
     42912     42915     42917     42919     42913     42912     42915     42916
     42913     42912     42915     42917     42914     42912     42915     42916
     42914     42912     42915     42917     42915     42917     42919     42920
     42915     42917     42919     42921     42915     42917     42919     42922
     42916     42915     42917     42918     42916     42915     42917     42919
     42917     42919     42922     42923     42917     42919     42922     42924
     42917     42919     42922     42925     42918     42917     42919     42920
     42918     42917     42919     42921     42918     42917     42919     42922
     42919     42922     42925     42926     42919     42922     42925     42927
     42919     42922     42925     42928     42920     42919     42922     42923
     42920     42919     42922     42924     42920     42919     42922     42925
     42921     42919     42922     42923     42921     42919     42922     42924
     42921     42919     42922     42925     42922     42925     42928     42929
     42922     42925     42928     42930     42922     42925     42928     42931
     42923     42922     42925     42926     42923     42922     42925     42927
     42923     42922     42925     42928     42924     42922     42925     42926
     42924     42922     42925     42927     42924     42922     42925     42928
     42925     42928     42931     42932     42925     42928     42931     42933
     42925     42928     42931     42934     42926     42925     42928     42929
     42926     42925     42928     42930     42926     42925     42928     42931
     42927     42925     42928     42929     42927     42925     42928     42930
     42927     42925     42928     42931     42928     42931     42934     42935
     42928     42931     42934     42936     42928     42931     42934     42937
     42929     42928     42931     42932     42929     42928     42931     42933
     42929     42928     42931     42934     42930     42928     42931     42932
     42930     42928     42931     42933     42930     42928     42931     42934
     42931     42934     42937     42938     42931     42934     42937     42939
     42931     42934     42937     42940     42932     42931     42934     42935
     42932     42931     42934     42936     42932     42931     42934     42937
     42933     42931     42934     42935     42933     42931     42934     42936
     42933     42931     42934     42937     42934     42937     42940     42941
     42934     42937     42940     42942     42934     42937     42940     42943
     42935     42934     42937     42938     42935     42934     42937     42939
     42935     42934     42937     42940     42936     42934     42937     42938
     42936     42934     42937     42939     42936     42934     42937     42940
     42938     42937     42940     42941     42938     42937     42940     42942
     42938     42937     42940     42943     42939     42937     42940     42941
     42939     42937     42940     42942     42939     42937     42940     42943
     42944     42947     42950     42951     42944     42947     42950     42952
     42944     42947     42950     42953     42945     42944     42947     42948
     42945     42944     42947     42949     42945     42944     42947     42950
     42946     42944     42947     42948     42946     42944     42947     42949
     42946     42944     42947     42950     42947     42950     42953     42954
     42947     42950     42953     42955     42947     42950     42953     42956
     42948     42947     42950     42951     42948     42947     42950     42952
     42948     42947     42950     42953     42949     42947     42950     42951
     42949     42947     42950     42952     42949     42947     42950     42953
     42950     42953     42956     42957     42950     42953     42956     42958
     42950     42953     42956     42959     42951     42950     42953     42954
     42951     42950     42953     42955     42951     42950     42953     42956
     42952     42950     42953     42954     42952     42950     42953     42955
     42952     42950     42953     42956     42953     42956     42959     42960
     42953     42956     42959     42961     42953     42956     42959     42962
     42954     42953     42956     42957     42954     42953     42956     42958
     42954     42953     42956     42959     42955     42953     42956     42957
     42955     42953     42956     42958     42955     42953     42956     42959
     42956     42959     42962     42963     42956     42959     42962     42964
     42956     42959     42962     42965     42957     42956     42959     42960
     42957     42956     42959     42961     42957     42956     42959     42962
     42958     42956     42959     42960     42958     42956     42959     42961
     42958     42956     42959     42962     42959     42962     42965     42966
     42959     42962     42965     42967     42959     42962     42965     42968
     42960     42959     42962     42963     42960     42959     42962     42964
     42960     42959     42962     42965     42961     42959     42962     42963
     42961     42959     42962     42964     42961     42959     42962     42965
     42962     42965     42968     42969     42962     42965     42968     42970
     42962     42965     42968     42971     42963     42962     42965     42966
     42963     42962     42965     42967     42963     42962     42965     42968
     42964     42962     42965     42966     42964     42962     42965     42967
     42964     42962     42965     42968     42965     42968     42971     42972
     42965     42968     42971     42973     42965     42968     42971     42974
     42966     42965     42968     42969     42966     42965     42968     42970
     42966     42965     42968     42971     42967     42965     42968     42969
     42967     42965     42968     42970     42967     42965     42968     42971
     42968     42971     42974     42975     42968     42971     42974     42976
     42968     42971     42974     42977     42969     42968     42971     42972
     42969     42968     42971     42973     42969     42968     42971     42974
     42970     42968     42971     42972     42970     42968     42971     42973
     42970     42968     42971     42974     42971     42974     42977     42978
     42971     42974     42977     42979     42971     42974     42977     42980
     42972     42971     42974     42975     42972     42971     42974     42976
     42972     42971     42974     42977     42973     42971     42974     42975
     42973     42971     42974     42976     42973     42971     42974     42977
     42974     42977     42980     42981     42974     42977     42980     42982
     42974     42977     42980     42983     42975     42974     42977     42978
     42975     42974     42977     42979     42975     42974     42977     42980
     42976     42974     42977     42978     42976     42974     42977     42979
     42976     42974     42977     42980     42977     42980     42983     42984
     42977     42980     42983     42985     42977     42980     42983     42986
     42978     42977     42980     42981     42978     42977     42980     42982
     42978     42977     42980     42983     42979     42977     42980     42981
     42979     42977     42980     42982     42979     42977     42980     42983
     42981     42980     42983     42984     42981     42980     42983     42985
     42981     42980     42983     42986     42982     42980     42983     42984
     42982     42980     42983     42985     42982     42980     42983     42986
     42987     42991     42994     42995     42987     42991     42994     42996
     42987     42991     42994     43001     42988     42987     42991     42992
     42988     42987     42991     42993     42988     42987     42991     42994
     42989     42987     42991     42992     42989     42987     42991     42993
     42989     42987     42991     42994     42990     42987     42991     42992
     42990     42987     42991     42993     42990     42987     42991     42994
     42991     42994     43001     42997     42992     42991     42994     42995
     42992     42991     42994     42996     42992     42991     42994     43001
     42993     42991     42994     42995     42993     42991     42994     42996
     42993     42991     42994     43001     42994     43001     42997     42998
     42994     43001     42997     42999     42994     43001     42997     43000
     42995     42994     43001     42997     42996     42994     43001     42997
     42997     43000     43002     43003     42997     43000     43002     43004
     42997     43000     43002     43005     42998     42997     43000     43002
     42999     42997     43000     43002     43000     43002     43005     43006
     43000     43002     43005     43007     43000     43002     43005     43013
     43001     42997     43000     43002     43002     43005     43007     43008
     43002     43005     43013     43014     43002     43005     43013     43015
     43002     43005     43013     43016     43003     43002     43005     43006
     43003     43002     43005     43007     43003     43002     43005     43013
     43004     43002     43005     43006     43004     43002     43005     43007
     43004     43002     43005     43013     43005     43007     43008     43009
     43005     43007     43008     43010     43005     43013     43016     43017
     43006     43005     43007     43008     43006     43005     43013     43014
     43006     43005     43013     43015     43006     43005     43013     43016
     43007     43005     43013     43014     43007     43005     43013     43015
     43007     43005     43013     43016     43007     43008     43010     43011
     43007     43008     43010     43012     43007     43008     43010     43022
     43008     43007     43005     43013     43008     43010     43022     43023
     43008     43010     43022     43024     43008     43010     43022     43025
     43009     43008     43010     43011     43009     43008     43010     43012
     43009     43008     43010     43022     43010     43022     43025     43026
     43010     43022     43025     43027     43010     43022     43025     43028
     43011     43010     43022     43023     43011     43010     43022     43024
     43011     43010     43022     43025     43012     43010     43022     43023
     43012     43010     43022     43024     43012     43010     43022     43025
     43013     43016     43017     43018     43013     43016     43017     43019
     43014     43013     43016     43017     43015     43013     43016     43017
     43016     43017     43019     43020     43016     43017     43019     43021
     43016     43017     43019     43069     43017     43019     43069     43070
     43017     43019     43069     43071     43017     43019     43069     43072
     43018     43017     43019     43020     43018     43017     43019     43021
     43018     43017     43019     43069     43019     43069     43072     43073
     43019     43069     43072     43074     43019     43069     43072     43075
     43020     43019     43069     43070     43020     43019     43069     43071
     43020     43019     43069     43072     43021     43019     43069     43070
     43021     43019     43069     43071     43021     43019     43069     43072
     43022     43025     43028     43029     43022     43025     43028     43030
     43022     43025     43028     43031     43023     43022     43025     43026
     43023     43022     43025     43027     43023     43022     43025     43028
     43024     43022     43025     43026     43024     43022     43025     43027
     43024     43022     43025     43028     43025     43028     43031     43032
     43025     43028     43031     43033     43025     43028     43031     43034
     43026     43025     43028     43029     43026     43025     43028     43030
     43026     43025     43028     43031     43027     43025     43028     43029
     43027     43025     43028     43030     43027     43025     43028     43031
     43028     43031     43034     43035     43028     43031     43034     43036
     43028     43031     43034     43037     43029     43028     43031     43032
     43029     43028     43031     43033     43029     43028     43031     43034
     43030     43028     43031     43032     43030     43028     43031     43033
     43030     43028     43031     43034     43031     43034     43037     43038
     43031     43034     43037     43039     43031     43034     43037     43040
     43032     43031     43034     43035     43032     43031     43034     43036
     43032     43031     43034     43037     43033     43031     43034     43035
     43033     43031     43034     43036     43033     43031     43034     43037
     43034     43037     43040     43041     43034     43037     43040     43042
     43035     43034     43037     43038     43035     43034     43037     43039
     43035     43034     43037     43040     43036     43034     43037     43038
     43036     43034     43037     43039     43036     43034     43037     43040
     43037     43040     43042     43043     43037     43040     43042     43044
     43038     43037     43040     43041     43038     43037     43040     43042
     43039     43037     43040     43041     43039     43037     43040     43042
     43040     43042     43044     43045     43040     43042     43044     43046
     43040     43042     43044     43047     43041     43040     43042     43043
     43041     43040     43042     43044     43042     43044     43047     43048
     43042     43044     43047     43049     43042     43044     43047     43050
     43043     43042     43044     43045     43043     43042     43044     43046
     43043     43042     43044     43047     43044     43047     43050     43051
     43044     43047     43050     43052     43044     43047     43050     43053
     43045     43044     43047     43048     43045     43044     43047     43049
     43045     43044     43047     43050     43046     43044     43047     43048
     43046     43044     43047     43049     43046     43044     43047     43050
     43047     43050     43053     43054     43047     43050     43053     43055
     43047     43050     43053     43056     43048     43047     43050     43051
     43048     43047     43050     43052     43048     43047     43050     43053
     43049     43047     43050     43051     43049     43047     43050     43052
     43049     43047     43050     43053     43050     43053     43056     43057
     43050     43053     43056     43058     43050     43053     43056     43059
     43051     43050     43053     43054     43051     43050     43053     43055
     43051     43050     43053     43056     43052     43050     43053     43054
     43052     43050     43053     43055     43052     43050     43053     43056
     43053     43056     43059     43060     43053     43056     43059     43061
     43053     43056     43059     43062     43054     43053     43056     43057
     43054     43053     43056     43058     43054     43053     43056     43059
     43055     43053     43056     43057     43055     43053     43056     43058
     43055     43053     43056     43059     43056     43059     43062     43063
     43056     43059     43062     43064     43056     43059     43062     43065
     43057     43056     43059     43060     43057     43056     43059     43061
     43057     43056     43059     43062     43058     43056     43059     43060
     43058     43056     43059     43061     43058     43056     43059     43062
     43059     43062     43065     43066     43059     43062     43065     43067
     43059     43062     43065     43068     43060     43059     43062     43063
     43060     43059     43062     43064     43060     43059     43062     43065
     43061     43059     43062     43063     43061     43059     43062     43064
     43061     43059     43062     43065     43063     43062     43065     43066
     43063     43062     43065     43067     43063     43062     43065     43068
     43064     43062     43065     43066     43064     43062     43065     43067
     43064     43062     43065     43068     43069     43072     43075     43076
     43069     43072     43075     43077     43069     43072     43075     43078
     43070     43069     43072     43073     43070     43069     43072     43074
     43070     43069     43072     43075     43071     43069     43072     43073
     43071     43069     43072     43074     43071     43069     43072     43075
     43072     43075     43078     43079     43072     43075     43078     43080
     43072     43075     43078     43081     43073     43072     43075     43076
     43073     43072     43075     43077     43073     43072     43075     43078
     43074     43072     43075     43076     43074     43072     43075     43077
     43074     43072     43075     43078     43075     43078     43081     43082
     43075     43078     43081     43083     43075     43078     43081     43084
     43076     43075     43078     43079     43076     43075     43078     43080
     43076     43075     43078     43081     43077     43075     43078     43079
     43077     43075     43078     43080     43077     43075     43078     43081
     43078     43081     43084     43085     43078     43081     43084     43086
     43078     43081     43084     43087     43079     43078     43081     43082
     43079     43078     43081     43083     43079     43078     43081     43084
     43080     43078     43081     43082     43080     43078     43081     43083
     43080     43078     43081     43084     43081     43084     43087     43088
     43081     43084     43087     43089     43081     43084     43087     43090
     43082     43081     43084     43085     43082     43081     43084     43086
     43082     43081     43084     43087     43083     43081     43084     43085
     43083     43081     43084     43086     43083     43081     43084     43087
     43084     43087     43090     43091     43084     43087     43090     43092
     43084     43087     43090     43093     43085     43084     43087     43088
     43085     43084     43087     43089     43085     43084     43087     43090
     43086     43084     43087     43088     43086     43084     43087     43089
     43086     43084     43087     43090     43087     43090     43093     43094
     43087     43090     43093     43095     43087     43090     43093     43096
     43088     43087     43090     43091     43088     43087     43090     43092
     43088     43087     43090     43093     43089     43087     43090     43091
     43089     43087     43090     43092     43089     43087     43090     43093
     43090     43093     43096     43097     43090     43093     43096     43098
     43090     43093     43096     43099     43091     43090     43093     43094
     43091     43090     43093     43095     43091     43090     43093     43096
     43092     43090     43093     43094     43092     43090     43093     43095
     43092     43090     43093     43096     43093     43096     43099     43100
     43093     43096     43099     43101     43093     43096     43099     43102
     43094     43093     43096     43097     43094     43093     43096     43098
     43094     43093     43096     43099     43095     43093     43096     43097
     43095     43093     43096     43098     43095     43093     43096     43099
     43096     43099     43102     43103     43096     43099     43102     43104
     43096     43099     43102     43105     43097     43096     43099     43100
     43097     43096     43099     43101     43097     43096     43099     43102
     43098     43096     43099     43100     43098     43096     43099     43101
     43098     43096     43099     43102     43099     43102     43105     43106
     43099     43102     43105     43107     43099     43102     43105     43108
     43100     43099     43102     43103     43100     43099     43102     43104
     43100     43099     43102     43105     43101     43099     43102     43103
     43101     43099     43102     43104     43101     43099     43102     43105
     43102     43105     43108     43109     43102     43105     43108     43110
     43102     43105     43108     43111     43103     43102     43105     43106
     43103     43102     43105     43107     43103     43102     43105     43108
     43104     43102     43105     43106     43104     43102     43105     43107
     43104     43102     43105     43108     43106     43105     43108     43109
     43106     43105     43108     43110     43106     43105     43108     43111
     43107     43105     43108     43109     43107     43105     43108     43110
     43107     43105     43108     43111     43112     43117     43119     43120
     43112     43117     43121     43122     43112     43117     43121     43123
     43112     43117     43121     43128     43113     43112     43115     43116
     43113     43112     43117     43118     43113     43112     43117     43119
     43113     43112     43117     43121     43114     43112     43115     43116
     43114     43112     43117     43118     43114     43112     43117     43119
     43114     43112     43117     43121     43115     43112     43117     43118
     43115     43112     43117     43119     43115     43112     43117     43121
     43116     43115     43112     43117     43117     43121     43128     43124
     43118     43117     43119     43120     43118     43117     43121     43122
     43118     43117     43121     43123     43118     43117     43121     43128
     43119     43117     43121     43122     43119     43117     43121     43123
     43119     43117     43121     43128     43120     43119     43117     43121
     43121     43128     43124     43125     43121     43128     43124     43126
     43121     43128     43124     43127     43122     43121     43128     43124
     43123     43121     43128     43124     43124     43127     43129     43130
     43124     43127     43129     43131     43124     43127     43129     43132
     43125     43124     43127     43129     43126     43124     43127     43129
     43127     43129     43132     43133     43127     43129     43132     43134
     43127     43129     43132     43140     43128     43124     43127     43129
     43129     43132     43134     43135     43129     43132     43140     43141
     43129     43132     43140     43142     43129     43132     43140     43143
     43130     43129     43132     43133     43130     43129     43132     43134
     43130     43129     43132     43140     43131     43129     43132     43133
     43131     43129     43132     43134     43131     43129     43132     43140
     43132     43134     43135     43136     43132     43134     43135     43137
     43132     43140     43143     43144     43133     43132     43134     43135
     43133     43132     43140     43141     43133     43132     43140     43142
     43133     43132     43140     43143     43134     43132     43140     43141
     43134     43132     43140     43142     43134     43132     43140     43143
     43134     43135     43137     43138     43134     43135     43137     43139
     43134     43135     43137     43149     43135     43134     43132     43140
     43135     43137     43149     43150     43135     43137     43149     43151
     43135     43137     43149     43152     43136     43135     43137     43138
     43136     43135     43137     43139     43136     43135     43137     43149
     43137     43149     43152     43153     43137     43149     43152     43154
     43137     43149     43152     43155     43138     43137     43149     43150
     43138     43137     43149     43151     43138     43137     43149     43152
     43139     43137     43149     43150     43139     43137     43149     43151
     43139     43137     43149     43152     43140     43143     43144     43145
     43140     43143     43144     43146     43141     43140     43143     43144
     43142     43140     43143     43144     43143     43144     43146     43147
     43143     43144     43146     43148     43143     43144     43146     43190
     43144     43146     43190     43191     43144     43146     43190     43192
     43144     43146     43190     43193     43145     43144     43146     43147
     43145     43144     43146     43148     43145     43144     43146     43190
     43146     43190     43193     43194     43146     43190     43193     43195
     43146     43190     43193     43196     43147     43146     43190     43191
     43147     43146     43190     43192     43147     43146     43190     43193
     43148     43146     43190     43191     43148     43146     43190     43192
     43148     43146     43190     43193     43149     43152     43155     43156
     43149     43152     43155     43157     43149     43152     43155     43158
     43150     43149     43152     43153     43150     43149     43152     43154
     43150     43149     43152     43155     43151     43149     43152     43153
     43151     43149     43152     43154     43151     43149     43152     43155
     43152     43155     43158     43159     43152     43155     43158     43160
     43152     43155     43158     43161     43153     43152     43155     43156
     43153     43152     43155     43157     43153     43152     43155     43158
     43154     43152     43155     43156     43154     43152     43155     43157
     43154     43152     43155     43158     43155     43158     43161     43162
     43155     43158     43161     43163     43155     43158     43161     43164
     43156     43155     43158     43159     43156     43155     43158     43160
     43156     43155     43158     43161     43157     43155     43158     43159
     43157     43155     43158     43160     43157     43155     43158     43161
     43158     43161     43164     43165     43158     43161     43164     43166
     43158     43161     43164     43167     43159     43158     43161     43162
     43159     43158     43161     43163     43159     43158     43161     43164
     43160     43158     43161     43162     43160     43158     43161     43163
     43160     43158     43161     43164     43161     43164     43167     43168
     43161     43164     43167     43169     43162     43161     43164     43165
     43162     43161     43164     43166     43162     43161     43164     43167
     43163     43161     43164     43165     43163     43161     43164     43166
     43163     43161     43164     43167     43164     43167     43169     43170
     43164     43167     43169     43171     43165     43164     43167     43168
     43165     43164     43167     43169     43166     43164     43167     43168
     43166     43164     43167     43169     43167     43169     43171     43172
     43167     43169     43171     43173     43167     43169     43171     43174
     43168     43167     43169     43170     43168     43167     43169     43171
     43169     43171     43174     43175     43169     43171     43174     43176
     43169     43171     43174     43177     43170     43169     43171     43172
     43170     43169     43171     43173     43170     43169     43171     43174
     43171     43174     43177     43178     43171     43174     43177     43179
     43171     43174     43177     43180     43172     43171     43174     43175
     43172     43171     43174     43176     43172     43171     43174     43177
     43173     43171     43174     43175     43173     43171     43174     43176
     43173     43171     43174     43177     43174     43177     43180     43181
     43174     43177     43180     43182     43174     43177     43180     43183
     43175     43174     43177     43178     43175     43174     43177     43179
     43175     43174     43177     43180     43176     43174     43177     43178
     43176     43174     43177     43179     43176     43174     43177     43180
     43177     43180     43183     43184     43177     43180     43183     43185
     43177     43180     43183     43186     43178     43177     43180     43181
     43178     43177     43180     43182     43178     43177     43180     43183
     43179     43177     43180     43181     43179     43177     43180     43182
     43179     43177     43180     43183     43180     43183     43186     43187
     43180     43183     43186     43188     43180     43183     43186     43189
     43181     43180     43183     43184     43181     43180     43183     43185
     43181     43180     43183     43186     43182     43180     43183     43184
     43182     43180     43183     43185     43182     43180     43183     43186
     43184     43183     43186     43187     43184     43183     43186     43188
     43184     43183     43186     43189     43185     43183     43186     43187
     43185     43183     43186     43188     43185     43183     43186     43189
     43190     43193     43196     43197     43190     43193     43196     43198
     43190     43193     43196     43199     43191     43190     43193     43194
     43191     43190     43193     43195     43191     43190     43193     43196
     43192     43190     43193     43194     43192     43190     43193     43195
     43192     43190     43193     43196     43193     43196     43199     43200
     43193     43196     43199     43201     43193     43196     43199     43202
     43194     43193     43196     43197     43194     43193     43196     43198
     43194     43193     43196     43199     43195     43193     43196     43197
     43195     43193     43196     43198     43195     43193     43196     43199
     43196     43199     43202     43203     43196     43199     43202     43204
     43196     43199     43202     43205     43197     43196     43199     43200
     43197     43196     43199     43201     43197     43196     43199     43202
     43198     43196     43199     43200     43198     43196     43199     43201
     43198     43196     43199     43202     43199     43202     43205     43206
     43199     43202     43205     43207     43199     43202     43205     43208
     43200     43199     43202     43203     43200     43199     43202     43204
     43200     43199     43202     43205     43201     43199     43202     43203
     43201     43199     43202     43204     43201     43199     43202     43205
     43202     43205     43208     43209     43202     43205     43208     43210
     43202     43205     43208     43211     43203     43202     43205     43206
     43203     43202     43205     43207     43203     43202     43205     43208
     43204     43202     43205     43206     43204     43202     43205     43207
     43204     43202     43205     43208     43205     43208     43211     43212
     43205     43208     43211     43213     43205     43208     43211     43214
     43206     43205     43208     43209     43206     43205     43208     43210
     43206     43205     43208     43211     43207     43205     43208     43209
     43207     43205     43208     43210     43207     43205     43208     43211
     43208     43211     43214     43215     43208     43211     43214     43216
     43208     43211     43214     43217     43209     43208     43211     43212
     43209     43208     43211     43213     43209     43208     43211     43214
     43210     43208     43211     43212     43210     43208     43211     43213
     43210     43208     43211     43214     43211     43214     43217     43218
     43211     43214     43217     43219     43211     43214     43217     43220
     43212     43211     43214     43215     43212     43211     43214     43216
     43212     43211     43214     43217     43213     43211     43214     43215
     43213     43211     43214     43216     43213     43211     43214     43217
     43214     43217     43220     43221     43214     43217     43220     43222
     43214     43217     43220     43223     43215     43214     43217     43218
     43215     43214     43217     43219     43215     43214     43217     43220
     43216     43214     43217     43218     43216     43214     43217     43219
     43216     43214     43217     43220     43217     43220     43223     43224
     43217     43220     43223     43225     43217     43220     43223     43226
     43218     43217     43220     43221     43218     43217     43220     43222
     43218     43217     43220     43223     43219     43217     43220     43221
     43219     43217     43220     43222     43219     43217     43220     43223
     43220     43223     43226     43227     43220     43223     43226     43228
     43220     43223     43226     43229     43221     43220     43223     43224
     43221     43220     43223     43225     43221     43220     43223     43226
     43222     43220     43223     43224     43222     43220     43223     43225
     43222     43220     43223     43226     43223     43226     43229     43230
     43223     43226     43229     43231     43223     43226     43229     43232
     43224     43223     43226     43227     43224     43223     43226     43228
     43224     43223     43226     43229     43225     43223     43226     43227
     43225     43223     43226     43228     43225     43223     43226     43229
     43227     43226     43229     43230     43227     43226     43229     43231
     43227     43226     43229     43232     43228     43226     43229     43230
     43228     43226     43229     43231     43228     43226     43229     43232
     43233     43237     43240     43241     43233     43237     43240     43242
     43233     43237     43240     43247     43234     43233     43237     43238
     43234     43233     43237     43239     43234     43233     43237     43240
     43235     43233     43237     43238     43235     43233     43237     43239
     43235     43233     43237     43240     43236     43233     43237     43238
     43236     43233     43237     43239     43236     43233     43237     43240
     43237     43240     43247     43243     43238     43237     43240     43241
     43238     43237     43240     43242     43238     43237     43240     43247
     43239     43237     43240     43241     43239     43237     43240     43242
     43239     43237     43240     43247     43240     43247     43243     43244
     43240     43247     43243     43245     43240     43247     43243     43246
     43241     43240     43247     43243     43242     43240     43247     43243
     43243     43246     43248     43249     43243     43246     43248     43250
     43243     43246     43248     43251     43244     43243     43246     43248
     43245     43243     43246     43248     43246     43248     43251     43252
     43246     43248     43251     43253     43246     43248     43251     43259
     43247     43243     43246     43248     43248     43251     43253     43254
     43248     43251     43259     43260     43248     43251     43259     43261
     43248     43251     43259     43262     43249     43248     43251     43252
     43249     43248     43251     43253     43249     43248     43251     43259
     43250     43248     43251     43252     43250     43248     43251     43253
     43250     43248     43251     43259     43251     43253     43254     43255
     43251     43253     43254     43256     43251     43259     43262     43263
     43252     43251     43253     43254     43252     43251     43259     43260
     43252     43251     43259     43261     43252     43251     43259     43262
     43253     43251     43259     43260     43253     43251     43259     43261
     43253     43251     43259     43262     43253     43254     43256     43257
     43253     43254     43256     43258     43253     43254     43256     43268
     43254     43253     43251     43259     43254     43256     43268     43269
     43254     43256     43268     43270     43254     43256     43268     43271
     43255     43254     43256     43257     43255     43254     43256     43258
     43255     43254     43256     43268     43256     43268     43271     43272
     43256     43268     43271     43273     43256     43268     43271     43274
     43257     43256     43268     43269     43257     43256     43268     43270
     43257     43256     43268     43271     43258     43256     43268     43269
     43258     43256     43268     43270     43258     43256     43268     43271
     43259     43262     43263     43264     43259     43262     43263     43265
     43260     43259     43262     43263     43261     43259     43262     43263
     43262     43263     43265     43266     43262     43263     43265     43267
     43262     43263     43265     43312     43263     43265     43312     43313
     43263     43265     43312     43314     43263     43265     43312     43315
     43264     43263     43265     43266     43264     43263     43265     43267
     43264     43263     43265     43312     43265     43312     43315     43316
     43265     43312     43315     43317     43265     43312     43315     43318
     43266     43265     43312     43313     43266     43265     43312     43314
     43266     43265     43312     43315     43267     43265     43312     43313
     43267     43265     43312     43314     43267     43265     43312     43315
     43268     43271     43274     43275     43268     43271     43274     43276
     43268     43271     43274     43277     43269     43268     43271     43272
     43269     43268     43271     43273     43269     43268     43271     43274
     43270     43268     43271     43272     43270     43268     43271     43273
     43270     43268     43271     43274     43271     43274     43277     43278
     43271     43274     43277     43279     43271     43274     43277     43280
     43272     43271     43274     43275     43272     43271     43274     43276
     43272     43271     43274     43277     43273     43271     43274     43275
     43273     43271     43274     43276     43273     43271     43274     43277
     43274     43277     43280     43281     43274     43277     43280     43282
     43274     43277     43280     43283     43275     43274     43277     43278
     43275     43274     43277     43279     43275     43274     43277     43280
     43276     43274     43277     43278     43276     43274     43277     43279
     43276     43274     43277     43280     43277     43280     43283     43284
     43277     43280     43283     43285     43277     43280     43283     43286
     43278     43277     43280     43281     43278     43277     43280     43282
     43278     43277     43280     43283     43279     43277     43280     43281
     43279     43277     43280     43282     43279     43277     43280     43283
     43280     43283     43286     43287     43280     43283     43286     43288
     43280     43283     43286     43291     43281     43280     43283     43284
     43281     43280     43283     43285     43281     43280     43283     43286
     43282     43280     43283     43284     43282     43280     43283     43285
     43282     43280     43283     43286     43283     43286     43288     43289
     43283     43286     43288     43290     43283     43286     43288     43291
     43283     43286     43291     43288     43283     43286     43291     43292
     43283     43286     43291     43293     43284     43283     43286     43287
     43284     43283     43286     43288     43284     43283     43286     43291
     43285     43283     43286     43287     43285     43283     43286     43288
     43285     43283     43286     43291     43286     43288     43291     43292
     43286     43288     43291     43293     43286     43291     43288     43289
     43286     43291     43288     43290     43286     43291     43293     43294
     43286     43291     43293     43295     43286     43291     43293     43296
     43287     43286     43288     43289     43287     43286     43288     43290
     43287     43286     43288     43291     43287     43286     43291     43288
     43287     43286     43291     43292     43287     43286     43291     43293
     43288     43286     43291     43292     43288     43286     43291     43293
     43288     43291     43293     43294     43288     43291     43293     43295
     43288     43291     43293     43296     43289     43288     43286     43291
     43289     43288     43291     43292     43289     43288     43291     43293
     43290     43288     43286     43291     43290     43288     43291     43292
     43290     43288     43291     43293     43291     43293     43296     43297
     43291     43293     43296     43298     43291     43293     43296     43299
     43292     43291     43293     43294     43292     43291     43293     43295
     43292     43291     43293     43296     43293     43296     43299     43300
     43293     43296     43299     43301     43293     43296     43299     43302
     43294     43293     43296     43297     43294     43293     43296     43298
     43294     43293     43296     43299     43295     43293     43296     43297
     43295     43293     43296     43298     43295     43293     43296     43299
     43296     43299     43302     43303     43296     43299     43302     43304
     43296     43299     43302     43305     43297     43296     43299     43300
     43297     43296     43299     43301     43297     43296     43299     43302
     43298     43296     43299     43300     43298     43296     43299     43301
     43298     43296     43299     43302     43299     43302     43305     43306
     43299     43302     43305     43307     43299     43302     43305     43308
     43300     43299     43302     43303     43300     43299     43302     43304
     43300     43299     43302     43305     43301     43299     43302     43303
     43301     43299     43302     43304     43301     43299     43302     43305
     43302     43305     43308     43309     43302     43305     43308     43310
     43302     43305     43308     43311     43303     43302     43305     43306
     43303     43302     43305     43307     43303     43302     43305     43308
     43304     43302     43305     43306     43304     43302     43305     43307
     43304     43302     43305     43308     43306     43305     43308     43309
     43306     43305     43308     43310     43306     43305     43308     43311
     43307     43305     43308     43309     43307     43305     43308     43310
     43307     43305     43308     43311     43312     43315     43318     43319
     43312     43315     43318     43320     43312     43315     43318     43321
     43313     43312     43315     43316     43313     43312     43315     43317
     43313     43312     43315     43318     43314     43312     43315     43316
     43314     43312     43315     43317     43314     43312     43315     43318
     43315     43318     43321     43322     43315     43318     43321     43323
     43315     43318     43321     43324     43316     43315     43318     43319
     43316     43315     43318     43320     43316     43315     43318     43321
     43317     43315     43318     43319     43317     43315     43318     43320
     43317     43315     43318     43321     43318     43321     43324     43325
     43318     43321     43324     43326     43318     43321     43324     43327
     43319     43318     43321     43322     43319     43318     43321     43323
     43319     43318     43321     43324     43320     43318     43321     43322
     43320     43318     43321     43323     43320     43318     43321     43324
     43321     43324     43327     43328     43321     43324     43327     43329
     43321     43324     43327     43330     43322     43321     43324     43325
     43322     43321     43324     43326     43322     43321     43324     43327
     43323     43321     43324     43325     43323     43321     43324     43326
     43323     43321     43324     43327     43324     43327     43330     43331
     43324     43327     43330     43332     43324     43327     43330     43333
     43325     43324     43327     43328     43325     43324     43327     43329
     43325     43324     43327     43330     43326     43324     43327     43328
     43326     43324     43327     43329     43326     43324     43327     43330
     43327     43330     43333     43334     43327     43330     43333     43335
     43327     43330     43333     43336     43328     43327     43330     43331
     43328     43327     43330     43332     43328     43327     43330     43333
     43329     43327     43330     43331     43329     43327     43330     43332
     43329     43327     43330     43333     43330     43333     43336     43337
     43330     43333     43336     43338     43330     43333     43336     43339
     43331     43330     43333     43334     43331     43330     43333     43335
     43331     43330     43333     43336     43332     43330     43333     43334
     43332     43330     43333     43335     43332     43330     43333     43336
     43333     43336     43339     43340     43333     43336     43339     43341
     43333     43336     43339     43342     43334     43333     43336     43337
     43334     43333     43336     43338     43334     43333     43336     43339
     43335     43333     43336     43337     43335     43333     43336     43338
     43335     43333     43336     43339     43336     43339     43342     43343
     43336     43339     43342     43344     43336     43339     43342     43345
     43337     43336     43339     43340     43337     43336     43339     43341
     43337     43336     43339     43342     43338     43336     43339     43340
     43338     43336     43339     43341     43338     43336     43339     43342
     43339     43342     43345     43346     43339     43342     43345     43347
     43339     43342     43345     43348     43340     43339     43342     43343
     43340     43339     43342     43344     43340     43339     43342     43345
     43341     43339     43342     43343     43341     43339     43342     43344
     43341     43339     43342     43345     43342     43345     43348     43349
     43342     43345     43348     43350     43342     43345     43348     43351
     43343     43342     43345     43346     43343     43342     43345     43347
     43343     43342     43345     43348     43344     43342     43345     43346
     43344     43342     43345     43347     43344     43342     43345     43348
     43345     43348     43351     43352     43345     43348     43351     43353
     43345     43348     43351     43354     43346     43345     43348     43349
     43346     43345     43348     43350     43346     43345     43348     43351
     43347     43345     43348     43349     43347     43345     43348     43350
     43347     43345     43348     43351     43349     43348     43351     43352
     43349     43348     43351     43353     43349     43348     43351     43354
     43350     43348     43351     43352     43350     43348     43351     43353
     43350     43348     43351     43354     43355     43359     43362     43363
     43355     43359     43362     43364     43355     43359     43362     43369
     43356     43355     43359     43360     43356     43355     43359     43361
     43356     43355     43359     43362     43357     43355     43359     43360
     43357     43355     43359     43361     43357     43355     43359     43362
     43358     43355     43359     43360     43358     43355     43359     43361
     43358     43355     43359     43362     43359     43362     43369     43365
     43360     43359     43362     43363     43360     43359     43362     43364
     43360     43359     43362     43369     43361     43359     43362     43363
     43361     43359     43362     43364     43361     43359     43362     43369
     43362     43369     43365     43366     43362     43369     43365     43367
     43362     43369     43365     43368     43363     43362     43369     43365
     43364     43362     43369     43365     43365     43368     43370     43371
     43365     43368     43370     43372     43365     43368     43370     43373
     43366     43365     43368     43370     43367     43365     43368     43370
     43368     43370     43373     43374     43368     43370     43373     43375
     43368     43370     43373     43381     43369     43365     43368     43370
     43370     43373     43375     43376     43370     43373     43381     43382
     43370     43373     43381     43383     43370     43373     43381     43384
     43371     43370     43373     43374     43371     43370     43373     43375
     43371     43370     43373     43381     43372     43370     43373     43374
     43372     43370     43373     43375     43372     43370     43373     43381
     43373     43375     43376     43377     43373     43375     43376     43378
     43373     43381     43384     43385     43374     43373     43375     43376
     43374     43373     43381     43382     43374     43373     43381     43383
     43374     43373     43381     43384     43375     43373     43381     43382
     43375     43373     43381     43383     43375     43373     43381     43384
     43375     43376     43378     43379     43375     43376     43378     43380
     43375     43376     43378     43390     43376     43375     43373     43381
     43376     43378     43390     43391     43376     43378     43390     43392
     43376     43378     43390     43393     43377     43376     43378     43379
     43377     43376     43378     43380     43377     43376     43378     43390
     43378     43390     43393     43394     43378     43390     43393     43395
     43378     43390     43393     43396     43379     43378     43390     43391
     43379     43378     43390     43392     43379     43378     43390     43393
     43380     43378     43390     43391     43380     43378     43390     43392
     43380     43378     43390     43393     43381     43384     43385     43386
     43381     43384     43385     43387     43382     43381     43384     43385
     43383     43381     43384     43385     43384     43385     43387     43388
     43384     43385     43387     43389     43384     43385     43387     43437
     43385     43387     43437     43438     43385     43387     43437     43439
     43385     43387     43437     43440     43386     43385     43387     43388
     43386     43385     43387     43389     43386     43385     43387     43437
     43387     43437     43440     43441     43387     43437     43440     43442
     43387     43437     43440     43443     43388     43387     43437     43438
     43388     43387     43437     43439     43388     43387     43437     43440
     43389     43387     43437     43438     43389     43387     43437     43439
     43389     43387     43437     43440     43390     43393     43396     43397
     43390     43393     43396     43398     43390     43393     43396     43399
     43391     43390     43393     43394     43391     43390     43393     43395
     43391     43390     43393     43396     43392     43390     43393     43394
     43392     43390     43393     43395     43392     43390     43393     43396
     43393     43396     43399     43400     43393     43396     43399     43401
     43393     43396     43399     43402     43394     43393     43396     43397
     43394     43393     43396     43398     43394     43393     43396     43399
     43395     43393     43396     43397     43395     43393     43396     43398
     43395     43393     43396     43399     43396     43399     43402     43403
     43396     43399     43402     43404     43396     43399     43402     43405
     43397     43396     43399     43400     43397     43396     43399     43401
     43397     43396     43399     43402     43398     43396     43399     43400
     43398     43396     43399     43401     43398     43396     43399     43402
     43399     43402     43405     43406     43399     43402     43405     43407
     43399     43402     43405     43408     43400     43399     43402     43403
     43400     43399     43402     43404     43400     43399     43402     43405
     43401     43399     43402     43403     43401     43399     43402     43404
     43401     43399     43402     43405     43402     43405     43408     43409
     43402     43405     43408     43410     43403     43402     43405     43406
     43403     43402     43405     43407     43403     43402     43405     43408
     43404     43402     43405     43406     43404     43402     43405     43407
     43404     43402     43405     43408     43405     43408     43410     43411
     43405     43408     43410     43412     43406     43405     43408     43409
     43406     43405     43408     43410     43407     43405     43408     43409
     43407     43405     43408     43410     43408     43410     43412     43413
     43408     43410     43412     43414     43408     43410     43412     43415
     43409     43408     43410     43411     43409     43408     43410     43412
     43410     43412     43415     43416     43410     43412     43415     43417
     43410     43412     43415     43418     43411     43410     43412     43413
     43411     43410     43412     43414     43411     43410     43412     43415
     43412     43415     43418     43419     43412     43415     43418     43420
     43412     43415     43418     43421     43413     43412     43415     43416
     43413     43412     43415     43417     43413     43412     43415     43418
     43414     43412     43415     43416     43414     43412     43415     43417
     43414     43412     43415     43418     43415     43418     43421     43422
     43415     43418     43421     43423     43415     43418     43421     43424
     43416     43415     43418     43419     43416     43415     43418     43420
     43416     43415     43418     43421     43417     43415     43418     43419
     43417     43415     43418     43420     43417     43415     43418     43421
     43418     43421     43424     43425     43418     43421     43424     43426
     43418     43421     43424     43427     43419     43418     43421     43422
     43419     43418     43421     43423     43419     43418     43421     43424
     43420     43418     43421     43422     43420     43418     43421     43423
     43420     43418     43421     43424     43421     43424     43427     43428
     43421     43424     43427     43429     43421     43424     43427     43430
     43422     43421     43424     43425     43422     43421     43424     43426
     43422     43421     43424     43427     43423     43421     43424     43425
     43423     43421     43424     43426     43423     43421     43424     43427
     43424     43427     43430     43431     43424     43427     43430     43432
     43424     43427     43430     43433     43425     43424     43427     43428
     43425     43424     43427     43429     43425     43424     43427     43430
     43426     43424     43427     43428     43426     43424     43427     43429
     43426     43424     43427     43430     43427     43430     43433     43434
     43427     43430     43433     43435     43427     43430     43433     43436
     43428     43427     43430     43431     43428     43427     43430     43432
     43428     43427     43430     43433     43429     43427     43430     43431
     43429     43427     43430     43432     43429     43427     43430     43433
     43431     43430     43433     43434     43431     43430     43433     43435
     43431     43430     43433     43436     43432     43430     43433     43434
     43432     43430     43433     43435     43432     43430     43433     43436
     43437     43440     43443     43444     43437     43440     43443     43445
     43437     43440     43443     43446     43438     43437     43440     43441
     43438     43437     43440     43442     43438     43437     43440     43443
     43439     43437     43440     43441     43439     43437     43440     43442
     43439     43437     43440     43443     43440     43443     43446     43447
     43440     43443     43446     43448     43440     43443     43446     43449
     43441     43440     43443     43444     43441     43440     43443     43445
     43441     43440     43443     43446     43442     43440     43443     43444
     43442     43440     43443     43445     43442     43440     43443     43446
     43443     43446     43449     43450     43443     43446     43449     43451
     43443     43446     43449     43452     43444     43443     43446     43447
     43444     43443     43446     43448     43444     43443     43446     43449
     43445     43443     43446     43447     43445     43443     43446     43448
     43445     43443     43446     43449     43446     43449     43452     43453
     43446     43449     43452     43454     43446     43449     43452     43455
     43447     43446     43449     43450     43447     43446     43449     43451
     43447     43446     43449     43452     43448     43446     43449     43450
     43448     43446     43449     43451     43448     43446     43449     43452
     43449     43452     43455     43456     43449     43452     43455     43457
     43449     43452     43455     43458     43450     43449     43452     43453
     43450     43449     43452     43454     43450     43449     43452     43455
     43451     43449     43452     43453     43451     43449     43452     43454
     43451     43449     43452     43455     43452     43455     43458     43459
     43452     43455     43458     43460     43452     43455     43458     43461
     43453     43452     43455     43456     43453     43452     43455     43457
     43453     43452     43455     43458     43454     43452     43455     43456
     43454     43452     43455     43457     43454     43452     43455     43458
     43455     43458     43461     43462     43455     43458     43461     43463
     43455     43458     43461     43464     43456     43455     43458     43459
     43456     43455     43458     43460     43456     43455     43458     43461
     43457     43455     43458     43459     43457     43455     43458     43460
     43457     43455     43458     43461     43458     43461     43464     43465
     43458     43461     43464     43466     43458     43461     43464     43467
     43459     43458     43461     43462     43459     43458     43461     43463
     43459     43458     43461     43464     43460     43458     43461     43462
     43460     43458     43461     43463     43460     43458     43461     43464
     43461     43464     43467     43468     43461     43464     43467     43469
     43461     43464     43467     43470     43462     43461     43464     43465
     43462     43461     43464     43466     43462     43461     43464     43467
     43463     43461     43464     43465     43463     43461     43464     43466
     43463     43461     43464     43467     43464     43467     43470     43471
     43464     43467     43470     43472     43464     43467     43470     43473
     43465     43464     43467     43468     43465     43464     43467     43469
     43465     43464     43467     43470     43466     43464     43467     43468
     43466     43464     43467     43469     43466     43464     43467     43470
     43467     43470     43473     43474     43467     43470     43473     43475
     43467     43470     43473     43476     43468     43467     43470     43471
     43468     43467     43470     43472     43468     43467     43470     43473
     43469     43467     43470     43471     43469     43467     43470     43472
     43469     43467     43470     43473     43470     43473     43476     43477
     43470     43473     43476     43478     43470     43473     43476     43479
     43471     43470     43473     43474     43471     43470     43473     43475
     43471     43470     43473     43476     43472     43470     43473     43474
     43472     43470     43473     43475     43472     43470     43473     43476
     43474     43473     43476     43477     43474     43473     43476     43478
     43474     43473     43476     43479     43475     43473     43476     43477
     43475     43473     43476     43478     43475     43473     43476     43479
     43480     43484     43487     43488     43480     43484     43487     43489
     43480     43484     43487     43494     43481     43480     43484     43485
     43481     43480     43484     43486     43481     43480     43484     43487
     43482     43480     43484     43485     43482     43480     43484     43486
     43482     43480     43484     43487     43483     43480     43484     43485
     43483     43480     43484     43486     43483     43480     43484     43487
     43484     43487     43494     43490     43485     43484     43487     43488
     43485     43484     43487     43489     43485     43484     43487     43494
     43486     43484     43487     43488     43486     43484     43487     43489
     43486     43484     43487     43494     43487     43494     43490     43491
     43487     43494     43490     43492     43487     43494     43490     43493
     43488     43487     43494     43490     43489     43487     43494     43490
     43490     43493     43495     43496     43490     43493     43495     43497
     43490     43493     43495     43498     43491     43490     43493     43495
     43492     43490     43493     43495     43493     43495     43498     43499
     43493     43495     43498     43500     43493     43495     43498     43506
     43494     43490     43493     43495     43495     43498     43500     43501
     43495     43498     43506     43507     43495     43498     43506     43508
     43495     43498     43506     43509     43496     43495     43498     43499
     43496     43495     43498     43500     43496     43495     43498     43506
     43497     43495     43498     43499     43497     43495     43498     43500
     43497     43495     43498     43506     43498     43500     43501     43502
     43498     43500     43501     43503     43498     43506     43509     43510
     43499     43498     43500     43501     43499     43498     43506     43507
     43499     43498     43506     43508     43499     43498     43506     43509
     43500     43498     43506     43507     43500     43498     43506     43508
     43500     43498     43506     43509     43500     43501     43503     43504
     43500     43501     43503     43505     43500     43501     43503     43515
     43501     43500     43498     43506     43501     43503     43515     43516
     43501     43503     43515     43517     43501     43503     43515     43518
     43502     43501     43503     43504     43502     43501     43503     43505
     43502     43501     43503     43515     43503     43515     43518     43519
     43503     43515     43518     43520     43503     43515     43518     43521
     43504     43503     43515     43516     43504     43503     43515     43517
     43504     43503     43515     43518     43505     43503     43515     43516
     43505     43503     43515     43517     43505     43503     43515     43518
     43506     43509     43510     43511     43506     43509     43510     43512
     43507     43506     43509     43510     43508     43506     43509     43510
     43509     43510     43512     43513     43509     43510     43512     43514
     43509     43510     43512     43559     43510     43512     43559     43560
     43510     43512     43559     43561     43510     43512     43559     43562
     43511     43510     43512     43513     43511     43510     43512     43514
     43511     43510     43512     43559     43512     43559     43562     43563
     43512     43559     43562     43564     43512     43559     43562     43565
     43513     43512     43559     43560     43513     43512     43559     43561
     43513     43512     43559     43562     43514     43512     43559     43560
     43514     43512     43559     43561     43514     43512     43559     43562
     43515     43518     43521     43522     43515     43518     43521     43523
     43515     43518     43521     43524     43516     43515     43518     43519
     43516     43515     43518     43520     43516     43515     43518     43521
     43517     43515     43518     43519     43517     43515     43518     43520
     43517     43515     43518     43521     43518     43521     43524     43525
     43518     43521     43524     43526     43518     43521     43524     43527
     43519     43518     43521     43522     43519     43518     43521     43523
     43519     43518     43521     43524     43520     43518     43521     43522
     43520     43518     43521     43523     43520     43518     43521     43524
     43521     43524     43527     43528     43521     43524     43527     43529
     43521     43524     43527     43530     43522     43521     43524     43525
     43522     43521     43524     43526     43522     43521     43524     43527
     43523     43521     43524     43525     43523     43521     43524     43526
     43523     43521     43524     43527     43524     43527     43530     43531
     43524     43527     43530     43532     43524     43527     43530     43533
     43525     43524     43527     43528     43525     43524     43527     43529
     43525     43524     43527     43530     43526     43524     43527     43528
     43526     43524     43527     43529     43526     43524     43527     43530
     43527     43530     43533     43534     43527     43530     43533     43535
     43527     43530     43533     43538     43528     43527     43530     43531
     43528     43527     43530     43532     43528     43527     43530     43533
     43529     43527     43530     43531     43529     43527     43530     43532
     43529     43527     43530     43533     43530     43533     43535     43536
     43530     43533     43535     43537     43530     43533     43535     43538
     43530     43533     43538     43535     43530     43533     43538     43539
     43530     43533     43538     43540     43531     43530     43533     43534
     43531     43530     43533     43535     43531     43530     43533     43538
     43532     43530     43533     43534     43532     43530     43533     43535
     43532     43530     43533     43538     43533     43535     43538     43539
     43533     43535     43538     43540     43533     43538     43535     43536
     43533     43538     43535     43537     43533     43538     43540     43541
     43533     43538     43540     43542     43533     43538     43540     43543
     43534     43533     43535     43536     43534     43533     43535     43537
     43534     43533     43535     43538     43534     43533     43538     43535
     43534     43533     43538     43539     43534     43533     43538     43540
     43535     43533     43538     43539     43535     43533     43538     43540
     43535     43538     43540     43541     43535     43538     43540     43542
     43535     43538     43540     43543     43536     43535     43533     43538
     43536     43535     43538     43539     43536     43535     43538     43540
     43537     43535     43533     43538     43537     43535     43538     43539
     43537     43535     43538     43540     43538     43540     43543     43544
     43538     43540     43543     43545     43538     43540     43543     43546
     43539     43538     43540     43541     43539     43538     43540     43542
     43539     43538     43540     43543     43540     43543     43546     43547
     43540     43543     43546     43548     43540     43543     43546     43549
     43541     43540     43543     43544     43541     43540     43543     43545
     43541     43540     43543     43546     43542     43540     43543     43544
     43542     43540     43543     43545     43542     43540     43543     43546
     43543     43546     43549     43550     43543     43546     43549     43551
     43543     43546     43549     43552     43544     43543     43546     43547
     43544     43543     43546     43548     43544     43543     43546     43549
     43545     43543     43546     43547     43545     43543     43546     43548
     43545     43543     43546     43549     43546     43549     43552     43553
     43546     43549     43552     43554     43546     43549     43552     43555
     43547     43546     43549     43550     43547     43546     43549     43551
     43547     43546     43549     43552     43548     43546     43549     43550
     43548     43546     43549     43551     43548     43546     43549     43552
     43549     43552     43555     43556     43549     43552     43555     43557
     43549     43552     43555     43558     43550     43549     43552     43553
     43550     43549     43552     43554     43550     43549     43552     43555
     43551     43549     43552     43553     43551     43549     43552     43554
     43551     43549     43552     43555     43553     43552     43555     43556
     43553     43552     43555     43557     43553     43552     43555     43558
     43554     43552     43555     43556     43554     43552     43555     43557
     43554     43552     43555     43558     43559     43562     43565     43566
     43559     43562     43565     43567     43559     43562     43565     43568
     43560     43559     43562     43563     43560     43559     43562     43564
     43560     43559     43562     43565     43561     43559     43562     43563
     43561     43559     43562     43564     43561     43559     43562     43565
     43562     43565     43568     43569     43562     43565     43568     43570
     43562     43565     43568     43571     43563     43562     43565     43566
     43563     43562     43565     43567     43563     43562     43565     43568
     43564     43562     43565     43566     43564     43562     43565     43567
     43564     43562     43565     43568     43565     43568     43571     43572
     43565     43568     43571     43573     43565     43568     43571     43574
     43566     43565     43568     43569     43566     43565     43568     43570
     43566     43565     43568     43571     43567     43565     43568     43569
     43567     43565     43568     43570     43567     43565     43568     43571
     43568     43571     43574     43575     43568     43571     43574     43576
     43568     43571     43574     43577     43569     43568     43571     43572
     43569     43568     43571     43573     43569     43568     43571     43574
     43570     43568     43571     43572     43570     43568     43571     43573
     43570     43568     43571     43574     43571     43574     43577     43578
     43571     43574     43577     43579     43571     43574     43577     43580
     43572     43571     43574     43575     43572     43571     43574     43576
     43572     43571     43574     43577     43573     43571     43574     43575
     43573     43571     43574     43576     43573     43571     43574     43577
     43574     43577     43580     43581     43574     43577     43580     43582
     43574     43577     43580     43583     43575     43574     43577     43578
     43575     43574     43577     43579     43575     43574     43577     43580
     43576     43574     43577     43578     43576     43574     43577     43579
     43576     43574     43577     43580     43577     43580     43583     43584
     43577     43580     43583     43585     43577     43580     43583     43586
     43578     43577     43580     43581     43578     43577     43580     43582
     43578     43577     43580     43583     43579     43577     43580     43581
     43579     43577     43580     43582     43579     43577     43580     43583
     43580     43583     43586     43587     43580     43583     43586     43588
     43580     43583     43586     43589     43581     43580     43583     43584
     43581     43580     43583     43585     43581     43580     43583     43586
     43582     43580     43583     43584     43582     43580     43583     43585
     43582     43580     43583     43586     43583     43586     43589     43590
     43583     43586     43589     43591     43583     43586     43589     43592
     43584     43583     43586     43587     43584     43583     43586     43588
     43584     43583     43586     43589     43585     43583     43586     43587
     43585     43583     43586     43588     43585     43583     43586     43589
     43586     43589     43592     43593     43586     43589     43592     43594
     43586     43589     43592     43595     43587     43586     43589     43590
     43587     43586     43589     43591     43587     43586     43589     43592
     43588     43586     43589     43590     43588     43586     43589     43591
     43588     43586     43589     43592     43589     43592     43595     43596
     43589     43592     43595     43597     43589     43592     43595     43598
     43590     43589     43592     43593     43590     43589     43592     43594
     43590     43589     43592     43595     43591     43589     43592     43593
     43591     43589     43592     43594     43591     43589     43592     43595
     43593     43592     43595     43596     43593     43592     43595     43597
     43593     43592     43595     43598     43594     43592     43595     43596
     43594     43592     43595     43597     43594     43592     43595     43598
     43599     43603     43606     43607     43599     43603     43606     43608
     43599     43603     43606     43613     43600     43599     43603     43604
     43600     43599     43603     43605     43600     43599     43603     43606
     43601     43599     43603     43604     43601     43599     43603     43605
     43601     43599     43603     43606     43602     43599     43603     43604
     43602     43599     43603     43605     43602     43599     43603     43606
     43603     43606     43613     43609     43604     43603     43606     43607
     43604     43603     43606     43608     43604     43603     43606     43613
     43605     43603     43606     43607     43605     43603     43606     43608
     43605     43603     43606     43613     43606     43613     43609     43610
     43606     43613     43609     43611     43606     43613     43609     43612
     43607     43606     43613     43609     43608     43606     43613     43609
     43609     43612     43614     43615     43609     43612     43614     43616
     43609     43612     43614     43617     43610     43609     43612     43614
     43611     43609     43612     43614     43612     43614     43617     43618
     43612     43614     43617     43619     43612     43614     43617     43625
     43613     43609     43612     43614     43614     43617     43619     43620
     43614     43617     43625     43626     43614     43617     43625     43627
     43614     43617     43625     43628     43615     43614     43617     43618
     43615     43614     43617     43619     43615     43614     43617     43625
     43616     43614     43617     43618     43616     43614     43617     43619
     43616     43614     43617     43625     43617     43619     43620     43621
     43617     43619     43620     43622     43617     43625     43628     43629
     43618     43617     43619     43620     43618     43617     43625     43626
     43618     43617     43625     43627     43618     43617     43625     43628
     43619     43617     43625     43626     43619     43617     43625     43627
     43619     43617     43625     43628     43619     43620     43622     43623
     43619     43620     43622     43624     43619     43620     43622     43634
     43620     43619     43617     43625     43620     43622     43634     43635
     43620     43622     43634     43636     43620     43622     43634     43637
     43621     43620     43622     43623     43621     43620     43622     43624
     43621     43620     43622     43634     43622     43634     43637     43638
     43622     43634     43637     43639     43622     43634     43637     43640
     43623     43622     43634     43635     43623     43622     43634     43636
     43623     43622     43634     43637     43624     43622     43634     43635
     43624     43622     43634     43636     43624     43622     43634     43637
     43625     43628     43629     43630     43625     43628     43629     43631
     43626     43625     43628     43629     43627     43625     43628     43629
     43628     43629     43631     43632     43628     43629     43631     43633
     43628     43629     43631     43681     43629     43631     43681     43682
     43629     43631     43681     43683     43629     43631     43681     43684
     43630     43629     43631     43632     43630     43629     43631     43633
     43630     43629     43631     43681     43631     43681     43684     43685
     43631     43681     43684     43686     43631     43681     43684     43687
     43632     43631     43681     43682     43632     43631     43681     43683
     43632     43631     43681     43684     43633     43631     43681     43682
     43633     43631     43681     43683     43633     43631     43681     43684
     43634     43637     43640     43641     43634     43637     43640     43642
     43634     43637     43640     43643     43635     43634     43637     43638
     43635     43634     43637     43639     43635     43634     43637     43640
     43636     43634     43637     43638     43636     43634     43637     43639
     43636     43634     43637     43640     43637     43640     43643     43644
     43637     43640     43643     43645     43637     43640     43643     43646
     43638     43637     43640     43641     43638     43637     43640     43642
     43638     43637     43640     43643     43639     43637     43640     43641
     43639     43637     43640     43642     43639     43637     43640     43643
     43640     43643     43646     43647     43640     43643     43646     43648
     43640     43643     43646     43649     43641     43640     43643     43644
     43641     43640     43643     43645     43641     43640     43643     43646
     43642     43640     43643     43644     43642     43640     43643     43645
     43642     43640     43643     43646     43643     43646     43649     43650
     43643     43646     43649     43651     43643     43646     43649     43652
     43644     43643     43646     43647     43644     43643     43646     43648
     43644     43643     43646     43649     43645     43643     43646     43647
     43645     43643     43646     43648     43645     43643     43646     43649
     43646     43649     43652     43653     43646     43649     43652     43654
     43647     43646     43649     43650     43647     43646     43649     43651
     43647     43646     43649     43652     43648     43646     43649     43650
     43648     43646     43649     43651     43648     43646     43649     43652
     43649     43652     43654     43655     43649     43652     43654     43656
     43650     43649     43652     43653     43650     43649     43652     43654
     43651     43649     43652     43653     43651     43649     43652     43654
     43652     43654     43656     43657     43652     43654     43656     43658
     43652     43654     43656     43659     43653     43652     43654     43655
     43653     43652     43654     43656     43654     43656     43659     43660
     43654     43656     43659     43661     43654     43656     43659     43662
     43655     43654     43656     43657     43655     43654     43656     43658
     43655     43654     43656     43659     43656     43659     43662     43663
     43656     43659     43662     43664     43656     43659     43662     43665
     43657     43656     43659     43660     43657     43656     43659     43661
     43657     43656     43659     43662     43658     43656     43659     43660
     43658     43656     43659     43661     43658     43656     43659     43662
     43659     43662     43665     43666     43659     43662     43665     43667
     43659     43662     43665     43668     43660     43659     43662     43663
     43660     43659     43662     43664     43660     43659     43662     43665
     43661     43659     43662     43663     43661     43659     43662     43664
     43661     43659     43662     43665     43662     43665     43668     43669
     43662     43665     43668     43670     43662     43665     43668     43671
     43663     43662     43665     43666     43663     43662     43665     43667
     43663     43662     43665     43668     43664     43662     43665     43666
     43664     43662     43665     43667     43664     43662     43665     43668
     43665     43668     43671     43672     43665     43668     43671     43673
     43665     43668     43671     43674     43666     43665     43668     43669
     43666     43665     43668     43670     43666     43665     43668     43671
     43667     43665     43668     43669     43667     43665     43668     43670
     43667     43665     43668     43671     43668     43671     43674     43675
     43668     43671     43674     43676     43668     43671     43674     43677
     43669     43668     43671     43672     43669     43668     43671     43673
     43669     43668     43671     43674     43670     43668     43671     43672
     43670     43668     43671     43673     43670     43668     43671     43674
     43671     43674     43677     43678     43671     43674     43677     43679
     43671     43674     43677     43680     43672     43671     43674     43675
     43672     43671     43674     43676     43672     43671     43674     43677
     43673     43671     43674     43675     43673     43671     43674     43676
     43673     43671     43674     43677     43675     43674     43677     43678
     43675     43674     43677     43679     43675     43674     43677     43680
     43676     43674     43677     43678     43676     43674     43677     43679
     43676     43674     43677     43680     43681     43684     43687     43688
     43681     43684     43687     43689     43681     43684     43687     43690
     43682     43681     43684     43685     43682     43681     43684     43686
     43682     43681     43684     43687     43683     43681     43684     43685
     43683     43681     43684     43686     43683     43681     43684     43687
     43684     43687     43690     43691     43684     43687     43690     43692
     43684     43687     43690     43693     43685     43684     43687     43688
     43685     43684     43687     43689     43685     43684     43687     43690
     43686     43684     43687     43688     43686     43684     43687     43689
     43686     43684     43687     43690     43687     43690     43693     43694
     43687     43690     43693     43695     43687     43690     43693     43696
     43688     43687     43690     43691     43688     43687     43690     43692
     43688     43687     43690     43693     43689     43687     43690     43691
     43689     43687     43690     43692     43689     43687     43690     43693
     43690     43693     43696     43697     43690     43693     43696     43698
     43690     43693     43696     43699     43691     43690     43693     43694
     43691     43690     43693     43695     43691     43690     43693     43696
     43692     43690     43693     43694     43692     43690     43693     43695
     43692     43690     43693     43696     43693     43696     43699     43700
     43693     43696     43699     43701     43693     43696     43699     43702
     43694     43693     43696     43697     43694     43693     43696     43698
     43694     43693     43696     43699     43695     43693     43696     43697
     43695     43693     43696     43698     43695     43693     43696     43699
     43696     43699     43702     43703     43696     43699     43702     43704
     43696     43699     43702     43705     43697     43696     43699     43700
     43697     43696     43699     43701     43697     43696     43699     43702
     43698     43696     43699     43700     43698     43696     43699     43701
     43698     43696     43699     43702     43699     43702     43705     43706
     43699     43702     43705     43707     43699     43702     43705     43708
     43700     43699     43702     43703     43700     43699     43702     43704
     43700     43699     43702     43705     43701     43699     43702     43703
     43701     43699     43702     43704     43701     43699     43702     43705
     43702     43705     43708     43709     43702     43705     43708     43710
     43702     43705     43708     43711     43703     43702     43705     43706
     43703     43702     43705     43707     43703     43702     43705     43708
     43704     43702     43705     43706     43704     43702     43705     43707
     43704     43702     43705     43708     43705     43708     43711     43712
     43705     43708     43711     43713     43705     43708     43711     43714
     43706     43705     43708     43709     43706     43705     43708     43710
     43706     43705     43708     43711     43707     43705     43708     43709
     43707     43705     43708     43710     43707     43705     43708     43711
     43708     43711     43714     43715     43708     43711     43714     43716
     43708     43711     43714     43717     43709     43708     43711     43712
     43709     43708     43711     43713     43709     43708     43711     43714
     43710     43708     43711     43712     43710     43708     43711     43713
     43710     43708     43711     43714     43711     43714     43717     43718
     43711     43714     43717     43719     43711     43714     43717     43720
     43712     43711     43714     43715     43712     43711     43714     43716
     43712     43711     43714     43717     43713     43711     43714     43715
     43713     43711     43714     43716     43713     43711     43714     43717
     43714     43717     43720     43721     43714     43717     43720     43722
     43714     43717     43720     43723     43715     43714     43717     43718
     43715     43714     43717     43719     43715     43714     43717     43720
     43716     43714     43717     43718     43716     43714     43717     43719
     43716     43714     43717     43720     43718     43717     43720     43721
     43718     43717     43720     43722     43718     43717     43720     43723
     43719     43717     43720     43721     43719     43717     43720     43722
     43719     43717     43720     43723     43724     43728     43731     43732
     43724     43728     43731     43733     43724     43728     43731     43738
     43725     43724     43728     43729     43725     43724     43728     43730
     43725     43724     43728     43731     43726     43724     43728     43729
     43726     43724     43728     43730     43726     43724     43728     43731
     43727     43724     43728     43729     43727     43724     43728     43730
     43727     43724     43728     43731     43728     43731     43738     43734
     43729     43728     43731     43732     43729     43728     43731     43733
     43729     43728     43731     43738     43730     43728     43731     43732
     43730     43728     43731     43733     43730     43728     43731     43738
     43731     43738     43734     43735     43731     43738     43734     43736
     43731     43738     43734     43737     43732     43731     43738     43734
     43733     43731     43738     43734     43734     43737     43739     43740
     43734     43737     43739     43741     43734     43737     43739     43742
     43735     43734     43737     43739     43736     43734     43737     43739
     43737     43739     43742     43743     43737     43739     43742     43744
     43737     43739     43742     43750     43738     43734     43737     43739
     43739     43742     43744     43745     43739     43742     43750     43751
     43739     43742     43750     43752     43739     43742     43750     43753
     43740     43739     43742     43743     43740     43739     43742     43744
     43740     43739     43742     43750     43741     43739     43742     43743
     43741     43739     43742     43744     43741     43739     43742     43750
     43742     43744     43745     43746     43742     43744     43745     43747
     43742     43750     43753     43754     43743     43742     43744     43745
     43743     43742     43750     43751     43743     43742     43750     43752
     43743     43742     43750     43753     43744     43742     43750     43751
     43744     43742     43750     43752     43744     43742     43750     43753
     43744     43745     43747     43748     43744     43745     43747     43749
     43744     43745     43747     43759     43745     43744     43742     43750
     43745     43747     43759     43760     43745     43747     43759     43761
     43745     43747     43759     43762     43746     43745     43747     43748
     43746     43745     43747     43749     43746     43745     43747     43759
     43747     43759     43762     43763     43747     43759     43762     43764
     43747     43759     43762     43765     43748     43747     43759     43760
     43748     43747     43759     43761     43748     43747     43759     43762
     43749     43747     43759     43760     43749     43747     43759     43761
     43749     43747     43759     43762     43750     43753     43754     43755
     43750     43753     43754     43756     43751     43750     43753     43754
     43752     43750     43753     43754     43753     43754     43756     43757
     43753     43754     43756     43758     43753     43754     43756     43803
     43754     43756     43803     43804     43754     43756     43803     43805
     43754     43756     43803     43806     43755     43754     43756     43757
     43755     43754     43756     43758     43755     43754     43756     43803
     43756     43803     43806     43807     43756     43803     43806     43808
     43756     43803     43806     43809     43757     43756     43803     43804
     43757     43756     43803     43805     43757     43756     43803     43806
     43758     43756     43803     43804     43758     43756     43803     43805
     43758     43756     43803     43806     43759     43762     43765     43766
     43759     43762     43765     43767     43759     43762     43765     43768
     43760     43759     43762     43763     43760     43759     43762     43764
     43760     43759     43762     43765     43761     43759     43762     43763
     43761     43759     43762     43764     43761     43759     43762     43765
     43762     43765     43768     43769     43762     43765     43768     43770
     43762     43765     43768     43771     43763     43762     43765     43766
     43763     43762     43765     43767     43763     43762     43765     43768
     43764     43762     43765     43766     43764     43762     43765     43767
     43764     43762     43765     43768     43765     43768     43771     43772
     43765     43768     43771     43773     43765     43768     43771     43774
     43766     43765     43768     43769     43766     43765     43768     43770
     43766     43765     43768     43771     43767     43765     43768     43769
     43767     43765     43768     43770     43767     43765     43768     43771
     43768     43771     43774     43775     43768     43771     43774     43776
     43768     43771     43774     43777     43769     43768     43771     43772
     43769     43768     43771     43773     43769     43768     43771     43774
     43770     43768     43771     43772     43770     43768     43771     43773
     43770     43768     43771     43774     43771     43774     43777     43778
     43771     43774     43777     43779     43771     43774     43777     43782
     43772     43771     43774     43775     43772     43771     43774     43776
     43772     43771     43774     43777     43773     43771     43774     43775
     43773     43771     43774     43776     43773     43771     43774     43777
     43774     43777     43779     43780     43774     43777     43779     43781
     43774     43777     43779     43782     43774     43777     43782     43779
     43774     43777     43782     43783     43774     43777     43782     43784
     43775     43774     43777     43778     43775     43774     43777     43779
     43775     43774     43777     43782     43776     43774     43777     43778
     43776     43774     43777     43779     43776     43774     43777     43782
     43777     43779     43782     43783     43777     43779     43782     43784
     43777     43782     43779     43780     43777     43782     43779     43781
     43777     43782     43784     43785     43777     43782     43784     43786
     43777     43782     43784     43787     43778     43777     43779     43780
     43778     43777     43779     43781     43778     43777     43779     43782
     43778     43777     43782     43779     43778     43777     43782     43783
     43778     43777     43782     43784     43779     43777     43782     43783
     43779     43777     43782     43784     43779     43782     43784     43785
     43779     43782     43784     43786     43779     43782     43784     43787
     43780     43779     43777     43782     43780     43779     43782     43783
     43780     43779     43782     43784     43781     43779     43777     43782
     43781     43779     43782     43783     43781     43779     43782     43784
     43782     43784     43787     43788     43782     43784     43787     43789
     43782     43784     43787     43790     43783     43782     43784     43785
     43783     43782     43784     43786     43783     43782     43784     43787
     43784     43787     43790     43791     43784     43787     43790     43792
     43784     43787     43790     43793     43785     43784     43787     43788
     43785     43784     43787     43789     43785     43784     43787     43790
     43786     43784     43787     43788     43786     43784     43787     43789
     43786     43784     43787     43790     43787     43790     43793     43794
     43787     43790     43793     43795     43787     43790     43793     43796
     43788     43787     43790     43791     43788     43787     43790     43792
     43788     43787     43790     43793     43789     43787     43790     43791
     43789     43787     43790     43792     43789     43787     43790     43793
     43790     43793     43796     43797     43790     43793     43796     43798
     43790     43793     43796     43799     43791     43790     43793     43794
     43791     43790     43793     43795     43791     43790     43793     43796
     43792     43790     43793     43794     43792     43790     43793     43795
     43792     43790     43793     43796     43793     43796     43799     43800
     43793     43796     43799     43801     43793     43796     43799     43802
     43794     43793     43796     43797     43794     43793     43796     43798
     43794     43793     43796     43799     43795     43793     43796     43797
     43795     43793     43796     43798     43795     43793     43796     43799
     43797     43796     43799     43800     43797     43796     43799     43801
     43797     43796     43799     43802     43798     43796     43799     43800
     43798     43796     43799     43801     43798     43796     43799     43802
     43803     43806     43809     43810     43803     43806     43809     43811
     43803     43806     43809     43812     43804     43803     43806     43807
     43804     43803     43806     43808     43804     43803     43806     43809
     43805     43803     43806     43807     43805     43803     43806     43808
     43805     43803     43806     43809     43806     43809     43812     43813
     43806     43809     43812     43814     43806     43809     43812     43815
     43807     43806     43809     43810     43807     43806     43809     43811
     43807     43806     43809     43812     43808     43806     43809     43810
     43808     43806     43809     43811     43808     43806     43809     43812
     43809     43812     43815     43816     43809     43812     43815     43817
     43809     43812     43815     43818     43810     43809     43812     43813
     43810     43809     43812     43814     43810     43809     43812     43815
     43811     43809     43812     43813     43811     43809     43812     43814
     43811     43809     43812     43815     43812     43815     43818     43819
     43812     43815     43818     43820     43812     43815     43818     43821
     43813     43812     43815     43816     43813     43812     43815     43817
     43813     43812     43815     43818     43814     43812     43815     43816
     43814     43812     43815     43817     43814     43812     43815     43818
     43815     43818     43821     43822     43815     43818     43821     43823
     43815     43818     43821     43824     43816     43815     43818     43819
     43816     43815     43818     43820     43816     43815     43818     43821
     43817     43815     43818     43819     43817     43815     43818     43820
     43817     43815     43818     43821     43818     43821     43824     43825
     43818     43821     43824     43826     43818     43821     43824     43827
     43819     43818     43821     43822     43819     43818     43821     43823
     43819     43818     43821     43824     43820     43818     43821     43822
     43820     43818     43821     43823     43820     43818     43821     43824
     43821     43824     43827     43828     43821     43824     43827     43829
     43821     43824     43827     43830     43822     43821     43824     43825
     43822     43821     43824     43826     43822     43821     43824     43827
     43823     43821     43824     43825     43823     43821     43824     43826
     43823     43821     43824     43827     43824     43827     43830     43831
     43824     43827     43830     43832     43824     43827     43830     43833
     43825     43824     43827     43828     43825     43824     43827     43829
     43825     43824     43827     43830     43826     43824     43827     43828
     43826     43824     43827     43829     43826     43824     43827     43830
     43827     43830     43833     43834     43827     43830     43833     43835
     43827     43830     43833     43836     43828     43827     43830     43831
     43828     43827     43830     43832     43828     43827     43830     43833
     43829     43827     43830     43831     43829     43827     43830     43832
     43829     43827     43830     43833     43830     43833     43836     43837
     43830     43833     43836     43838     43830     43833     43836     43839
     43831     43830     43833     43834     43831     43830     43833     43835
     43831     43830     43833     43836     43832     43830     43833     43834
     43832     43830     43833     43835     43832     43830     43833     43836
     43833     43836     43839     43840     43833     43836     43839     43841
     43833     43836     43839     43842     43834     43833     43836     43837
     43834     43833     43836     43838     43834     43833     43836     43839
     43835     43833     43836     43837     43835     43833     43836     43838
     43835     43833     43836     43839     43836     43839     43842     43843
     43836     43839     43842     43844     43836     43839     43842     43845
     43837     43836     43839     43840     43837     43836     43839     43841
     43837     43836     43839     43842     43838     43836     43839     43840
     43838     43836     43839     43841     43838     43836     43839     43842
     43840     43839     43842     43843     43840     43839     43842     43844
     43840     43839     43842     43845     43841     43839     43842     43843
     43841     43839     43842     43844     43841     43839     43842     43845
     43846     43851     43853     43854     43846     43851     43855     43856
     43846     43851     43855     43857     43846     43851     43855     43862
     43847     43846     43849     43850     43847     43846     43851     43852
     43847     43846     43851     43853     43847     43846     43851     43855
     43848     43846     43849     43850     43848     43846     43851     43852
     43848     43846     43851     43853     43848     43846     43851     43855
     43849     43846     43851     43852     43849     43846     43851     43853
     43849     43846     43851     43855     43850     43849     43846     43851
     43851     43855     43862     43858     43852     43851     43853     43854
     43852     43851     43855     43856     43852     43851     43855     43857
     43852     43851     43855     43862     43853     43851     43855     43856
     43853     43851     43855     43857     43853     43851     43855     43862
     43854     43853     43851     43855     43855     43862     43858     43859
     43855     43862     43858     43860     43855     43862     43858     43861
     43856     43855     43862     43858     43857     43855     43862     43858
     43858     43861     43863     43864     43858     43861     43863     43865
     43858     43861     43863     43866     43859     43858     43861     43863
     43860     43858     43861     43863     43861     43863     43866     43867
     43861     43863     43866     43868     43861     43863     43866     43874
     43862     43858     43861     43863     43863     43866     43868     43869
     43863     43866     43874     43875     43863     43866     43874     43876
     43863     43866     43874     43877     43864     43863     43866     43867
     43864     43863     43866     43868     43864     43863     43866     43874
     43865     43863     43866     43867     43865     43863     43866     43868
     43865     43863     43866     43874     43866     43868     43869     43870
     43866     43868     43869     43871     43866     43874     43877     43878
     43867     43866     43868     43869     43867     43866     43874     43875
     43867     43866     43874     43876     43867     43866     43874     43877
     43868     43866     43874     43875     43868     43866     43874     43876
     43868     43866     43874     43877     43868     43869     43871     43872
     43868     43869     43871     43873     43868     43869     43871     43883
     43869     43868     43866     43874     43869     43871     43883     43884
     43869     43871     43883     43885     43869     43871     43883     43886
     43870     43869     43871     43872     43870     43869     43871     43873
     43870     43869     43871     43883     43871     43883     43886     43887
     43871     43883     43886     43888     43871     43883     43886     43889
     43872     43871     43883     43884     43872     43871     43883     43885
     43872     43871     43883     43886     43873     43871     43883     43884
     43873     43871     43883     43885     43873     43871     43883     43886
     43874     43877     43878     43879     43874     43877     43878     43880
     43875     43874     43877     43878     43876     43874     43877     43878
     43877     43878     43880     43881     43877     43878     43880     43882
     43877     43878     43880     43927     43878     43880     43927     43928
     43878     43880     43927     43929     43878     43880     43927     43930
     43879     43878     43880     43881     43879     43878     43880     43882
     43879     43878     43880     43927     43880     43927     43930     43931
     43880     43927     43930     43932     43880     43927     43930     43933
     43881     43880     43927     43928     43881     43880     43927     43929
     43881     43880     43927     43930     43882     43880     43927     43928
     43882     43880     43927     43929     43882     43880     43927     43930
     43883     43886     43889     43890     43883     43886     43889     43891
     43883     43886     43889     43892     43884     43883     43886     43887
     43884     43883     43886     43888     43884     43883     43886     43889
     43885     43883     43886     43887     43885     43883     43886     43888
     43885     43883     43886     43889     43886     43889     43892     43893
     43886     43889     43892     43894     43886     43889     43892     43895
     43887     43886     43889     43890     43887     43886     43889     43891
     43887     43886     43889     43892     43888     43886     43889     43890
     43888     43886     43889     43891     43888     43886     43889     43892
     43889     43892     43895     43896     43889     43892     43895     43897
     43889     43892     43895     43898     43890     43889     43892     43893
     43890     43889     43892     43894     43890     43889     43892     43895
     43891     43889     43892     43893     43891     43889     43892     43894
     43891     43889     43892     43895     43892     43895     43898     43899
     43892     43895     43898     43900     43892     43895     43898     43901
     43893     43892     43895     43896     43893     43892     43895     43897
     43893     43892     43895     43898     43894     43892     43895     43896
     43894     43892     43895     43897     43894     43892     43895     43898
     43895     43898     43901     43902     43895     43898     43901     43903
     43895     43898     43901     43906     43896     43895     43898     43899
     43896     43895     43898     43900     43896     43895     43898     43901
     43897     43895     43898     43899     43897     43895     43898     43900
     43897     43895     43898     43901     43898     43901     43903     43904
     43898     43901     43903     43905     43898     43901     43903     43906
     43898     43901     43906     43903     43898     43901     43906     43907
     43898     43901     43906     43908     43899     43898     43901     43902
     43899     43898     43901     43903     43899     43898     43901     43906
     43900     43898     43901     43902     43900     43898     43901     43903
     43900     43898     43901     43906     43901     43903     43906     43907
     43901     43903     43906     43908     43901     43906     43903     43904
     43901     43906     43903     43905     43901     43906     43908     43909
     43901     43906     43908     43910     43901     43906     43908     43911
     43902     43901     43903     43904     43902     43901     43903     43905
     43902     43901     43903     43906     43902     43901     43906     43903
     43902     43901     43906     43907     43902     43901     43906     43908
     43903     43901     43906     43907     43903     43901     43906     43908
     43903     43906     43908     43909     43903     43906     43908     43910
     43903     43906     43908     43911     43904     43903     43901     43906
     43904     43903     43906     43907     43904     43903     43906     43908
     43905     43903     43901     43906     43905     43903     43906     43907
     43905     43903     43906     43908     43906     43908     43911     43912
     43906     43908     43911     43913     43906     43908     43911     43914
     43907     43906     43908     43909     43907     43906     43908     43910
     43907     43906     43908     43911     43908     43911     43914     43915
     43908     43911     43914     43916     43908     43911     43914     43917
     43909     43908     43911     43912     43909     43908     43911     43913
     43909     43908     43911     43914     43910     43908     43911     43912
     43910     43908     43911     43913     43910     43908     43911     43914
     43911     43914     43917     43918     43911     43914     43917     43919
     43911     43914     43917     43920     43912     43911     43914     43915
     43912     43911     43914     43916     43912     43911     43914     43917
     43913     43911     43914     43915     43913     43911     43914     43916
     43913     43911     43914     43917     43914     43917     43920     43921
     43914     43917     43920     43922     43914     43917     43920     43923
     43915     43914     43917     43918     43915     43914     43917     43919
     43915     43914     43917     43920     43916     43914     43917     43918
     43916     43914     43917     43919     43916     43914     43917     43920
     43917     43920     43923     43924     43917     43920     43923     43925
     43917     43920     43923     43926     43918     43917     43920     43921
     43918     43917     43920     43922     43918     43917     43920     43923
     43919     43917     43920     43921     43919     43917     43920     43922
     43919     43917     43920     43923     43921     43920     43923     43924
     43921     43920     43923     43925     43921     43920     43923     43926
     43922     43920     43923     43924     43922     43920     43923     43925
     43922     43920     43923     43926     43927     43930     43933     43934
     43927     43930     43933     43935     43927     43930     43933     43936
     43928     43927     43930     43931     43928     43927     43930     43932
     43928     43927     43930     43933     43929     43927     43930     43931
     43929     43927     43930     43932     43929     43927     43930     43933
     43930     43933     43936     43937     43930     43933     43936     43938
     43930     43933     43936     43939     43931     43930     43933     43934
     43931     43930     43933     43935     43931     43930     43933     43936
     43932     43930     43933     43934     43932     43930     43933     43935
     43932     43930     43933     43936     43933     43936     43939     43940
     43933     43936     43939     43941     43933     43936     43939     43942
     43934     43933     43936     43937     43934     43933     43936     43938
     43934     43933     43936     43939     43935     43933     43936     43937
     43935     43933     43936     43938     43935     43933     43936     43939
     43936     43939     43942     43943     43936     43939     43942     43944
     43936     43939     43942     43945     43937     43936     43939     43940
     43937     43936     43939     43941     43937     43936     43939     43942
     43938     43936     43939     43940     43938     43936     43939     43941
     43938     43936     43939     43942     43939     43942     43945     43946
     43939     43942     43945     43947     43939     43942     43945     43948
     43940     43939     43942     43943     43940     43939     43942     43944
     43940     43939     43942     43945     43941     43939     43942     43943
     43941     43939     43942     43944     43941     43939     43942     43945
     43942     43945     43948     43949     43942     43945     43948     43950
     43942     43945     43948     43951     43943     43942     43945     43946
     43943     43942     43945     43947     43943     43942     43945     43948
     43944     43942     43945     43946     43944     43942     43945     43947
     43944     43942     43945     43948     43945     43948     43951     43952
     43945     43948     43951     43953     43945     43948     43951     43954
     43946     43945     43948     43949     43946     43945     43948     43950
     43946     43945     43948     43951     43947     43945     43948     43949
     43947     43945     43948     43950     43947     43945     43948     43951
     43948     43951     43954     43955     43948     43951     43954     43956
     43948     43951     43954     43957     43949     43948     43951     43952
     43949     43948     43951     43953     43949     43948     43951     43954
     43950     43948     43951     43952     43950     43948     43951     43953
     43950     43948     43951     43954     43951     43954     43957     43958
     43951     43954     43957     43959     43951     43954     43957     43960
     43952     43951     43954     43955     43952     43951     43954     43956
     43952     43951     43954     43957     43953     43951     43954     43955
     43953     43951     43954     43956     43953     43951     43954     43957
     43954     43957     43960     43961     43954     43957     43960     43962
     43954     43957     43960     43963     43955     43954     43957     43958
     43955     43954     43957     43959     43955     43954     43957     43960
     43956     43954     43957     43958     43956     43954     43957     43959
     43956     43954     43957     43960     43957     43960     43963     43964
     43957     43960     43963     43965     43957     43960     43963     43966
     43958     43957     43960     43961     43958     43957     43960     43962
     43958     43957     43960     43963     43959     43957     43960     43961
     43959     43957     43960     43962     43959     43957     43960     43963
     43960     43963     43966     43967     43960     43963     43966     43968
     43960     43963     43966     43969     43961     43960     43963     43964
     43961     43960     43963     43965     43961     43960     43963     43966
     43962     43960     43963     43964     43962     43960     43963     43965
     43962     43960     43963     43966     43964     43963     43966     43967
     43964     43963     43966     43968     43964     43963     43966     43969
     43965     43963     43966     43967     43965     43963     43966     43968
     43965     43963     43966     43969     43970     43974     43977     43978
     43970     43974     43977     43979     43970     43974     43977     43984
     43971     43970     43974     43975     43971     43970     43974     43976
     43971     43970     43974     43977     43972     43970     43974     43975
     43972     43970     43974     43976     43972     43970     43974     43977
     43973     43970     43974     43975     43973     43970     43974     43976
     43973     43970     43974     43977     43974     43977     43984     43980
     43975     43974     43977     43978     43975     43974     43977     43979
     43975     43974     43977     43984     43976     43974     43977     43978
     43976     43974     43977     43979     43976     43974     43977     43984
     43977     43984     43980     43981     43977     43984     43980     43982
     43977     43984     43980     43983     43978     43977     43984     43980
     43979     43977     43984     43980     43980     43983     43985     43986
     43980     43983     43985     43987     43980     43983     43985     43988
     43981     43980     43983     43985     43982     43980     43983     43985
     43983     43985     43988     43989     43983     43985     43988     43990
     43983     43985     43988     43996     43984     43980     43983     43985
     43985     43988     43990     43991     43985     43988     43996     43997
     43985     43988     43996     43998     43985     43988     43996     43999
     43986     43985     43988     43989     43986     43985     43988     43990
     43986     43985     43988     43996     43987     43985     43988     43989
     43987     43985     43988     43990     43987     43985     43988     43996
     43988     43990     43991     43992     43988     43990     43991     43993
     43988     43996     43999     44000     43989     43988     43990     43991
     43989     43988     43996     43997     43989     43988     43996     43998
     43989     43988     43996     43999     43990     43988     43996     43997
     43990     43988     43996     43998     43990     43988     43996     43999
     43990     43991     43993     43994     43990     43991     43993     43995
     43990     43991     43993     44005     43991     43990     43988     43996
     43991     43993     44005     44006     43991     43993     44005     44007
     43991     43993     44005     44008     43992     43991     43993     43994
     43992     43991     43993     43995     43992     43991     43993     44005
     43993     44005     44008     44009     43993     44005     44008     44010
     43993     44005     44008     44011     43994     43993     44005     44006
     43994     43993     44005     44007     43994     43993     44005     44008
     43995     43993     44005     44006     43995     43993     44005     44007
     43995     43993     44005     44008     43996     43999     44000     44001
     43996     43999     44000     44002     43997     43996     43999     44000
     43998     43996     43999     44000     43999     44000     44002     44003
     43999     44000     44002     44004     43999     44000     44002     44049
     44000     44002     44049     44050     44000     44002     44049     44051
     44000     44002     44049     44052     44001     44000     44002     44003
     44001     44000     44002     44004     44001     44000     44002     44049
     44002     44049     44052     44053     44002     44049     44052     44054
     44002     44049     44052     44055     44003     44002     44049     44050
     44003     44002     44049     44051     44003     44002     44049     44052
     44004     44002     44049     44050     44004     44002     44049     44051
     44004     44002     44049     44052     44005     44008     44011     44012
     44005     44008     44011     44013     44005     44008     44011     44014
     44006     44005     44008     44009     44006     44005     44008     44010
     44006     44005     44008     44011     44007     44005     44008     44009
     44007     44005     44008     44010     44007     44005     44008     44011
     44008     44011     44014     44015     44008     44011     44014     44016
     44008     44011     44014     44017     44009     44008     44011     44012
     44009     44008     44011     44013     44009     44008     44011     44014
     44010     44008     44011     44012     44010     44008     44011     44013
     44010     44008     44011     44014     44011     44014     44017     44018
     44011     44014     44017     44019     44011     44014     44017     44020
     44012     44011     44014     44015     44012     44011     44014     44016
     44012     44011     44014     44017     44013     44011     44014     44015
     44013     44011     44014     44016     44013     44011     44014     44017
     44014     44017     44020     44021     44014     44017     44020     44022
     44014     44017     44020     44023     44015     44014     44017     44018
     44015     44014     44017     44019     44015     44014     44017     44020
     44016     44014     44017     44018     44016     44014     44017     44019
     44016     44014     44017     44020     44017     44020     44023     44024
     44017     44020     44023     44025     44017     44020     44023     44028
     44018     44017     44020     44021     44018     44017     44020     44022
     44018     44017     44020     44023     44019     44017     44020     44021
     44019     44017     44020     44022     44019     44017     44020     44023
     44020     44023     44025     44026     44020     44023     44025     44027
     44020     44023     44025     44028     44020     44023     44028     44025
     44020     44023     44028     44029     44020     44023     44028     44030
     44021     44020     44023     44024     44021     44020     44023     44025
     44021     44020     44023     44028     44022     44020     44023     44024
     44022     44020     44023     44025     44022     44020     44023     44028
     44023     44025     44028     44029     44023     44025     44028     44030
     44023     44028     44025     44026     44023     44028     44025     44027
     44023     44028     44030     44031     44023     44028     44030     44032
     44023     44028     44030     44033     44024     44023     44025     44026
     44024     44023     44025     44027     44024     44023     44025     44028
     44024     44023     44028     44025     44024     44023     44028     44029
     44024     44023     44028     44030     44025     44023     44028     44029
     44025     44023     44028     44030     44025     44028     44030     44031
     44025     44028     44030     44032     44025     44028     44030     44033
     44026     44025     44023     44028     44026     44025     44028     44029
     44026     44025     44028     44030     44027     44025     44023     44028
     44027     44025     44028     44029     44027     44025     44028     44030
     44028     44030     44033     44034     44028     44030     44033     44035
     44028     44030     44033     44036     44029     44028     44030     44031
     44029     44028     44030     44032     44029     44028     44030     44033
     44030     44033     44036     44037     44030     44033     44036     44038
     44030     44033     44036     44039     44031     44030     44033     44034
     44031     44030     44033     44035     44031     44030     44033     44036
     44032     44030     44033     44034     44032     44030     44033     44035
     44032     44030     44033     44036     44033     44036     44039     44040
     44033     44036     44039     44041     44033     44036     44039     44042
     44034     44033     44036     44037     44034     44033     44036     44038
     44034     44033     44036     44039     44035     44033     44036     44037
     44035     44033     44036     44038     44035     44033     44036     44039
     44036     44039     44042     44043     44036     44039     44042     44044
     44036     44039     44042     44045     44037     44036     44039     44040
     44037     44036     44039     44041     44037     44036     44039     44042
     44038     44036     44039     44040     44038     44036     44039     44041
     44038     44036     44039     44042     44039     44042     44045     44046
     44039     44042     44045     44047     44039     44042     44045     44048
     44040     44039     44042     44043     44040     44039     44042     44044
     44040     44039     44042     44045     44041     44039     44042     44043
     44041     44039     44042     44044     44041     44039     44042     44045
     44043     44042     44045     44046     44043     44042     44045     44047
     44043     44042     44045     44048     44044     44042     44045     44046
     44044     44042     44045     44047     44044     44042     44045     44048
     44049     44052     44055     44056     44049     44052     44055     44057
     44049     44052     44055     44058     44050     44049     44052     44053
     44050     44049     44052     44054     44050     44049     44052     44055
     44051     44049     44052     44053     44051     44049     44052     44054
     44051     44049     44052     44055     44052     44055     44058     44059
     44052     44055     44058     44060     44052     44055     44058     44061
     44053     44052     44055     44056     44053     44052     44055     44057
     44053     44052     44055     44058     44054     44052     44055     44056
     44054     44052     44055     44057     44054     44052     44055     44058
     44055     44058     44061     44062     44055     44058     44061     44063
     44055     44058     44061     44064     44056     44055     44058     44059
     44056     44055     44058     44060     44056     44055     44058     44061
     44057     44055     44058     44059     44057     44055     44058     44060
     44057     44055     44058     44061     44058     44061     44064     44065
     44058     44061     44064     44066     44058     44061     44064     44067
     44059     44058     44061     44062     44059     44058     44061     44063
     44059     44058     44061     44064     44060     44058     44061     44062
     44060     44058     44061     44063     44060     44058     44061     44064
     44061     44064     44067     44068     44061     44064     44067     44069
     44061     44064     44067     44070     44062     44061     44064     44065
     44062     44061     44064     44066     44062     44061     44064     44067
     44063     44061     44064     44065     44063     44061     44064     44066
     44063     44061     44064     44067     44064     44067     44070     44071
     44064     44067     44070     44072     44064     44067     44070     44073
     44065     44064     44067     44068     44065     44064     44067     44069
     44065     44064     44067     44070     44066     44064     44067     44068
     44066     44064     44067     44069     44066     44064     44067     44070
     44067     44070     44073     44074     44067     44070     44073     44075
     44067     44070     44073     44076     44068     44067     44070     44071
     44068     44067     44070     44072     44068     44067     44070     44073
     44069     44067     44070     44071     44069     44067     44070     44072
     44069     44067     44070     44073     44070     44073     44076     44077
     44070     44073     44076     44078     44070     44073     44076     44079
     44071     44070     44073     44074     44071     44070     44073     44075
     44071     44070     44073     44076     44072     44070     44073     44074
     44072     44070     44073     44075     44072     44070     44073     44076
     44073     44076     44079     44080     44073     44076     44079     44081
     44073     44076     44079     44082     44074     44073     44076     44077
     44074     44073     44076     44078     44074     44073     44076     44079
     44075     44073     44076     44077     44075     44073     44076     44078
     44075     44073     44076     44079     44076     44079     44082     44083
     44076     44079     44082     44084     44076     44079     44082     44085
     44077     44076     44079     44080     44077     44076     44079     44081
     44077     44076     44079     44082     44078     44076     44079     44080
     44078     44076     44079     44081     44078     44076     44079     44082
     44079     44082     44085     44086     44079     44082     44085     44087
     44079     44082     44085     44088     44080     44079     44082     44083
     44080     44079     44082     44084     44080     44079     44082     44085
     44081     44079     44082     44083     44081     44079     44082     44084
     44081     44079     44082     44085     44082     44085     44088     44089
     44082     44085     44088     44090     44082     44085     44088     44091
     44083     44082     44085     44086     44083     44082     44085     44087
     44083     44082     44085     44088     44084     44082     44085     44086
     44084     44082     44085     44087     44084     44082     44085     44088
     44086     44085     44088     44089     44086     44085     44088     44090
     44086     44085     44088     44091     44087     44085     44088     44089
     44087     44085     44088     44090     44087     44085     44088     44091
     44092     44097     44099     44100     44092     44097     44101     44102
     44092     44097     44101     44103     44092     44097     44101     44108
     44093     44092     44095     44096     44093     44092     44097     44098
     44093     44092     44097     44099     44093     44092     44097     44101
     44094     44092     44095     44096     44094     44092     44097     44098
     44094     44092     44097     44099     44094     44092     44097     44101
     44095     44092     44097     44098     44095     44092     44097     44099
     44095     44092     44097     44101     44096     44095     44092     44097
     44097     44101     44108     44104     44098     44097     44099     44100
     44098     44097     44101     44102     44098     44097     44101     44103
     44098     44097     44101     44108     44099     44097     44101     44102
     44099     44097     44101     44103     44099     44097     44101     44108
     44100     44099     44097     44101     44101     44108     44104     44105
     44101     44108     44104     44106     44101     44108     44104     44107
     44102     44101     44108     44104     44103     44101     44108     44104
     44104     44107     44109     44110     44104     44107     44109     44111
     44104     44107     44109     44112     44105     44104     44107     44109
     44106     44104     44107     44109     44107     44109     44112     44113
     44107     44109     44112     44114     44107     44109     44112     44120
     44108     44104     44107     44109     44109     44112     44114     44115
     44109     44112     44120     44121     44109     44112     44120     44122
     44109     44112     44120     44123     44110     44109     44112     44113
     44110     44109     44112     44114     44110     44109     44112     44120
     44111     44109     44112     44113     44111     44109     44112     44114
     44111     44109     44112     44120     44112     44114     44115     44116
     44112     44114     44115     44117     44112     44120     44123     44124
     44113     44112     44114     44115     44113     44112     44120     44121
     44113     44112     44120     44122     44113     44112     44120     44123
     44114     44112     44120     44121     44114     44112     44120     44122
     44114     44112     44120     44123     44114     44115     44117     44118
     44114     44115     44117     44119     44114     44115     44117     44129
     44115     44114     44112     44120     44115     44117     44129     44130
     44115     44117     44129     44131     44115     44117     44129     44132
     44116     44115     44117     44118     44116     44115     44117     44119
     44116     44115     44117     44129     44117     44129     44132     44133
     44117     44129     44132     44134     44117     44129     44132     44135
     44118     44117     44129     44130     44118     44117     44129     44131
     44118     44117     44129     44132     44119     44117     44129     44130
     44119     44117     44129     44131     44119     44117     44129     44132
     44120     44123     44124     44125     44120     44123     44124     44126
     44121     44120     44123     44124     44122     44120     44123     44124
     44123     44124     44126     44127     44123     44124     44126     44128
     44123     44124     44126     44170     44124     44126     44170     44171
     44124     44126     44170     44172     44124     44126     44170     44173
     44125     44124     44126     44127     44125     44124     44126     44128
     44125     44124     44126     44170     44126     44170     44173     44174
     44126     44170     44173     44175     44126     44170     44173     44176
     44127     44126     44170     44171     44127     44126     44170     44172
     44127     44126     44170     44173     44128     44126     44170     44171
     44128     44126     44170     44172     44128     44126     44170     44173
     44129     44132     44135     44136     44129     44132     44135     44137
     44129     44132     44135     44138     44130     44129     44132     44133
     44130     44129     44132     44134     44130     44129     44132     44135
     44131     44129     44132     44133     44131     44129     44132     44134
     44131     44129     44132     44135     44132     44135     44138     44139
     44132     44135     44138     44140     44132     44135     44138     44141
     44133     44132     44135     44136     44133     44132     44135     44137
     44133     44132     44135     44138     44134     44132     44135     44136
     44134     44132     44135     44137     44134     44132     44135     44138
     44135     44138     44141     44142     44135     44138     44141     44143
     44135     44138     44141     44144     44136     44135     44138     44139
     44136     44135     44138     44140     44136     44135     44138     44141
     44137     44135     44138     44139     44137     44135     44138     44140
     44137     44135     44138     44141     44138     44141     44144     44145
     44138     44141     44144     44146     44138     44141     44144     44147
     44139     44138     44141     44142     44139     44138     44141     44143
     44139     44138     44141     44144     44140     44138     44141     44142
     44140     44138     44141     44143     44140     44138     44141     44144
     44141     44144     44147     44148     44141     44144     44147     44149
     44142     44141     44144     44145     44142     44141     44144     44146
     44142     44141     44144     44147     44143     44141     44144     44145
     44143     44141     44144     44146     44143     44141     44144     44147
     44144     44147     44149     44150     44144     44147     44149     44151
     44145     44144     44147     44148     44145     44144     44147     44149
     44146     44144     44147     44148     44146     44144     44147     44149
     44147     44149     44151     44152     44147     44149     44151     44153
     44147     44149     44151     44154     44148     44147     44149     44150
     44148     44147     44149     44151     44149     44151     44154     44155
     44149     44151     44154     44156     44149     44151     44154     44157
     44150     44149     44151     44152     44150     44149     44151     44153
     44150     44149     44151     44154     44151     44154     44157     44158
     44151     44154     44157     44159     44151     44154     44157     44160
     44152     44151     44154     44155     44152     44151     44154     44156
     44152     44151     44154     44157     44153     44151     44154     44155
     44153     44151     44154     44156     44153     44151     44154     44157
     44154     44157     44160     44161     44154     44157     44160     44162
     44154     44157     44160     44163     44155     44154     44157     44158
     44155     44154     44157     44159     44155     44154     44157     44160
     44156     44154     44157     44158     44156     44154     44157     44159
     44156     44154     44157     44160     44157     44160     44163     44164
     44157     44160     44163     44165     44157     44160     44163     44166
     44158     44157     44160     44161     44158     44157     44160     44162
     44158     44157     44160     44163     44159     44157     44160     44161
     44159     44157     44160     44162     44159     44157     44160     44163
     44160     44163     44166     44167     44160     44163     44166     44168
     44160     44163     44166     44169     44161     44160     44163     44164
     44161     44160     44163     44165     44161     44160     44163     44166
     44162     44160     44163     44164     44162     44160     44163     44165
     44162     44160     44163     44166     44164     44163     44166     44167
     44164     44163     44166     44168     44164     44163     44166     44169
     44165     44163     44166     44167     44165     44163     44166     44168
     44165     44163     44166     44169     44170     44173     44176     44177
     44170     44173     44176     44178     44170     44173     44176     44179
     44171     44170     44173     44174     44171     44170     44173     44175
     44171     44170     44173     44176     44172     44170     44173     44174
     44172     44170     44173     44175     44172     44170     44173     44176
     44173     44176     44179     44180     44173     44176     44179     44181
     44173     44176     44179     44182     44174     44173     44176     44177
     44174     44173     44176     44178     44174     44173     44176     44179
     44175     44173     44176     44177     44175     44173     44176     44178
     44175     44173     44176     44179     44176     44179     44182     44183
     44176     44179     44182     44184     44176     44179     44182     44185
     44177     44176     44179     44180     44177     44176     44179     44181
     44177     44176     44179     44182     44178     44176     44179     44180
     44178     44176     44179     44181     44178     44176     44179     44182
     44179     44182     44185     44186     44179     44182     44185     44187
     44179     44182     44185     44188     44180     44179     44182     44183
     44180     44179     44182     44184     44180     44179     44182     44185
     44181     44179     44182     44183     44181     44179     44182     44184
     44181     44179     44182     44185     44182     44185     44188     44189
     44182     44185     44188     44190     44182     44185     44188     44191
     44183     44182     44185     44186     44183     44182     44185     44187
     44183     44182     44185     44188     44184     44182     44185     44186
     44184     44182     44185     44187     44184     44182     44185     44188
     44185     44188     44191     44192     44185     44188     44191     44193
     44185     44188     44191     44194     44186     44185     44188     44189
     44186     44185     44188     44190     44186     44185     44188     44191
     44187     44185     44188     44189     44187     44185     44188     44190
     44187     44185     44188     44191     44188     44191     44194     44195
     44188     44191     44194     44196     44188     44191     44194     44197
     44189     44188     44191     44192     44189     44188     44191     44193
     44189     44188     44191     44194     44190     44188     44191     44192
     44190     44188     44191     44193     44190     44188     44191     44194
     44191     44194     44197     44198     44191     44194     44197     44199
     44191     44194     44197     44200     44192     44191     44194     44195
     44192     44191     44194     44196     44192     44191     44194     44197
     44193     44191     44194     44195     44193     44191     44194     44196
     44193     44191     44194     44197     44194     44197     44200     44201
     44194     44197     44200     44202     44194     44197     44200     44203
     44195     44194     44197     44198     44195     44194     44197     44199
     44195     44194     44197     44200     44196     44194     44197     44198
     44196     44194     44197     44199     44196     44194     44197     44200
     44197     44200     44203     44204     44197     44200     44203     44205
     44197     44200     44203     44206     44198     44197     44200     44201
     44198     44197     44200     44202     44198     44197     44200     44203
     44199     44197     44200     44201     44199     44197     44200     44202
     44199     44197     44200     44203     44200     44203     44206     44207
     44200     44203     44206     44208     44200     44203     44206     44209
     44201     44200     44203     44204     44201     44200     44203     44205
     44201     44200     44203     44206     44202     44200     44203     44204
     44202     44200     44203     44205     44202     44200     44203     44206
     44203     44206     44209     44210     44203     44206     44209     44211
     44203     44206     44209     44212     44204     44203     44206     44207
     44204     44203     44206     44208     44204     44203     44206     44209
     44205     44203     44206     44207     44205     44203     44206     44208
     44205     44203     44206     44209     44207     44206     44209     44210
     44207     44206     44209     44211     44207     44206     44209     44212
     44208     44206     44209     44210     44208     44206     44209     44211
     44208     44206     44209     44212     44213     44217     44220     44221
     44213     44217     44220     44222     44213     44217     44220     44227
     44214     44213     44217     44218     44214     44213     44217     44219
     44214     44213     44217     44220     44215     44213     44217     44218
     44215     44213     44217     44219     44215     44213     44217     44220
     44216     44213     44217     44218     44216     44213     44217     44219
     44216     44213     44217     44220     44217     44220     44227     44223
     44218     44217     44220     44221     44218     44217     44220     44222
     44218     44217     44220     44227     44219     44217     44220     44221
     44219     44217     44220     44222     44219     44217     44220     44227
     44220     44227     44223     44224     44220     44227     44223     44225
     44220     44227     44223     44226     44221     44220     44227     44223
     44222     44220     44227     44223     44223     44226     44228     44229
     44223     44226     44228     44230     44223     44226     44228     44231
     44224     44223     44226     44228     44225     44223     44226     44228
     44226     44228     44231     44232     44226     44228     44231     44233
     44226     44228     44231     44239     44227     44223     44226     44228
     44228     44231     44233     44234     44228     44231     44239     44240
     44228     44231     44239     44241     44228     44231     44239     44242
     44229     44228     44231     44232     44229     44228     44231     44233
     44229     44228     44231     44239     44230     44228     44231     44232
     44230     44228     44231     44233     44230     44228     44231     44239
     44231     44233     44234     44235     44231     44233     44234     44236
     44231     44239     44242     44243     44232     44231     44233     44234
     44232     44231     44239     44240     44232     44231     44239     44241
     44232     44231     44239     44242     44233     44231     44239     44240
     44233     44231     44239     44241     44233     44231     44239     44242
     44233     44234     44236     44237     44233     44234     44236     44238
     44233     44234     44236     44248     44234     44233     44231     44239
     44234     44236     44248     44249     44234     44236     44248     44250
     44234     44236     44248     44251     44235     44234     44236     44237
     44235     44234     44236     44238     44235     44234     44236     44248
     44236     44248     44251     44252     44236     44248     44251     44253
     44236     44248     44251     44254     44237     44236     44248     44249
     44237     44236     44248     44250     44237     44236     44248     44251
     44238     44236     44248     44249     44238     44236     44248     44250
     44238     44236     44248     44251     44239     44242     44243     44244
     44239     44242     44243     44245     44240     44239     44242     44243
     44241     44239     44242     44243     44242     44243     44245     44246
     44242     44243     44245     44247     44242     44243     44245     44292
     44243     44245     44292     44293     44243     44245     44292     44294
     44243     44245     44292     44295     44244     44243     44245     44246
     44244     44243     44245     44247     44244     44243     44245     44292
     44245     44292     44295     44296     44245     44292     44295     44297
     44245     44292     44295     44298     44246     44245     44292     44293
     44246     44245     44292     44294     44246     44245     44292     44295
     44247     44245     44292     44293     44247     44245     44292     44294
     44247     44245     44292     44295     44248     44251     44254     44255
     44248     44251     44254     44256     44248     44251     44254     44257
     44249     44248     44251     44252     44249     44248     44251     44253
     44249     44248     44251     44254     44250     44248     44251     44252
     44250     44248     44251     44253     44250     44248     44251     44254
     44251     44254     44257     44258     44251     44254     44257     44259
     44251     44254     44257     44260     44252     44251     44254     44255
     44252     44251     44254     44256     44252     44251     44254     44257
     44253     44251     44254     44255     44253     44251     44254     44256
     44253     44251     44254     44257     44254     44257     44260     44261
     44254     44257     44260     44262     44254     44257     44260     44263
     44255     44254     44257     44258     44255     44254     44257     44259
     44255     44254     44257     44260     44256     44254     44257     44258
     44256     44254     44257     44259     44256     44254     44257     44260
     44257     44260     44263     44264     44257     44260     44263     44265
     44257     44260     44263     44266     44258     44257     44260     44261
     44258     44257     44260     44262     44258     44257     44260     44263
     44259     44257     44260     44261     44259     44257     44260     44262
     44259     44257     44260     44263     44260     44263     44266     44267
     44260     44263     44266     44268     44260     44263     44266     44271
     44261     44260     44263     44264     44261     44260     44263     44265
     44261     44260     44263     44266     44262     44260     44263     44264
     44262     44260     44263     44265     44262     44260     44263     44266
     44263     44266     44268     44269     44263     44266     44268     44270
     44263     44266     44268     44271     44263     44266     44271     44268
     44263     44266     44271     44272     44263     44266     44271     44273
     44264     44263     44266     44267     44264     44263     44266     44268
     44264     44263     44266     44271     44265     44263     44266     44267
     44265     44263     44266     44268     44265     44263     44266     44271
     44266     44268     44271     44272     44266     44268     44271     44273
     44266     44271     44268     44269     44266     44271     44268     44270
     44266     44271     44273     44274     44266     44271     44273     44275
     44266     44271     44273     44276     44267     44266     44268     44269
     44267     44266     44268     44270     44267     44266     44268     44271
     44267     44266     44271     44268     44267     44266     44271     44272
     44267     44266     44271     44273     44268     44266     44271     44272
     44268     44266     44271     44273     44268     44271     44273     44274
     44268     44271     44273     44275     44268     44271     44273     44276
     44269     44268     44266     44271     44269     44268     44271     44272
     44269     44268     44271     44273     44270     44268     44266     44271
     44270     44268     44271     44272     44270     44268     44271     44273
     44271     44273     44276     44277     44271     44273     44276     44278
     44271     44273     44276     44279     44272     44271     44273     44274
     44272     44271     44273     44275     44272     44271     44273     44276
     44273     44276     44279     44280     44273     44276     44279     44281
     44273     44276     44279     44282     44274     44273     44276     44277
     44274     44273     44276     44278     44274     44273     44276     44279
     44275     44273     44276     44277     44275     44273     44276     44278
     44275     44273     44276     44279     44276     44279     44282     44283
     44276     44279     44282     44284     44276     44279     44282     44285
     44277     44276     44279     44280     44277     44276     44279     44281
     44277     44276     44279     44282     44278     44276     44279     44280
     44278     44276     44279     44281     44278     44276     44279     44282
     44279     44282     44285     44286     44279     44282     44285     44287
     44279     44282     44285     44288     44280     44279     44282     44283
     44280     44279     44282     44284     44280     44279     44282     44285
     44281     44279     44282     44283     44281     44279     44282     44284
     44281     44279     44282     44285     44282     44285     44288     44289
     44282     44285     44288     44290     44282     44285     44288     44291
     44283     44282     44285     44286     44283     44282     44285     44287
     44283     44282     44285     44288     44284     44282     44285     44286
     44284     44282     44285     44287     44284     44282     44285     44288
     44286     44285     44288     44289     44286     44285     44288     44290
     44286     44285     44288     44291     44287     44285     44288     44289
     44287     44285     44288     44290     44287     44285     44288     44291
     44292     44295     44298     44299     44292     44295     44298     44300
     44292     44295     44298     44301     44293     44292     44295     44296
     44293     44292     44295     44297     44293     44292     44295     44298
     44294     44292     44295     44296     44294     44292     44295     44297
     44294     44292     44295     44298     44295     44298     44301     44302
     44295     44298     44301     44303     44295     44298     44301     44304
     44296     44295     44298     44299     44296     44295     44298     44300
     44296     44295     44298     44301     44297     44295     44298     44299
     44297     44295     44298     44300     44297     44295     44298     44301
     44298     44301     44304     44305     44298     44301     44304     44306
     44298     44301     44304     44307     44299     44298     44301     44302
     44299     44298     44301     44303     44299     44298     44301     44304
     44300     44298     44301     44302     44300     44298     44301     44303
     44300     44298     44301     44304     44301     44304     44307     44308
     44301     44304     44307     44309     44301     44304     44307     44310
     44302     44301     44304     44305     44302     44301     44304     44306
     44302     44301     44304     44307     44303     44301     44304     44305
     44303     44301     44304     44306     44303     44301     44304     44307
     44304     44307     44310     44311     44304     44307     44310     44312
     44304     44307     44310     44313     44305     44304     44307     44308
     44305     44304     44307     44309     44305     44304     44307     44310
     44306     44304     44307     44308     44306     44304     44307     44309
     44306     44304     44307     44310     44307     44310     44313     44314
     44307     44310     44313     44315     44307     44310     44313     44316
     44308     44307     44310     44311     44308     44307     44310     44312
     44308     44307     44310     44313     44309     44307     44310     44311
     44309     44307     44310     44312     44309     44307     44310     44313
     44310     44313     44316     44317     44310     44313     44316     44318
     44310     44313     44316     44319     44311     44310     44313     44314
     44311     44310     44313     44315     44311     44310     44313     44316
     44312     44310     44313     44314     44312     44310     44313     44315
     44312     44310     44313     44316     44313     44316     44319     44320
     44313     44316     44319     44321     44313     44316     44319     44322
     44314     44313     44316     44317     44314     44313     44316     44318
     44314     44313     44316     44319     44315     44313     44316     44317
     44315     44313     44316     44318     44315     44313     44316     44319
     44316     44319     44322     44323     44316     44319     44322     44324
     44316     44319     44322     44325     44317     44316     44319     44320
     44317     44316     44319     44321     44317     44316     44319     44322
     44318     44316     44319     44320     44318     44316     44319     44321
     44318     44316     44319     44322     44319     44322     44325     44326
     44319     44322     44325     44327     44319     44322     44325     44328
     44320     44319     44322     44323     44320     44319     44322     44324
     44320     44319     44322     44325     44321     44319     44322     44323
     44321     44319     44322     44324     44321     44319     44322     44325
     44322     44325     44328     44329     44322     44325     44328     44330
     44322     44325     44328     44331     44323     44322     44325     44326
     44323     44322     44325     44327     44323     44322     44325     44328
     44324     44322     44325     44326     44324     44322     44325     44327
     44324     44322     44325     44328     44325     44328     44331     44332
     44325     44328     44331     44333     44325     44328     44331     44334
     44326     44325     44328     44329     44326     44325     44328     44330
     44326     44325     44328     44331     44327     44325     44328     44329
     44327     44325     44328     44330     44327     44325     44328     44331
     44329     44328     44331     44332     44329     44328     44331     44333
     44329     44328     44331     44334     44330     44328     44331     44332
     44330     44328     44331     44333     44330     44328     44331     44334
     44335     44340     44342     44343     44335     44340     44344     44345
     44335     44340     44344     44346     44335     44340     44344     44351
     44336     44335     44338     44339     44336     44335     44340     44341
     44336     44335     44340     44342     44336     44335     44340     44344
     44337     44335     44338     44339     44337     44335     44340     44341
     44337     44335     44340     44342     44337     44335     44340     44344
     44338     44335     44340     44341     44338     44335     44340     44342
     44338     44335     44340     44344     44339     44338     44335     44340
     44340     44344     44351     44347     44341     44340     44342     44343
     44341     44340     44344     44345     44341     44340     44344     44346
     44341     44340     44344     44351     44342     44340     44344     44345
     44342     44340     44344     44346     44342     44340     44344     44351
     44343     44342     44340     44344     44344     44351     44347     44348
     44344     44351     44347     44349     44344     44351     44347     44350
     44345     44344     44351     44347     44346     44344     44351     44347
     44347     44350     44352     44353     44347     44350     44352     44354
     44347     44350     44352     44355     44348     44347     44350     44352
     44349     44347     44350     44352     44350     44352     44355     44356
     44350     44352     44355     44357     44350     44352     44355     44363
     44351     44347     44350     44352     44352     44355     44357     44358
     44352     44355     44363     44364     44352     44355     44363     44365
     44352     44355     44363     44366     44353     44352     44355     44356
     44353     44352     44355     44357     44353     44352     44355     44363
     44354     44352     44355     44356     44354     44352     44355     44357
     44354     44352     44355     44363     44355     44357     44358     44359
     44355     44357     44358     44360     44355     44363     44366     44367
     44356     44355     44357     44358     44356     44355     44363     44364
     44356     44355     44363     44365     44356     44355     44363     44366
     44357     44355     44363     44364     44357     44355     44363     44365
     44357     44355     44363     44366     44357     44358     44360     44361
     44357     44358     44360     44362     44357     44358     44360     44372
     44358     44357     44355     44363     44358     44360     44372     44373
     44358     44360     44372     44374     44358     44360     44372     44375
     44359     44358     44360     44361     44359     44358     44360     44362
     44359     44358     44360     44372     44360     44372     44375     44376
     44360     44372     44375     44377     44360     44372     44375     44378
     44361     44360     44372     44373     44361     44360     44372     44374
     44361     44360     44372     44375     44362     44360     44372     44373
     44362     44360     44372     44374     44362     44360     44372     44375
     44363     44366     44367     44368     44363     44366     44367     44369
     44364     44363     44366     44367     44365     44363     44366     44367
     44366     44367     44369     44370     44366     44367     44369     44371
     44366     44367     44369     44416     44367     44369     44416     44417
     44367     44369     44416     44418     44367     44369     44416     44419
     44368     44367     44369     44370     44368     44367     44369     44371
     44368     44367     44369     44416     44369     44416     44419     44420
     44369     44416     44419     44421     44369     44416     44419     44422
     44370     44369     44416     44417     44370     44369     44416     44418
     44370     44369     44416     44419     44371     44369     44416     44417
     44371     44369     44416     44418     44371     44369     44416     44419
     44372     44375     44378     44379     44372     44375     44378     44380
     44372     44375     44378     44381     44373     44372     44375     44376
     44373     44372     44375     44377     44373     44372     44375     44378
     44374     44372     44375     44376     44374     44372     44375     44377
     44374     44372     44375     44378     44375     44378     44381     44382
     44375     44378     44381     44383     44375     44378     44381     44384
     44376     44375     44378     44379     44376     44375     44378     44380
     44376     44375     44378     44381     44377     44375     44378     44379
     44377     44375     44378     44380     44377     44375     44378     44381
     44378     44381     44384     44385     44378     44381     44384     44386
     44378     44381     44384     44387     44379     44378     44381     44382
     44379     44378     44381     44383     44379     44378     44381     44384
     44380     44378     44381     44382     44380     44378     44381     44383
     44380     44378     44381     44384     44381     44384     44387     44388
     44381     44384     44387     44389     44381     44384     44387     44390
     44382     44381     44384     44385     44382     44381     44384     44386
     44382     44381     44384     44387     44383     44381     44384     44385
     44383     44381     44384     44386     44383     44381     44384     44387
     44384     44387     44390     44391     44384     44387     44390     44392
     44384     44387     44390     44395     44385     44384     44387     44388
     44385     44384     44387     44389     44385     44384     44387     44390
     44386     44384     44387     44388     44386     44384     44387     44389
     44386     44384     44387     44390     44387     44390     44392     44393
     44387     44390     44392     44394     44387     44390     44392     44395
     44387     44390     44395     44392     44387     44390     44395     44396
     44387     44390     44395     44397     44388     44387     44390     44391
     44388     44387     44390     44392     44388     44387     44390     44395
     44389     44387     44390     44391     44389     44387     44390     44392
     44389     44387     44390     44395     44390     44392     44395     44396
     44390     44392     44395     44397     44390     44395     44392     44393
     44390     44395     44392     44394     44390     44395     44397     44398
     44390     44395     44397     44399     44390     44395     44397     44400
     44391     44390     44392     44393     44391     44390     44392     44394
     44391     44390     44392     44395     44391     44390     44395     44392
     44391     44390     44395     44396     44391     44390     44395     44397
     44392     44390     44395     44396     44392     44390     44395     44397
     44392     44395     44397     44398     44392     44395     44397     44399
     44392     44395     44397     44400     44393     44392     44390     44395
     44393     44392     44395     44396     44393     44392     44395     44397
     44394     44392     44390     44395     44394     44392     44395     44396
     44394     44392     44395     44397     44395     44397     44400     44401
     44395     44397     44400     44402     44395     44397     44400     44403
     44396     44395     44397     44398     44396     44395     44397     44399
     44396     44395     44397     44400     44397     44400     44403     44404
     44397     44400     44403     44405     44397     44400     44403     44406
     44398     44397     44400     44401     44398     44397     44400     44402
     44398     44397     44400     44403     44399     44397     44400     44401
     44399     44397     44400     44402     44399     44397     44400     44403
     44400     44403     44406     44407     44400     44403     44406     44408
     44400     44403     44406     44409     44401     44400     44403     44404
     44401     44400     44403     44405     44401     44400     44403     44406
     44402     44400     44403     44404     44402     44400     44403     44405
     44402     44400     44403     44406     44403     44406     44409     44410
     44403     44406     44409     44411     44403     44406     44409     44412
     44404     44403     44406     44407     44404     44403     44406     44408
     44404     44403     44406     44409     44405     44403     44406     44407
     44405     44403     44406     44408     44405     44403     44406     44409
     44406     44409     44412     44413     44406     44409     44412     44414
     44406     44409     44412     44415     44407     44406     44409     44410
     44407     44406     44409     44411     44407     44406     44409     44412
     44408     44406     44409     44410     44408     44406     44409     44411
     44408     44406     44409     44412     44410     44409     44412     44413
     44410     44409     44412     44414     44410     44409     44412     44415
     44411     44409     44412     44413     44411     44409     44412     44414
     44411     44409     44412     44415     44416     44419     44422     44423
     44416     44419     44422     44424     44416     44419     44422     44425
     44417     44416     44419     44420     44417     44416     44419     44421
     44417     44416     44419     44422     44418     44416     44419     44420
     44418     44416     44419     44421     44418     44416     44419     44422
     44419     44422     44425     44426     44419     44422     44425     44427
     44419     44422     44425     44428     44420     44419     44422     44423
     44420     44419     44422     44424     44420     44419     44422     44425
     44421     44419     44422     44423     44421     44419     44422     44424
     44421     44419     44422     44425     44422     44425     44428     44429
     44422     44425     44428     44430     44422     44425     44428     44431
     44423     44422     44425     44426     44423     44422     44425     44427
     44423     44422     44425     44428     44424     44422     44425     44426
     44424     44422     44425     44427     44424     44422     44425     44428
     44425     44428     44431     44432     44425     44428     44431     44433
     44425     44428     44431     44434     44426     44425     44428     44429
     44426     44425     44428     44430     44426     44425     44428     44431
     44427     44425     44428     44429     44427     44425     44428     44430
     44427     44425     44428     44431     44428     44431     44434     44435
     44428     44431     44434     44436     44428     44431     44434     44437
     44429     44428     44431     44432     44429     44428     44431     44433
     44429     44428     44431     44434     44430     44428     44431     44432
     44430     44428     44431     44433     44430     44428     44431     44434
     44431     44434     44437     44438     44431     44434     44437     44439
     44431     44434     44437     44440     44432     44431     44434     44435
     44432     44431     44434     44436     44432     44431     44434     44437
     44433     44431     44434     44435     44433     44431     44434     44436
     44433     44431     44434     44437     44434     44437     44440     44441
     44434     44437     44440     44442     44434     44437     44440     44443
     44435     44434     44437     44438     44435     44434     44437     44439
     44435     44434     44437     44440     44436     44434     44437     44438
     44436     44434     44437     44439     44436     44434     44437     44440
     44437     44440     44443     44444     44437     44440     44443     44445
     44437     44440     44443     44446     44438     44437     44440     44441
     44438     44437     44440     44442     44438     44437     44440     44443
     44439     44437     44440     44441     44439     44437     44440     44442
     44439     44437     44440     44443     44440     44443     44446     44447
     44440     44443     44446     44448     44440     44443     44446     44449
     44441     44440     44443     44444     44441     44440     44443     44445
     44441     44440     44443     44446     44442     44440     44443     44444
     44442     44440     44443     44445     44442     44440     44443     44446
     44443     44446     44449     44450     44443     44446     44449     44451
     44443     44446     44449     44452     44444     44443     44446     44447
     44444     44443     44446     44448     44444     44443     44446     44449
     44445     44443     44446     44447     44445     44443     44446     44448
     44445     44443     44446     44449     44446     44449     44452     44453
     44446     44449     44452     44454     44446     44449     44452     44455
     44447     44446     44449     44450     44447     44446     44449     44451
     44447     44446     44449     44452     44448     44446     44449     44450
     44448     44446     44449     44451     44448     44446     44449     44452
     44449     44452     44455     44456     44449     44452     44455     44457
     44449     44452     44455     44458     44450     44449     44452     44453
     44450     44449     44452     44454     44450     44449     44452     44455
     44451     44449     44452     44453     44451     44449     44452     44454
     44451     44449     44452     44455     44453     44452     44455     44456
     44453     44452     44455     44457     44453     44452     44455     44458
     44454     44452     44455     44456     44454     44452     44455     44457
     44454     44452     44455     44458     44459     44463     44466     44467
     44459     44463     44466     44468     44459     44463     44466     44473
     44460     44459     44463     44464     44460     44459     44463     44465
     44460     44459     44463     44466     44461     44459     44463     44464
     44461     44459     44463     44465     44461     44459     44463     44466
     44462     44459     44463     44464     44462     44459     44463     44465
     44462     44459     44463     44466     44463     44466     44473     44469
     44464     44463     44466     44467     44464     44463     44466     44468
     44464     44463     44466     44473     44465     44463     44466     44467
     44465     44463     44466     44468     44465     44463     44466     44473
     44466     44473     44469     44470     44466     44473     44469     44471
     44466     44473     44469     44472     44467     44466     44473     44469
     44468     44466     44473     44469     44469     44472     44474     44475
     44469     44472     44474     44476     44469     44472     44474     44477
     44470     44469     44472     44474     44471     44469     44472     44474
     44472     44474     44477     44478     44472     44474     44477     44479
     44472     44474     44477     44485     44473     44469     44472     44474
     44474     44477     44479     44480     44474     44477     44485     44486
     44474     44477     44485     44487     44474     44477     44485     44488
     44475     44474     44477     44478     44475     44474     44477     44479
     44475     44474     44477     44485     44476     44474     44477     44478
     44476     44474     44477     44479     44476     44474     44477     44485
     44477     44479     44480     44481     44477     44479     44480     44482
     44477     44485     44488     44489     44478     44477     44479     44480
     44478     44477     44485     44486     44478     44477     44485     44487
     44478     44477     44485     44488     44479     44477     44485     44486
     44479     44477     44485     44487     44479     44477     44485     44488
     44479     44480     44482     44483     44479     44480     44482     44484
     44479     44480     44482     44494     44480     44479     44477     44485
     44480     44482     44494     44495     44480     44482     44494     44496
     44480     44482     44494     44497     44481     44480     44482     44483
     44481     44480     44482     44484     44481     44480     44482     44494
     44482     44494     44497     44498     44482     44494     44497     44499
     44482     44494     44497     44500     44483     44482     44494     44495
     44483     44482     44494     44496     44483     44482     44494     44497
     44484     44482     44494     44495     44484     44482     44494     44496
     44484     44482     44494     44497     44485     44488     44489     44490
     44485     44488     44489     44491     44486     44485     44488     44489
     44487     44485     44488     44489     44488     44489     44491     44492
     44488     44489     44491     44493     44488     44489     44491     44538
     44489     44491     44538     44539     44489     44491     44538     44540
     44489     44491     44538     44541     44490     44489     44491     44492
     44490     44489     44491     44493     44490     44489     44491     44538
     44491     44538     44541     44542     44491     44538     44541     44543
     44491     44538     44541     44544     44492     44491     44538     44539
     44492     44491     44538     44540     44492     44491     44538     44541
     44493     44491     44538     44539     44493     44491     44538     44540
     44493     44491     44538     44541     44494     44497     44500     44501
     44494     44497     44500     44502     44494     44497     44500     44503
     44495     44494     44497     44498     44495     44494     44497     44499
     44495     44494     44497     44500     44496     44494     44497     44498
     44496     44494     44497     44499     44496     44494     44497     44500
     44497     44500     44503     44504     44497     44500     44503     44505
     44497     44500     44503     44506     44498     44497     44500     44501
     44498     44497     44500     44502     44498     44497     44500     44503
     44499     44497     44500     44501     44499     44497     44500     44502
     44499     44497     44500     44503     44500     44503     44506     44507
     44500     44503     44506     44508     44500     44503     44506     44509
     44501     44500     44503     44504     44501     44500     44503     44505
     44501     44500     44503     44506     44502     44500     44503     44504
     44502     44500     44503     44505     44502     44500     44503     44506
     44503     44506     44509     44510     44503     44506     44509     44511
     44503     44506     44509     44512     44504     44503     44506     44507
     44504     44503     44506     44508     44504     44503     44506     44509
     44505     44503     44506     44507     44505     44503     44506     44508
     44505     44503     44506     44509     44506     44509     44512     44513
     44506     44509     44512     44514     44506     44509     44512     44517
     44507     44506     44509     44510     44507     44506     44509     44511
     44507     44506     44509     44512     44508     44506     44509     44510
     44508     44506     44509     44511     44508     44506     44509     44512
     44509     44512     44514     44515     44509     44512     44514     44516
     44509     44512     44514     44517     44509     44512     44517     44514
     44509     44512     44517     44518     44509     44512     44517     44519
     44510     44509     44512     44513     44510     44509     44512     44514
     44510     44509     44512     44517     44511     44509     44512     44513
     44511     44509     44512     44514     44511     44509     44512     44517
     44512     44514     44517     44518     44512     44514     44517     44519
     44512     44517     44514     44515     44512     44517     44514     44516
     44512     44517     44519     44520     44512     44517     44519     44521
     44512     44517     44519     44522     44513     44512     44514     44515
     44513     44512     44514     44516     44513     44512     44514     44517
     44513     44512     44517     44514     44513     44512     44517     44518
     44513     44512     44517     44519     44514     44512     44517     44518
     44514     44512     44517     44519     44514     44517     44519     44520
     44514     44517     44519     44521     44514     44517     44519     44522
     44515     44514     44512     44517     44515     44514     44517     44518
     44515     44514     44517     44519     44516     44514     44512     44517
     44516     44514     44517     44518     44516     44514     44517     44519
     44517     44519     44522     44523     44517     44519     44522     44524
     44517     44519     44522     44525     44518     44517     44519     44520
     44518     44517     44519     44521     44518     44517     44519     44522
     44519     44522     44525     44526     44519     44522     44525     44527
     44519     44522     44525     44528     44520     44519     44522     44523
     44520     44519     44522     44524     44520     44519     44522     44525
     44521     44519     44522     44523     44521     44519     44522     44524
     44521     44519     44522     44525     44522     44525     44528     44529
     44522     44525     44528     44530     44522     44525     44528     44531
     44523     44522     44525     44526     44523     44522     44525     44527
     44523     44522     44525     44528     44524     44522     44525     44526
     44524     44522     44525     44527     44524     44522     44525     44528
     44525     44528     44531     44532     44525     44528     44531     44533
     44525     44528     44531     44534     44526     44525     44528     44529
     44526     44525     44528     44530     44526     44525     44528     44531
     44527     44525     44528     44529     44527     44525     44528     44530
     44527     44525     44528     44531     44528     44531     44534     44535
     44528     44531     44534     44536     44528     44531     44534     44537
     44529     44528     44531     44532     44529     44528     44531     44533
     44529     44528     44531     44534     44530     44528     44531     44532
     44530     44528     44531     44533     44530     44528     44531     44534
     44532     44531     44534     44535     44532     44531     44534     44536
     44532     44531     44534     44537     44533     44531     44534     44535
     44533     44531     44534     44536     44533     44531     44534     44537
     44538     44541     44544     44545     44538     44541     44544     44546
     44538     44541     44544     44547     44539     44538     44541     44542
     44539     44538     44541     44543     44539     44538     44541     44544
     44540     44538     44541     44542     44540     44538     44541     44543
     44540     44538     44541     44544     44541     44544     44547     44548
     44541     44544     44547     44549     44541     44544     44547     44550
     44542     44541     44544     44545     44542     44541     44544     44546
     44542     44541     44544     44547     44543     44541     44544     44545
     44543     44541     44544     44546     44543     44541     44544     44547
     44544     44547     44550     44551     44544     44547     44550     44552
     44544     44547     44550     44553     44545     44544     44547     44548
     44545     44544     44547     44549     44545     44544     44547     44550
     44546     44544     44547     44548     44546     44544     44547     44549
     44546     44544     44547     44550     44547     44550     44553     44554
     44547     44550     44553     44555     44547     44550     44553     44556
     44548     44547     44550     44551     44548     44547     44550     44552
     44548     44547     44550     44553     44549     44547     44550     44551
     44549     44547     44550     44552     44549     44547     44550     44553
     44550     44553     44556     44557     44550     44553     44556     44558
     44550     44553     44556     44559     44551     44550     44553     44554
     44551     44550     44553     44555     44551     44550     44553     44556
     44552     44550     44553     44554     44552     44550     44553     44555
     44552     44550     44553     44556     44553     44556     44559     44560
     44553     44556     44559     44561     44553     44556     44559     44562
     44554     44553     44556     44557     44554     44553     44556     44558
     44554     44553     44556     44559     44555     44553     44556     44557
     44555     44553     44556     44558     44555     44553     44556     44559
     44556     44559     44562     44563     44556     44559     44562     44564
     44556     44559     44562     44565     44557     44556     44559     44560
     44557     44556     44559     44561     44557     44556     44559     44562
     44558     44556     44559     44560     44558     44556     44559     44561
     44558     44556     44559     44562     44559     44562     44565     44566
     44559     44562     44565     44567     44559     44562     44565     44568
     44560     44559     44562     44563     44560     44559     44562     44564
     44560     44559     44562     44565     44561     44559     44562     44563
     44561     44559     44562     44564     44561     44559     44562     44565
     44562     44565     44568     44569     44562     44565     44568     44570
     44562     44565     44568     44571     44563     44562     44565     44566
     44563     44562     44565     44567     44563     44562     44565     44568
     44564     44562     44565     44566     44564     44562     44565     44567
     44564     44562     44565     44568     44565     44568     44571     44572
     44565     44568     44571     44573     44565     44568     44571     44574
     44566     44565     44568     44569     44566     44565     44568     44570
     44566     44565     44568     44571     44567     44565     44568     44569
     44567     44565     44568     44570     44567     44565     44568     44571
     44568     44571     44574     44575     44568     44571     44574     44576
     44568     44571     44574     44577     44569     44568     44571     44572
     44569     44568     44571     44573     44569     44568     44571     44574
     44570     44568     44571     44572     44570     44568     44571     44573
     44570     44568     44571     44574     44571     44574     44577     44578
     44571     44574     44577     44579     44571     44574     44577     44580
     44572     44571     44574     44575     44572     44571     44574     44576
     44572     44571     44574     44577     44573     44571     44574     44575
     44573     44571     44574     44576     44573     44571     44574     44577
     44575     44574     44577     44578     44575     44574     44577     44579
     44575     44574     44577     44580     44576     44574     44577     44578
     44576     44574     44577     44579     44576     44574     44577     44580
     44581     44585     44588     44589     44581     44585     44588     44590
     44581     44585     44588     44595     44582     44581     44585     44586
     44582     44581     44585     44587     44582     44581     44585     44588
     44583     44581     44585     44586     44583     44581     44585     44587
     44583     44581     44585     44588     44584     44581     44585     44586
     44584     44581     44585     44587     44584     44581     44585     44588
     44585     44588     44595     44591     44586     44585     44588     44589
     44586     44585     44588     44590     44586     44585     44588     44595
     44587     44585     44588     44589     44587     44585     44588     44590
     44587     44585     44588     44595     44588     44595     44591     44592
     44588     44595     44591     44593     44588     44595     44591     44594
     44589     44588     44595     44591     44590     44588     44595     44591
     44591     44594     44596     44597     44591     44594     44596     44598
     44591     44594     44596     44599     44592     44591     44594     44596
     44593     44591     44594     44596     44594     44596     44599     44600
     44594     44596     44599     44601     44594     44596     44599     44607
     44595     44591     44594     44596     44596     44599     44601     44602
     44596     44599     44607     44608     44596     44599     44607     44609
     44596     44599     44607     44610     44597     44596     44599     44600
     44597     44596     44599     44601     44597     44596     44599     44607
     44598     44596     44599     44600     44598     44596     44599     44601
     44598     44596     44599     44607     44599     44601     44602     44603
     44599     44601     44602     44604     44599     44607     44610     44611
     44600     44599     44601     44602     44600     44599     44607     44608
     44600     44599     44607     44609     44600     44599     44607     44610
     44601     44599     44607     44608     44601     44599     44607     44609
     44601     44599     44607     44610     44601     44602     44604     44605
     44601     44602     44604     44606     44601     44602     44604     44616
     44602     44601     44599     44607     44602     44604     44616     44617
     44602     44604     44616     44618     44602     44604     44616     44619
     44603     44602     44604     44605     44603     44602     44604     44606
     44603     44602     44604     44616     44604     44616     44619     44620
     44604     44616     44619     44621     44604     44616     44619     44622
     44605     44604     44616     44617     44605     44604     44616     44618
     44605     44604     44616     44619     44606     44604     44616     44617
     44606     44604     44616     44618     44606     44604     44616     44619
     44607     44610     44611     44612     44607     44610     44611     44613
     44608     44607     44610     44611     44609     44607     44610     44611
     44610     44611     44613     44614     44610     44611     44613     44615
     44610     44611     44613     44660     44611     44613     44660     44661
     44611     44613     44660     44662     44611     44613     44660     44663
     44612     44611     44613     44614     44612     44611     44613     44615
     44612     44611     44613     44660     44613     44660     44663     44664
     44613     44660     44663     44665     44613     44660     44663     44666
     44614     44613     44660     44661     44614     44613     44660     44662
     44614     44613     44660     44663     44615     44613     44660     44661
     44615     44613     44660     44662     44615     44613     44660     44663
     44616     44619     44622     44623     44616     44619     44622     44624
     44616     44619     44622     44625     44617     44616     44619     44620
     44617     44616     44619     44621     44617     44616     44619     44622
     44618     44616     44619     44620     44618     44616     44619     44621
     44618     44616     44619     44622     44619     44622     44625     44626
     44619     44622     44625     44627     44619     44622     44625     44628
     44620     44619     44622     44623     44620     44619     44622     44624
     44620     44619     44622     44625     44621     44619     44622     44623
     44621     44619     44622     44624     44621     44619     44622     44625
     44622     44625     44628     44629     44622     44625     44628     44630
     44622     44625     44628     44631     44623     44622     44625     44626
     44623     44622     44625     44627     44623     44622     44625     44628
     44624     44622     44625     44626     44624     44622     44625     44627
     44624     44622     44625     44628     44625     44628     44631     44632
     44625     44628     44631     44633     44625     44628     44631     44634
     44626     44625     44628     44629     44626     44625     44628     44630
     44626     44625     44628     44631     44627     44625     44628     44629
     44627     44625     44628     44630     44627     44625     44628     44631
     44628     44631     44634     44635     44628     44631     44634     44636
     44628     44631     44634     44639     44629     44628     44631     44632
     44629     44628     44631     44633     44629     44628     44631     44634
     44630     44628     44631     44632     44630     44628     44631     44633
     44630     44628     44631     44634     44631     44634     44636     44637
     44631     44634     44636     44638     44631     44634     44636     44639
     44631     44634     44639     44636     44631     44634     44639     44640
     44631     44634     44639     44641     44632     44631     44634     44635
     44632     44631     44634     44636     44632     44631     44634     44639
     44633     44631     44634     44635     44633     44631     44634     44636
     44633     44631     44634     44639     44634     44636     44639     44640
     44634     44636     44639     44641     44634     44639     44636     44637
     44634     44639     44636     44638     44634     44639     44641     44642
     44634     44639     44641     44643     44634     44639     44641     44644
     44635     44634     44636     44637     44635     44634     44636     44638
     44635     44634     44636     44639     44635     44634     44639     44636
     44635     44634     44639     44640     44635     44634     44639     44641
     44636     44634     44639     44640     44636     44634     44639     44641
     44636     44639     44641     44642     44636     44639     44641     44643
     44636     44639     44641     44644     44637     44636     44634     44639
     44637     44636     44639     44640     44637     44636     44639     44641
     44638     44636     44634     44639     44638     44636     44639     44640
     44638     44636     44639     44641     44639     44641     44644     44645
     44639     44641     44644     44646     44639     44641     44644     44647
     44640     44639     44641     44642     44640     44639     44641     44643
     44640     44639     44641     44644     44641     44644     44647     44648
     44641     44644     44647     44649     44641     44644     44647     44650
     44642     44641     44644     44645     44642     44641     44644     44646
     44642     44641     44644     44647     44643     44641     44644     44645
     44643     44641     44644     44646     44643     44641     44644     44647
     44644     44647     44650     44651     44644     44647     44650     44652
     44644     44647     44650     44653     44645     44644     44647     44648
     44645     44644     44647     44649     44645     44644     44647     44650
     44646     44644     44647     44648     44646     44644     44647     44649
     44646     44644     44647     44650     44647     44650     44653     44654
     44647     44650     44653     44655     44647     44650     44653     44656
     44648     44647     44650     44651     44648     44647     44650     44652
     44648     44647     44650     44653     44649     44647     44650     44651
     44649     44647     44650     44652     44649     44647     44650     44653
     44650     44653     44656     44657     44650     44653     44656     44658
     44650     44653     44656     44659     44651     44650     44653     44654
     44651     44650     44653     44655     44651     44650     44653     44656
     44652     44650     44653     44654     44652     44650     44653     44655
     44652     44650     44653     44656     44654     44653     44656     44657
     44654     44653     44656     44658     44654     44653     44656     44659
     44655     44653     44656     44657     44655     44653     44656     44658
     44655     44653     44656     44659     44660     44663     44666     44667
     44660     44663     44666     44668     44660     44663     44666     44669
     44661     44660     44663     44664     44661     44660     44663     44665
     44661     44660     44663     44666     44662     44660     44663     44664
     44662     44660     44663     44665     44662     44660     44663     44666
     44663     44666     44669     44670     44663     44666     44669     44671
     44663     44666     44669     44672     44664     44663     44666     44667
     44664     44663     44666     44668     44664     44663     44666     44669
     44665     44663     44666     44667     44665     44663     44666     44668
     44665     44663     44666     44669     44666     44669     44672     44673
     44666     44669     44672     44674     44666     44669     44672     44675
     44667     44666     44669     44670     44667     44666     44669     44671
     44667     44666     44669     44672     44668     44666     44669     44670
     44668     44666     44669     44671     44668     44666     44669     44672
     44669     44672     44675     44676     44669     44672     44675     44677
     44669     44672     44675     44678     44670     44669     44672     44673
     44670     44669     44672     44674     44670     44669     44672     44675
     44671     44669     44672     44673     44671     44669     44672     44674
     44671     44669     44672     44675     44672     44675     44678     44679
     44672     44675     44678     44680     44672     44675     44678     44681
     44673     44672     44675     44676     44673     44672     44675     44677
     44673     44672     44675     44678     44674     44672     44675     44676
     44674     44672     44675     44677     44674     44672     44675     44678
     44675     44678     44681     44682     44675     44678     44681     44683
     44675     44678     44681     44684     44676     44675     44678     44679
     44676     44675     44678     44680     44676     44675     44678     44681
     44677     44675     44678     44679     44677     44675     44678     44680
     44677     44675     44678     44681     44678     44681     44684     44685
     44678     44681     44684     44686     44678     44681     44684     44687
     44679     44678     44681     44682     44679     44678     44681     44683
     44679     44678     44681     44684     44680     44678     44681     44682
     44680     44678     44681     44683     44680     44678     44681     44684
     44681     44684     44687     44688     44681     44684     44687     44689
     44681     44684     44687     44690     44682     44681     44684     44685
     44682     44681     44684     44686     44682     44681     44684     44687
     44683     44681     44684     44685     44683     44681     44684     44686
     44683     44681     44684     44687     44684     44687     44690     44691
     44684     44687     44690     44692     44684     44687     44690     44693
     44685     44684     44687     44688     44685     44684     44687     44689
     44685     44684     44687     44690     44686     44684     44687     44688
     44686     44684     44687     44689     44686     44684     44687     44690
     44687     44690     44693     44694     44687     44690     44693     44695
     44687     44690     44693     44696     44688     44687     44690     44691
     44688     44687     44690     44692     44688     44687     44690     44693
     44689     44687     44690     44691     44689     44687     44690     44692
     44689     44687     44690     44693     44690     44693     44696     44697
     44690     44693     44696     44698     44690     44693     44696     44699
     44691     44690     44693     44694     44691     44690     44693     44695
     44691     44690     44693     44696     44692     44690     44693     44694
     44692     44690     44693     44695     44692     44690     44693     44696
     44693     44696     44699     44700     44693     44696     44699     44701
     44693     44696     44699     44702     44694     44693     44696     44697
     44694     44693     44696     44698     44694     44693     44696     44699
     44695     44693     44696     44697     44695     44693     44696     44698
     44695     44693     44696     44699     44697     44696     44699     44700
     44697     44696     44699     44701     44697     44696     44699     44702
     44698     44696     44699     44700     44698     44696     44699     44701
     44698     44696     44699     44702     44703     44708     44710     44711
     44703     44708     44712     44713     44703     44708     44712     44714
     44703     44708     44712     44719     44704     44703     44706     44707
     44704     44703     44708     44709     44704     44703     44708     44710
     44704     44703     44708     44712     44705     44703     44706     44707
     44705     44703     44708     44709     44705     44703     44708     44710
     44705     44703     44708     44712     44706     44703     44708     44709
     44706     44703     44708     44710     44706     44703     44708     44712
     44707     44706     44703     44708     44708     44712     44719     44715
     44709     44708     44710     44711     44709     44708     44712     44713
     44709     44708     44712     44714     44709     44708     44712     44719
     44710     44708     44712     44713     44710     44708     44712     44714
     44710     44708     44712     44719     44711     44710     44708     44712
     44712     44719     44715     44716     44712     44719     44715     44717
     44712     44719     44715     44718     44713     44712     44719     44715
     44714     44712     44719     44715     44715     44718     44720     44721
     44715     44718     44720     44722     44715     44718     44720     44723
     44716     44715     44718     44720     44717     44715     44718     44720
     44718     44720     44723     44724     44718     44720     44723     44725
     44718     44720     44723     44731     44719     44715     44718     44720
     44720     44723     44725     44726     44720     44723     44731     44732
     44720     44723     44731     44733     44720     44723     44731     44734
     44721     44720     44723     44724     44721     44720     44723     44725
     44721     44720     44723     44731     44722     44720     44723     44724
     44722     44720     44723     44725     44722     44720     44723     44731
     44723     44725     44726     44727     44723     44725     44726     44728
     44723     44731     44734     44735     44724     44723     44725     44726
     44724     44723     44731     44732     44724     44723     44731     44733
     44724     44723     44731     44734     44725     44723     44731     44732
     44725     44723     44731     44733     44725     44723     44731     44734
     44725     44726     44728     44729     44725     44726     44728     44730
     44725     44726     44728     44740     44726     44725     44723     44731
     44726     44728     44740     44741     44726     44728     44740     44742
     44726     44728     44740     44743     44727     44726     44728     44729
     44727     44726     44728     44730     44727     44726     44728     44740
     44728     44740     44743     44744     44728     44740     44743     44745
     44728     44740     44743     44746     44729     44728     44740     44741
     44729     44728     44740     44742     44729     44728     44740     44743
     44730     44728     44740     44741     44730     44728     44740     44742
     44730     44728     44740     44743     44731     44734     44735     44736
     44731     44734     44735     44737     44732     44731     44734     44735
     44733     44731     44734     44735     44734     44735     44737     44738
     44734     44735     44737     44739     44734     44735     44737     44781
     44735     44737     44781     44782     44735     44737     44781     44783
     44735     44737     44781     44784     44736     44735     44737     44738
     44736     44735     44737     44739     44736     44735     44737     44781
     44737     44781     44784     44785     44737     44781     44784     44786
     44737     44781     44784     44787     44738     44737     44781     44782
     44738     44737     44781     44783     44738     44737     44781     44784
     44739     44737     44781     44782     44739     44737     44781     44783
     44739     44737     44781     44784     44740     44743     44746     44747
     44740     44743     44746     44748     44740     44743     44746     44749
     44741     44740     44743     44744     44741     44740     44743     44745
     44741     44740     44743     44746     44742     44740     44743     44744
     44742     44740     44743     44745     44742     44740     44743     44746
     44743     44746     44749     44750     44743     44746     44749     44751
     44743     44746     44749     44752     44744     44743     44746     44747
     44744     44743     44746     44748     44744     44743     44746     44749
     44745     44743     44746     44747     44745     44743     44746     44748
     44745     44743     44746     44749     44746     44749     44752     44753
     44746     44749     44752     44754     44746     44749     44752     44755
     44747     44746     44749     44750     44747     44746     44749     44751
     44747     44746     44749     44752     44748     44746     44749     44750
     44748     44746     44749     44751     44748     44746     44749     44752
     44749     44752     44755     44756     44749     44752     44755     44757
     44749     44752     44755     44758     44750     44749     44752     44753
     44750     44749     44752     44754     44750     44749     44752     44755
     44751     44749     44752     44753     44751     44749     44752     44754
     44751     44749     44752     44755     44752     44755     44758     44759
     44752     44755     44758     44760     44753     44752     44755     44756
     44753     44752     44755     44757     44753     44752     44755     44758
     44754     44752     44755     44756     44754     44752     44755     44757
     44754     44752     44755     44758     44755     44758     44760     44761
     44755     44758     44760     44762     44756     44755     44758     44759
     44756     44755     44758     44760     44757     44755     44758     44759
     44757     44755     44758     44760     44758     44760     44762     44763
     44758     44760     44762     44764     44758     44760     44762     44765
     44759     44758     44760     44761     44759     44758     44760     44762
     44760     44762     44765     44766     44760     44762     44765     44767
     44760     44762     44765     44768     44761     44760     44762     44763
     44761     44760     44762     44764     44761     44760     44762     44765
     44762     44765     44768     44769     44762     44765     44768     44770
     44762     44765     44768     44771     44763     44762     44765     44766
     44763     44762     44765     44767     44763     44762     44765     44768
     44764     44762     44765     44766     44764     44762     44765     44767
     44764     44762     44765     44768     44765     44768     44771     44772
     44765     44768     44771     44773     44765     44768     44771     44774
     44766     44765     44768     44769     44766     44765     44768     44770
     44766     44765     44768     44771     44767     44765     44768     44769
     44767     44765     44768     44770     44767     44765     44768     44771
     44768     44771     44774     44775     44768     44771     44774     44776
     44768     44771     44774     44777     44769     44768     44771     44772
     44769     44768     44771     44773     44769     44768     44771     44774
     44770     44768     44771     44772     44770     44768     44771     44773
     44770     44768     44771     44774     44771     44774     44777     44778
     44771     44774     44777     44779     44771     44774     44777     44780
     44772     44771     44774     44775     44772     44771     44774     44776
     44772     44771     44774     44777     44773     44771     44774     44775
     44773     44771     44774     44776     44773     44771     44774     44777
     44775     44774     44777     44778     44775     44774     44777     44779
     44775     44774     44777     44780     44776     44774     44777     44778
     44776     44774     44777     44779     44776     44774     44777     44780
     44781     44784     44787     44788     44781     44784     44787     44789
     44781     44784     44787     44790     44782     44781     44784     44785
     44782     44781     44784     44786     44782     44781     44784     44787
     44783     44781     44784     44785     44783     44781     44784     44786
     44783     44781     44784     44787     44784     44787     44790     44791
     44784     44787     44790     44792     44784     44787     44790     44793
     44785     44784     44787     44788     44785     44784     44787     44789
     44785     44784     44787     44790     44786     44784     44787     44788
     44786     44784     44787     44789     44786     44784     44787     44790
     44787     44790     44793     44794     44787     44790     44793     44795
     44787     44790     44793     44796     44788     44787     44790     44791
     44788     44787     44790     44792     44788     44787     44790     44793
     44789     44787     44790     44791     44789     44787     44790     44792
     44789     44787     44790     44793     44790     44793     44796     44797
     44790     44793     44796     44798     44790     44793     44796     44799
     44791     44790     44793     44794     44791     44790     44793     44795
     44791     44790     44793     44796     44792     44790     44793     44794
     44792     44790     44793     44795     44792     44790     44793     44796
     44793     44796     44799     44800     44793     44796     44799     44801
     44793     44796     44799     44802     44794     44793     44796     44797
     44794     44793     44796     44798     44794     44793     44796     44799
     44795     44793     44796     44797     44795     44793     44796     44798
     44795     44793     44796     44799     44796     44799     44802     44803
     44796     44799     44802     44804     44796     44799     44802     44805
     44797     44796     44799     44800     44797     44796     44799     44801
     44797     44796     44799     44802     44798     44796     44799     44800
     44798     44796     44799     44801     44798     44796     44799     44802
     44799     44802     44805     44806     44799     44802     44805     44807
     44799     44802     44805     44808     44800     44799     44802     44803
     44800     44799     44802     44804     44800     44799     44802     44805
     44801     44799     44802     44803     44801     44799     44802     44804
     44801     44799     44802     44805     44802     44805     44808     44809
     44802     44805     44808     44810     44802     44805     44808     44811
     44803     44802     44805     44806     44803     44802     44805     44807
     44803     44802     44805     44808     44804     44802     44805     44806
     44804     44802     44805     44807     44804     44802     44805     44808
     44805     44808     44811     44812     44805     44808     44811     44813
     44805     44808     44811     44814     44806     44805     44808     44809
     44806     44805     44808     44810     44806     44805     44808     44811
     44807     44805     44808     44809     44807     44805     44808     44810
     44807     44805     44808     44811     44808     44811     44814     44815
     44808     44811     44814     44816     44808     44811     44814     44817
     44809     44808     44811     44812     44809     44808     44811     44813
     44809     44808     44811     44814     44810     44808     44811     44812
     44810     44808     44811     44813     44810     44808     44811     44814
     44811     44814     44817     44818     44811     44814     44817     44819
     44811     44814     44817     44820     44812     44811     44814     44815
     44812     44811     44814     44816     44812     44811     44814     44817
     44813     44811     44814     44815     44813     44811     44814     44816
     44813     44811     44814     44817     44814     44817     44820     44821
     44814     44817     44820     44822     44814     44817     44820     44823
     44815     44814     44817     44818     44815     44814     44817     44819
     44815     44814     44817     44820     44816     44814     44817     44818
     44816     44814     44817     44819     44816     44814     44817     44820
     44818     44817     44820     44821     44818     44817     44820     44822
     44818     44817     44820     44823     44819     44817     44820     44821
     44819     44817     44820     44822     44819     44817     44820     44823
     44824     44828     44831     44832     44824     44828     44831     44833
     44824     44828     44831     44838     44825     44824     44828     44829
     44825     44824     44828     44830     44825     44824     44828     44831
     44826     44824     44828     44829     44826     44824     44828     44830
     44826     44824     44828     44831     44827     44824     44828     44829
     44827     44824     44828     44830     44827     44824     44828     44831
     44828     44831     44838     44834     44829     44828     44831     44832
     44829     44828     44831     44833     44829     44828     44831     44838
     44830     44828     44831     44832     44830     44828     44831     44833
     44830     44828     44831     44838     44831     44838     44834     44835
     44831     44838     44834     44836     44831     44838     44834     44837
     44832     44831     44838     44834     44833     44831     44838     44834
     44834     44837     44839     44840     44834     44837     44839     44841
     44834     44837     44839     44842     44835     44834     44837     44839
     44836     44834     44837     44839     44837     44839     44842     44843
     44837     44839     44842     44844     44837     44839     44842     44850
     44838     44834     44837     44839     44839     44842     44844     44845
     44839     44842     44850     44851     44839     44842     44850     44852
     44839     44842     44850     44853     44840     44839     44842     44843
     44840     44839     44842     44844     44840     44839     44842     44850
     44841     44839     44842     44843     44841     44839     44842     44844
     44841     44839     44842     44850     44842     44844     44845     44846
     44842     44844     44845     44847     44842     44850     44853     44854
     44843     44842     44844     44845     44843     44842     44850     44851
     44843     44842     44850     44852     44843     44842     44850     44853
     44844     44842     44850     44851     44844     44842     44850     44852
     44844     44842     44850     44853     44844     44845     44847     44848
     44844     44845     44847     44849     44844     44845     44847     44859
     44845     44844     44842     44850     44845     44847     44859     44860
     44845     44847     44859     44861     44845     44847     44859     44862
     44846     44845     44847     44848     44846     44845     44847     44849
     44846     44845     44847     44859     44847     44859     44862     44863
     44847     44859     44862     44864     44847     44859     44862     44865
     44848     44847     44859     44860     44848     44847     44859     44861
     44848     44847     44859     44862     44849     44847     44859     44860
     44849     44847     44859     44861     44849     44847     44859     44862
     44850     44853     44854     44855     44850     44853     44854     44856
     44851     44850     44853     44854     44852     44850     44853     44854
     44853     44854     44856     44857     44853     44854     44856     44858
     44853     44854     44856     44903     44854     44856     44903     44904
     44854     44856     44903     44905     44854     44856     44903     44906
     44855     44854     44856     44857     44855     44854     44856     44858
     44855     44854     44856     44903     44856     44903     44906     44907
     44856     44903     44906     44908     44856     44903     44906     44909
     44857     44856     44903     44904     44857     44856     44903     44905
     44857     44856     44903     44906     44858     44856     44903     44904
     44858     44856     44903     44905     44858     44856     44903     44906
     44859     44862     44865     44866     44859     44862     44865     44867
     44859     44862     44865     44868     44860     44859     44862     44863
     44860     44859     44862     44864     44860     44859     44862     44865
     44861     44859     44862     44863     44861     44859     44862     44864
     44861     44859     44862     44865     44862     44865     44868     44869
     44862     44865     44868     44870     44862     44865     44868     44871
     44863     44862     44865     44866     44863     44862     44865     44867
     44863     44862     44865     44868     44864     44862     44865     44866
     44864     44862     44865     44867     44864     44862     44865     44868
     44865     44868     44871     44872     44865     44868     44871     44873
     44865     44868     44871     44874     44866     44865     44868     44869
     44866     44865     44868     44870     44866     44865     44868     44871
     44867     44865     44868     44869     44867     44865     44868     44870
     44867     44865     44868     44871     44868     44871     44874     44875
     44868     44871     44874     44876     44868     44871     44874     44877
     44869     44868     44871     44872     44869     44868     44871     44873
     44869     44868     44871     44874     44870     44868     44871     44872
     44870     44868     44871     44873     44870     44868     44871     44874
     44871     44874     44877     44878     44871     44874     44877     44879
     44871     44874     44877     44882     44872     44871     44874     44875
     44872     44871     44874     44876     44872     44871     44874     44877
     44873     44871     44874     44875     44873     44871     44874     44876
     44873     44871     44874     44877     44874     44877     44879     44880
     44874     44877     44879     44881     44874     44877     44879     44882
     44874     44877     44882     44879     44874     44877     44882     44883
     44874     44877     44882     44884     44875     44874     44877     44878
     44875     44874     44877     44879     44875     44874     44877     44882
     44876     44874     44877     44878     44876     44874     44877     44879
     44876     44874     44877     44882     44877     44879     44882     44883
     44877     44879     44882     44884     44877     44882     44879     44880
     44877     44882     44879     44881     44877     44882     44884     44885
     44877     44882     44884     44886     44877     44882     44884     44887
     44878     44877     44879     44880     44878     44877     44879     44881
     44878     44877     44879     44882     44878     44877     44882     44879
     44878     44877     44882     44883     44878     44877     44882     44884
     44879     44877     44882     44883     44879     44877     44882     44884
     44879     44882     44884     44885     44879     44882     44884     44886
     44879     44882     44884     44887     44880     44879     44877     44882
     44880     44879     44882     44883     44880     44879     44882     44884
     44881     44879     44877     44882     44881     44879     44882     44883
     44881     44879     44882     44884     44882     44884     44887     44888
     44882     44884     44887     44889     44882     44884     44887     44890
     44883     44882     44884     44885     44883     44882     44884     44886
     44883     44882     44884     44887     44884     44887     44890     44891
     44884     44887     44890     44892     44884     44887     44890     44893
     44885     44884     44887     44888     44885     44884     44887     44889
     44885     44884     44887     44890     44886     44884     44887     44888
     44886     44884     44887     44889     44886     44884     44887     44890
     44887     44890     44893     44894     44887     44890     44893     44895
     44887     44890     44893     44896     44888     44887     44890     44891
     44888     44887     44890     44892     44888     44887     44890     44893
     44889     44887     44890     44891     44889     44887     44890     44892
     44889     44887     44890     44893     44890     44893     44896     44897
     44890     44893     44896     44898     44890     44893     44896     44899
     44891     44890     44893     44894     44891     44890     44893     44895
     44891     44890     44893     44896     44892     44890     44893     44894
     44892     44890     44893     44895     44892     44890     44893     44896
     44893     44896     44899     44900     44893     44896     44899     44901
     44893     44896     44899     44902     44894     44893     44896     44897
     44894     44893     44896     44898     44894     44893     44896     44899
     44895     44893     44896     44897     44895     44893     44896     44898
     44895     44893     44896     44899     44897     44896     44899     44900
     44897     44896     44899     44901     44897     44896     44899     44902
     44898     44896     44899     44900     44898     44896     44899     44901
     44898     44896     44899     44902     44903     44906     44909     44910
     44903     44906     44909     44911     44903     44906     44909     44912
     44904     44903     44906     44907     44904     44903     44906     44908
     44904     44903     44906     44909     44905     44903     44906     44907
     44905     44903     44906     44908     44905     44903     44906     44909
     44906     44909     44912     44913     44906     44909     44912     44914
     44906     44909     44912     44915     44907     44906     44909     44910
     44907     44906     44909     44911     44907     44906     44909     44912
     44908     44906     44909     44910     44908     44906     44909     44911
     44908     44906     44909     44912     44909     44912     44915     44916
     44909     44912     44915     44917     44909     44912     44915     44918
     44910     44909     44912     44913     44910     44909     44912     44914
     44910     44909     44912     44915     44911     44909     44912     44913
     44911     44909     44912     44914     44911     44909     44912     44915
     44912     44915     44918     44919     44912     44915     44918     44920
     44912     44915     44918     44921     44913     44912     44915     44916
     44913     44912     44915     44917     44913     44912     44915     44918
     44914     44912     44915     44916     44914     44912     44915     44917
     44914     44912     44915     44918     44915     44918     44921     44922
     44915     44918     44921     44923     44915     44918     44921     44924
     44916     44915     44918     44919     44916     44915     44918     44920
     44916     44915     44918     44921     44917     44915     44918     44919
     44917     44915     44918     44920     44917     44915     44918     44921
     44918     44921     44924     44925     44918     44921     44924     44926
     44918     44921     44924     44927     44919     44918     44921     44922
     44919     44918     44921     44923     44919     44918     44921     44924
     44920     44918     44921     44922     44920     44918     44921     44923
     44920     44918     44921     44924     44921     44924     44927     44928
     44921     44924     44927     44929     44921     44924     44927     44930
     44922     44921     44924     44925     44922     44921     44924     44926
     44922     44921     44924     44927     44923     44921     44924     44925
     44923     44921     44924     44926     44923     44921     44924     44927
     44924     44927     44930     44931     44924     44927     44930     44932
     44924     44927     44930     44933     44925     44924     44927     44928
     44925     44924     44927     44929     44925     44924     44927     44930
     44926     44924     44927     44928     44926     44924     44927     44929
     44926     44924     44927     44930     44927     44930     44933     44934
     44927     44930     44933     44935     44927     44930     44933     44936
     44928     44927     44930     44931     44928     44927     44930     44932
     44928     44927     44930     44933     44929     44927     44930     44931
     44929     44927     44930     44932     44929     44927     44930     44933
     44930     44933     44936     44937     44930     44933     44936     44938
     44930     44933     44936     44939     44931     44930     44933     44934
     44931     44930     44933     44935     44931     44930     44933     44936
     44932     44930     44933     44934     44932     44930     44933     44935
     44932     44930     44933     44936     44933     44936     44939     44940
     44933     44936     44939     44941     44933     44936     44939     44942
     44934     44933     44936     44937     44934     44933     44936     44938
     44934     44933     44936     44939     44935     44933     44936     44937
     44935     44933     44936     44938     44935     44933     44936     44939
     44936     44939     44942     44943     44936     44939     44942     44944
     44936     44939     44942     44945     44937     44936     44939     44940
     44937     44936     44939     44941     44937     44936     44939     44942
     44938     44936     44939     44940     44938     44936     44939     44941
     44938     44936     44939     44942     44940     44939     44942     44943
     44940     44939     44942     44944     44940     44939     44942     44945
     44941     44939     44942     44943     44941     44939     44942     44944
     44941     44939     44942     44945     44946     44950     44953     44954
     44946     44950     44953     44955     44946     44950     44953     44960
     44947     44946     44950     44951     44947     44946     44950     44952
     44947     44946     44950     44953     44948     44946     44950     44951
     44948     44946     44950     44952     44948     44946     44950     44953
     44949     44946     44950     44951     44949     44946     44950     44952
     44949     44946     44950     44953     44950     44953     44960     44956
     44951     44950     44953     44954     44951     44950     44953     44955
     44951     44950     44953     44960     44952     44950     44953     44954
     44952     44950     44953     44955     44952     44950     44953     44960
     44953     44960     44956     44957     44953     44960     44956     44958
     44953     44960     44956     44959     44954     44953     44960     44956
     44955     44953     44960     44956     44956     44959     44961     44962
     44956     44959     44961     44963     44956     44959     44961     44964
     44957     44956     44959     44961     44958     44956     44959     44961
     44959     44961     44964     44965     44959     44961     44964     44966
     44959     44961     44964     44972     44960     44956     44959     44961
     44961     44964     44966     44967     44961     44964     44972     44973
     44961     44964     44972     44974     44961     44964     44972     44975
     44962     44961     44964     44965     44962     44961     44964     44966
     44962     44961     44964     44972     44963     44961     44964     44965
     44963     44961     44964     44966     44963     44961     44964     44972
     44964     44966     44967     44968     44964     44966     44967     44969
     44964     44972     44975     44976     44965     44964     44966     44967
     44965     44964     44972     44973     44965     44964     44972     44974
     44965     44964     44972     44975     44966     44964     44972     44973
     44966     44964     44972     44974     44966     44964     44972     44975
     44966     44967     44969     44970     44966     44967     44969     44971
     44966     44967     44969     44981     44967     44966     44964     44972
     44967     44969     44981     44982     44967     44969     44981     44983
     44967     44969     44981     44984     44968     44967     44969     44970
     44968     44967     44969     44971     44968     44967     44969     44981
     44969     44981     44984     44985     44969     44981     44984     44986
     44969     44981     44984     44987     44970     44969     44981     44982
     44970     44969     44981     44983     44970     44969     44981     44984
     44971     44969     44981     44982     44971     44969     44981     44983
     44971     44969     44981     44984     44972     44975     44976     44977
     44972     44975     44976     44978     44973     44972     44975     44976
     44974     44972     44975     44976     44975     44976     44978     44979
     44975     44976     44978     44980     44975     44976     44978     45025
     44976     44978     45025     45026     44976     44978     45025     45027
     44976     44978     45025     45028     44977     44976     44978     44979
     44977     44976     44978     44980     44977     44976     44978     45025
     44978     45025     45028     45029     44978     45025     45028     45030
     44978     45025     45028     45031     44979     44978     45025     45026
     44979     44978     45025     45027     44979     44978     45025     45028
     44980     44978     45025     45026     44980     44978     45025     45027
     44980     44978     45025     45028     44981     44984     44987     44988
     44981     44984     44987     44989     44981     44984     44987     44990
     44982     44981     44984     44985     44982     44981     44984     44986
     44982     44981     44984     44987     44983     44981     44984     44985
     44983     44981     44984     44986     44983     44981     44984     44987
     44984     44987     44990     44991     44984     44987     44990     44992
     44984     44987     44990     44993     44985     44984     44987     44988
     44985     44984     44987     44989     44985     44984     44987     44990
     44986     44984     44987     44988     44986     44984     44987     44989
     44986     44984     44987     44990     44987     44990     44993     44994
     44987     44990     44993     44995     44987     44990     44993     44996
     44988     44987     44990     44991     44988     44987     44990     44992
     44988     44987     44990     44993     44989     44987     44990     44991
     44989     44987     44990     44992     44989     44987     44990     44993
     44990     44993     44996     44997     44990     44993     44996     44998
     44990     44993     44996     44999     44991     44990     44993     44994
     44991     44990     44993     44995     44991     44990     44993     44996
     44992     44990     44993     44994     44992     44990     44993     44995
     44992     44990     44993     44996     44993     44996     44999     45000
     44993     44996     44999     45001     44993     44996     44999     45004
     44994     44993     44996     44997     44994     44993     44996     44998
     44994     44993     44996     44999     44995     44993     44996     44997
     44995     44993     44996     44998     44995     44993     44996     44999
     44996     44999     45001     45002     44996     44999     45001     45003
     44996     44999     45001     45004     44996     44999     45004     45001
     44996     44999     45004     45005     44996     44999     45004     45006
     44997     44996     44999     45000     44997     44996     44999     45001
     44997     44996     44999     45004     44998     44996     44999     45000
     44998     44996     44999     45001     44998     44996     44999     45004
     44999     45001     45004     45005     44999     45001     45004     45006
     44999     45004     45001     45002     44999     45004     45001     45003
     44999     45004     45006     45007     44999     45004     45006     45008
     44999     45004     45006     45009     45000     44999     45001     45002
     45000     44999     45001     45003     45000     44999     45001     45004
     45000     44999     45004     45001     45000     44999     45004     45005
     45000     44999     45004     45006     45001     44999     45004     45005
     45001     44999     45004     45006     45001     45004     45006     45007
     45001     45004     45006     45008     45001     45004     45006     45009
     45002     45001     44999     45004     45002     45001     45004     45005
     45002     45001     45004     45006     45003     45001     44999     45004
     45003     45001     45004     45005     45003     45001     45004     45006
     45004     45006     45009     45010     45004     45006     45009     45011
     45004     45006     45009     45012     45005     45004     45006     45007
     45005     45004     45006     45008     45005     45004     45006     45009
     45006     45009     45012     45013     45006     45009     45012     45014
     45006     45009     45012     45015     45007     45006     45009     45010
     45007     45006     45009     45011     45007     45006     45009     45012
     45008     45006     45009     45010     45008     45006     45009     45011
     45008     45006     45009     45012     45009     45012     45015     45016
     45009     45012     45015     45017     45009     45012     45015     45018
     45010     45009     45012     45013     45010     45009     45012     45014
     45010     45009     45012     45015     45011     45009     45012     45013
     45011     45009     45012     45014     45011     45009     45012     45015
     45012     45015     45018     45019     45012     45015     45018     45020
     45012     45015     45018     45021     45013     45012     45015     45016
     45013     45012     45015     45017     45013     45012     45015     45018
     45014     45012     45015     45016     45014     45012     45015     45017
     45014     45012     45015     45018     45015     45018     45021     45022
     45015     45018     45021     45023     45015     45018     45021     45024
     45016     45015     45018     45019     45016     45015     45018     45020
     45016     45015     45018     45021     45017     45015     45018     45019
     45017     45015     45018     45020     45017     45015     45018     45021
     45019     45018     45021     45022     45019     45018     45021     45023
     45019     45018     45021     45024     45020     45018     45021     45022
     45020     45018     45021     45023     45020     45018     45021     45024
     45025     45028     45031     45032     45025     45028     45031     45033
     45025     45028     45031     45034     45026     45025     45028     45029
     45026     45025     45028     45030     45026     45025     45028     45031
     45027     45025     45028     45029     45027     45025     45028     45030
     45027     45025     45028     45031     45028     45031     45034     45035
     45028     45031     45034     45036     45028     45031     45034     45037
     45029     45028     45031     45032     45029     45028     45031     45033
     45029     45028     45031     45034     45030     45028     45031     45032
     45030     45028     45031     45033     45030     45028     45031     45034
     45031     45034     45037     45038     45031     45034     45037     45039
     45031     45034     45037     45040     45032     45031     45034     45035
     45032     45031     45034     45036     45032     45031     45034     45037
     45033     45031     45034     45035     45033     45031     45034     45036
     45033     45031     45034     45037     45034     45037     45040     45041
     45034     45037     45040     45042     45034     45037     45040     45043
     45035     45034     45037     45038     45035     45034     45037     45039
     45035     45034     45037     45040     45036     45034     45037     45038
     45036     45034     45037     45039     45036     45034     45037     45040
     45037     45040     45043     45044     45037     45040     45043     45045
     45037     45040     45043     45046     45038     45037     45040     45041
     45038     45037     45040     45042     45038     45037     45040     45043
     45039     45037     45040     45041     45039     45037     45040     45042
     45039     45037     45040     45043     45040     45043     45046     45047
     45040     45043     45046     45048     45040     45043     45046     45049
     45041     45040     45043     45044     45041     45040     45043     45045
     45041     45040     45043     45046     45042     45040     45043     45044
     45042     45040     45043     45045     45042     45040     45043     45046
     45043     45046     45049     45050     45043     45046     45049     45051
     45043     45046     45049     45052     45044     45043     45046     45047
     45044     45043     45046     45048     45044     45043     45046     45049
     45045     45043     45046     45047     45045     45043     45046     45048
     45045     45043     45046     45049     45046     45049     45052     45053
     45046     45049     45052     45054     45046     45049     45052     45055
     45047     45046     45049     45050     45047     45046     45049     45051
     45047     45046     45049     45052     45048     45046     45049     45050
     45048     45046     45049     45051     45048     45046     45049     45052
     45049     45052     45055     45056     45049     45052     45055     45057
     45049     45052     45055     45058     45050     45049     45052     45053
     45050     45049     45052     45054     45050     45049     45052     45055
     45051     45049     45052     45053     45051     45049     45052     45054
     45051     45049     45052     45055     45052     45055     45058     45059
     45052     45055     45058     45060     45052     45055     45058     45061
     45053     45052     45055     45056     45053     45052     45055     45057
     45053     45052     45055     45058     45054     45052     45055     45056
     45054     45052     45055     45057     45054     45052     45055     45058
     45055     45058     45061     45062     45055     45058     45061     45063
     45055     45058     45061     45064     45056     45055     45058     45059
     45056     45055     45058     45060     45056     45055     45058     45061
     45057     45055     45058     45059     45057     45055     45058     45060
     45057     45055     45058     45061     45058     45061     45064     45065
     45058     45061     45064     45066     45058     45061     45064     45067
     45059     45058     45061     45062     45059     45058     45061     45063
     45059     45058     45061     45064     45060     45058     45061     45062
     45060     45058     45061     45063     45060     45058     45061     45064
     45062     45061     45064     45065     45062     45061     45064     45066
     45062     45061     45064     45067     45063     45061     45064     45065
     45063     45061     45064     45066     45063     45061     45064     45067
     45068     45072     45075     45076     45068     45072     45075     45077
     45068     45072     45075     45082     45069     45068     45072     45073
     45069     45068     45072     45074     45069     45068     45072     45075
     45070     45068     45072     45073     45070     45068     45072     45074
     45070     45068     45072     45075     45071     45068     45072     45073
     45071     45068     45072     45074     45071     45068     45072     45075
     45072     45075     45082     45078     45073     45072     45075     45076
     45073     45072     45075     45077     45073     45072     45075     45082
     45074     45072     45075     45076     45074     45072     45075     45077
     45074     45072     45075     45082     45075     45082     45078     45079
     45075     45082     45078     45080     45075     45082     45078     45081
     45076     45075     45082     45078     45077     45075     45082     45078
     45078     45081     45083     45084     45078     45081     45083     45085
     45078     45081     45083     45086     45079     45078     45081     45083
     45080     45078     45081     45083     45081     45083     45086     45087
     45081     45083     45086     45088     45081     45083     45086     45094
     45082     45078     45081     45083     45083     45086     45088     45089
     45083     45086     45094     45095     45083     45086     45094     45096
     45083     45086     45094     45097     45084     45083     45086     45087
     45084     45083     45086     45088     45084     45083     45086     45094
     45085     45083     45086     45087     45085     45083     45086     45088
     45085     45083     45086     45094     45086     45088     45089     45090
     45086     45088     45089     45091     45086     45094     45097     45098
     45087     45086     45088     45089     45087     45086     45094     45095
     45087     45086     45094     45096     45087     45086     45094     45097
     45088     45086     45094     45095     45088     45086     45094     45096
     45088     45086     45094     45097     45088     45089     45091     45092
     45088     45089     45091     45093     45088     45089     45091     45103
     45089     45088     45086     45094     45089     45091     45103     45104
     45089     45091     45103     45105     45089     45091     45103     45106
     45090     45089     45091     45092     45090     45089     45091     45093
     45090     45089     45091     45103     45091     45103     45106     45107
     45091     45103     45106     45108     45091     45103     45106     45109
     45092     45091     45103     45104     45092     45091     45103     45105
     45092     45091     45103     45106     45093     45091     45103     45104
     45093     45091     45103     45105     45093     45091     45103     45106
     45094     45097     45098     45099     45094     45097     45098     45100
     45095     45094     45097     45098     45096     45094     45097     45098
     45097     45098     45100     45101     45097     45098     45100     45102
     45097     45098     45100     45147     45098     45100     45147     45148
     45098     45100     45147     45149     45098     45100     45147     45150
     45099     45098     45100     45101     45099     45098     45100     45102
     45099     45098     45100     45147     45100     45147     45150     45151
     45100     45147     45150     45152     45100     45147     45150     45153
     45101     45100     45147     45148     45101     45100     45147     45149
     45101     45100     45147     45150     45102     45100     45147     45148
     45102     45100     45147     45149     45102     45100     45147     45150
     45103     45106     45109     45110     45103     45106     45109     45111
     45103     45106     45109     45112     45104     45103     45106     45107
     45104     45103     45106     45108     45104     45103     45106     45109
     45105     45103     45106     45107     45105     45103     45106     45108
     45105     45103     45106     45109     45106     45109     45112     45113
     45106     45109     45112     45114     45106     45109     45112     45115
     45107     45106     45109     45110     45107     45106     45109     45111
     45107     45106     45109     45112     45108     45106     45109     45110
     45108     45106     45109     45111     45108     45106     45109     45112
     45109     45112     45115     45116     45109     45112     45115     45117
     45109     45112     45115     45118     45110     45109     45112     45113
     45110     45109     45112     45114     45110     45109     45112     45115
     45111     45109     45112     45113     45111     45109     45112     45114
     45111     45109     45112     45115     45112     45115     45118     45119
     45112     45115     45118     45120     45112     45115     45118     45121
     45113     45112     45115     45116     45113     45112     45115     45117
     45113     45112     45115     45118     45114     45112     45115     45116
     45114     45112     45115     45117     45114     45112     45115     45118
     45115     45118     45121     45122     45115     45118     45121     45123
     45115     45118     45121     45126     45116     45115     45118     45119
     45116     45115     45118     45120     45116     45115     45118     45121
     45117     45115     45118     45119     45117     45115     45118     45120
     45117     45115     45118     45121     45118     45121     45123     45124
     45118     45121     45123     45125     45118     45121     45123     45126
     45118     45121     45126     45123     45118     45121     45126     45127
     45118     45121     45126     45128     45119     45118     45121     45122
     45119     45118     45121     45123     45119     45118     45121     45126
     45120     45118     45121     45122     45120     45118     45121     45123
     45120     45118     45121     45126     45121     45123     45126     45127
     45121     45123     45126     45128     45121     45126     45123     45124
     45121     45126     45123     45125     45121     45126     45128     45129
     45121     45126     45128     45130     45121     45126     45128     45131
     45122     45121     45123     45124     45122     45121     45123     45125
     45122     45121     45123     45126     45122     45121     45126     45123
     45122     45121     45126     45127     45122     45121     45126     45128
     45123     45121     45126     45127     45123     45121     45126     45128
     45123     45126     45128     45129     45123     45126     45128     45130
     45123     45126     45128     45131     45124     45123     45121     45126
     45124     45123     45126     45127     45124     45123     45126     45128
     45125     45123     45121     45126     45125     45123     45126     45127
     45125     45123     45126     45128     45126     45128     45131     45132
     45126     45128     45131     45133     45126     45128     45131     45134
     45127     45126     45128     45129     45127     45126     45128     45130
     45127     45126     45128     45131     45128     45131     45134     45135
     45128     45131     45134     45136     45128     45131     45134     45137
     45129     45128     45131     45132     45129     45128     45131     45133
     45129     45128     45131     45134     45130     45128     45131     45132
     45130     45128     45131     45133     45130     45128     45131     45134
     45131     45134     45137     45138     45131     45134     45137     45139
     45131     45134     45137     45140     45132     45131     45134     45135
     45132     45131     45134     45136     45132     45131     45134     45137
     45133     45131     45134     45135     45133     45131     45134     45136
     45133     45131     45134     45137     45134     45137     45140     45141
     45134     45137     45140     45142     45134     45137     45140     45143
     45135     45134     45137     45138     45135     45134     45137     45139
     45135     45134     45137     45140     45136     45134     45137     45138
     45136     45134     45137     45139     45136     45134     45137     45140
     45137     45140     45143     45144     45137     45140     45143     45145
     45137     45140     45143     45146     45138     45137     45140     45141
     45138     45137     45140     45142     45138     45137     45140     45143
     45139     45137     45140     45141     45139     45137     45140     45142
     45139     45137     45140     45143     45141     45140     45143     45144
     45141     45140     45143     45145     45141     45140     45143     45146
     45142     45140     45143     45144     45142     45140     45143     45145
     45142     45140     45143     45146     45147     45150     45153     45154
     45147     45150     45153     45155     45147     45150     45153     45156
     45148     45147     45150     45151     45148     45147     45150     45152
     45148     45147     45150     45153     45149     45147     45150     45151
     45149     45147     45150     45152     45149     45147     45150     45153
     45150     45153     45156     45157     45150     45153     45156     45158
     45150     45153     45156     45159     45151     45150     45153     45154
     45151     45150     45153     45155     45151     45150     45153     45156
     45152     45150     45153     45154     45152     45150     45153     45155
     45152     45150     45153     45156     45153     45156     45159     45160
     45153     45156     45159     45161     45153     45156     45159     45162
     45154     45153     45156     45157     45154     45153     45156     45158
     45154     45153     45156     45159     45155     45153     45156     45157
     45155     45153     45156     45158     45155     45153     45156     45159
     45156     45159     45162     45163     45156     45159     45162     45164
     45156     45159     45162     45165     45157     45156     45159     45160
     45157     45156     45159     45161     45157     45156     45159     45162
     45158     45156     45159     45160     45158     45156     45159     45161
     45158     45156     45159     45162     45159     45162     45165     45166
     45159     45162     45165     45167     45159     45162     45165     45168
     45160     45159     45162     45163     45160     45159     45162     45164
     45160     45159     45162     45165     45161     45159     45162     45163
     45161     45159     45162     45164     45161     45159     45162     45165
     45162     45165     45168     45169     45162     45165     45168     45170
     45162     45165     45168     45171     45163     45162     45165     45166
     45163     45162     45165     45167     45163     45162     45165     45168
     45164     45162     45165     45166     45164     45162     45165     45167
     45164     45162     45165     45168     45165     45168     45171     45172
     45165     45168     45171     45173     45165     45168     45171     45174
     45166     45165     45168     45169     45166     45165     45168     45170
     45166     45165     45168     45171     45167     45165     45168     45169
     45167     45165     45168     45170     45167     45165     45168     45171
     45168     45171     45174     45175     45168     45171     45174     45176
     45168     45171     45174     45177     45169     45168     45171     45172
     45169     45168     45171     45173     45169     45168     45171     45174
     45170     45168     45171     45172     45170     45168     45171     45173
     45170     45168     45171     45174     45171     45174     45177     45178
     45171     45174     45177     45179     45171     45174     45177     45180
     45172     45171     45174     45175     45172     45171     45174     45176
     45172     45171     45174     45177     45173     45171     45174     45175
     45173     45171     45174     45176     45173     45171     45174     45177
     45174     45177     45180     45181     45174     45177     45180     45182
     45174     45177     45180     45183     45175     45174     45177     45178
     45175     45174     45177     45179     45175     45174     45177     45180
     45176     45174     45177     45178     45176     45174     45177     45179
     45176     45174     45177     45180     45177     45180     45183     45184
     45177     45180     45183     45185     45177     45180     45183     45186
     45178     45177     45180     45181     45178     45177     45180     45182
     45178     45177     45180     45183     45179     45177     45180     45181
     45179     45177     45180     45182     45179     45177     45180     45183
     45180     45183     45186     45187     45180     45183     45186     45188
     45180     45183     45186     45189     45181     45180     45183     45184
     45181     45180     45183     45185     45181     45180     45183     45186
     45182     45180     45183     45184     45182     45180     45183     45185
     45182     45180     45183     45186     45184     45183     45186     45187
     45184     45183     45186     45188     45184     45183     45186     45189
     45185     45183     45186     45187     45185     45183     45186     45188
     45185     45183     45186     45189     45190     45194     45197     45198
     45190     45194     45197     45199     45190     45194     45197     45204
     45191     45190     45194     45195     45191     45190     45194     45196
     45191     45190     45194     45197     45192     45190     45194     45195
     45192     45190     45194     45196     45192     45190     45194     45197
     45193     45190     45194     45195     45193     45190     45194     45196
     45193     45190     45194     45197     45194     45197     45204     45200
     45195     45194     45197     45198     45195     45194     45197     45199
     45195     45194     45197     45204     45196     45194     45197     45198
     45196     45194     45197     45199     45196     45194     45197     45204
     45197     45204     45200     45201     45197     45204     45200     45202
     45197     45204     45200     45203     45198     45197     45204     45200
     45199     45197     45204     45200     45200     45203     45205     45206
     45200     45203     45205     45207     45200     45203     45205     45208
     45201     45200     45203     45205     45202     45200     45203     45205
     45203     45205     45208     45209     45203     45205     45208     45210
     45203     45205     45208     45216     45204     45200     45203     45205
     45205     45208     45210     45211     45205     45208     45216     45217
     45205     45208     45216     45218     45205     45208     45216     45219
     45206     45205     45208     45209     45206     45205     45208     45210
     45206     45205     45208     45216     45207     45205     45208     45209
     45207     45205     45208     45210     45207     45205     45208     45216
     45208     45210     45211     45212     45208     45210     45211     45213
     45208     45216     45219     45220     45209     45208     45210     45211
     45209     45208     45216     45217     45209     45208     45216     45218
     45209     45208     45216     45219     45210     45208     45216     45217
     45210     45208     45216     45218     45210     45208     45216     45219
     45210     45211     45213     45214     45210     45211     45213     45215
     45210     45211     45213     45225     45211     45210     45208     45216
     45211     45213     45225     45226     45211     45213     45225     45227
     45211     45213     45225     45228     45212     45211     45213     45214
     45212     45211     45213     45215     45212     45211     45213     45225
     45213     45225     45228     45229     45213     45225     45228     45230
     45213     45225     45228     45231     45214     45213     45225     45226
     45214     45213     45225     45227     45214     45213     45225     45228
     45215     45213     45225     45226     45215     45213     45225     45227
     45215     45213     45225     45228     45216     45219     45220     45221
     45216     45219     45220     45222     45217     45216     45219     45220
     45218     45216     45219     45220     45219     45220     45222     45223
     45219     45220     45222     45224     45219     45220     45222     45269
     45220     45222     45269     45270     45220     45222     45269     45271
     45220     45222     45269     45272     45221     45220     45222     45223
     45221     45220     45222     45224     45221     45220     45222     45269
     45222     45269     45272     45273     45222     45269     45272     45274
     45222     45269     45272     45275     45223     45222     45269     45270
     45223     45222     45269     45271     45223     45222     45269     45272
     45224     45222     45269     45270     45224     45222     45269     45271
     45224     45222     45269     45272     45225     45228     45231     45232
     45225     45228     45231     45233     45225     45228     45231     45234
     45226     45225     45228     45229     45226     45225     45228     45230
     45226     45225     45228     45231     45227     45225     45228     45229
     45227     45225     45228     45230     45227     45225     45228     45231
     45228     45231     45234     45235     45228     45231     45234     45236
     45228     45231     45234     45237     45229     45228     45231     45232
     45229     45228     45231     45233     45229     45228     45231     45234
     45230     45228     45231     45232     45230     45228     45231     45233
     45230     45228     45231     45234     45231     45234     45237     45238
     45231     45234     45237     45239     45231     45234     45237     45240
     45232     45231     45234     45235     45232     45231     45234     45236
     45232     45231     45234     45237     45233     45231     45234     45235
     45233     45231     45234     45236     45233     45231     45234     45237
     45234     45237     45240     45241     45234     45237     45240     45242
     45234     45237     45240     45243     45235     45234     45237     45238
     45235     45234     45237     45239     45235     45234     45237     45240
     45236     45234     45237     45238     45236     45234     45237     45239
     45236     45234     45237     45240     45237     45240     45243     45244
     45237     45240     45243     45245     45237     45240     45243     45248
     45238     45237     45240     45241     45238     45237     45240     45242
     45238     45237     45240     45243     45239     45237     45240     45241
     45239     45237     45240     45242     45239     45237     45240     45243
     45240     45243     45245     45246     45240     45243     45245     45247
     45240     45243     45245     45248     45240     45243     45248     45245
     45240     45243     45248     45249     45240     45243     45248     45250
     45241     45240     45243     45244     45241     45240     45243     45245
     45241     45240     45243     45248     45242     45240     45243     45244
     45242     45240     45243     45245     45242     45240     45243     45248
     45243     45245     45248     45249     45243     45245     45248     45250
     45243     45248     45245     45246     45243     45248     45245     45247
     45243     45248     45250     45251     45243     45248     45250     45252
     45243     45248     45250     45253     45244     45243     45245     45246
     45244     45243     45245     45247     45244     45243     45245     45248
     45244     45243     45248     45245     45244     45243     45248     45249
     45244     45243     45248     45250     45245     45243     45248     45249
     45245     45243     45248     45250     45245     45248     45250     45251
     45245     45248     45250     45252     45245     45248     45250     45253
     45246     45245     45243     45248     45246     45245     45248     45249
     45246     45245     45248     45250     45247     45245     45243     45248
     45247     45245     45248     45249     45247     45245     45248     45250
     45248     45250     45253     45254     45248     45250     45253     45255
     45248     45250     45253     45256     45249     45248     45250     45251
     45249     45248     45250     45252     45249     45248     45250     45253
     45250     45253     45256     45257     45250     45253     45256     45258
     45250     45253     45256     45259     45251     45250     45253     45254
     45251     45250     45253     45255     45251     45250     45253     45256
     45252     45250     45253     45254     45252     45250     45253     45255
     45252     45250     45253     45256     45253     45256     45259     45260
     45253     45256     45259     45261     45253     45256     45259     45262
     45254     45253     45256     45257     45254     45253     45256     45258
     45254     45253     45256     45259     45255     45253     45256     45257
     45255     45253     45256     45258     45255     45253     45256     45259
     45256     45259     45262     45263     45256     45259     45262     45264
     45256     45259     45262     45265     45257     45256     45259     45260
     45257     45256     45259     45261     45257     45256     45259     45262
     45258     45256     45259     45260     45258     45256     45259     45261
     45258     45256     45259     45262     45259     45262     45265     45266
     45259     45262     45265     45267     45259     45262     45265     45268
     45260     45259     45262     45263     45260     45259     45262     45264
     45260     45259     45262     45265     45261     45259     45262     45263
     45261     45259     45262     45264     45261     45259     45262     45265
     45263     45262     45265     45266     45263     45262     45265     45267
     45263     45262     45265     45268     45264     45262     45265     45266
     45264     45262     45265     45267     45264     45262     45265     45268
     45269     45272     45275     45276     45269     45272     45275     45277
     45269     45272     45275     45278     45270     45269     45272     45273
     45270     45269     45272     45274     45270     45269     45272     45275
     45271     45269     45272     45273     45271     45269     45272     45274
     45271     45269     45272     45275     45272     45275     45278     45279
     45272     45275     45278     45280     45272     45275     45278     45281
     45273     45272     45275     45276     45273     45272     45275     45277
     45273     45272     45275     45278     45274     45272     45275     45276
     45274     45272     45275     45277     45274     45272     45275     45278
     45275     45278     45281     45282     45275     45278     45281     45283
     45275     45278     45281     45284     45276     45275     45278     45279
     45276     45275     45278     45280     45276     45275     45278     45281
     45277     45275     45278     45279     45277     45275     45278     45280
     45277     45275     45278     45281     45278     45281     45284     45285
     45278     45281     45284     45286     45278     45281     45284     45287
     45279     45278     45281     45282     45279     45278     45281     45283
     45279     45278     45281     45284     45280     45278     45281     45282
     45280     45278     45281     45283     45280     45278     45281     45284
     45281     45284     45287     45288     45281     45284     45287     45289
     45281     45284     45287     45290     45282     45281     45284     45285
     45282     45281     45284     45286     45282     45281     45284     45287
     45283     45281     45284     45285     45283     45281     45284     45286
     45283     45281     45284     45287     45284     45287     45290     45291
     45284     45287     45290     45292     45284     45287     45290     45293
     45285     45284     45287     45288     45285     45284     45287     45289
     45285     45284     45287     45290     45286     45284     45287     45288
     45286     45284     45287     45289     45286     45284     45287     45290
     45287     45290     45293     45294     45287     45290     45293     45295
     45287     45290     45293     45296     45288     45287     45290     45291
     45288     45287     45290     45292     45288     45287     45290     45293
     45289     45287     45290     45291     45289     45287     45290     45292
     45289     45287     45290     45293     45290     45293     45296     45297
     45290     45293     45296     45298     45290     45293     45296     45299
     45291     45290     45293     45294     45291     45290     45293     45295
     45291     45290     45293     45296     45292     45290     45293     45294
     45292     45290     45293     45295     45292     45290     45293     45296
     45293     45296     45299     45300     45293     45296     45299     45301
     45293     45296     45299     45302     45294     45293     45296     45297
     45294     45293     45296     45298     45294     45293     45296     45299
     45295     45293     45296     45297     45295     45293     45296     45298
     45295     45293     45296     45299     45296     45299     45302     45303
     45296     45299     45302     45304     45296     45299     45302     45305
     45297     45296     45299     45300     45297     45296     45299     45301
     45297     45296     45299     45302     45298     45296     45299     45300
     45298     45296     45299     45301     45298     45296     45299     45302
     45299     45302     45305     45306     45299     45302     45305     45307
     45299     45302     45305     45308     45300     45299     45302     45303
     45300     45299     45302     45304     45300     45299     45302     45305
     45301     45299     45302     45303     45301     45299     45302     45304
     45301     45299     45302     45305     45302     45305     45308     45309
     45302     45305     45308     45310     45302     45305     45308     45311
     45303     45302     45305     45306     45303     45302     45305     45307
     45303     45302     45305     45308     45304     45302     45305     45306
     45304     45302     45305     45307     45304     45302     45305     45308
     45306     45305     45308     45309     45306     45305     45308     45310
     45306     45305     45308     45311     45307     45305     45308     45309
     45307     45305     45308     45310     45307     45305     45308     45311
     45312     45316     45319     45320     45312     45316     45319     45321
     45312     45316     45319     45326     45313     45312     45316     45317
     45313     45312     45316     45318     45313     45312     45316     45319
     45314     45312     45316     45317     45314     45312     45316     45318
     45314     45312     45316     45319     45315     45312     45316     45317
     45315     45312     45316     45318     45315     45312     45316     45319
     45316     45319     45326     45322     45317     45316     45319     45320
     45317     45316     45319     45321     45317     45316     45319     45326
     45318     45316     45319     45320     45318     45316     45319     45321
     45318     45316     45319     45326     45319     45326     45322     45323
     45319     45326     45322     45324     45319     45326     45322     45325
     45320     45319     45326     45322     45321     45319     45326     45322
     45322     45325     45327     45328     45322     45325     45327     45329
     45322     45325     45327     45330     45323     45322     45325     45327
     45324     45322     45325     45327     45325     45327     45330     45331
     45325     45327     45330     45332     45325     45327     45330     45338
     45326     45322     45325     45327     45327     45330     45332     45333
     45327     45330     45338     45339     45327     45330     45338     45340
     45327     45330     45338     45341     45328     45327     45330     45331
     45328     45327     45330     45332     45328     45327     45330     45338
     45329     45327     45330     45331     45329     45327     45330     45332
     45329     45327     45330     45338     45330     45332     45333     45334
     45330     45332     45333     45335     45330     45338     45341     45342
     45331     45330     45332     45333     45331     45330     45338     45339
     45331     45330     45338     45340     45331     45330     45338     45341
     45332     45330     45338     45339     45332     45330     45338     45340
     45332     45330     45338     45341     45332     45333     45335     45336
     45332     45333     45335     45337     45332     45333     45335     45347
     45333     45332     45330     45338     45333     45335     45347     45348
     45333     45335     45347     45349     45333     45335     45347     45350
     45334     45333     45335     45336     45334     45333     45335     45337
     45334     45333     45335     45347     45335     45347     45350     45351
     45335     45347     45350     45352     45335     45347     45350     45353
     45336     45335     45347     45348     45336     45335     45347     45349
     45336     45335     45347     45350     45337     45335     45347     45348
     45337     45335     45347     45349     45337     45335     45347     45350
     45338     45341     45342     45343     45338     45341     45342     45344
     45339     45338     45341     45342     45340     45338     45341     45342
     45341     45342     45344     45345     45341     45342     45344     45346
     45341     45342     45344     45394     45342     45344     45394     45395
     45342     45344     45394     45396     45342     45344     45394     45397
     45343     45342     45344     45345     45343     45342     45344     45346
     45343     45342     45344     45394     45344     45394     45397     45398
     45344     45394     45397     45399     45344     45394     45397     45400
     45345     45344     45394     45395     45345     45344     45394     45396
     45345     45344     45394     45397     45346     45344     45394     45395
     45346     45344     45394     45396     45346     45344     45394     45397
     45347     45350     45353     45354     45347     45350     45353     45355
     45347     45350     45353     45356     45348     45347     45350     45351
     45348     45347     45350     45352     45348     45347     45350     45353
     45349     45347     45350     45351     45349     45347     45350     45352
     45349     45347     45350     45353     45350     45353     45356     45357
     45350     45353     45356     45358     45350     45353     45356     45359
     45351     45350     45353     45354     45351     45350     45353     45355
     45351     45350     45353     45356     45352     45350     45353     45354
     45352     45350     45353     45355     45352     45350     45353     45356
     45353     45356     45359     45360     45353     45356     45359     45361
     45353     45356     45359     45362     45354     45353     45356     45357
     45354     45353     45356     45358     45354     45353     45356     45359
     45355     45353     45356     45357     45355     45353     45356     45358
     45355     45353     45356     45359     45356     45359     45362     45363
     45356     45359     45362     45364     45356     45359     45362     45365
     45357     45356     45359     45360     45357     45356     45359     45361
     45357     45356     45359     45362     45358     45356     45359     45360
     45358     45356     45359     45361     45358     45356     45359     45362
     45359     45362     45365     45366     45359     45362     45365     45367
     45360     45359     45362     45363     45360     45359     45362     45364
     45360     45359     45362     45365     45361     45359     45362     45363
     45361     45359     45362     45364     45361     45359     45362     45365
     45362     45365     45367     45368     45362     45365     45367     45369
     45363     45362     45365     45366     45363     45362     45365     45367
     45364     45362     45365     45366     45364     45362     45365     45367
     45365     45367     45369     45370     45365     45367     45369     45371
     45365     45367     45369     45372     45366     45365     45367     45368
     45366     45365     45367     45369     45367     45369     45372     45373
     45367     45369     45372     45374     45367     45369     45372     45375
     45368     45367     45369     45370     45368     45367     45369     45371
     45368     45367     45369     45372     45369     45372     45375     45376
     45369     45372     45375     45377     45369     45372     45375     45378
     45370     45369     45372     45373     45370     45369     45372     45374
     45370     45369     45372     45375     45371     45369     45372     45373
     45371     45369     45372     45374     45371     45369     45372     45375
     45372     45375     45378     45379     45372     45375     45378     45380
     45372     45375     45378     45381     45373     45372     45375     45376
     45373     45372     45375     45377     45373     45372     45375     45378
     45374     45372     45375     45376     45374     45372     45375     45377
     45374     45372     45375     45378     45375     45378     45381     45382
     45375     45378     45381     45383     45375     45378     45381     45384
     45376     45375     45378     45379     45376     45375     45378     45380
     45376     45375     45378     45381     45377     45375     45378     45379
     45377     45375     45378     45380     45377     45375     45378     45381
     45378     45381     45384     45385     45378     45381     45384     45386
     45378     45381     45384     45387     45379     45378     45381     45382
     45379     45378     45381     45383     45379     45378     45381     45384
     45380     45378     45381     45382     45380     45378     45381     45383
     45380     45378     45381     45384     45381     45384     45387     45388
     45381     45384     45387     45389     45381     45384     45387     45390
     45382     45381     45384     45385     45382     45381     45384     45386
     45382     45381     45384     45387     45383     45381     45384     45385
     45383     45381     45384     45386     45383     45381     45384     45387
     45384     45387     45390     45391     45384     45387     45390     45392
     45384     45387     45390     45393     45385     45384     45387     45388
     45385     45384     45387     45389     45385     45384     45387     45390
     45386     45384     45387     45388     45386     45384     45387     45389
     45386     45384     45387     45390     45388     45387     45390     45391
     45388     45387     45390     45392     45388     45387     45390     45393
     45389     45387     45390     45391     45389     45387     45390     45392
     45389     45387     45390     45393     45394     45397     45400     45401
     45394     45397     45400     45402     45394     45397     45400     45403
     45395     45394     45397     45398     45395     45394     45397     45399
     45395     45394     45397     45400     45396     45394     45397     45398
     45396     45394     45397     45399     45396     45394     45397     45400
     45397     45400     45403     45404     45397     45400     45403     45405
     45397     45400     45403     45406     45398     45397     45400     45401
     45398     45397     45400     45402     45398     45397     45400     45403
     45399     45397     45400     45401     45399     45397     45400     45402
     45399     45397     45400     45403     45400     45403     45406     45407
     45400     45403     45406     45408     45400     45403     45406     45409
     45401     45400     45403     45404     45401     45400     45403     45405
     45401     45400     45403     45406     45402     45400     45403     45404
     45402     45400     45403     45405     45402     45400     45403     45406
     45403     45406     45409     45410     45403     45406     45409     45411
     45403     45406     45409     45412     45404     45403     45406     45407
     45404     45403     45406     45408     45404     45403     45406     45409
     45405     45403     45406     45407     45405     45403     45406     45408
     45405     45403     45406     45409     45406     45409     45412     45413
     45406     45409     45412     45414     45406     45409     45412     45415
     45407     45406     45409     45410     45407     45406     45409     45411
     45407     45406     45409     45412     45408     45406     45409     45410
     45408     45406     45409     45411     45408     45406     45409     45412
     45409     45412     45415     45416     45409     45412     45415     45417
     45409     45412     45415     45418     45410     45409     45412     45413
     45410     45409     45412     45414     45410     45409     45412     45415
     45411     45409     45412     45413     45411     45409     45412     45414
     45411     45409     45412     45415     45412     45415     45418     45419
     45412     45415     45418     45420     45412     45415     45418     45421
     45413     45412     45415     45416     45413     45412     45415     45417
     45413     45412     45415     45418     45414     45412     45415     45416
     45414     45412     45415     45417     45414     45412     45415     45418
     45415     45418     45421     45422     45415     45418     45421     45423
     45415     45418     45421     45424     45416     45415     45418     45419
     45416     45415     45418     45420     45416     45415     45418     45421
     45417     45415     45418     45419     45417     45415     45418     45420
     45417     45415     45418     45421     45418     45421     45424     45425
     45418     45421     45424     45426     45418     45421     45424     45427
     45419     45418     45421     45422     45419     45418     45421     45423
     45419     45418     45421     45424     45420     45418     45421     45422
     45420     45418     45421     45423     45420     45418     45421     45424
     45421     45424     45427     45428     45421     45424     45427     45429
     45421     45424     45427     45430     45422     45421     45424     45425
     45422     45421     45424     45426     45422     45421     45424     45427
     45423     45421     45424     45425     45423     45421     45424     45426
     45423     45421     45424     45427     45424     45427     45430     45431
     45424     45427     45430     45432     45424     45427     45430     45433
     45425     45424     45427     45428     45425     45424     45427     45429
     45425     45424     45427     45430     45426     45424     45427     45428
     45426     45424     45427     45429     45426     45424     45427     45430
     45427     45430     45433     45434     45427     45430     45433     45435
     45427     45430     45433     45436     45428     45427     45430     45431
     45428     45427     45430     45432     45428     45427     45430     45433
     45429     45427     45430     45431     45429     45427     45430     45432
     45429     45427     45430     45433     45431     45430     45433     45434
     45431     45430     45433     45435     45431     45430     45433     45436
     45432     45430     45433     45434     45432     45430     45433     45435
     45432     45430     45433     45436     45437     45441     45444     45445
     45437     45441     45444     45446     45437     45441     45444     45451
     45438     45437     45441     45442     45438     45437     45441     45443
     45438     45437     45441     45444     45439     45437     45441     45442
     45439     45437     45441     45443     45439     45437     45441     45444
     45440     45437     45441     45442     45440     45437     45441     45443
     45440     45437     45441     45444     45441     45444     45451     45447
     45442     45441     45444     45445     45442     45441     45444     45446
     45442     45441     45444     45451     45443     45441     45444     45445
     45443     45441     45444     45446     45443     45441     45444     45451
     45444     45451     45447     45448     45444     45451     45447     45449
     45444     45451     45447     45450     45445     45444     45451     45447
     45446     45444     45451     45447     45447     45450     45452     45453
     45447     45450     45452     45454     45447     45450     45452     45455
     45448     45447     45450     45452     45449     45447     45450     45452
     45450     45452     45455     45456     45450     45452     45455     45457
     45450     45452     45455     45463     45451     45447     45450     45452
     45452     45455     45457     45458     45452     45455     45463     45464
     45452     45455     45463     45465     45452     45455     45463     45466
     45453     45452     45455     45456     45453     45452     45455     45457
     45453     45452     45455     45463     45454     45452     45455     45456
     45454     45452     45455     45457     45454     45452     45455     45463
     45455     45457     45458     45459     45455     45457     45458     45460
     45455     45463     45466     45467     45456     45455     45457     45458
     45456     45455     45463     45464     45456     45455     45463     45465
     45456     45455     45463     45466     45457     45455     45463     45464
     45457     45455     45463     45465     45457     45455     45463     45466
     45457     45458     45460     45461     45457     45458     45460     45462
     45457     45458     45460     45472     45458     45457     45455     45463
     45458     45460     45472     45473     45458     45460     45472     45474
     45458     45460     45472     45475     45459     45458     45460     45461
     45459     45458     45460     45462     45459     45458     45460     45472
     45460     45472     45475     45476     45460     45472     45475     45477
     45460     45472     45475     45478     45461     45460     45472     45473
     45461     45460     45472     45474     45461     45460     45472     45475
     45462     45460     45472     45473     45462     45460     45472     45474
     45462     45460     45472     45475     45463     45466     45467     45468
     45463     45466     45467     45469     45464     45463     45466     45467
     45465     45463     45466     45467     45466     45467     45469     45470
     45466     45467     45469     45471     45466     45467     45469     45516
     45467     45469     45516     45517     45467     45469     45516     45518
     45467     45469     45516     45519     45468     45467     45469     45470
     45468     45467     45469     45471     45468     45467     45469     45516
     45469     45516     45519     45520     45469     45516     45519     45521
     45469     45516     45519     45522     45470     45469     45516     45517
     45470     45469     45516     45518     45470     45469     45516     45519
     45471     45469     45516     45517     45471     45469     45516     45518
     45471     45469     45516     45519     45472     45475     45478     45479
     45472     45475     45478     45480     45472     45475     45478     45481
     45473     45472     45475     45476     45473     45472     45475     45477
     45473     45472     45475     45478     45474     45472     45475     45476
     45474     45472     45475     45477     45474     45472     45475     45478
     45475     45478     45481     45482     45475     45478     45481     45483
     45475     45478     45481     45484     45476     45475     45478     45479
     45476     45475     45478     45480     45476     45475     45478     45481
     45477     45475     45478     45479     45477     45475     45478     45480
     45477     45475     45478     45481     45478     45481     45484     45485
     45478     45481     45484     45486     45478     45481     45484     45487
     45479     45478     45481     45482     45479     45478     45481     45483
     45479     45478     45481     45484     45480     45478     45481     45482
     45480     45478     45481     45483     45480     45478     45481     45484
     45481     45484     45487     45488     45481     45484     45487     45489
     45481     45484     45487     45490     45482     45481     45484     45485
     45482     45481     45484     45486     45482     45481     45484     45487
     45483     45481     45484     45485     45483     45481     45484     45486
     45483     45481     45484     45487     45484     45487     45490     45491
     45484     45487     45490     45492     45484     45487     45490     45495
     45485     45484     45487     45488     45485     45484     45487     45489
     45485     45484     45487     45490     45486     45484     45487     45488
     45486     45484     45487     45489     45486     45484     45487     45490
     45487     45490     45492     45493     45487     45490     45492     45494
     45487     45490     45492     45495     45487     45490     45495     45492
     45487     45490     45495     45496     45487     45490     45495     45497
     45488     45487     45490     45491     45488     45487     45490     45492
     45488     45487     45490     45495     45489     45487     45490     45491
     45489     45487     45490     45492     45489     45487     45490     45495
     45490     45492     45495     45496     45490     45492     45495     45497
     45490     45495     45492     45493     45490     45495     45492     45494
     45490     45495     45497     45498     45490     45495     45497     45499
     45490     45495     45497     45500     45491     45490     45492     45493
     45491     45490     45492     45494     45491     45490     45492     45495
     45491     45490     45495     45492     45491     45490     45495     45496
     45491     45490     45495     45497     45492     45490     45495     45496
     45492     45490     45495     45497     45492     45495     45497     45498
     45492     45495     45497     45499     45492     45495     45497     45500
     45493     45492     45490     45495     45493     45492     45495     45496
     45493     45492     45495     45497     45494     45492     45490     45495
     45494     45492     45495     45496     45494     45492     45495     45497
     45495     45497     45500     45501     45495     45497     45500     45502
     45495     45497     45500     45503     45496     45495     45497     45498
     45496     45495     45497     45499     45496     45495     45497     45500
     45497     45500     45503     45504     45497     45500     45503     45505
     45497     45500     45503     45506     45498     45497     45500     45501
     45498     45497     45500     45502     45498     45497     45500     45503
     45499     45497     45500     45501     45499     45497     45500     45502
     45499     45497     45500     45503     45500     45503     45506     45507
     45500     45503     45506     45508     45500     45503     45506     45509
     45501     45500     45503     45504     45501     45500     45503     45505
     45501     45500     45503     45506     45502     45500     45503     45504
     45502     45500     45503     45505     45502     45500     45503     45506
     45503     45506     45509     45510     45503     45506     45509     45511
     45503     45506     45509     45512     45504     45503     45506     45507
     45504     45503     45506     45508     45504     45503     45506     45509
     45505     45503     45506     45507     45505     45503     45506     45508
     45505     45503     45506     45509     45506     45509     45512     45513
     45506     45509     45512     45514     45506     45509     45512     45515
     45507     45506     45509     45510     45507     45506     45509     45511
     45507     45506     45509     45512     45508     45506     45509     45510
     45508     45506     45509     45511     45508     45506     45509     45512
     45510     45509     45512     45513     45510     45509     45512     45514
     45510     45509     45512     45515     45511     45509     45512     45513
     45511     45509     45512     45514     45511     45509     45512     45515
     45516     45519     45522     45523     45516     45519     45522     45524
     45516     45519     45522     45525     45517     45516     45519     45520
     45517     45516     45519     45521     45517     45516     45519     45522
     45518     45516     45519     45520     45518     45516     45519     45521
     45518     45516     45519     45522     45519     45522     45525     45526
     45519     45522     45525     45527     45519     45522     45525     45528
     45520     45519     45522     45523     45520     45519     45522     45524
     45520     45519     45522     45525     45521     45519     45522     45523
     45521     45519     45522     45524     45521     45519     45522     45525
     45522     45525     45528     45529     45522     45525     45528     45530
     45522     45525     45528     45531     45523     45522     45525     45526
     45523     45522     45525     45527     45523     45522     45525     45528
     45524     45522     45525     45526     45524     45522     45525     45527
     45524     45522     45525     45528     45525     45528     45531     45532
     45525     45528     45531     45533     45525     45528     45531     45534
     45526     45525     45528     45529     45526     45525     45528     45530
     45526     45525     45528     45531     45527     45525     45528     45529
     45527     45525     45528     45530     45527     45525     45528     45531
     45528     45531     45534     45535     45528     45531     45534     45536
     45528     45531     45534     45537     45529     45528     45531     45532
     45529     45528     45531     45533     45529     45528     45531     45534
     45530     45528     45531     45532     45530     45528     45531     45533
     45530     45528     45531     45534     45531     45534     45537     45538
     45531     45534     45537     45539     45531     45534     45537     45540
     45532     45531     45534     45535     45532     45531     45534     45536
     45532     45531     45534     45537     45533     45531     45534     45535
     45533     45531     45534     45536     45533     45531     45534     45537
     45534     45537     45540     45541     45534     45537     45540     45542
     45534     45537     45540     45543     45535     45534     45537     45538
     45535     45534     45537     45539     45535     45534     45537     45540
     45536     45534     45537     45538     45536     45534     45537     45539
     45536     45534     45537     45540     45537     45540     45543     45544
     45537     45540     45543     45545     45537     45540     45543     45546
     45538     45537     45540     45541     45538     45537     45540     45542
     45538     45537     45540     45543     45539     45537     45540     45541
     45539     45537     45540     45542     45539     45537     45540     45543
     45540     45543     45546     45547     45540     45543     45546     45548
     45540     45543     45546     45549     45541     45540     45543     45544
     45541     45540     45543     45545     45541     45540     45543     45546
     45542     45540     45543     45544     45542     45540     45543     45545
     45542     45540     45543     45546     45543     45546     45549     45550
     45543     45546     45549     45551     45543     45546     45549     45552
     45544     45543     45546     45547     45544     45543     45546     45548
     45544     45543     45546     45549     45545     45543     45546     45547
     45545     45543     45546     45548     45545     45543     45546     45549
     45546     45549     45552     45553     45546     45549     45552     45554
     45546     45549     45552     45555     45547     45546     45549     45550
     45547     45546     45549     45551     45547     45546     45549     45552
     45548     45546     45549     45550     45548     45546     45549     45551
     45548     45546     45549     45552     45549     45552     45555     45556
     45549     45552     45555     45557     45549     45552     45555     45558
     45550     45549     45552     45553     45550     45549     45552     45554
     45550     45549     45552     45555     45551     45549     45552     45553
     45551     45549     45552     45554     45551     45549     45552     45555
     45553     45552     45555     45556     45553     45552     45555     45557
     45553     45552     45555     45558     45554     45552     45555     45556
     45554     45552     45555     45557     45554     45552     45555     45558
     45559     45563     45566     45567     45559     45563     45566     45568
     45559     45563     45566     45573     45560     45559     45563     45564
     45560     45559     45563     45565     45560     45559     45563     45566
     45561     45559     45563     45564     45561     45559     45563     45565
     45561     45559     45563     45566     45562     45559     45563     45564
     45562     45559     45563     45565     45562     45559     45563     45566
     45563     45566     45573     45569     45564     45563     45566     45567
     45564     45563     45566     45568     45564     45563     45566     45573
     45565     45563     45566     45567     45565     45563     45566     45568
     45565     45563     45566     45573     45566     45573     45569     45570
     45566     45573     45569     45571     45566     45573     45569     45572
     45567     45566     45573     45569     45568     45566     45573     45569
     45569     45572     45574     45575     45569     45572     45574     45576
     45569     45572     45574     45577     45570     45569     45572     45574
     45571     45569     45572     45574     45572     45574     45577     45578
     45572     45574     45577     45579     45572     45574     45577     45585
     45573     45569     45572     45574     45574     45577     45579     45580
     45574     45577     45585     45586     45574     45577     45585     45587
     45574     45577     45585     45588     45575     45574     45577     45578
     45575     45574     45577     45579     45575     45574     45577     45585
     45576     45574     45577     45578     45576     45574     45577     45579
     45576     45574     45577     45585     45577     45579     45580     45581
     45577     45579     45580     45582     45577     45585     45588     45589
     45578     45577     45579     45580     45578     45577     45585     45586
     45578     45577     45585     45587     45578     45577     45585     45588
     45579     45577     45585     45586     45579     45577     45585     45587
     45579     45577     45585     45588     45579     45580     45582     45583
     45579     45580     45582     45584     45579     45580     45582     45594
     45580     45579     45577     45585     45580     45582     45594     45595
     45580     45582     45594     45596     45580     45582     45594     45597
     45581     45580     45582     45583     45581     45580     45582     45584
     45581     45580     45582     45594     45582     45594     45597     45598
     45582     45594     45597     45599     45582     45594     45597     45600
     45583     45582     45594     45595     45583     45582     45594     45596
     45583     45582     45594     45597     45584     45582     45594     45595
     45584     45582     45594     45596     45584     45582     45594     45597
     45585     45588     45589     45590     45585     45588     45589     45591
     45586     45585     45588     45589     45587     45585     45588     45589
     45588     45589     45591     45592     45588     45589     45591     45593
     45588     45589     45591     45638     45589     45591     45638     45639
     45589     45591     45638     45640     45589     45591     45638     45641
     45590     45589     45591     45592     45590     45589     45591     45593
     45590     45589     45591     45638     45591     45638     45641     45642
     45591     45638     45641     45643     45591     45638     45641     45644
     45592     45591     45638     45639     45592     45591     45638     45640
     45592     45591     45638     45641     45593     45591     45638     45639
     45593     45591     45638     45640     45593     45591     45638     45641
     45594     45597     45600     45601     45594     45597     45600     45602
     45594     45597     45600     45603     45595     45594     45597     45598
     45595     45594     45597     45599     45595     45594     45597     45600
     45596     45594     45597     45598     45596     45594     45597     45599
     45596     45594     45597     45600     45597     45600     45603     45604
     45597     45600     45603     45605     45597     45600     45603     45606
     45598     45597     45600     45601     45598     45597     45600     45602
     45598     45597     45600     45603     45599     45597     45600     45601
     45599     45597     45600     45602     45599     45597     45600     45603
     45600     45603     45606     45607     45600     45603     45606     45608
     45600     45603     45606     45609     45601     45600     45603     45604
     45601     45600     45603     45605     45601     45600     45603     45606
     45602     45600     45603     45604     45602     45600     45603     45605
     45602     45600     45603     45606     45603     45606     45609     45610
     45603     45606     45609     45611     45603     45606     45609     45612
     45604     45603     45606     45607     45604     45603     45606     45608
     45604     45603     45606     45609     45605     45603     45606     45607
     45605     45603     45606     45608     45605     45603     45606     45609
     45606     45609     45612     45613     45606     45609     45612     45614
     45606     45609     45612     45617     45607     45606     45609     45610
     45607     45606     45609     45611     45607     45606     45609     45612
     45608     45606     45609     45610     45608     45606     45609     45611
     45608     45606     45609     45612     45609     45612     45614     45615
     45609     45612     45614     45616     45609     45612     45614     45617
     45609     45612     45617     45614     45609     45612     45617     45618
     45609     45612     45617     45619     45610     45609     45612     45613
     45610     45609     45612     45614     45610     45609     45612     45617
     45611     45609     45612     45613     45611     45609     45612     45614
     45611     45609     45612     45617     45612     45614     45617     45618
     45612     45614     45617     45619     45612     45617     45614     45615
     45612     45617     45614     45616     45612     45617     45619     45620
     45612     45617     45619     45621     45612     45617     45619     45622
     45613     45612     45614     45615     45613     45612     45614     45616
     45613     45612     45614     45617     45613     45612     45617     45614
     45613     45612     45617     45618     45613     45612     45617     45619
     45614     45612     45617     45618     45614     45612     45617     45619
     45614     45617     45619     45620     45614     45617     45619     45621
     45614     45617     45619     45622     45615     45614     45612     45617
     45615     45614     45617     45618     45615     45614     45617     45619
     45616     45614     45612     45617     45616     45614     45617     45618
     45616     45614     45617     45619     45617     45619     45622     45623
     45617     45619     45622     45624     45617     45619     45622     45625
     45618     45617     45619     45620     45618     45617     45619     45621
     45618     45617     45619     45622     45619     45622     45625     45626
     45619     45622     45625     45627     45619     45622     45625     45628
     45620     45619     45622     45623     45620     45619     45622     45624
     45620     45619     45622     45625     45621     45619     45622     45623
     45621     45619     45622     45624     45621     45619     45622     45625
     45622     45625     45628     45629     45622     45625     45628     45630
     45622     45625     45628     45631     45623     45622     45625     45626
     45623     45622     45625     45627     45623     45622     45625     45628
     45624     45622     45625     45626     45624     45622     45625     45627
     45624     45622     45625     45628     45625     45628     45631     45632
     45625     45628     45631     45633     45625     45628     45631     45634
     45626     45625     45628     45629     45626     45625     45628     45630
     45626     45625     45628     45631     45627     45625     45628     45629
     45627     45625     45628     45630     45627     45625     45628     45631
     45628     45631     45634     45635     45628     45631     45634     45636
     45628     45631     45634     45637     45629     45628     45631     45632
     45629     45628     45631     45633     45629     45628     45631     45634
     45630     45628     45631     45632     45630     45628     45631     45633
     45630     45628     45631     45634     45632     45631     45634     45635
     45632     45631     45634     45636     45632     45631     45634     45637
     45633     45631     45634     45635     45633     45631     45634     45636
     45633     45631     45634     45637     45638     45641     45644     45645
     45638     45641     45644     45646     45638     45641     45644     45647
     45639     45638     45641     45642     45639     45638     45641     45643
     45639     45638     45641     45644     45640     45638     45641     45642
     45640     45638     45641     45643     45640     45638     45641     45644
     45641     45644     45647     45648     45641     45644     45647     45649
     45641     45644     45647     45650     45642     45641     45644     45645
     45642     45641     45644     45646     45642     45641     45644     45647
     45643     45641     45644     45645     45643     45641     45644     45646
     45643     45641     45644     45647     45644     45647     45650     45651
     45644     45647     45650     45652     45644     45647     45650     45653
     45645     45644     45647     45648     45645     45644     45647     45649
     45645     45644     45647     45650     45646     45644     45647     45648
     45646     45644     45647     45649     45646     45644     45647     45650
     45647     45650     45653     45654     45647     45650     45653     45655
     45647     45650     45653     45656     45648     45647     45650     45651
     45648     45647     45650     45652     45648     45647     45650     45653
     45649     45647     45650     45651     45649     45647     45650     45652
     45649     45647     45650     45653     45650     45653     45656     45657
     45650     45653     45656     45658     45650     45653     45656     45659
     45651     45650     45653     45654     45651     45650     45653     45655
     45651     45650     45653     45656     45652     45650     45653     45654
     45652     45650     45653     45655     45652     45650     45653     45656
     45653     45656     45659     45660     45653     45656     45659     45661
     45653     45656     45659     45662     45654     45653     45656     45657
     45654     45653     45656     45658     45654     45653     45656     45659
     45655     45653     45656     45657     45655     45653     45656     45658
     45655     45653     45656     45659     45656     45659     45662     45663
     45656     45659     45662     45664     45656     45659     45662     45665
     45657     45656     45659     45660     45657     45656     45659     45661
     45657     45656     45659     45662     45658     45656     45659     45660
     45658     45656     45659     45661     45658     45656     45659     45662
     45659     45662     45665     45666     45659     45662     45665     45667
     45659     45662     45665     45668     45660     45659     45662     45663
     45660     45659     45662     45664     45660     45659     45662     45665
     45661     45659     45662     45663     45661     45659     45662     45664
     45661     45659     45662     45665     45662     45665     45668     45669
     45662     45665     45668     45670     45662     45665     45668     45671
     45663     45662     45665     45666     45663     45662     45665     45667
     45663     45662     45665     45668     45664     45662     45665     45666
     45664     45662     45665     45667     45664     45662     45665     45668
     45665     45668     45671     45672     45665     45668     45671     45673
     45665     45668     45671     45674     45666     45665     45668     45669
     45666     45665     45668     45670     45666     45665     45668     45671
     45667     45665     45668     45669     45667     45665     45668     45670
     45667     45665     45668     45671     45668     45671     45674     45675
     45668     45671     45674     45676     45668     45671     45674     45677
     45669     45668     45671     45672     45669     45668     45671     45673
     45669     45668     45671     45674     45670     45668     45671     45672
     45670     45668     45671     45673     45670     45668     45671     45674
     45671     45674     45677     45678     45671     45674     45677     45679
     45671     45674     45677     45680     45672     45671     45674     45675
     45672     45671     45674     45676     45672     45671     45674     45677
     45673     45671     45674     45675     45673     45671     45674     45676
     45673     45671     45674     45677     45675     45674     45677     45678
     45675     45674     45677     45679     45675     45674     45677     45680
     45676     45674     45677     45678     45676     45674     45677     45679
     45676     45674     45677     45680     45681     45685     45688     45689
     45681     45685     45688     45690     45681     45685     45688     45695
     45682     45681     45685     45686     45682     45681     45685     45687
     45682     45681     45685     45688     45683     45681     45685     45686
     45683     45681     45685     45687     45683     45681     45685     45688
     45684     45681     45685     45686     45684     45681     45685     45687
     45684     45681     45685     45688     45685     45688     45695     45691
     45686     45685     45688     45689     45686     45685     45688     45690
     45686     45685     45688     45695     45687     45685     45688     45689
     45687     45685     45688     45690     45687     45685     45688     45695
     45688     45695     45691     45692     45688     45695     45691     45693
     45688     45695     45691     45694     45689     45688     45695     45691
     45690     45688     45695     45691     45691     45694     45696     45697
     45691     45694     45696     45698     45691     45694     45696     45699
     45692     45691     45694     45696     45693     45691     45694     45696
     45694     45696     45699     45700     45694     45696     45699     45701
     45694     45696     45699     45707     45695     45691     45694     45696
     45696     45699     45701     45702     45696     45699     45707     45708
     45696     45699     45707     45709     45696     45699     45707     45710
     45697     45696     45699     45700     45697     45696     45699     45701
     45697     45696     45699     45707     45698     45696     45699     45700
     45698     45696     45699     45701     45698     45696     45699     45707
     45699     45701     45702     45703     45699     45701     45702     45704
     45699     45707     45710     45711     45700     45699     45701     45702
     45700     45699     45707     45708     45700     45699     45707     45709
     45700     45699     45707     45710     45701     45699     45707     45708
     45701     45699     45707     45709     45701     45699     45707     45710
     45701     45702     45704     45705     45701     45702     45704     45706
     45701     45702     45704     45716     45702     45701     45699     45707
     45702     45704     45716     45717     45702     45704     45716     45718
     45702     45704     45716     45719     45703     45702     45704     45705
     45703     45702     45704     45706     45703     45702     45704     45716
     45704     45716     45719     45720     45704     45716     45719     45721
     45704     45716     45719     45722     45705     45704     45716     45717
     45705     45704     45716     45718     45705     45704     45716     45719
     45706     45704     45716     45717     45706     45704     45716     45718
     45706     45704     45716     45719     45707     45710     45711     45712
     45707     45710     45711     45713     45708     45707     45710     45711
     45709     45707     45710     45711     45710     45711     45713     45714
     45710     45711     45713     45715     45710     45711     45713     45763
     45711     45713     45763     45764     45711     45713     45763     45765
     45711     45713     45763     45766     45712     45711     45713     45714
     45712     45711     45713     45715     45712     45711     45713     45763
     45713     45763     45766     45767     45713     45763     45766     45768
     45713     45763     45766     45769     45714     45713     45763     45764
     45714     45713     45763     45765     45714     45713     45763     45766
     45715     45713     45763     45764     45715     45713     45763     45765
     45715     45713     45763     45766     45716     45719     45722     45723
     45716     45719     45722     45724     45716     45719     45722     45725
     45717     45716     45719     45720     45717     45716     45719     45721
     45717     45716     45719     45722     45718     45716     45719     45720
     45718     45716     45719     45721     45718     45716     45719     45722
     45719     45722     45725     45726     45719     45722     45725     45727
     45719     45722     45725     45728     45720     45719     45722     45723
     45720     45719     45722     45724     45720     45719     45722     45725
     45721     45719     45722     45723     45721     45719     45722     45724
     45721     45719     45722     45725     45722     45725     45728     45729
     45722     45725     45728     45730     45722     45725     45728     45731
     45723     45722     45725     45726     45723     45722     45725     45727
     45723     45722     45725     45728     45724     45722     45725     45726
     45724     45722     45725     45727     45724     45722     45725     45728
     45725     45728     45731     45732     45725     45728     45731     45733
     45725     45728     45731     45734     45726     45725     45728     45729
     45726     45725     45728     45730     45726     45725     45728     45731
     45727     45725     45728     45729     45727     45725     45728     45730
     45727     45725     45728     45731     45728     45731     45734     45735
     45728     45731     45734     45736     45729     45728     45731     45732
     45729     45728     45731     45733     45729     45728     45731     45734
     45730     45728     45731     45732     45730     45728     45731     45733
     45730     45728     45731     45734     45731     45734     45736     45737
     45731     45734     45736     45738     45732     45731     45734     45735
     45732     45731     45734     45736     45733     45731     45734     45735
     45733     45731     45734     45736     45734     45736     45738     45739
     45734     45736     45738     45740     45734     45736     45738     45741
     45735     45734     45736     45737     45735     45734     45736     45738
     45736     45738     45741     45742     45736     45738     45741     45743
     45736     45738     45741     45744     45737     45736     45738     45739
     45737     45736     45738     45740     45737     45736     45738     45741
     45738     45741     45744     45745     45738     45741     45744     45746
     45738     45741     45744     45747     45739     45738     45741     45742
     45739     45738     45741     45743     45739     45738     45741     45744
     45740     45738     45741     45742     45740     45738     45741     45743
     45740     45738     45741     45744     45741     45744     45747     45748
     45741     45744     45747     45749     45741     45744     45747     45750
     45742     45741     45744     45745     45742     45741     45744     45746
     45742     45741     45744     45747     45743     45741     45744     45745
     45743     45741     45744     45746     45743     45741     45744     45747
     45744     45747     45750     45751     45744     45747     45750     45752
     45744     45747     45750     45753     45745     45744     45747     45748
     45745     45744     45747     45749     45745     45744     45747     45750
     45746     45744     45747     45748     45746     45744     45747     45749
     45746     45744     45747     45750     45747     45750     45753     45754
     45747     45750     45753     45755     45747     45750     45753     45756
     45748     45747     45750     45751     45748     45747     45750     45752
     45748     45747     45750     45753     45749     45747     45750     45751
     45749     45747     45750     45752     45749     45747     45750     45753
     45750     45753     45756     45757     45750     45753     45756     45758
     45750     45753     45756     45759     45751     45750     45753     45754
     45751     45750     45753     45755     45751     45750     45753     45756
     45752     45750     45753     45754     45752     45750     45753     45755
     45752     45750     45753     45756     45753     45756     45759     45760
     45753     45756     45759     45761     45753     45756     45759     45762
     45754     45753     45756     45757     45754     45753     45756     45758
     45754     45753     45756     45759     45755     45753     45756     45757
     45755     45753     45756     45758     45755     45753     45756     45759
     45757     45756     45759     45760     45757     45756     45759     45761
     45757     45756     45759     45762     45758     45756     45759     45760
     45758     45756     45759     45761     45758     45756     45759     45762
     45763     45766     45769     45770     45763     45766     45769     45771
     45763     45766     45769     45772     45764     45763     45766     45767
     45764     45763     45766     45768     45764     45763     45766     45769
     45765     45763     45766     45767     45765     45763     45766     45768
     45765     45763     45766     45769     45766     45769     45772     45773
     45766     45769     45772     45774     45766     45769     45772     45775
     45767     45766     45769     45770     45767     45766     45769     45771
     45767     45766     45769     45772     45768     45766     45769     45770
     45768     45766     45769     45771     45768     45766     45769     45772
     45769     45772     45775     45776     45769     45772     45775     45777
     45769     45772     45775     45778     45770     45769     45772     45773
     45770     45769     45772     45774     45770     45769     45772     45775
     45771     45769     45772     45773     45771     45769     45772     45774
     45771     45769     45772     45775     45772     45775     45778     45779
     45772     45775     45778     45780     45772     45775     45778     45781
     45773     45772     45775     45776     45773     45772     45775     45777
     45773     45772     45775     45778     45774     45772     45775     45776
     45774     45772     45775     45777     45774     45772     45775     45778
     45775     45778     45781     45782     45775     45778     45781     45783
     45775     45778     45781     45784     45776     45775     45778     45779
     45776     45775     45778     45780     45776     45775     45778     45781
     45777     45775     45778     45779     45777     45775     45778     45780
     45777     45775     45778     45781     45778     45781     45784     45785
     45778     45781     45784     45786     45778     45781     45784     45787
     45779     45778     45781     45782     45779     45778     45781     45783
     45779     45778     45781     45784     45780     45778     45781     45782
     45780     45778     45781     45783     45780     45778     45781     45784
     45781     45784     45787     45788     45781     45784     45787     45789
     45781     45784     45787     45790     45782     45781     45784     45785
     45782     45781     45784     45786     45782     45781     45784     45787
     45783     45781     45784     45785     45783     45781     45784     45786
     45783     45781     45784     45787     45784     45787     45790     45791
     45784     45787     45790     45792     45784     45787     45790     45793
     45785     45784     45787     45788     45785     45784     45787     45789
     45785     45784     45787     45790     45786     45784     45787     45788
     45786     45784     45787     45789     45786     45784     45787     45790
     45787     45790     45793     45794     45787     45790     45793     45795
     45787     45790     45793     45796     45788     45787     45790     45791
     45788     45787     45790     45792     45788     45787     45790     45793
     45789     45787     45790     45791     45789     45787     45790     45792
     45789     45787     45790     45793     45790     45793     45796     45797
     45790     45793     45796     45798     45790     45793     45796     45799
     45791     45790     45793     45794     45791     45790     45793     45795
     45791     45790     45793     45796     45792     45790     45793     45794
     45792     45790     45793     45795     45792     45790     45793     45796
     45793     45796     45799     45800     45793     45796     45799     45801
     45793     45796     45799     45802     45794     45793     45796     45797
     45794     45793     45796     45798     45794     45793     45796     45799
     45795     45793     45796     45797     45795     45793     45796     45798
     45795     45793     45796     45799     45796     45799     45802     45803
     45796     45799     45802     45804     45796     45799     45802     45805
     45797     45796     45799     45800     45797     45796     45799     45801
     45797     45796     45799     45802     45798     45796     45799     45800
     45798     45796     45799     45801     45798     45796     45799     45802
     45800     45799     45802     45803     45800     45799     45802     45804
     45800     45799     45802     45805     45801     45799     45802     45803
     45801     45799     45802     45804     45801     45799     45802     45805
     45806     45810     45813     45814     45806     45810     45813     45815
     45806     45810     45813     45820     45807     45806     45810     45811
     45807     45806     45810     45812     45807     45806     45810     45813
     45808     45806     45810     45811     45808     45806     45810     45812
     45808     45806     45810     45813     45809     45806     45810     45811
     45809     45806     45810     45812     45809     45806     45810     45813
     45810     45813     45820     45816     45811     45810     45813     45814
     45811     45810     45813     45815     45811     45810     45813     45820
     45812     45810     45813     45814     45812     45810     45813     45815
     45812     45810     45813     45820     45813     45820     45816     45817
     45813     45820     45816     45818     45813     45820     45816     45819
     45814     45813     45820     45816     45815     45813     45820     45816
     45816     45819     45821     45822     45816     45819     45821     45823
     45816     45819     45821     45824     45817     45816     45819     45821
     45818     45816     45819     45821     45819     45821     45824     45825
     45819     45821     45824     45826     45819     45821     45824     45832
     45820     45816     45819     45821     45821     45824     45826     45827
     45821     45824     45832     45833     45821     45824     45832     45834
     45821     45824     45832     45835     45822     45821     45824     45825
     45822     45821     45824     45826     45822     45821     45824     45832
     45823     45821     45824     45825     45823     45821     45824     45826
     45823     45821     45824     45832     45824     45826     45827     45828
     45824     45826     45827     45829     45824     45832     45835     45836
     45825     45824     45826     45827     45825     45824     45832     45833
     45825     45824     45832     45834     45825     45824     45832     45835
     45826     45824     45832     45833     45826     45824     45832     45834
     45826     45824     45832     45835     45826     45827     45829     45830
     45826     45827     45829     45831     45826     45827     45829     45841
     45827     45826     45824     45832     45827     45829     45841     45842
     45827     45829     45841     45843     45827     45829     45841     45844
     45828     45827     45829     45830     45828     45827     45829     45831
     45828     45827     45829     45841     45829     45841     45844     45845
     45829     45841     45844     45846     45829     45841     45844     45847
     45830     45829     45841     45842     45830     45829     45841     45843
     45830     45829     45841     45844     45831     45829     45841     45842
     45831     45829     45841     45843     45831     45829     45841     45844
     45832     45835     45836     45837     45832     45835     45836     45838
     45833     45832     45835     45836     45834     45832     45835     45836
     45835     45836     45838     45839     45835     45836     45838     45840
     45835     45836     45838     45885     45836     45838     45885     45886
     45836     45838     45885     45887     45836     45838     45885     45888
     45837     45836     45838     45839     45837     45836     45838     45840
     45837     45836     45838     45885     45838     45885     45888     45889
     45838     45885     45888     45890     45838     45885     45888     45891
     45839     45838     45885     45886     45839     45838     45885     45887
     45839     45838     45885     45888     45840     45838     45885     45886
     45840     45838     45885     45887     45840     45838     45885     45888
     45841     45844     45847     45848     45841     45844     45847     45849
     45841     45844     45847     45850     45842     45841     45844     45845
     45842     45841     45844     45846     45842     45841     45844     45847
     45843     45841     45844     45845     45843     45841     45844     45846
     45843     45841     45844     45847     45844     45847     45850     45851
     45844     45847     45850     45852     45844     45847     45850     45853
     45845     45844     45847     45848     45845     45844     45847     45849
     45845     45844     45847     45850     45846     45844     45847     45848
     45846     45844     45847     45849     45846     45844     45847     45850
     45847     45850     45853     45854     45847     45850     45853     45855
     45847     45850     45853     45856     45848     45847     45850     45851
     45848     45847     45850     45852     45848     45847     45850     45853
     45849     45847     45850     45851     45849     45847     45850     45852
     45849     45847     45850     45853     45850     45853     45856     45857
     45850     45853     45856     45858     45850     45853     45856     45859
     45851     45850     45853     45854     45851     45850     45853     45855
     45851     45850     45853     45856     45852     45850     45853     45854
     45852     45850     45853     45855     45852     45850     45853     45856
     45853     45856     45859     45860     45853     45856     45859     45861
     45853     45856     45859     45864     45854     45853     45856     45857
     45854     45853     45856     45858     45854     45853     45856     45859
     45855     45853     45856     45857     45855     45853     45856     45858
     45855     45853     45856     45859     45856     45859     45861     45862
     45856     45859     45861     45863     45856     45859     45861     45864
     45856     45859     45864     45861     45856     45859     45864     45865
     45856     45859     45864     45866     45857     45856     45859     45860
     45857     45856     45859     45861     45857     45856     45859     45864
     45858     45856     45859     45860     45858     45856     45859     45861
     45858     45856     45859     45864     45859     45861     45864     45865
     45859     45861     45864     45866     45859     45864     45861     45862
     45859     45864     45861     45863     45859     45864     45866     45867
     45859     45864     45866     45868     45859     45864     45866     45869
     45860     45859     45861     45862     45860     45859     45861     45863
     45860     45859     45861     45864     45860     45859     45864     45861
     45860     45859     45864     45865     45860     45859     45864     45866
     45861     45859     45864     45865     45861     45859     45864     45866
     45861     45864     45866     45867     45861     45864     45866     45868
     45861     45864     45866     45869     45862     45861     45859     45864
     45862     45861     45864     45865     45862     45861     45864     45866
     45863     45861     45859     45864     45863     45861     45864     45865
     45863     45861     45864     45866     45864     45866     45869     45870
     45864     45866     45869     45871     45864     45866     45869     45872
     45865     45864     45866     45867     45865     45864     45866     45868
     45865     45864     45866     45869     45866     45869     45872     45873
     45866     45869     45872     45874     45866     45869     45872     45875
     45867     45866     45869     45870     45867     45866     45869     45871
     45867     45866     45869     45872     45868     45866     45869     45870
     45868     45866     45869     45871     45868     45866     45869     45872
     45869     45872     45875     45876     45869     45872     45875     45877
     45869     45872     45875     45878     45870     45869     45872     45873
     45870     45869     45872     45874     45870     45869     45872     45875
     45871     45869     45872     45873     45871     45869     45872     45874
     45871     45869     45872     45875     45872     45875     45878     45879
     45872     45875     45878     45880     45872     45875     45878     45881
     45873     45872     45875     45876     45873     45872     45875     45877
     45873     45872     45875     45878     45874     45872     45875     45876
     45874     45872     45875     45877     45874     45872     45875     45878
     45875     45878     45881     45882     45875     45878     45881     45883
     45875     45878     45881     45884     45876     45875     45878     45879
     45876     45875     45878     45880     45876     45875     45878     45881
     45877     45875     45878     45879     45877     45875     45878     45880
     45877     45875     45878     45881     45879     45878     45881     45882
     45879     45878     45881     45883     45879     45878     45881     45884
     45880     45878     45881     45882     45880     45878     45881     45883
     45880     45878     45881     45884     45885     45888     45891     45892
     45885     45888     45891     45893     45885     45888     45891     45894
     45886     45885     45888     45889     45886     45885     45888     45890
     45886     45885     45888     45891     45887     45885     45888     45889
     45887     45885     45888     45890     45887     45885     45888     45891
     45888     45891     45894     45895     45888     45891     45894     45896
     45888     45891     45894     45897     45889     45888     45891     45892
     45889     45888     45891     45893     45889     45888     45891     45894
     45890     45888     45891     45892     45890     45888     45891     45893
     45890     45888     45891     45894     45891     45894     45897     45898
     45891     45894     45897     45899     45891     45894     45897     45900
     45892     45891     45894     45895     45892     45891     45894     45896
     45892     45891     45894     45897     45893     45891     45894     45895
     45893     45891     45894     45896     45893     45891     45894     45897
     45894     45897     45900     45901     45894     45897     45900     45902
     45894     45897     45900     45903     45895     45894     45897     45898
     45895     45894     45897     45899     45895     45894     45897     45900
     45896     45894     45897     45898     45896     45894     45897     45899
     45896     45894     45897     45900     45897     45900     45903     45904
     45897     45900     45903     45905     45897     45900     45903     45906
     45898     45897     45900     45901     45898     45897     45900     45902
     45898     45897     45900     45903     45899     45897     45900     45901
     45899     45897     45900     45902     45899     45897     45900     45903
     45900     45903     45906     45907     45900     45903     45906     45908
     45900     45903     45906     45909     45901     45900     45903     45904
     45901     45900     45903     45905     45901     45900     45903     45906
     45902     45900     45903     45904     45902     45900     45903     45905
     45902     45900     45903     45906     45903     45906     45909     45910
     45903     45906     45909     45911     45903     45906     45909     45912
     45904     45903     45906     45907     45904     45903     45906     45908
     45904     45903     45906     45909     45905     45903     45906     45907
     45905     45903     45906     45908     45905     45903     45906     45909
     45906     45909     45912     45913     45906     45909     45912     45914
     45906     45909     45912     45915     45907     45906     45909     45910
     45907     45906     45909     45911     45907     45906     45909     45912
     45908     45906     45909     45910     45908     45906     45909     45911
     45908     45906     45909     45912     45909     45912     45915     45916
     45909     45912     45915     45917     45909     45912     45915     45918
     45910     45909     45912     45913     45910     45909     45912     45914
     45910     45909     45912     45915     45911     45909     45912     45913
     45911     45909     45912     45914     45911     45909     45912     45915
     45912     45915     45918     45919     45912     45915     45918     45920
     45912     45915     45918     45921     45913     45912     45915     45916
     45913     45912     45915     45917     45913     45912     45915     45918
     45914     45912     45915     45916     45914     45912     45915     45917
     45914     45912     45915     45918     45915     45918     45921     45922
     45915     45918     45921     45923     45915     45918     45921     45924
     45916     45915     45918     45919     45916     45915     45918     45920
     45916     45915     45918     45921     45917     45915     45918     45919
     45917     45915     45918     45920     45917     45915     45918     45921
     45918     45921     45924     45925     45918     45921     45924     45926
     45918     45921     45924     45927     45919     45918     45921     45922
     45919     45918     45921     45923     45919     45918     45921     45924
     45920     45918     45921     45922     45920     45918     45921     45923
     45920     45918     45921     45924     45922     45921     45924     45925
     45922     45921     45924     45926     45922     45921     45924     45927
     45923     45921     45924     45925     45923     45921     45924     45926
     45923     45921     45924     45927     45928     45932     45935     45936
     45928     45932     45935     45937     45928     45932     45935     45942
     45929     45928     45932     45933     45929     45928     45932     45934
     45929     45928     45932     45935     45930     45928     45932     45933
     45930     45928     45932     45934     45930     45928     45932     45935
     45931     45928     45932     45933     45931     45928     45932     45934
     45931     45928     45932     45935     45932     45935     45942     45938
     45933     45932     45935     45936     45933     45932     45935     45937
     45933     45932     45935     45942     45934     45932     45935     45936
     45934     45932     45935     45937     45934     45932     45935     45942
     45935     45942     45938     45939     45935     45942     45938     45940
     45935     45942     45938     45941     45936     45935     45942     45938
     45937     45935     45942     45938     45938     45941     45943     45944
     45938     45941     45943     45945     45938     45941     45943     45946
     45939     45938     45941     45943     45940     45938     45941     45943
     45941     45943     45946     45947     45941     45943     45946     45948
     45941     45943     45946     45954     45942     45938     45941     45943
     45943     45946     45948     45949     45943     45946     45954     45955
     45943     45946     45954     45956     45943     45946     45954     45957
     45944     45943     45946     45947     45944     45943     45946     45948
     45944     45943     45946     45954     45945     45943     45946     45947
     45945     45943     45946     45948     45945     45943     45946     45954
     45946     45948     45949     45950     45946     45948     45949     45951
     45946     45954     45957     45958     45947     45946     45948     45949
     45947     45946     45954     45955     45947     45946     45954     45956
     45947     45946     45954     45957     45948     45946     45954     45955
     45948     45946     45954     45956     45948     45946     45954     45957
     45948     45949     45951     45952     45948     45949     45951     45953
     45948     45949     45951     45963     45949     45948     45946     45954
     45949     45951     45963     45964     45949     45951     45963     45965
     45949     45951     45963     45966     45950     45949     45951     45952
     45950     45949     45951     45953     45950     45949     45951     45963
     45951     45963     45966     45967     45951     45963     45966     45968
     45951     45963     45966     45969     45952     45951     45963     45964
     45952     45951     45963     45965     45952     45951     45963     45966
     45953     45951     45963     45964     45953     45951     45963     45965
     45953     45951     45963     45966     45954     45957     45958     45959
     45954     45957     45958     45960     45955     45954     45957     45958
     45956     45954     45957     45958     45957     45958     45960     45961
     45957     45958     45960     45962     45957     45958     45960     46007
     45958     45960     46007     46008     45958     45960     46007     46009
     45958     45960     46007     46010     45959     45958     45960     45961
     45959     45958     45960     45962     45959     45958     45960     46007
     45960     46007     46010     46011     45960     46007     46010     46012
     45960     46007     46010     46013     45961     45960     46007     46008
     45961     45960     46007     46009     45961     45960     46007     46010
     45962     45960     46007     46008     45962     45960     46007     46009
     45962     45960     46007     46010     45963     45966     45969     45970
     45963     45966     45969     45971     45963     45966     45969     45972
     45964     45963     45966     45967     45964     45963     45966     45968
     45964     45963     45966     45969     45965     45963     45966     45967
     45965     45963     45966     45968     45965     45963     45966     45969
     45966     45969     45972     45973     45966     45969     45972     45974
     45966     45969     45972     45975     45967     45966     45969     45970
     45967     45966     45969     45971     45967     45966     45969     45972
     45968     45966     45969     45970     45968     45966     45969     45971
     45968     45966     45969     45972     45969     45972     45975     45976
     45969     45972     45975     45977     45969     45972     45975     45978
     45970     45969     45972     45973     45970     45969     45972     45974
     45970     45969     45972     45975     45971     45969     45972     45973
     45971     45969     45972     45974     45971     45969     45972     45975
     45972     45975     45978     45979     45972     45975     45978     45980
     45972     45975     45978     45981     45973     45972     45975     45976
     45973     45972     45975     45977     45973     45972     45975     45978
     45974     45972     45975     45976     45974     45972     45975     45977
     45974     45972     45975     45978     45975     45978     45981     45982
     45975     45978     45981     45983     45975     45978     45981     45986
     45976     45975     45978     45979     45976     45975     45978     45980
     45976     45975     45978     45981     45977     45975     45978     45979
     45977     45975     45978     45980     45977     45975     45978     45981
     45978     45981     45983     45984     45978     45981     45983     45985
     45978     45981     45983     45986     45978     45981     45986     45983
     45978     45981     45986     45987     45978     45981     45986     45988
     45979     45978     45981     45982     45979     45978     45981     45983
     45979     45978     45981     45986     45980     45978     45981     45982
     45980     45978     45981     45983     45980     45978     45981     45986
     45981     45983     45986     45987     45981     45983     45986     45988
     45981     45986     45983     45984     45981     45986     45983     45985
     45981     45986     45988     45989     45981     45986     45988     45990
     45981     45986     45988     45991     45982     45981     45983     45984
     45982     45981     45983     45985     45982     45981     45983     45986
     45982     45981     45986     45983     45982     45981     45986     45987
     45982     45981     45986     45988     45983     45981     45986     45987
     45983     45981     45986     45988     45983     45986     45988     45989
     45983     45986     45988     45990     45983     45986     45988     45991
     45984     45983     45981     45986     45984     45983     45986     45987
     45984     45983     45986     45988     45985     45983     45981     45986
     45985     45983     45986     45987     45985     45983     45986     45988
     45986     45988     45991     45992     45986     45988     45991     45993
     45986     45988     45991     45994     45987     45986     45988     45989
     45987     45986     45988     45990     45987     45986     45988     45991
     45988     45991     45994     45995     45988     45991     45994     45996
     45988     45991     45994     45997     45989     45988     45991     45992
     45989     45988     45991     45993     45989     45988     45991     45994
     45990     45988     45991     45992     45990     45988     45991     45993
     45990     45988     45991     45994     45991     45994     45997     45998
     45991     45994     45997     45999     45991     45994     45997     46000
     45992     45991     45994     45995     45992     45991     45994     45996
     45992     45991     45994     45997     45993     45991     45994     45995
     45993     45991     45994     45996     45993     45991     45994     45997
     45994     45997     46000     46001     45994     45997     46000     46002
     45994     45997     46000     46003     45995     45994     45997     45998
     45995     45994     45997     45999     45995     45994     45997     46000
     45996     45994     45997     45998     45996     45994     45997     45999
     45996     45994     45997     46000     45997     46000     46003     46004
     45997     46000     46003     46005     45997     46000     46003     46006
     45998     45997     46000     46001     45998     45997     46000     46002
     45998     45997     46000     46003     45999     45997     46000     46001
     45999     45997     46000     46002     45999     45997     46000     46003
     46001     46000     46003     46004     46001     46000     46003     46005
     46001     46000     46003     46006     46002     46000     46003     46004
     46002     46000     46003     46005     46002     46000     46003     46006
     46007     46010     46013     46014     46007     46010     46013     46015
     46007     46010     46013     46016     46008     46007     46010     46011
     46008     46007     46010     46012     46008     46007     46010     46013
     46009     46007     46010     46011     46009     46007     46010     46012
     46009     46007     46010     46013     46010     46013     46016     46017
     46010     46013     46016     46018     46010     46013     46016     46019
     46011     46010     46013     46014     46011     46010     46013     46015
     46011     46010     46013     46016     46012     46010     46013     46014
     46012     46010     46013     46015     46012     46010     46013     46016
     46013     46016     46019     46020     46013     46016     46019     46021
     46013     46016     46019     46022     46014     46013     46016     46017
     46014     46013     46016     46018     46014     46013     46016     46019
     46015     46013     46016     46017     46015     46013     46016     46018
     46015     46013     46016     46019     46016     46019     46022     46023
     46016     46019     46022     46024     46016     46019     46022     46025
     46017     46016     46019     46020     46017     46016     46019     46021
     46017     46016     46019     46022     46018     46016     46019     46020
     46018     46016     46019     46021     46018     46016     46019     46022
     46019     46022     46025     46026     46019     46022     46025     46027
     46019     46022     46025     46028     46020     46019     46022     46023
     46020     46019     46022     46024     46020     46019     46022     46025
     46021     46019     46022     46023     46021     46019     46022     46024
     46021     46019     46022     46025     46022     46025     46028     46029
     46022     46025     46028     46030     46022     46025     46028     46031
     46023     46022     46025     46026     46023     46022     46025     46027
     46023     46022     46025     46028     46024     46022     46025     46026
     46024     46022     46025     46027     46024     46022     46025     46028
     46025     46028     46031     46032     46025     46028     46031     46033
     46025     46028     46031     46034     46026     46025     46028     46029
     46026     46025     46028     46030     46026     46025     46028     46031
     46027     46025     46028     46029     46027     46025     46028     46030
     46027     46025     46028     46031     46028     46031     46034     46035
     46028     46031     46034     46036     46028     46031     46034     46037
     46029     46028     46031     46032     46029     46028     46031     46033
     46029     46028     46031     46034     46030     46028     46031     46032
     46030     46028     46031     46033     46030     46028     46031     46034
     46031     46034     46037     46038     46031     46034     46037     46039
     46031     46034     46037     46040     46032     46031     46034     46035
     46032     46031     46034     46036     46032     46031     46034     46037
     46033     46031     46034     46035     46033     46031     46034     46036
     46033     46031     46034     46037     46034     46037     46040     46041
     46034     46037     46040     46042     46034     46037     46040     46043
     46035     46034     46037     46038     46035     46034     46037     46039
     46035     46034     46037     46040     46036     46034     46037     46038
     46036     46034     46037     46039     46036     46034     46037     46040
     46037     46040     46043     46044     46037     46040     46043     46045
     46037     46040     46043     46046     46038     46037     46040     46041
     46038     46037     46040     46042     46038     46037     46040     46043
     46039     46037     46040     46041     46039     46037     46040     46042
     46039     46037     46040     46043     46040     46043     46046     46047
     46040     46043     46046     46048     46040     46043     46046     46049
     46041     46040     46043     46044     46041     46040     46043     46045
     46041     46040     46043     46046     46042     46040     46043     46044
     46042     46040     46043     46045     46042     46040     46043     46046
     46044     46043     46046     46047     46044     46043     46046     46048
     46044     46043     46046     46049     46045     46043     46046     46047
     46045     46043     46046     46048     46045     46043     46046     46049
     46050     46054     46057     46058     46050     46054     46057     46059
     46050     46054     46057     46064     46051     46050     46054     46055
     46051     46050     46054     46056     46051     46050     46054     46057
     46052     46050     46054     46055     46052     46050     46054     46056
     46052     46050     46054     46057     46053     46050     46054     46055
     46053     46050     46054     46056     46053     46050     46054     46057
     46054     46057     46064     46060     46055     46054     46057     46058
     46055     46054     46057     46059     46055     46054     46057     46064
     46056     46054     46057     46058     46056     46054     46057     46059
     46056     46054     46057     46064     46057     46064     46060     46061
     46057     46064     46060     46062     46057     46064     46060     46063
     46058     46057     46064     46060     46059     46057     46064     46060
     46060     46063     46065     46066     46060     46063     46065     46067
     46060     46063     46065     46068     46061     46060     46063     46065
     46062     46060     46063     46065     46063     46065     46068     46069
     46063     46065     46068     46070     46063     46065     46068     46076
     46064     46060     46063     46065     46065     46068     46070     46071
     46065     46068     46076     46077     46065     46068     46076     46078
     46065     46068     46076     46079     46066     46065     46068     46069
     46066     46065     46068     46070     46066     46065     46068     46076
     46067     46065     46068     46069     46067     46065     46068     46070
     46067     46065     46068     46076     46068     46070     46071     46072
     46068     46070     46071     46073     46068     46076     46079     46080
     46069     46068     46070     46071     46069     46068     46076     46077
     46069     46068     46076     46078     46069     46068     46076     46079
     46070     46068     46076     46077     46070     46068     46076     46078
     46070     46068     46076     46079     46070     46071     46073     46074
     46070     46071     46073     46075     46070     46071     46073     46085
     46071     46070     46068     46076     46071     46073     46085     46086
     46071     46073     46085     46087     46071     46073     46085     46088
     46072     46071     46073     46074     46072     46071     46073     46075
     46072     46071     46073     46085     46073     46085     46088     46089
     46073     46085     46088     46090     46073     46085     46088     46091
     46074     46073     46085     46086     46074     46073     46085     46087
     46074     46073     46085     46088     46075     46073     46085     46086
     46075     46073     46085     46087     46075     46073     46085     46088
     46076     46079     46080     46081     46076     46079     46080     46082
     46077     46076     46079     46080     46078     46076     46079     46080
     46079     46080     46082     46083     46079     46080     46082     46084
     46079     46080     46082     46132     46080     46082     46132     46133
     46080     46082     46132     46134     46080     46082     46132     46135
     46081     46080     46082     46083     46081     46080     46082     46084
     46081     46080     46082     46132     46082     46132     46135     46136
     46082     46132     46135     46137     46082     46132     46135     46138
     46083     46082     46132     46133     46083     46082     46132     46134
     46083     46082     46132     46135     46084     46082     46132     46133
     46084     46082     46132     46134     46084     46082     46132     46135
     46085     46088     46091     46092     46085     46088     46091     46093
     46085     46088     46091     46094     46086     46085     46088     46089
     46086     46085     46088     46090     46086     46085     46088     46091
     46087     46085     46088     46089     46087     46085     46088     46090
     46087     46085     46088     46091     46088     46091     46094     46095
     46088     46091     46094     46096     46088     46091     46094     46097
     46089     46088     46091     46092     46089     46088     46091     46093
     46089     46088     46091     46094     46090     46088     46091     46092
     46090     46088     46091     46093     46090     46088     46091     46094
     46091     46094     46097     46098     46091     46094     46097     46099
     46091     46094     46097     46100     46092     46091     46094     46095
     46092     46091     46094     46096     46092     46091     46094     46097
     46093     46091     46094     46095     46093     46091     46094     46096
     46093     46091     46094     46097     46094     46097     46100     46101
     46094     46097     46100     46102     46094     46097     46100     46103
     46095     46094     46097     46098     46095     46094     46097     46099
     46095     46094     46097     46100     46096     46094     46097     46098
     46096     46094     46097     46099     46096     46094     46097     46100
     46097     46100     46103     46104     46097     46100     46103     46105
     46098     46097     46100     46101     46098     46097     46100     46102
     46098     46097     46100     46103     46099     46097     46100     46101
     46099     46097     46100     46102     46099     46097     46100     46103
     46100     46103     46105     46106     46100     46103     46105     46107
     46101     46100     46103     46104     46101     46100     46103     46105
     46102     46100     46103     46104     46102     46100     46103     46105
     46103     46105     46107     46108     46103     46105     46107     46109
     46103     46105     46107     46110     46104     46103     46105     46106
     46104     46103     46105     46107     46105     46107     46110     46111
     46105     46107     46110     46112     46105     46107     46110     46113
     46106     46105     46107     46108     46106     46105     46107     46109
     46106     46105     46107     46110     46107     46110     46113     46114
     46107     46110     46113     46115     46107     46110     46113     46116
     46108     46107     46110     46111     46108     46107     46110     46112
     46108     46107     46110     46113     46109     46107     46110     46111
     46109     46107     46110     46112     46109     46107     46110     46113
     46110     46113     46116     46117     46110     46113     46116     46118
     46110     46113     46116     46119     46111     46110     46113     46114
     46111     46110     46113     46115     46111     46110     46113     46116
     46112     46110     46113     46114     46112     46110     46113     46115
     46112     46110     46113     46116     46113     46116     46119     46120
     46113     46116     46119     46121     46113     46116     46119     46122
     46114     46113     46116     46117     46114     46113     46116     46118
     46114     46113     46116     46119     46115     46113     46116     46117
     46115     46113     46116     46118     46115     46113     46116     46119
     46116     46119     46122     46123     46116     46119     46122     46124
     46116     46119     46122     46125     46117     46116     46119     46120
     46117     46116     46119     46121     46117     46116     46119     46122
     46118     46116     46119     46120     46118     46116     46119     46121
     46118     46116     46119     46122     46119     46122     46125     46126
     46119     46122     46125     46127     46119     46122     46125     46128
     46120     46119     46122     46123     46120     46119     46122     46124
     46120     46119     46122     46125     46121     46119     46122     46123
     46121     46119     46122     46124     46121     46119     46122     46125
     46122     46125     46128     46129     46122     46125     46128     46130
     46122     46125     46128     46131     46123     46122     46125     46126
     46123     46122     46125     46127     46123     46122     46125     46128
     46124     46122     46125     46126     46124     46122     46125     46127
     46124     46122     46125     46128     46126     46125     46128     46129
     46126     46125     46128     46130     46126     46125     46128     46131
     46127     46125     46128     46129     46127     46125     46128     46130
     46127     46125     46128     46131     46132     46135     46138     46139
     46132     46135     46138     46140     46132     46135     46138     46141
     46133     46132     46135     46136     46133     46132     46135     46137
     46133     46132     46135     46138     46134     46132     46135     46136
     46134     46132     46135     46137     46134     46132     46135     46138
     46135     46138     46141     46142     46135     46138     46141     46143
     46135     46138     46141     46144     46136     46135     46138     46139
     46136     46135     46138     46140     46136     46135     46138     46141
     46137     46135     46138     46139     46137     46135     46138     46140
     46137     46135     46138     46141     46138     46141     46144     46145
     46138     46141     46144     46146     46138     46141     46144     46147
     46139     46138     46141     46142     46139     46138     46141     46143
     46139     46138     46141     46144     46140     46138     46141     46142
     46140     46138     46141     46143     46140     46138     46141     46144
     46141     46144     46147     46148     46141     46144     46147     46149
     46141     46144     46147     46150     46142     46141     46144     46145
     46142     46141     46144     46146     46142     46141     46144     46147
     46143     46141     46144     46145     46143     46141     46144     46146
     46143     46141     46144     46147     46144     46147     46150     46151
     46144     46147     46150     46152     46144     46147     46150     46153
     46145     46144     46147     46148     46145     46144     46147     46149
     46145     46144     46147     46150     46146     46144     46147     46148
     46146     46144     46147     46149     46146     46144     46147     46150
     46147     46150     46153     46154     46147     46150     46153     46155
     46147     46150     46153     46156     46148     46147     46150     46151
     46148     46147     46150     46152     46148     46147     46150     46153
     46149     46147     46150     46151     46149     46147     46150     46152
     46149     46147     46150     46153     46150     46153     46156     46157
     46150     46153     46156     46158     46150     46153     46156     46159
     46151     46150     46153     46154     46151     46150     46153     46155
     46151     46150     46153     46156     46152     46150     46153     46154
     46152     46150     46153     46155     46152     46150     46153     46156
     46153     46156     46159     46160     46153     46156     46159     46161
     46153     46156     46159     46162     46154     46153     46156     46157
     46154     46153     46156     46158     46154     46153     46156     46159
     46155     46153     46156     46157     46155     46153     46156     46158
     46155     46153     46156     46159     46156     46159     46162     46163
     46156     46159     46162     46164     46156     46159     46162     46165
     46157     46156     46159     46160     46157     46156     46159     46161
     46157     46156     46159     46162     46158     46156     46159     46160
     46158     46156     46159     46161     46158     46156     46159     46162
     46159     46162     46165     46166     46159     46162     46165     46167
     46159     46162     46165     46168     46160     46159     46162     46163
     46160     46159     46162     46164     46160     46159     46162     46165
     46161     46159     46162     46163     46161     46159     46162     46164
     46161     46159     46162     46165     46162     46165     46168     46169
     46162     46165     46168     46170     46162     46165     46168     46171
     46163     46162     46165     46166     46163     46162     46165     46167
     46163     46162     46165     46168     46164     46162     46165     46166
     46164     46162     46165     46167     46164     46162     46165     46168
     46165     46168     46171     46172     46165     46168     46171     46173
     46165     46168     46171     46174     46166     46165     46168     46169
     46166     46165     46168     46170     46166     46165     46168     46171
     46167     46165     46168     46169     46167     46165     46168     46170
     46167     46165     46168     46171     46169     46168     46171     46172
     46169     46168     46171     46173     46169     46168     46171     46174
     46170     46168     46171     46172     46170     46168     46171     46173
     46170     46168     46171     46174     46175     46179     46182     46183
     46175     46179     46182     46184     46175     46179     46182     46189
     46176     46175     46179     46180     46176     46175     46179     46181
     46176     46175     46179     46182     46177     46175     46179     46180
     46177     46175     46179     46181     46177     46175     46179     46182
     46178     46175     46179     46180     46178     46175     46179     46181
     46178     46175     46179     46182     46179     46182     46189     46185
     46180     46179     46182     46183     46180     46179     46182     46184
     46180     46179     46182     46189     46181     46179     46182     46183
     46181     46179     46182     46184     46181     46179     46182     46189
     46182     46189     46185     46186     46182     46189     46185     46187
     46182     46189     46185     46188     46183     46182     46189     46185
     46184     46182     46189     46185     46185     46188     46190     46191
     46185     46188     46190     46192     46185     46188     46190     46193
     46186     46185     46188     46190     46187     46185     46188     46190
     46188     46190     46193     46194     46188     46190     46193     46195
     46188     46190     46193     46201     46189     46185     46188     46190
     46190     46193     46195     46196     46190     46193     46201     46202
     46190     46193     46201     46203     46190     46193     46201     46204
     46191     46190     46193     46194     46191     46190     46193     46195
     46191     46190     46193     46201     46192     46190     46193     46194
     46192     46190     46193     46195     46192     46190     46193     46201
     46193     46195     46196     46197     46193     46195     46196     46198
     46193     46201     46204     46205     46194     46193     46195     46196
     46194     46193     46201     46202     46194     46193     46201     46203
     46194     46193     46201     46204     46195     46193     46201     46202
     46195     46193     46201     46203     46195     46193     46201     46204
     46195     46196     46198     46199     46195     46196     46198     46200
     46195     46196     46198     46210     46196     46195     46193     46201
     46196     46198     46210     46211     46196     46198     46210     46212
     46196     46198     46210     46213     46197     46196     46198     46199
     46197     46196     46198     46200     46197     46196     46198     46210
     46198     46210     46213     46214     46198     46210     46213     46215
     46198     46210     46213     46216     46199     46198     46210     46211
     46199     46198     46210     46212     46199     46198     46210     46213
     46200     46198     46210     46211     46200     46198     46210     46212
     46200     46198     46210     46213     46201     46204     46205     46206
     46201     46204     46205     46207     46202     46201     46204     46205
     46203     46201     46204     46205     46204     46205     46207     46208
     46204     46205     46207     46209     46204     46205     46207     46254
     46205     46207     46254     46255     46205     46207     46254     46256
     46205     46207     46254     46257     46206     46205     46207     46208
     46206     46205     46207     46209     46206     46205     46207     46254
     46207     46254     46257     46258     46207     46254     46257     46259
     46207     46254     46257     46260     46208     46207     46254     46255
     46208     46207     46254     46256     46208     46207     46254     46257
     46209     46207     46254     46255     46209     46207     46254     46256
     46209     46207     46254     46257     46210     46213     46216     46217
     46210     46213     46216     46218     46210     46213     46216     46219
     46211     46210     46213     46214     46211     46210     46213     46215
     46211     46210     46213     46216     46212     46210     46213     46214
     46212     46210     46213     46215     46212     46210     46213     46216
     46213     46216     46219     46220     46213     46216     46219     46221
     46213     46216     46219     46222     46214     46213     46216     46217
     46214     46213     46216     46218     46214     46213     46216     46219
     46215     46213     46216     46217     46215     46213     46216     46218
     46215     46213     46216     46219     46216     46219     46222     46223
     46216     46219     46222     46224     46216     46219     46222     46225
     46217     46216     46219     46220     46217     46216     46219     46221
     46217     46216     46219     46222     46218     46216     46219     46220
     46218     46216     46219     46221     46218     46216     46219     46222
     46219     46222     46225     46226     46219     46222     46225     46227
     46219     46222     46225     46228     46220     46219     46222     46223
     46220     46219     46222     46224     46220     46219     46222     46225
     46221     46219     46222     46223     46221     46219     46222     46224
     46221     46219     46222     46225     46222     46225     46228     46229
     46222     46225     46228     46230     46222     46225     46228     46233
     46223     46222     46225     46226     46223     46222     46225     46227
     46223     46222     46225     46228     46224     46222     46225     46226
     46224     46222     46225     46227     46224     46222     46225     46228
     46225     46228     46230     46231     46225     46228     46230     46232
     46225     46228     46230     46233     46225     46228     46233     46230
     46225     46228     46233     46234     46225     46228     46233     46235
     46226     46225     46228     46229     46226     46225     46228     46230
     46226     46225     46228     46233     46227     46225     46228     46229
     46227     46225     46228     46230     46227     46225     46228     46233
     46228     46230     46233     46234     46228     46230     46233     46235
     46228     46233     46230     46231     46228     46233     46230     46232
     46228     46233     46235     46236     46228     46233     46235     46237
     46228     46233     46235     46238     46229     46228     46230     46231
     46229     46228     46230     46232     46229     46228     46230     46233
     46229     46228     46233     46230     46229     46228     46233     46234
     46229     46228     46233     46235     46230     46228     46233     46234
     46230     46228     46233     46235     46230     46233     46235     46236
     46230     46233     46235     46237     46230     46233     46235     46238
     46231     46230     46228     46233     46231     46230     46233     46234
     46231     46230     46233     46235     46232     46230     46228     46233
     46232     46230     46233     46234     46232     46230     46233     46235
     46233     46235     46238     46239     46233     46235     46238     46240
     46233     46235     46238     46241     46234     46233     46235     46236
     46234     46233     46235     46237     46234     46233     46235     46238
     46235     46238     46241     46242     46235     46238     46241     46243
     46235     46238     46241     46244     46236     46235     46238     46239
     46236     46235     46238     46240     46236     46235     46238     46241
     46237     46235     46238     46239     46237     46235     46238     46240
     46237     46235     46238     46241     46238     46241     46244     46245
     46238     46241     46244     46246     46238     46241     46244     46247
     46239     46238     46241     46242     46239     46238     46241     46243
     46239     46238     46241     46244     46240     46238     46241     46242
     46240     46238     46241     46243     46240     46238     46241     46244
     46241     46244     46247     46248     46241     46244     46247     46249
     46241     46244     46247     46250     46242     46241     46244     46245
     46242     46241     46244     46246     46242     46241     46244     46247
     46243     46241     46244     46245     46243     46241     46244     46246
     46243     46241     46244     46247     46244     46247     46250     46251
     46244     46247     46250     46252     46244     46247     46250     46253
     46245     46244     46247     46248     46245     46244     46247     46249
     46245     46244     46247     46250     46246     46244     46247     46248
     46246     46244     46247     46249     46246     46244     46247     46250
     46248     46247     46250     46251     46248     46247     46250     46252
     46248     46247     46250     46253     46249     46247     46250     46251
     46249     46247     46250     46252     46249     46247     46250     46253
     46254     46257     46260     46261     46254     46257     46260     46262
     46254     46257     46260     46263     46255     46254     46257     46258
     46255     46254     46257     46259     46255     46254     46257     46260
     46256     46254     46257     46258     46256     46254     46257     46259
     46256     46254     46257     46260     46257     46260     46263     46264
     46257     46260     46263     46265     46257     46260     46263     46266
     46258     46257     46260     46261     46258     46257     46260     46262
     46258     46257     46260     46263     46259     46257     46260     46261
     46259     46257     46260     46262     46259     46257     46260     46263
     46260     46263     46266     46267     46260     46263     46266     46268
     46260     46263     46266     46269     46261     46260     46263     46264
     46261     46260     46263     46265     46261     46260     46263     46266
     46262     46260     46263     46264     46262     46260     46263     46265
     46262     46260     46263     46266     46263     46266     46269     46270
     46263     46266     46269     46271     46263     46266     46269     46272
     46264     46263     46266     46267     46264     46263     46266     46268
     46264     46263     46266     46269     46265     46263     46266     46267
     46265     46263     46266     46268     46265     46263     46266     46269
     46266     46269     46272     46273     46266     46269     46272     46274
     46266     46269     46272     46275     46267     46266     46269     46270
     46267     46266     46269     46271     46267     46266     46269     46272
     46268     46266     46269     46270     46268     46266     46269     46271
     46268     46266     46269     46272     46269     46272     46275     46276
     46269     46272     46275     46277     46269     46272     46275     46278
     46270     46269     46272     46273     46270     46269     46272     46274
     46270     46269     46272     46275     46271     46269     46272     46273
     46271     46269     46272     46274     46271     46269     46272     46275
     46272     46275     46278     46279     46272     46275     46278     46280
     46272     46275     46278     46281     46273     46272     46275     46276
     46273     46272     46275     46277     46273     46272     46275     46278
     46274     46272     46275     46276     46274     46272     46275     46277
     46274     46272     46275     46278     46275     46278     46281     46282
     46275     46278     46281     46283     46275     46278     46281     46284
     46276     46275     46278     46279     46276     46275     46278     46280
     46276     46275     46278     46281     46277     46275     46278     46279
     46277     46275     46278     46280     46277     46275     46278     46281
     46278     46281     46284     46285     46278     46281     46284     46286
     46278     46281     46284     46287     46279     46278     46281     46282
     46279     46278     46281     46283     46279     46278     46281     46284
     46280     46278     46281     46282     46280     46278     46281     46283
     46280     46278     46281     46284     46281     46284     46287     46288
     46281     46284     46287     46289     46281     46284     46287     46290
     46282     46281     46284     46285     46282     46281     46284     46286
     46282     46281     46284     46287     46283     46281     46284     46285
     46283     46281     46284     46286     46283     46281     46284     46287
     46284     46287     46290     46291     46284     46287     46290     46292
     46284     46287     46290     46293     46285     46284     46287     46288
     46285     46284     46287     46289     46285     46284     46287     46290
     46286     46284     46287     46288     46286     46284     46287     46289
     46286     46284     46287     46290     46287     46290     46293     46294
     46287     46290     46293     46295     46287     46290     46293     46296
     46288     46287     46290     46291     46288     46287     46290     46292
     46288     46287     46290     46293     46289     46287     46290     46291
     46289     46287     46290     46292     46289     46287     46290     46293
     46291     46290     46293     46294     46291     46290     46293     46295
     46291     46290     46293     46296     46292     46290     46293     46294
     46292     46290     46293     46295     46292     46290     46293     46296
     46297     46302     46304     46305     46297     46302     46306     46307
     46297     46302     46306     46308     46297     46302     46306     46313
     46298     46297     46300     46301     46298     46297     46302     46303
     46298     46297     46302     46304     46298     46297     46302     46306
     46299     46297     46300     46301     46299     46297     46302     46303
     46299     46297     46302     46304     46299     46297     46302     46306
     46300     46297     46302     46303     46300     46297     46302     46304
     46300     46297     46302     46306     46301     46300     46297     46302
     46302     46306     46313     46309     46303     46302     46304     46305
     46303     46302     46306     46307     46303     46302     46306     46308
     46303     46302     46306     46313     46304     46302     46306     46307
     46304     46302     46306     46308     46304     46302     46306     46313
     46305     46304     46302     46306     46306     46313     46309     46310
     46306     46313     46309     46311     46306     46313     46309     46312
     46307     46306     46313     46309     46308     46306     46313     46309
     46309     46312     46314     46315     46309     46312     46314     46316
     46309     46312     46314     46317     46310     46309     46312     46314
     46311     46309     46312     46314     46312     46314     46317     46318
     46312     46314     46317     46319     46312     46314     46317     46325
     46313     46309     46312     46314     46314     46317     46319     46320
     46314     46317     46325     46326     46314     46317     46325     46327
     46314     46317     46325     46328     46315     46314     46317     46318
     46315     46314     46317     46319     46315     46314     46317     46325
     46316     46314     46317     46318     46316     46314     46317     46319
     46316     46314     46317     46325     46317     46319     46320     46321
     46317     46319     46320     46322     46317     46325     46328     46329
     46318     46317     46319     46320     46318     46317     46325     46326
     46318     46317     46325     46327     46318     46317     46325     46328
     46319     46317     46325     46326     46319     46317     46325     46327
     46319     46317     46325     46328     46319     46320     46322     46323
     46319     46320     46322     46324     46319     46320     46322     46334
     46320     46319     46317     46325     46320     46322     46334     46335
     46320     46322     46334     46336     46320     46322     46334     46337
     46321     46320     46322     46323     46321     46320     46322     46324
     46321     46320     46322     46334     46322     46334     46337     46338
     46322     46334     46337     46339     46322     46334     46337     46340
     46323     46322     46334     46335     46323     46322     46334     46336
     46323     46322     46334     46337     46324     46322     46334     46335
     46324     46322     46334     46336     46324     46322     46334     46337
     46325     46328     46329     46330     46325     46328     46329     46331
     46326     46325     46328     46329     46327     46325     46328     46329
     46328     46329     46331     46332     46328     46329     46331     46333
     46328     46329     46331     46375     46329     46331     46375     46376
     46329     46331     46375     46377     46329     46331     46375     46378
     46330     46329     46331     46332     46330     46329     46331     46333
     46330     46329     46331     46375     46331     46375     46378     46379
     46331     46375     46378     46380     46331     46375     46378     46381
     46332     46331     46375     46376     46332     46331     46375     46377
     46332     46331     46375     46378     46333     46331     46375     46376
     46333     46331     46375     46377     46333     46331     46375     46378
     46334     46337     46340     46341     46334     46337     46340     46342
     46334     46337     46340     46343     46335     46334     46337     46338
     46335     46334     46337     46339     46335     46334     46337     46340
     46336     46334     46337     46338     46336     46334     46337     46339
     46336     46334     46337     46340     46337     46340     46343     46344
     46337     46340     46343     46345     46337     46340     46343     46346
     46338     46337     46340     46341     46338     46337     46340     46342
     46338     46337     46340     46343     46339     46337     46340     46341
     46339     46337     46340     46342     46339     46337     46340     46343
     46340     46343     46346     46347     46340     46343     46346     46348
     46340     46343     46346     46349     46341     46340     46343     46344
     46341     46340     46343     46345     46341     46340     46343     46346
     46342     46340     46343     46344     46342     46340     46343     46345
     46342     46340     46343     46346     46343     46346     46349     46350
     46343     46346     46349     46351     46343     46346     46349     46352
     46344     46343     46346     46347     46344     46343     46346     46348
     46344     46343     46346     46349     46345     46343     46346     46347
     46345     46343     46346     46348     46345     46343     46346     46349
     46346     46349     46352     46353     46346     46349     46352     46354
     46347     46346     46349     46350     46347     46346     46349     46351
     46347     46346     46349     46352     46348     46346     46349     46350
     46348     46346     46349     46351     46348     46346     46349     46352
     46349     46352     46354     46355     46349     46352     46354     46356
     46350     46349     46352     46353     46350     46349     46352     46354
     46351     46349     46352     46353     46351     46349     46352     46354
     46352     46354     46356     46357     46352     46354     46356     46358
     46352     46354     46356     46359     46353     46352     46354     46355
     46353     46352     46354     46356     46354     46356     46359     46360
     46354     46356     46359     46361     46354     46356     46359     46362
     46355     46354     46356     46357     46355     46354     46356     46358
     46355     46354     46356     46359     46356     46359     46362     46363
     46356     46359     46362     46364     46356     46359     46362     46365
     46357     46356     46359     46360     46357     46356     46359     46361
     46357     46356     46359     46362     46358     46356     46359     46360
     46358     46356     46359     46361     46358     46356     46359     46362
     46359     46362     46365     46366     46359     46362     46365     46367
     46359     46362     46365     46368     46360     46359     46362     46363
     46360     46359     46362     46364     46360     46359     46362     46365
     46361     46359     46362     46363     46361     46359     46362     46364
     46361     46359     46362     46365     46362     46365     46368     46369
     46362     46365     46368     46370     46362     46365     46368     46371
     46363     46362     46365     46366     46363     46362     46365     46367
     46363     46362     46365     46368     46364     46362     46365     46366
     46364     46362     46365     46367     46364     46362     46365     46368
     46365     46368     46371     46372     46365     46368     46371     46373
     46365     46368     46371     46374     46366     46365     46368     46369
     46366     46365     46368     46370     46366     46365     46368     46371
     46367     46365     46368     46369     46367     46365     46368     46370
     46367     46365     46368     46371     46369     46368     46371     46372
     46369     46368     46371     46373     46369     46368     46371     46374
     46370     46368     46371     46372     46370     46368     46371     46373
     46370     46368     46371     46374     46375     46378     46381     46382
     46375     46378     46381     46383     46375     46378     46381     46384
     46376     46375     46378     46379     46376     46375     46378     46380
     46376     46375     46378     46381     46377     46375     46378     46379
     46377     46375     46378     46380     46377     46375     46378     46381
     46378     46381     46384     46385     46378     46381     46384     46386
     46378     46381     46384     46387     46379     46378     46381     46382
     46379     46378     46381     46383     46379     46378     46381     46384
     46380     46378     46381     46382     46380     46378     46381     46383
     46380     46378     46381     46384     46381     46384     46387     46388
     46381     46384     46387     46389     46381     46384     46387     46390
     46382     46381     46384     46385     46382     46381     46384     46386
     46382     46381     46384     46387     46383     46381     46384     46385
     46383     46381     46384     46386     46383     46381     46384     46387
     46384     46387     46390     46391     46384     46387     46390     46392
     46384     46387     46390     46393     46385     46384     46387     46388
     46385     46384     46387     46389     46385     46384     46387     46390
     46386     46384     46387     46388     46386     46384     46387     46389
     46386     46384     46387     46390     46387     46390     46393     46394
     46387     46390     46393     46395     46387     46390     46393     46396
     46388     46387     46390     46391     46388     46387     46390     46392
     46388     46387     46390     46393     46389     46387     46390     46391
     46389     46387     46390     46392     46389     46387     46390     46393
     46390     46393     46396     46397     46390     46393     46396     46398
     46390     46393     46396     46399     46391     46390     46393     46394
     46391     46390     46393     46395     46391     46390     46393     46396
     46392     46390     46393     46394     46392     46390     46393     46395
     46392     46390     46393     46396     46393     46396     46399     46400
     46393     46396     46399     46401     46393     46396     46399     46402
     46394     46393     46396     46397     46394     46393     46396     46398
     46394     46393     46396     46399     46395     46393     46396     46397
     46395     46393     46396     46398     46395     46393     46396     46399
     46396     46399     46402     46403     46396     46399     46402     46404
     46396     46399     46402     46405     46397     46396     46399     46400
     46397     46396     46399     46401     46397     46396     46399     46402
     46398     46396     46399     46400     46398     46396     46399     46401
     46398     46396     46399     46402     46399     46402     46405     46406
     46399     46402     46405     46407     46399     46402     46405     46408
     46400     46399     46402     46403     46400     46399     46402     46404
     46400     46399     46402     46405     46401     46399     46402     46403
     46401     46399     46402     46404     46401     46399     46402     46405
     46402     46405     46408     46409     46402     46405     46408     46410
     46402     46405     46408     46411     46403     46402     46405     46406
     46403     46402     46405     46407     46403     46402     46405     46408
     46404     46402     46405     46406     46404     46402     46405     46407
     46404     46402     46405     46408     46405     46408     46411     46412
     46405     46408     46411     46413     46405     46408     46411     46414
     46406     46405     46408     46409     46406     46405     46408     46410
     46406     46405     46408     46411     46407     46405     46408     46409
     46407     46405     46408     46410     46407     46405     46408     46411
     46408     46411     46414     46415     46408     46411     46414     46416
     46408     46411     46414     46417     46409     46408     46411     46412
     46409     46408     46411     46413     46409     46408     46411     46414
     46410     46408     46411     46412     46410     46408     46411     46413
     46410     46408     46411     46414     46412     46411     46414     46415
     46412     46411     46414     46416     46412     46411     46414     46417
     46413     46411     46414     46415     46413     46411     46414     46416
     46413     46411     46414     46417     46418     46422     46425     46426
     46418     46422     46425     46427     46418     46422     46425     46432
     46419     46418     46422     46423     46419     46418     46422     46424
     46419     46418     46422     46425     46420     46418     46422     46423
     46420     46418     46422     46424     46420     46418     46422     46425
     46421     46418     46422     46423     46421     46418     46422     46424
     46421     46418     46422     46425     46422     46425     46432     46428
     46423     46422     46425     46426     46423     46422     46425     46427
     46423     46422     46425     46432     46424     46422     46425     46426
     46424     46422     46425     46427     46424     46422     46425     46432
     46425     46432     46428     46429     46425     46432     46428     46430
     46425     46432     46428     46431     46426     46425     46432     46428
     46427     46425     46432     46428     46428     46431     46433     46434
     46428     46431     46433     46435     46428     46431     46433     46436
     46429     46428     46431     46433     46430     46428     46431     46433
     46431     46433     46436     46437     46431     46433     46436     46438
     46431     46433     46436     46444     46432     46428     46431     46433
     46433     46436     46438     46439     46433     46436     46444     46445
     46433     46436     46444     46446     46433     46436     46444     46447
     46434     46433     46436     46437     46434     46433     46436     46438
     46434     46433     46436     46444     46435     46433     46436     46437
     46435     46433     46436     46438     46435     46433     46436     46444
     46436     46438     46439     46440     46436     46438     46439     46441
     46436     46444     46447     46448     46437     46436     46438     46439
     46437     46436     46444     46445     46437     46436     46444     46446
     46437     46436     46444     46447     46438     46436     46444     46445
     46438     46436     46444     46446     46438     46436     46444     46447
     46438     46439     46441     46442     46438     46439     46441     46443
     46438     46439     46441     46453     46439     46438     46436     46444
     46439     46441     46453     46454     46439     46441     46453     46455
     46439     46441     46453     46456     46440     46439     46441     46442
     46440     46439     46441     46443     46440     46439     46441     46453
     46441     46453     46456     46457     46441     46453     46456     46458
     46441     46453     46456     46459     46442     46441     46453     46454
     46442     46441     46453     46455     46442     46441     46453     46456
     46443     46441     46453     46454     46443     46441     46453     46455
     46443     46441     46453     46456     46444     46447     46448     46449
     46444     46447     46448     46450     46445     46444     46447     46448
     46446     46444     46447     46448     46447     46448     46450     46451
     46447     46448     46450     46452     46447     46448     46450     46497
     46448     46450     46497     46498     46448     46450     46497     46499
     46448     46450     46497     46500     46449     46448     46450     46451
     46449     46448     46450     46452     46449     46448     46450     46497
     46450     46497     46500     46501     46450     46497     46500     46502
     46450     46497     46500     46503     46451     46450     46497     46498
     46451     46450     46497     46499     46451     46450     46497     46500
     46452     46450     46497     46498     46452     46450     46497     46499
     46452     46450     46497     46500     46453     46456     46459     46460
     46453     46456     46459     46461     46453     46456     46459     46462
     46454     46453     46456     46457     46454     46453     46456     46458
     46454     46453     46456     46459     46455     46453     46456     46457
     46455     46453     46456     46458     46455     46453     46456     46459
     46456     46459     46462     46463     46456     46459     46462     46464
     46456     46459     46462     46465     46457     46456     46459     46460
     46457     46456     46459     46461     46457     46456     46459     46462
     46458     46456     46459     46460     46458     46456     46459     46461
     46458     46456     46459     46462     46459     46462     46465     46466
     46459     46462     46465     46467     46459     46462     46465     46468
     46460     46459     46462     46463     46460     46459     46462     46464
     46460     46459     46462     46465     46461     46459     46462     46463
     46461     46459     46462     46464     46461     46459     46462     46465
     46462     46465     46468     46469     46462     46465     46468     46470
     46462     46465     46468     46471     46463     46462     46465     46466
     46463     46462     46465     46467     46463     46462     46465     46468
     46464     46462     46465     46466     46464     46462     46465     46467
     46464     46462     46465     46468     46465     46468     46471     46472
     46465     46468     46471     46473     46465     46468     46471     46476
     46466     46465     46468     46469     46466     46465     46468     46470
     46466     46465     46468     46471     46467     46465     46468     46469
     46467     46465     46468     46470     46467     46465     46468     46471
     46468     46471     46473     46474     46468     46471     46473     46475
     46468     46471     46473     46476     46468     46471     46476     46473
     46468     46471     46476     46477     46468     46471     46476     46478
     46469     46468     46471     46472     46469     46468     46471     46473
     46469     46468     46471     46476     46470     46468     46471     46472
     46470     46468     46471     46473     46470     46468     46471     46476
     46471     46473     46476     46477     46471     46473     46476     46478
     46471     46476     46473     46474     46471     46476     46473     46475
     46471     46476     46478     46479     46471     46476     46478     46480
     46471     46476     46478     46481     46472     46471     46473     46474
     46472     46471     46473     46475     46472     46471     46473     46476
     46472     46471     46476     46473     46472     46471     46476     46477
     46472     46471     46476     46478     46473     46471     46476     46477
     46473     46471     46476     46478     46473     46476     46478     46479
     46473     46476     46478     46480     46473     46476     46478     46481
     46474     46473     46471     46476     46474     46473     46476     46477
     46474     46473     46476     46478     46475     46473     46471     46476
     46475     46473     46476     46477     46475     46473     46476     46478
     46476     46478     46481     46482     46476     46478     46481     46483
     46476     46478     46481     46484     46477     46476     46478     46479
     46477     46476     46478     46480     46477     46476     46478     46481
     46478     46481     46484     46485     46478     46481     46484     46486
     46478     46481     46484     46487     46479     46478     46481     46482
     46479     46478     46481     46483     46479     46478     46481     46484
     46480     46478     46481     46482     46480     46478     46481     46483
     46480     46478     46481     46484     46481     46484     46487     46488
     46481     46484     46487     46489     46481     46484     46487     46490
     46482     46481     46484     46485     46482     46481     46484     46486
     46482     46481     46484     46487     46483     46481     46484     46485
     46483     46481     46484     46486     46483     46481     46484     46487
     46484     46487     46490     46491     46484     46487     46490     46492
     46484     46487     46490     46493     46485     46484     46487     46488
     46485     46484     46487     46489     46485     46484     46487     46490
     46486     46484     46487     46488     46486     46484     46487     46489
     46486     46484     46487     46490     46487     46490     46493     46494
     46487     46490     46493     46495     46487     46490     46493     46496
     46488     46487     46490     46491     46488     46487     46490     46492
     46488     46487     46490     46493     46489     46487     46490     46491
     46489     46487     46490     46492     46489     46487     46490     46493
     46491     46490     46493     46494     46491     46490     46493     46495
     46491     46490     46493     46496     46492     46490     46493     46494
     46492     46490     46493     46495     46492     46490     46493     46496
     46497     46500     46503     46504     46497     46500     46503     46505
     46497     46500     46503     46506     46498     46497     46500     46501
     46498     46497     46500     46502     46498     46497     46500     46503
     46499     46497     46500     46501     46499     46497     46500     46502
     46499     46497     46500     46503     46500     46503     46506     46507
     46500     46503     46506     46508     46500     46503     46506     46509
     46501     46500     46503     46504     46501     46500     46503     46505
     46501     46500     46503     46506     46502     46500     46503     46504
     46502     46500     46503     46505     46502     46500     46503     46506
     46503     46506     46509     46510     46503     46506     46509     46511
     46503     46506     46509     46512     46504     46503     46506     46507
     46504     46503     46506     46508     46504     46503     46506     46509
     46505     46503     46506     46507     46505     46503     46506     46508
     46505     46503     46506     46509     46506     46509     46512     46513
     46506     46509     46512     46514     46506     46509     46512     46515
     46507     46506     46509     46510     46507     46506     46509     46511
     46507     46506     46509     46512     46508     46506     46509     46510
     46508     46506     46509     46511     46508     46506     46509     46512
     46509     46512     46515     46516     46509     46512     46515     46517
     46509     46512     46515     46518     46510     46509     46512     46513
     46510     46509     46512     46514     46510     46509     46512     46515
     46511     46509     46512     46513     46511     46509     46512     46514
     46511     46509     46512     46515     46512     46515     46518     46519
     46512     46515     46518     46520     46512     46515     46518     46521
     46513     46512     46515     46516     46513     46512     46515     46517
     46513     46512     46515     46518     46514     46512     46515     46516
     46514     46512     46515     46517     46514     46512     46515     46518
     46515     46518     46521     46522     46515     46518     46521     46523
     46515     46518     46521     46524     46516     46515     46518     46519
     46516     46515     46518     46520     46516     46515     46518     46521
     46517     46515     46518     46519     46517     46515     46518     46520
     46517     46515     46518     46521     46518     46521     46524     46525
     46518     46521     46524     46526     46518     46521     46524     46527
     46519     46518     46521     46522     46519     46518     46521     46523
     46519     46518     46521     46524     46520     46518     46521     46522
     46520     46518     46521     46523     46520     46518     46521     46524
     46521     46524     46527     46528     46521     46524     46527     46529
     46521     46524     46527     46530     46522     46521     46524     46525
     46522     46521     46524     46526     46522     46521     46524     46527
     46523     46521     46524     46525     46523     46521     46524     46526
     46523     46521     46524     46527     46524     46527     46530     46531
     46524     46527     46530     46532     46524     46527     46530     46533
     46525     46524     46527     46528     46525     46524     46527     46529
     46525     46524     46527     46530     46526     46524     46527     46528
     46526     46524     46527     46529     46526     46524     46527     46530
     46527     46530     46533     46534     46527     46530     46533     46535
     46527     46530     46533     46536     46528     46527     46530     46531
     46528     46527     46530     46532     46528     46527     46530     46533
     46529     46527     46530     46531     46529     46527     46530     46532
     46529     46527     46530     46533     46530     46533     46536     46537
     46530     46533     46536     46538     46530     46533     46536     46539
     46531     46530     46533     46534     46531     46530     46533     46535
     46531     46530     46533     46536     46532     46530     46533     46534
     46532     46530     46533     46535     46532     46530     46533     46536
     46534     46533     46536     46537     46534     46533     46536     46538
     46534     46533     46536     46539     46535     46533     46536     46537
     46535     46533     46536     46538     46535     46533     46536     46539
     46540     46544     46547     46548     46540     46544     46547     46549
     46540     46544     46547     46554     46541     46540     46544     46545
     46541     46540     46544     46546     46541     46540     46544     46547
     46542     46540     46544     46545     46542     46540     46544     46546
     46542     46540     46544     46547     46543     46540     46544     46545
     46543     46540     46544     46546     46543     46540     46544     46547
     46544     46547     46554     46550     46545     46544     46547     46548
     46545     46544     46547     46549     46545     46544     46547     46554
     46546     46544     46547     46548     46546     46544     46547     46549
     46546     46544     46547     46554     46547     46554     46550     46551
     46547     46554     46550     46552     46547     46554     46550     46553
     46548     46547     46554     46550     46549     46547     46554     46550
     46550     46553     46555     46556     46550     46553     46555     46557
     46550     46553     46555     46558     46551     46550     46553     46555
     46552     46550     46553     46555     46553     46555     46558     46559
     46553     46555     46558     46560     46553     46555     46558     46566
     46554     46550     46553     46555     46555     46558     46560     46561
     46555     46558     46566     46567     46555     46558     46566     46568
     46555     46558     46566     46569     46556     46555     46558     46559
     46556     46555     46558     46560     46556     46555     46558     46566
     46557     46555     46558     46559     46557     46555     46558     46560
     46557     46555     46558     46566     46558     46560     46561     46562
     46558     46560     46561     46563     46558     46566     46569     46570
     46559     46558     46560     46561     46559     46558     46566     46567
     46559     46558     46566     46568     46559     46558     46566     46569
     46560     46558     46566     46567     46560     46558     46566     46568
     46560     46558     46566     46569     46560     46561     46563     46564
     46560     46561     46563     46565     46560     46561     46563     46575
     46561     46560     46558     46566     46561     46563     46575     46576
     46561     46563     46575     46577     46561     46563     46575     46578
     46562     46561     46563     46564     46562     46561     46563     46565
     46562     46561     46563     46575     46563     46575     46578     46579
     46563     46575     46578     46580     46563     46575     46578     46581
     46564     46563     46575     46576     46564     46563     46575     46577
     46564     46563     46575     46578     46565     46563     46575     46576
     46565     46563     46575     46577     46565     46563     46575     46578
     46566     46569     46570     46571     46566     46569     46570     46572
     46567     46566     46569     46570     46568     46566     46569     46570
     46569     46570     46572     46573     46569     46570     46572     46574
     46569     46570     46572     46619     46570     46572     46619     46620
     46570     46572     46619     46621     46570     46572     46619     46622
     46571     46570     46572     46573     46571     46570     46572     46574
     46571     46570     46572     46619     46572     46619     46622     46623
     46572     46619     46622     46624     46572     46619     46622     46625
     46573     46572     46619     46620     46573     46572     46619     46621
     46573     46572     46619     46622     46574     46572     46619     46620
     46574     46572     46619     46621     46574     46572     46619     46622
     46575     46578     46581     46582     46575     46578     46581     46583
     46575     46578     46581     46584     46576     46575     46578     46579
     46576     46575     46578     46580     46576     46575     46578     46581
     46577     46575     46578     46579     46577     46575     46578     46580
     46577     46575     46578     46581     46578     46581     46584     46585
     46578     46581     46584     46586     46578     46581     46584     46587
     46579     46578     46581     46582     46579     46578     46581     46583
     46579     46578     46581     46584     46580     46578     46581     46582
     46580     46578     46581     46583     46580     46578     46581     46584
     46581     46584     46587     46588     46581     46584     46587     46589
     46581     46584     46587     46590     46582     46581     46584     46585
     46582     46581     46584     46586     46582     46581     46584     46587
     46583     46581     46584     46585     46583     46581     46584     46586
     46583     46581     46584     46587     46584     46587     46590     46591
     46584     46587     46590     46592     46584     46587     46590     46593
     46585     46584     46587     46588     46585     46584     46587     46589
     46585     46584     46587     46590     46586     46584     46587     46588
     46586     46584     46587     46589     46586     46584     46587     46590
     46587     46590     46593     46594     46587     46590     46593     46595
     46587     46590     46593     46598     46588     46587     46590     46591
     46588     46587     46590     46592     46588     46587     46590     46593
     46589     46587     46590     46591     46589     46587     46590     46592
     46589     46587     46590     46593     46590     46593     46595     46596
     46590     46593     46595     46597     46590     46593     46595     46598
     46590     46593     46598     46595     46590     46593     46598     46599
     46590     46593     46598     46600     46591     46590     46593     46594
     46591     46590     46593     46595     46591     46590     46593     46598
     46592     46590     46593     46594     46592     46590     46593     46595
     46592     46590     46593     46598     46593     46595     46598     46599
     46593     46595     46598     46600     46593     46598     46595     46596
     46593     46598     46595     46597     46593     46598     46600     46601
     46593     46598     46600     46602     46593     46598     46600     46603
     46594     46593     46595     46596     46594     46593     46595     46597
     46594     46593     46595     46598     46594     46593     46598     46595
     46594     46593     46598     46599     46594     46593     46598     46600
     46595     46593     46598     46599     46595     46593     46598     46600
     46595     46598     46600     46601     46595     46598     46600     46602
     46595     46598     46600     46603     46596     46595     46593     46598
     46596     46595     46598     46599     46596     46595     46598     46600
     46597     46595     46593     46598     46597     46595     46598     46599
     46597     46595     46598     46600     46598     46600     46603     46604
     46598     46600     46603     46605     46598     46600     46603     46606
     46599     46598     46600     46601     46599     46598     46600     46602
     46599     46598     46600     46603     46600     46603     46606     46607
     46600     46603     46606     46608     46600     46603     46606     46609
     46601     46600     46603     46604     46601     46600     46603     46605
     46601     46600     46603     46606     46602     46600     46603     46604
     46602     46600     46603     46605     46602     46600     46603     46606
     46603     46606     46609     46610     46603     46606     46609     46611
     46603     46606     46609     46612     46604     46603     46606     46607
     46604     46603     46606     46608     46604     46603     46606     46609
     46605     46603     46606     46607     46605     46603     46606     46608
     46605     46603     46606     46609     46606     46609     46612     46613
     46606     46609     46612     46614     46606     46609     46612     46615
     46607     46606     46609     46610     46607     46606     46609     46611
     46607     46606     46609     46612     46608     46606     46609     46610
     46608     46606     46609     46611     46608     46606     46609     46612
     46609     46612     46615     46616     46609     46612     46615     46617
     46609     46612     46615     46618     46610     46609     46612     46613
     46610     46609     46612     46614     46610     46609     46612     46615
     46611     46609     46612     46613     46611     46609     46612     46614
     46611     46609     46612     46615     46613     46612     46615     46616
     46613     46612     46615     46617     46613     46612     46615     46618
     46614     46612     46615     46616     46614     46612     46615     46617
     46614     46612     46615     46618     46619     46622     46625     46626
     46619     46622     46625     46627     46619     46622     46625     46628
     46620     46619     46622     46623     46620     46619     46622     46624
     46620     46619     46622     46625     46621     46619     46622     46623
     46621     46619     46622     46624     46621     46619     46622     46625
     46622     46625     46628     46629     46622     46625     46628     46630
     46622     46625     46628     46631     46623     46622     46625     46626
     46623     46622     46625     46627     46623     46622     46625     46628
     46624     46622     46625     46626     46624     46622     46625     46627
     46624     46622     46625     46628     46625     46628     46631     46632
     46625     46628     46631     46633     46625     46628     46631     46634
     46626     46625     46628     46629     46626     46625     46628     46630
     46626     46625     46628     46631     46627     46625     46628     46629
     46627     46625     46628     46630     46627     46625     46628     46631
     46628     46631     46634     46635     46628     46631     46634     46636
     46628     46631     46634     46637     46629     46628     46631     46632
     46629     46628     46631     46633     46629     46628     46631     46634
     46630     46628     46631     46632     46630     46628     46631     46633
     46630     46628     46631     46634     46631     46634     46637     46638
     46631     46634     46637     46639     46631     46634     46637     46640
     46632     46631     46634     46635     46632     46631     46634     46636
     46632     46631     46634     46637     46633     46631     46634     46635
     46633     46631     46634     46636     46633     46631     46634     46637
     46634     46637     46640     46641     46634     46637     46640     46642
     46634     46637     46640     46643     46635     46634     46637     46638
     46635     46634     46637     46639     46635     46634     46637     46640
     46636     46634     46637     46638     46636     46634     46637     46639
     46636     46634     46637     46640     46637     46640     46643     46644
     46637     46640     46643     46645     46637     46640     46643     46646
     46638     46637     46640     46641     46638     46637     46640     46642
     46638     46637     46640     46643     46639     46637     46640     46641
     46639     46637     46640     46642     46639     46637     46640     46643
     46640     46643     46646     46647     46640     46643     46646     46648
     46640     46643     46646     46649     46641     46640     46643     46644
     46641     46640     46643     46645     46641     46640     46643     46646
     46642     46640     46643     46644     46642     46640     46643     46645
     46642     46640     46643     46646     46643     46646     46649     46650
     46643     46646     46649     46651     46643     46646     46649     46652
     46644     46643     46646     46647     46644     46643     46646     46648
     46644     46643     46646     46649     46645     46643     46646     46647
     46645     46643     46646     46648     46645     46643     46646     46649
     46646     46649     46652     46653     46646     46649     46652     46654
     46646     46649     46652     46655     46647     46646     46649     46650
     46647     46646     46649     46651     46647     46646     46649     46652
     46648     46646     46649     46650     46648     46646     46649     46651
     46648     46646     46649     46652     46649     46652     46655     46656
     46649     46652     46655     46657     46649     46652     46655     46658
     46650     46649     46652     46653     46650     46649     46652     46654
     46650     46649     46652     46655     46651     46649     46652     46653
     46651     46649     46652     46654     46651     46649     46652     46655
     46653     46652     46655     46656     46653     46652     46655     46657
     46653     46652     46655     46658     46654     46652     46655     46656
     46654     46652     46655     46657     46654     46652     46655     46658
     46659     46663     46666     46667     46659     46663     46666     46668
     46659     46663     46666     46673     46660     46659     46663     46664
     46660     46659     46663     46665     46660     46659     46663     46666
     46661     46659     46663     46664     46661     46659     46663     46665
     46661     46659     46663     46666     46662     46659     46663     46664
     46662     46659     46663     46665     46662     46659     46663     46666
     46663     46666     46673     46669     46664     46663     46666     46667
     46664     46663     46666     46668     46664     46663     46666     46673
     46665     46663     46666     46667     46665     46663     46666     46668
     46665     46663     46666     46673     46666     46673     46669     46670
     46666     46673     46669     46671     46666     46673     46669     46672
     46667     46666     46673     46669     46668     46666     46673     46669
     46669     46672     46674     46675     46669     46672     46674     46676
     46669     46672     46674     46677     46670     46669     46672     46674
     46671     46669     46672     46674     46672     46674     46677     46678
     46672     46674     46677     46679     46672     46674     46677     46685
     46673     46669     46672     46674     46674     46677     46679     46680
     46674     46677     46685     46686     46674     46677     46685     46687
     46674     46677     46685     46688     46675     46674     46677     46678
     46675     46674     46677     46679     46675     46674     46677     46685
     46676     46674     46677     46678     46676     46674     46677     46679
     46676     46674     46677     46685     46677     46679     46680     46681
     46677     46679     46680     46682     46677     46685     46688     46689
     46678     46677     46679     46680     46678     46677     46685     46686
     46678     46677     46685     46687     46678     46677     46685     46688
     46679     46677     46685     46686     46679     46677     46685     46687
     46679     46677     46685     46688     46679     46680     46682     46683
     46679     46680     46682     46684     46679     46680     46682     46694
     46680     46679     46677     46685     46680     46682     46694     46695
     46680     46682     46694     46696     46680     46682     46694     46697
     46681     46680     46682     46683     46681     46680     46682     46684
     46681     46680     46682     46694     46682     46694     46697     46698
     46682     46694     46697     46699     46682     46694     46697     46700
     46683     46682     46694     46695     46683     46682     46694     46696
     46683     46682     46694     46697     46684     46682     46694     46695
     46684     46682     46694     46696     46684     46682     46694     46697
     46685     46688     46689     46690     46685     46688     46689     46691
     46686     46685     46688     46689     46687     46685     46688     46689
     46688     46689     46691     46692     46688     46689     46691     46693
     46688     46689     46691     46735     46689     46691     46735     46736
     46689     46691     46735     46737     46689     46691     46735     46738
     46690     46689     46691     46692     46690     46689     46691     46693
     46690     46689     46691     46735     46691     46735     46738     46739
     46691     46735     46738     46740     46691     46735     46738     46741
     46692     46691     46735     46736     46692     46691     46735     46737
     46692     46691     46735     46738     46693     46691     46735     46736
     46693     46691     46735     46737     46693     46691     46735     46738
     46694     46697     46700     46701     46694     46697     46700     46702
     46694     46697     46700     46703     46695     46694     46697     46698
     46695     46694     46697     46699     46695     46694     46697     46700
     46696     46694     46697     46698     46696     46694     46697     46699
     46696     46694     46697     46700     46697     46700     46703     46704
     46697     46700     46703     46705     46697     46700     46703     46706
     46698     46697     46700     46701     46698     46697     46700     46702
     46698     46697     46700     46703     46699     46697     46700     46701
     46699     46697     46700     46702     46699     46697     46700     46703
     46700     46703     46706     46707     46700     46703     46706     46708
     46700     46703     46706     46709     46701     46700     46703     46704
     46701     46700     46703     46705     46701     46700     46703     46706
     46702     46700     46703     46704     46702     46700     46703     46705
     46702     46700     46703     46706     46703     46706     46709     46710
     46703     46706     46709     46711     46703     46706     46709     46712
     46704     46703     46706     46707     46704     46703     46706     46708
     46704     46703     46706     46709     46705     46703     46706     46707
     46705     46703     46706     46708     46705     46703     46706     46709
     46706     46709     46712     46713     46706     46709     46712     46714
     46707     46706     46709     46710     46707     46706     46709     46711
     46707     46706     46709     46712     46708     46706     46709     46710
     46708     46706     46709     46711     46708     46706     46709     46712
     46709     46712     46714     46715     46709     46712     46714     46716
     46710     46709     46712     46713     46710     46709     46712     46714
     46711     46709     46712     46713     46711     46709     46712     46714
     46712     46714     46716     46717     46712     46714     46716     46718
     46712     46714     46716     46719     46713     46712     46714     46715
     46713     46712     46714     46716     46714     46716     46719     46720
     46714     46716     46719     46721     46714     46716     46719     46722
     46715     46714     46716     46717     46715     46714     46716     46718
     46715     46714     46716     46719     46716     46719     46722     46723
     46716     46719     46722     46724     46716     46719     46722     46725
     46717     46716     46719     46720     46717     46716     46719     46721
     46717     46716     46719     46722     46718     46716     46719     46720
     46718     46716     46719     46721     46718     46716     46719     46722
     46719     46722     46725     46726     46719     46722     46725     46727
     46719     46722     46725     46728     46720     46719     46722     46723
     46720     46719     46722     46724     46720     46719     46722     46725
     46721     46719     46722     46723     46721     46719     46722     46724
     46721     46719     46722     46725     46722     46725     46728     46729
     46722     46725     46728     46730     46722     46725     46728     46731
     46723     46722     46725     46726     46723     46722     46725     46727
     46723     46722     46725     46728     46724     46722     46725     46726
     46724     46722     46725     46727     46724     46722     46725     46728
     46725     46728     46731     46732     46725     46728     46731     46733
     46725     46728     46731     46734     46726     46725     46728     46729
     46726     46725     46728     46730     46726     46725     46728     46731
     46727     46725     46728     46729     46727     46725     46728     46730
     46727     46725     46728     46731     46729     46728     46731     46732
     46729     46728     46731     46733     46729     46728     46731     46734
     46730     46728     46731     46732     46730     46728     46731     46733
     46730     46728     46731     46734     46735     46738     46741     46742
     46735     46738     46741     46743     46735     46738     46741     46744
     46736     46735     46738     46739     46736     46735     46738     46740
     46736     46735     46738     46741     46737     46735     46738     46739
     46737     46735     46738     46740     46737     46735     46738     46741
     46738     46741     46744     46745     46738     46741     46744     46746
     46738     46741     46744     46747     46739     46738     46741     46742
     46739     46738     46741     46743     46739     46738     46741     46744
     46740     46738     46741     46742     46740     46738     46741     46743
     46740     46738     46741     46744     46741     46744     46747     46748
     46741     46744     46747     46749     46741     46744     46747     46750
     46742     46741     46744     46745     46742     46741     46744     46746
     46742     46741     46744     46747     46743     46741     46744     46745
     46743     46741     46744     46746     46743     46741     46744     46747
     46744     46747     46750     46751     46744     46747     46750     46752
     46744     46747     46750     46753     46745     46744     46747     46748
     46745     46744     46747     46749     46745     46744     46747     46750
     46746     46744     46747     46748     46746     46744     46747     46749
     46746     46744     46747     46750     46747     46750     46753     46754
     46747     46750     46753     46755     46748     46747     46750     46751
     46748     46747     46750     46752     46748     46747     46750     46753
     46749     46747     46750     46751     46749     46747     46750     46752
     46749     46747     46750     46753     46750     46753     46755     46756
     46750     46753     46755     46757     46751     46750     46753     46754
     46751     46750     46753     46755     46752     46750     46753     46754
     46752     46750     46753     46755     46753     46755     46757     46758
     46753     46755     46757     46759     46753     46755     46757     46760
     46754     46753     46755     46756     46754     46753     46755     46757
     46755     46757     46760     46761     46755     46757     46760     46762
     46755     46757     46760     46763     46756     46755     46757     46758
     46756     46755     46757     46759     46756     46755     46757     46760
     46757     46760     46763     46764     46757     46760     46763     46765
     46757     46760     46763     46766     46758     46757     46760     46761
     46758     46757     46760     46762     46758     46757     46760     46763
     46759     46757     46760     46761     46759     46757     46760     46762
     46759     46757     46760     46763     46760     46763     46766     46767
     46760     46763     46766     46768     46760     46763     46766     46769
     46761     46760     46763     46764     46761     46760     46763     46765
     46761     46760     46763     46766     46762     46760     46763     46764
     46762     46760     46763     46765     46762     46760     46763     46766
     46763     46766     46769     46770     46763     46766     46769     46771
     46763     46766     46769     46772     46764     46763     46766     46767
     46764     46763     46766     46768     46764     46763     46766     46769
     46765     46763     46766     46767     46765     46763     46766     46768
     46765     46763     46766     46769     46766     46769     46772     46773
     46766     46769     46772     46774     46766     46769     46772     46775
     46767     46766     46769     46770     46767     46766     46769     46771
     46767     46766     46769     46772     46768     46766     46769     46770
     46768     46766     46769     46771     46768     46766     46769     46772
     46769     46772     46775     46776     46769     46772     46775     46777
     46769     46772     46775     46778     46770     46769     46772     46773
     46770     46769     46772     46774     46770     46769     46772     46775
     46771     46769     46772     46773     46771     46769     46772     46774
     46771     46769     46772     46775     46772     46775     46778     46779
     46772     46775     46778     46780     46772     46775     46778     46781
     46773     46772     46775     46776     46773     46772     46775     46777
     46773     46772     46775     46778     46774     46772     46775     46776
     46774     46772     46775     46777     46774     46772     46775     46778
     46776     46775     46778     46779     46776     46775     46778     46780
     46776     46775     46778     46781     46777     46775     46778     46779
     46777     46775     46778     46780     46777     46775     46778     46781
     46782     46786     46789     46790     46782     46786     46789     46791
     46782     46786     46789     46796     46783     46782     46786     46787
     46783     46782     46786     46788     46783     46782     46786     46789
     46784     46782     46786     46787     46784     46782     46786     46788
     46784     46782     46786     46789     46785     46782     46786     46787
     46785     46782     46786     46788     46785     46782     46786     46789
     46786     46789     46796     46792     46787     46786     46789     46790
     46787     46786     46789     46791     46787     46786     46789     46796
     46788     46786     46789     46790     46788     46786     46789     46791
     46788     46786     46789     46796     46789     46796     46792     46793
     46789     46796     46792     46794     46789     46796     46792     46795
     46790     46789     46796     46792     46791     46789     46796     46792
     46792     46795     46797     46798     46792     46795     46797     46799
     46792     46795     46797     46800     46793     46792     46795     46797
     46794     46792     46795     46797     46795     46797     46800     46801
     46795     46797     46800     46802     46795     46797     46800     46808
     46796     46792     46795     46797     46797     46800     46802     46803
     46797     46800     46808     46809     46797     46800     46808     46810
     46797     46800     46808     46811     46798     46797     46800     46801
     46798     46797     46800     46802     46798     46797     46800     46808
     46799     46797     46800     46801     46799     46797     46800     46802
     46799     46797     46800     46808     46800     46802     46803     46804
     46800     46802     46803     46805     46800     46808     46811     46812
     46801     46800     46802     46803     46801     46800     46808     46809
     46801     46800     46808     46810     46801     46800     46808     46811
     46802     46800     46808     46809     46802     46800     46808     46810
     46802     46800     46808     46811     46802     46803     46805     46806
     46802     46803     46805     46807     46802     46803     46805     46817
     46803     46802     46800     46808     46803     46805     46817     46818
     46803     46805     46817     46819     46803     46805     46817     46820
     46804     46803     46805     46806     46804     46803     46805     46807
     46804     46803     46805     46817     46805     46817     46820     46821
     46805     46817     46820     46822     46805     46817     46820     46823
     46806     46805     46817     46818     46806     46805     46817     46819
     46806     46805     46817     46820     46807     46805     46817     46818
     46807     46805     46817     46819     46807     46805     46817     46820
     46808     46811     46812     46813     46808     46811     46812     46814
     46809     46808     46811     46812     46810     46808     46811     46812
     46811     46812     46814     46815     46811     46812     46814     46816
     46811     46812     46814     46861     46812     46814     46861     46862
     46812     46814     46861     46863     46812     46814     46861     46864
     46813     46812     46814     46815     46813     46812     46814     46816
     46813     46812     46814     46861     46814     46861     46864     46865
     46814     46861     46864     46866     46814     46861     46864     46867
     46815     46814     46861     46862     46815     46814     46861     46863
     46815     46814     46861     46864     46816     46814     46861     46862
     46816     46814     46861     46863     46816     46814     46861     46864
     46817     46820     46823     46824     46817     46820     46823     46825
     46817     46820     46823     46826     46818     46817     46820     46821
     46818     46817     46820     46822     46818     46817     46820     46823
     46819     46817     46820     46821     46819     46817     46820     46822
     46819     46817     46820     46823     46820     46823     46826     46827
     46820     46823     46826     46828     46820     46823     46826     46829
     46821     46820     46823     46824     46821     46820     46823     46825
     46821     46820     46823     46826     46822     46820     46823     46824
     46822     46820     46823     46825     46822     46820     46823     46826
     46823     46826     46829     46830     46823     46826     46829     46831
     46823     46826     46829     46832     46824     46823     46826     46827
     46824     46823     46826     46828     46824     46823     46826     46829
     46825     46823     46826     46827     46825     46823     46826     46828
     46825     46823     46826     46829     46826     46829     46832     46833
     46826     46829     46832     46834     46826     46829     46832     46835
     46827     46826     46829     46830     46827     46826     46829     46831
     46827     46826     46829     46832     46828     46826     46829     46830
     46828     46826     46829     46831     46828     46826     46829     46832
     46829     46832     46835     46836     46829     46832     46835     46837
     46829     46832     46835     46840     46830     46829     46832     46833
     46830     46829     46832     46834     46830     46829     46832     46835
     46831     46829     46832     46833     46831     46829     46832     46834
     46831     46829     46832     46835     46832     46835     46837     46838
     46832     46835     46837     46839     46832     46835     46837     46840
     46832     46835     46840     46837     46832     46835     46840     46841
     46832     46835     46840     46842     46833     46832     46835     46836
     46833     46832     46835     46837     46833     46832     46835     46840
     46834     46832     46835     46836     46834     46832     46835     46837
     46834     46832     46835     46840     46835     46837     46840     46841
     46835     46837     46840     46842     46835     46840     46837     46838
     46835     46840     46837     46839     46835     46840     46842     46843
     46835     46840     46842     46844     46835     46840     46842     46845
     46836     46835     46837     46838     46836     46835     46837     46839
     46836     46835     46837     46840     46836     46835     46840     46837
     46836     46835     46840     46841     46836     46835     46840     46842
     46837     46835     46840     46841     46837     46835     46840     46842
     46837     46840     46842     46843     46837     46840     46842     46844
     46837     46840     46842     46845     46838     46837     46835     46840
     46838     46837     46840     46841     46838     46837     46840     46842
     46839     46837     46835     46840     46839     46837     46840     46841
     46839     46837     46840     46842     46840     46842     46845     46846
     46840     46842     46845     46847     46840     46842     46845     46848
     46841     46840     46842     46843     46841     46840     46842     46844
     46841     46840     46842     46845     46842     46845     46848     46849
     46842     46845     46848     46850     46842     46845     46848     46851
     46843     46842     46845     46846     46843     46842     46845     46847
     46843     46842     46845     46848     46844     46842     46845     46846
     46844     46842     46845     46847     46844     46842     46845     46848
     46845     46848     46851     46852     46845     46848     46851     46853
     46845     46848     46851     46854     46846     46845     46848     46849
     46846     46845     46848     46850     46846     46845     46848     46851
     46847     46845     46848     46849     46847     46845     46848     46850
     46847     46845     46848     46851     46848     46851     46854     46855
     46848     46851     46854     46856     46848     46851     46854     46857
     46849     46848     46851     46852     46849     46848     46851     46853
     46849     46848     46851     46854     46850     46848     46851     46852
     46850     46848     46851     46853     46850     46848     46851     46854
     46851     46854     46857     46858     46851     46854     46857     46859
     46851     46854     46857     46860     46852     46851     46854     46855
     46852     46851     46854     46856     46852     46851     46854     46857
     46853     46851     46854     46855     46853     46851     46854     46856
     46853     46851     46854     46857     46855     46854     46857     46858
     46855     46854     46857     46859     46855     46854     46857     46860
     46856     46854     46857     46858     46856     46854     46857     46859
     46856     46854     46857     46860     46861     46864     46867     46868
     46861     46864     46867     46869     46861     46864     46867     46870
     46862     46861     46864     46865     46862     46861     46864     46866
     46862     46861     46864     46867     46863     46861     46864     46865
     46863     46861     46864     46866     46863     46861     46864     46867
     46864     46867     46870     46871     46864     46867     46870     46872
     46864     46867     46870     46873     46865     46864     46867     46868
     46865     46864     46867     46869     46865     46864     46867     46870
     46866     46864     46867     46868     46866     46864     46867     46869
     46866     46864     46867     46870     46867     46870     46873     46874
     46867     46870     46873     46875     46867     46870     46873     46876
     46868     46867     46870     46871     46868     46867     46870     46872
     46868     46867     46870     46873     46869     46867     46870     46871
     46869     46867     46870     46872     46869     46867     46870     46873
     46870     46873     46876     46877     46870     46873     46876     46878
     46870     46873     46876     46879     46871     46870     46873     46874
     46871     46870     46873     46875     46871     46870     46873     46876
     46872     46870     46873     46874     46872     46870     46873     46875
     46872     46870     46873     46876     46873     46876     46879     46880
     46873     46876     46879     46881     46873     46876     46879     46882
     46874     46873     46876     46877     46874     46873     46876     46878
     46874     46873     46876     46879     46875     46873     46876     46877
     46875     46873     46876     46878     46875     46873     46876     46879
     46876     46879     46882     46883     46876     46879     46882     46884
     46876     46879     46882     46885     46877     46876     46879     46880
     46877     46876     46879     46881     46877     46876     46879     46882
     46878     46876     46879     46880     46878     46876     46879     46881
     46878     46876     46879     46882     46879     46882     46885     46886
     46879     46882     46885     46887     46879     46882     46885     46888
     46880     46879     46882     46883     46880     46879     46882     46884
     46880     46879     46882     46885     46881     46879     46882     46883
     46881     46879     46882     46884     46881     46879     46882     46885
     46882     46885     46888     46889     46882     46885     46888     46890
     46882     46885     46888     46891     46883     46882     46885     46886
     46883     46882     46885     46887     46883     46882     46885     46888
     46884     46882     46885     46886     46884     46882     46885     46887
     46884     46882     46885     46888     46885     46888     46891     46892
     46885     46888     46891     46893     46885     46888     46891     46894
     46886     46885     46888     46889     46886     46885     46888     46890
     46886     46885     46888     46891     46887     46885     46888     46889
     46887     46885     46888     46890     46887     46885     46888     46891
     46888     46891     46894     46895     46888     46891     46894     46896
     46888     46891     46894     46897     46889     46888     46891     46892
     46889     46888     46891     46893     46889     46888     46891     46894
     46890     46888     46891     46892     46890     46888     46891     46893
     46890     46888     46891     46894     46891     46894     46897     46898
     46891     46894     46897     46899     46891     46894     46897     46900
     46892     46891     46894     46895     46892     46891     46894     46896
     46892     46891     46894     46897     46893     46891     46894     46895
     46893     46891     46894     46896     46893     46891     46894     46897
     46894     46897     46900     46901     46894     46897     46900     46902
     46894     46897     46900     46903     46895     46894     46897     46898
     46895     46894     46897     46899     46895     46894     46897     46900
     46896     46894     46897     46898     46896     46894     46897     46899
     46896     46894     46897     46900     46898     46897     46900     46901
     46898     46897     46900     46902     46898     46897     46900     46903
     46899     46897     46900     46901     46899     46897     46900     46902
     46899     46897     46900     46903     46904     46908     46911     46912
     46904     46908     46911     46913     46904     46908     46911     46918
     46905     46904     46908     46909     46905     46904     46908     46910
     46905     46904     46908     46911     46906     46904     46908     46909
     46906     46904     46908     46910     46906     46904     46908     46911
     46907     46904     46908     46909     46907     46904     46908     46910
     46907     46904     46908     46911     46908     46911     46918     46914
     46909     46908     46911     46912     46909     46908     46911     46913
     46909     46908     46911     46918     46910     46908     46911     46912
     46910     46908     46911     46913     46910     46908     46911     46918
     46911     46918     46914     46915     46911     46918     46914     46916
     46911     46918     46914     46917     46912     46911     46918     46914
     46913     46911     46918     46914     46914     46917     46919     46920
     46914     46917     46919     46921     46914     46917     46919     46922
     46915     46914     46917     46919     46916     46914     46917     46919
     46917     46919     46922     46923     46917     46919     46922     46924
     46917     46919     46922     46930     46918     46914     46917     46919
     46919     46922     46924     46925     46919     46922     46930     46931
     46919     46922     46930     46932     46919     46922     46930     46933
     46920     46919     46922     46923     46920     46919     46922     46924
     46920     46919     46922     46930     46921     46919     46922     46923
     46921     46919     46922     46924     46921     46919     46922     46930
     46922     46924     46925     46926     46922     46924     46925     46927
     46922     46930     46933     46934     46923     46922     46924     46925
     46923     46922     46930     46931     46923     46922     46930     46932
     46923     46922     46930     46933     46924     46922     46930     46931
     46924     46922     46930     46932     46924     46922     46930     46933
     46924     46925     46927     46928     46924     46925     46927     46929
     46924     46925     46927     46939     46925     46924     46922     46930
     46925     46927     46939     46940     46925     46927     46939     46941
     46925     46927     46939     46942     46926     46925     46927     46928
     46926     46925     46927     46929     46926     46925     46927     46939
     46927     46939     46942     46943     46927     46939     46942     46944
     46927     46939     46942     46945     46928     46927     46939     46940
     46928     46927     46939     46941     46928     46927     46939     46942
     46929     46927     46939     46940     46929     46927     46939     46941
     46929     46927     46939     46942     46930     46933     46934     46935
     46930     46933     46934     46936     46931     46930     46933     46934
     46932     46930     46933     46934     46933     46934     46936     46937
     46933     46934     46936     46938     46933     46934     46936     46983
     46934     46936     46983     46984     46934     46936     46983     46985
     46934     46936     46983     46986     46935     46934     46936     46937
     46935     46934     46936     46938     46935     46934     46936     46983
     46936     46983     46986     46987     46936     46983     46986     46988
     46936     46983     46986     46989     46937     46936     46983     46984
     46937     46936     46983     46985     46937     46936     46983     46986
     46938     46936     46983     46984     46938     46936     46983     46985
     46938     46936     46983     46986     46939     46942     46945     46946
     46939     46942     46945     46947     46939     46942     46945     46948
     46940     46939     46942     46943     46940     46939     46942     46944
     46940     46939     46942     46945     46941     46939     46942     46943
     46941     46939     46942     46944     46941     46939     46942     46945
     46942     46945     46948     46949     46942     46945     46948     46950
     46942     46945     46948     46951     46943     46942     46945     46946
     46943     46942     46945     46947     46943     46942     46945     46948
     46944     46942     46945     46946     46944     46942     46945     46947
     46944     46942     46945     46948     46945     46948     46951     46952
     46945     46948     46951     46953     46945     46948     46951     46954
     46946     46945     46948     46949     46946     46945     46948     46950
     46946     46945     46948     46951     46947     46945     46948     46949
     46947     46945     46948     46950     46947     46945     46948     46951
     46948     46951     46954     46955     46948     46951     46954     46956
     46948     46951     46954     46957     46949     46948     46951     46952
     46949     46948     46951     46953     46949     46948     46951     46954
     46950     46948     46951     46952     46950     46948     46951     46953
     46950     46948     46951     46954     46951     46954     46957     46958
     46951     46954     46957     46959     46951     46954     46957     46962
     46952     46951     46954     46955     46952     46951     46954     46956
     46952     46951     46954     46957     46953     46951     46954     46955
     46953     46951     46954     46956     46953     46951     46954     46957
     46954     46957     46959     46960     46954     46957     46959     46961
     46954     46957     46959     46962     46954     46957     46962     46959
     46954     46957     46962     46963     46954     46957     46962     46964
     46955     46954     46957     46958     46955     46954     46957     46959
     46955     46954     46957     46962     46956     46954     46957     46958
     46956     46954     46957     46959     46956     46954     46957     46962
     46957     46959     46962     46963     46957     46959     46962     46964
     46957     46962     46959     46960     46957     46962     46959     46961
     46957     46962     46964     46965     46957     46962     46964     46966
     46957     46962     46964     46967     46958     46957     46959     46960
     46958     46957     46959     46961     46958     46957     46959     46962
     46958     46957     46962     46959     46958     46957     46962     46963
     46958     46957     46962     46964     46959     46957     46962     46963
     46959     46957     46962     46964     46959     46962     46964     46965
     46959     46962     46964     46966     46959     46962     46964     46967
     46960     46959     46957     46962     46960     46959     46962     46963
     46960     46959     46962     46964     46961     46959     46957     46962
     46961     46959     46962     46963     46961     46959     46962     46964
     46962     46964     46967     46968     46962     46964     46967     46969
     46962     46964     46967     46970     46963     46962     46964     46965
     46963     46962     46964     46966     46963     46962     46964     46967
     46964     46967     46970     46971     46964     46967     46970     46972
     46964     46967     46970     46973     46965     46964     46967     46968
     46965     46964     46967     46969     46965     46964     46967     46970
     46966     46964     46967     46968     46966     46964     46967     46969
     46966     46964     46967     46970     46967     46970     46973     46974
     46967     46970     46973     46975     46967     46970     46973     46976
     46968     46967     46970     46971     46968     46967     46970     46972
     46968     46967     46970     46973     46969     46967     46970     46971
     46969     46967     46970     46972     46969     46967     46970     46973
     46970     46973     46976     46977     46970     46973     46976     46978
     46970     46973     46976     46979     46971     46970     46973     46974
     46971     46970     46973     46975     46971     46970     46973     46976
     46972     46970     46973     46974     46972     46970     46973     46975
     46972     46970     46973     46976     46973     46976     46979     46980
     46973     46976     46979     46981     46973     46976     46979     46982
     46974     46973     46976     46977     46974     46973     46976     46978
     46974     46973     46976     46979     46975     46973     46976     46977
     46975     46973     46976     46978     46975     46973     46976     46979
     46977     46976     46979     46980     46977     46976     46979     46981
     46977     46976     46979     46982     46978     46976     46979     46980
     46978     46976     46979     46981     46978     46976     46979     46982
     46983     46986     46989     46990     46983     46986     46989     46991
     46983     46986     46989     46992     46984     46983     46986     46987
     46984     46983     46986     46988     46984     46983     46986     46989
     46985     46983     46986     46987     46985     46983     46986     46988
     46985     46983     46986     46989     46986     46989     46992     46993
     46986     46989     46992     46994     46986     46989     46992     46995
     46987     46986     46989     46990     46987     46986     46989     46991
     46987     46986     46989     46992     46988     46986     46989     46990
     46988     46986     46989     46991     46988     46986     46989     46992
     46989     46992     46995     46996     46989     46992     46995     46997
     46989     46992     46995     46998     46990     46989     46992     46993
     46990     46989     46992     46994     46990     46989     46992     46995
     46991     46989     46992     46993     46991     46989     46992     46994
     46991     46989     46992     46995     46992     46995     46998     46999
     46992     46995     46998     47000     46992     46995     46998     47001
     46993     46992     46995     46996     46993     46992     46995     46997
     46993     46992     46995     46998     46994     46992     46995     46996
     46994     46992     46995     46997     46994     46992     46995     46998
     46995     46998     47001     47002     46995     46998     47001     47003
     46995     46998     47001     47004     46996     46995     46998     46999
     46996     46995     46998     47000     46996     46995     46998     47001
     46997     46995     46998     46999     46997     46995     46998     47000
     46997     46995     46998     47001     46998     47001     47004     47005
     46998     47001     47004     47006     46998     47001     47004     47007
     46999     46998     47001     47002     46999     46998     47001     47003
     46999     46998     47001     47004     47000     46998     47001     47002
     47000     46998     47001     47003     47000     46998     47001     47004
     47001     47004     47007     47008     47001     47004     47007     47009
     47001     47004     47007     47010     47002     47001     47004     47005
     47002     47001     47004     47006     47002     47001     47004     47007
     47003     47001     47004     47005     47003     47001     47004     47006
     47003     47001     47004     47007     47004     47007     47010     47011
     47004     47007     47010     47012     47004     47007     47010     47013
     47005     47004     47007     47008     47005     47004     47007     47009
     47005     47004     47007     47010     47006     47004     47007     47008
     47006     47004     47007     47009     47006     47004     47007     47010
     47007     47010     47013     47014     47007     47010     47013     47015
     47007     47010     47013     47016     47008     47007     47010     47011
     47008     47007     47010     47012     47008     47007     47010     47013
     47009     47007     47010     47011     47009     47007     47010     47012
     47009     47007     47010     47013     47010     47013     47016     47017
     47010     47013     47016     47018     47010     47013     47016     47019
     47011     47010     47013     47014     47011     47010     47013     47015
     47011     47010     47013     47016     47012     47010     47013     47014
     47012     47010     47013     47015     47012     47010     47013     47016
     47013     47016     47019     47020     47013     47016     47019     47021
     47013     47016     47019     47022     47014     47013     47016     47017
     47014     47013     47016     47018     47014     47013     47016     47019
     47015     47013     47016     47017     47015     47013     47016     47018
     47015     47013     47016     47019     47016     47019     47022     47023
     47016     47019     47022     47024     47016     47019     47022     47025
     47017     47016     47019     47020     47017     47016     47019     47021
     47017     47016     47019     47022     47018     47016     47019     47020
     47018     47016     47019     47021     47018     47016     47019     47022
     47020     47019     47022     47023     47020     47019     47022     47024
     47020     47019     47022     47025     47021     47019     47022     47023
     47021     47019     47022     47024     47021     47019     47022     47025
     47026     47030     47033     47034     47026     47030     47033     47035
     47026     47030     47033     47040     47027     47026     47030     47031
     47027     47026     47030     47032     47027     47026     47030     47033
     47028     47026     47030     47031     47028     47026     47030     47032
     47028     47026     47030     47033     47029     47026     47030     47031
     47029     47026     47030     47032     47029     47026     47030     47033
     47030     47033     47040     47036     47031     47030     47033     47034
     47031     47030     47033     47035     47031     47030     47033     47040
     47032     47030     47033     47034     47032     47030     47033     47035
     47032     47030     47033     47040     47033     47040     47036     47037
     47033     47040     47036     47038     47033     47040     47036     47039
     47034     47033     47040     47036     47035     47033     47040     47036
     47036     47039     47041     47042     47036     47039     47041     47043
     47036     47039     47041     47044     47037     47036     47039     47041
     47038     47036     47039     47041     47039     47041     47044     47045
     47039     47041     47044     47046     47039     47041     47044     47052
     47040     47036     47039     47041     47041     47044     47046     47047
     47041     47044     47052     47053     47041     47044     47052     47054
     47041     47044     47052     47055     47042     47041     47044     47045
     47042     47041     47044     47046     47042     47041     47044     47052
     47043     47041     47044     47045     47043     47041     47044     47046
     47043     47041     47044     47052     47044     47046     47047     47048
     47044     47046     47047     47049     47044     47052     47055     47056
     47045     47044     47046     47047     47045     47044     47052     47053
     47045     47044     47052     47054     47045     47044     47052     47055
     47046     47044     47052     47053     47046     47044     47052     47054
     47046     47044     47052     47055     47046     47047     47049     47050
     47046     47047     47049     47051     47046     47047     47049     47061
     47047     47046     47044     47052     47047     47049     47061     47062
     47047     47049     47061     47063     47047     47049     47061     47064
     47048     47047     47049     47050     47048     47047     47049     47051
     47048     47047     47049     47061     47049     47061     47064     47065
     47049     47061     47064     47066     47049     47061     47064     47067
     47050     47049     47061     47062     47050     47049     47061     47063
     47050     47049     47061     47064     47051     47049     47061     47062
     47051     47049     47061     47063     47051     47049     47061     47064
     47052     47055     47056     47057     47052     47055     47056     47058
     47053     47052     47055     47056     47054     47052     47055     47056
     47055     47056     47058     47059     47055     47056     47058     47060
     47055     47056     47058     47105     47056     47058     47105     47106
     47056     47058     47105     47107     47056     47058     47105     47108
     47057     47056     47058     47059     47057     47056     47058     47060
     47057     47056     47058     47105     47058     47105     47108     47109
     47058     47105     47108     47110     47058     47105     47108     47111
     47059     47058     47105     47106     47059     47058     47105     47107
     47059     47058     47105     47108     47060     47058     47105     47106
     47060     47058     47105     47107     47060     47058     47105     47108
     47061     47064     47067     47068     47061     47064     47067     47069
     47061     47064     47067     47070     47062     47061     47064     47065
     47062     47061     47064     47066     47062     47061     47064     47067
     47063     47061     47064     47065     47063     47061     47064     47066
     47063     47061     47064     47067     47064     47067     47070     47071
     47064     47067     47070     47072     47064     47067     47070     47073
     47065     47064     47067     47068     47065     47064     47067     47069
     47065     47064     47067     47070     47066     47064     47067     47068
     47066     47064     47067     47069     47066     47064     47067     47070
     47067     47070     47073     47074     47067     47070     47073     47075
     47067     47070     47073     47076     47068     47067     47070     47071
     47068     47067     47070     47072     47068     47067     47070     47073
     47069     47067     47070     47071     47069     47067     47070     47072
     47069     47067     47070     47073     47070     47073     47076     47077
     47070     47073     47076     47078     47070     47073     47076     47079
     47071     47070     47073     47074     47071     47070     47073     47075
     47071     47070     47073     47076     47072     47070     47073     47074
     47072     47070     47073     47075     47072     47070     47073     47076
     47073     47076     47079     47080     47073     47076     47079     47081
     47073     47076     47079     47084     47074     47073     47076     47077
     47074     47073     47076     47078     47074     47073     47076     47079
     47075     47073     47076     47077     47075     47073     47076     47078
     47075     47073     47076     47079     47076     47079     47081     47082
     47076     47079     47081     47083     47076     47079     47081     47084
     47076     47079     47084     47081     47076     47079     47084     47085
     47076     47079     47084     47086     47077     47076     47079     47080
     47077     47076     47079     47081     47077     47076     47079     47084
     47078     47076     47079     47080     47078     47076     47079     47081
     47078     47076     47079     47084     47079     47081     47084     47085
     47079     47081     47084     47086     47079     47084     47081     47082
     47079     47084     47081     47083     47079     47084     47086     47087
     47079     47084     47086     47088     47079     47084     47086     47089
     47080     47079     47081     47082     47080     47079     47081     47083
     47080     47079     47081     47084     47080     47079     47084     47081
     47080     47079     47084     47085     47080     47079     47084     47086
     47081     47079     47084     47085     47081     47079     47084     47086
     47081     47084     47086     47087     47081     47084     47086     47088
     47081     47084     47086     47089     47082     47081     47079     47084
     47082     47081     47084     47085     47082     47081     47084     47086
     47083     47081     47079     47084     47083     47081     47084     47085
     47083     47081     47084     47086     47084     47086     47089     47090
     47084     47086     47089     47091     47084     47086     47089     47092
     47085     47084     47086     47087     47085     47084     47086     47088
     47085     47084     47086     47089     47086     47089     47092     47093
     47086     47089     47092     47094     47086     47089     47092     47095
     47087     47086     47089     47090     47087     47086     47089     47091
     47087     47086     47089     47092     47088     47086     47089     47090
     47088     47086     47089     47091     47088     47086     47089     47092
     47089     47092     47095     47096     47089     47092     47095     47097
     47089     47092     47095     47098     47090     47089     47092     47093
     47090     47089     47092     47094     47090     47089     47092     47095
     47091     47089     47092     47093     47091     47089     47092     47094
     47091     47089     47092     47095     47092     47095     47098     47099
     47092     47095     47098     47100     47092     47095     47098     47101
     47093     47092     47095     47096     47093     47092     47095     47097
     47093     47092     47095     47098     47094     47092     47095     47096
     47094     47092     47095     47097     47094     47092     47095     47098
     47095     47098     47101     47102     47095     47098     47101     47103
     47095     47098     47101     47104     47096     47095     47098     47099
     47096     47095     47098     47100     47096     47095     47098     47101
     47097     47095     47098     47099     47097     47095     47098     47100
     47097     47095     47098     47101     47099     47098     47101     47102
     47099     47098     47101     47103     47099     47098     47101     47104
     47100     47098     47101     47102     47100     47098     47101     47103
     47100     47098     47101     47104     47105     47108     47111     47112
     47105     47108     47111     47113     47105     47108     47111     47114
     47106     47105     47108     47109     47106     47105     47108     47110
     47106     47105     47108     47111     47107     47105     47108     47109
     47107     47105     47108     47110     47107     47105     47108     47111
     47108     47111     47114     47115     47108     47111     47114     47116
     47108     47111     47114     47117     47109     47108     47111     47112
     47109     47108     47111     47113     47109     47108     47111     47114
     47110     47108     47111     47112     47110     47108     47111     47113
     47110     47108     47111     47114     47111     47114     47117     47118
     47111     47114     47117     47119     47111     47114     47117     47120
     47112     47111     47114     47115     47112     47111     47114     47116
     47112     47111     47114     47117     47113     47111     47114     47115
     47113     47111     47114     47116     47113     47111     47114     47117
     47114     47117     47120     47121     47114     47117     47120     47122
     47114     47117     47120     47123     47115     47114     47117     47118
     47115     47114     47117     47119     47115     47114     47117     47120
     47116     47114     47117     47118     47116     47114     47117     47119
     47116     47114     47117     47120     47117     47120     47123     47124
     47117     47120     47123     47125     47117     47120     47123     47126
     47118     47117     47120     47121     47118     47117     47120     47122
     47118     47117     47120     47123     47119     47117     47120     47121
     47119     47117     47120     47122     47119     47117     47120     47123
     47120     47123     47126     47127     47120     47123     47126     47128
     47120     47123     47126     47129     47121     47120     47123     47124
     47121     47120     47123     47125     47121     47120     47123     47126
     47122     47120     47123     47124     47122     47120     47123     47125
     47122     47120     47123     47126     47123     47126     47129     47130
     47123     47126     47129     47131     47123     47126     47129     47132
     47124     47123     47126     47127     47124     47123     47126     47128
     47124     47123     47126     47129     47125     47123     47126     47127
     47125     47123     47126     47128     47125     47123     47126     47129
     47126     47129     47132     47133     47126     47129     47132     47134
     47126     47129     47132     47135     47127     47126     47129     47130
     47127     47126     47129     47131     47127     47126     47129     47132
     47128     47126     47129     47130     47128     47126     47129     47131
     47128     47126     47129     47132     47129     47132     47135     47136
     47129     47132     47135     47137     47129     47132     47135     47138
     47130     47129     47132     47133     47130     47129     47132     47134
     47130     47129     47132     47135     47131     47129     47132     47133
     47131     47129     47132     47134     47131     47129     47132     47135
     47132     47135     47138     47139     47132     47135     47138     47140
     47132     47135     47138     47141     47133     47132     47135     47136
     47133     47132     47135     47137     47133     47132     47135     47138
     47134     47132     47135     47136     47134     47132     47135     47137
     47134     47132     47135     47138     47135     47138     47141     47142
     47135     47138     47141     47143     47135     47138     47141     47144
     47136     47135     47138     47139     47136     47135     47138     47140
     47136     47135     47138     47141     47137     47135     47138     47139
     47137     47135     47138     47140     47137     47135     47138     47141
     47138     47141     47144     47145     47138     47141     47144     47146
     47138     47141     47144     47147     47139     47138     47141     47142
     47139     47138     47141     47143     47139     47138     47141     47144
     47140     47138     47141     47142     47140     47138     47141     47143
     47140     47138     47141     47144     47142     47141     47144     47145
     47142     47141     47144     47146     47142     47141     47144     47147
     47143     47141     47144     47145     47143     47141     47144     47146
     47143     47141     47144     47147     47148     47152     47155     47156
     47148     47152     47155     47157     47148     47152     47155     47162
     47149     47148     47152     47153     47149     47148     47152     47154
     47149     47148     47152     47155     47150     47148     47152     47153
     47150     47148     47152     47154     47150     47148     47152     47155
     47151     47148     47152     47153     47151     47148     47152     47154
     47151     47148     47152     47155     47152     47155     47162     47158
     47153     47152     47155     47156     47153     47152     47155     47157
     47153     47152     47155     47162     47154     47152     47155     47156
     47154     47152     47155     47157     47154     47152     47155     47162
     47155     47162     47158     47159     47155     47162     47158     47160
     47155     47162     47158     47161     47156     47155     47162     47158
     47157     47155     47162     47158     47158     47161     47163     47164
     47158     47161     47163     47165     47158     47161     47163     47166
     47159     47158     47161     47163     47160     47158     47161     47163
     47161     47163     47166     47167     47161     47163     47166     47168
     47161     47163     47166     47174     47162     47158     47161     47163
     47163     47166     47168     47169     47163     47166     47174     47175
     47163     47166     47174     47176     47163     47166     47174     47177
     47164     47163     47166     47167     47164     47163     47166     47168
     47164     47163     47166     47174     47165     47163     47166     47167
     47165     47163     47166     47168     47165     47163     47166     47174
     47166     47168     47169     47170     47166     47168     47169     47171
     47166     47174     47177     47178     47167     47166     47168     47169
     47167     47166     47174     47175     47167     47166     47174     47176
     47167     47166     47174     47177     47168     47166     47174     47175
     47168     47166     47174     47176     47168     47166     47174     47177
     47168     47169     47171     47172     47168     47169     47171     47173
     47168     47169     47171     47183     47169     47168     47166     47174
     47169     47171     47183     47184     47169     47171     47183     47185
     47169     47171     47183     47186     47170     47169     47171     47172
     47170     47169     47171     47173     47170     47169     47171     47183
     47171     47183     47186     47187     47171     47183     47186     47188
     47171     47183     47186     47189     47172     47171     47183     47184
     47172     47171     47183     47185     47172     47171     47183     47186
     47173     47171     47183     47184     47173     47171     47183     47185
     47173     47171     47183     47186     47174     47177     47178     47179
     47174     47177     47178     47180     47175     47174     47177     47178
     47176     47174     47177     47178     47177     47178     47180     47181
     47177     47178     47180     47182     47177     47178     47180     47230
     47178     47180     47230     47231     47178     47180     47230     47232
     47178     47180     47230     47233     47179     47178     47180     47181
     47179     47178     47180     47182     47179     47178     47180     47230
     47180     47230     47233     47234     47180     47230     47233     47235
     47180     47230     47233     47236     47181     47180     47230     47231
     47181     47180     47230     47232     47181     47180     47230     47233
     47182     47180     47230     47231     47182     47180     47230     47232
     47182     47180     47230     47233     47183     47186     47189     47190
     47183     47186     47189     47191     47183     47186     47189     47192
     47184     47183     47186     47187     47184     47183     47186     47188
     47184     47183     47186     47189     47185     47183     47186     47187
     47185     47183     47186     47188     47185     47183     47186     47189
     47186     47189     47192     47193     47186     47189     47192     47194
     47186     47189     47192     47195     47187     47186     47189     47190
     47187     47186     47189     47191     47187     47186     47189     47192
     47188     47186     47189     47190     47188     47186     47189     47191
     47188     47186     47189     47192     47189     47192     47195     47196
     47189     47192     47195     47197     47189     47192     47195     47198
     47190     47189     47192     47193     47190     47189     47192     47194
     47190     47189     47192     47195     47191     47189     47192     47193
     47191     47189     47192     47194     47191     47189     47192     47195
     47192     47195     47198     47199     47192     47195     47198     47200
     47192     47195     47198     47201     47193     47192     47195     47196
     47193     47192     47195     47197     47193     47192     47195     47198
     47194     47192     47195     47196     47194     47192     47195     47197
     47194     47192     47195     47198     47195     47198     47201     47202
     47195     47198     47201     47203     47196     47195     47198     47199
     47196     47195     47198     47200     47196     47195     47198     47201
     47197     47195     47198     47199     47197     47195     47198     47200
     47197     47195     47198     47201     47198     47201     47203     47204
     47198     47201     47203     47205     47199     47198     47201     47202
     47199     47198     47201     47203     47200     47198     47201     47202
     47200     47198     47201     47203     47201     47203     47205     47206
     47201     47203     47205     47207     47201     47203     47205     47208
     47202     47201     47203     47204     47202     47201     47203     47205
     47203     47205     47208     47209     47203     47205     47208     47210
     47203     47205     47208     47211     47204     47203     47205     47206
     47204     47203     47205     47207     47204     47203     47205     47208
     47205     47208     47211     47212     47205     47208     47211     47213
     47205     47208     47211     47214     47206     47205     47208     47209
     47206     47205     47208     47210     47206     47205     47208     47211
     47207     47205     47208     47209     47207     47205     47208     47210
     47207     47205     47208     47211     47208     47211     47214     47215
     47208     47211     47214     47216     47208     47211     47214     47217
     47209     47208     47211     47212     47209     47208     47211     47213
     47209     47208     47211     47214     47210     47208     47211     47212
     47210     47208     47211     47213     47210     47208     47211     47214
     47211     47214     47217     47218     47211     47214     47217     47219
     47211     47214     47217     47220     47212     47211     47214     47215
     47212     47211     47214     47216     47212     47211     47214     47217
     47213     47211     47214     47215     47213     47211     47214     47216
     47213     47211     47214     47217     47214     47217     47220     47221
     47214     47217     47220     47222     47214     47217     47220     47223
     47215     47214     47217     47218     47215     47214     47217     47219
     47215     47214     47217     47220     47216     47214     47217     47218
     47216     47214     47217     47219     47216     47214     47217     47220
     47217     47220     47223     47224     47217     47220     47223     47225
     47217     47220     47223     47226     47218     47217     47220     47221
     47218     47217     47220     47222     47218     47217     47220     47223
     47219     47217     47220     47221     47219     47217     47220     47222
     47219     47217     47220     47223     47220     47223     47226     47227
     47220     47223     47226     47228     47220     47223     47226     47229
     47221     47220     47223     47224     47221     47220     47223     47225
     47221     47220     47223     47226     47222     47220     47223     47224
     47222     47220     47223     47225     47222     47220     47223     47226
     47224     47223     47226     47227     47224     47223     47226     47228
     47224     47223     47226     47229     47225     47223     47226     47227
     47225     47223     47226     47228     47225     47223     47226     47229
     47230     47233     47236     47237     47230     47233     47236     47238
     47230     47233     47236     47239     47231     47230     47233     47234
     47231     47230     47233     47235     47231     47230     47233     47236
     47232     47230     47233     47234     47232     47230     47233     47235
     47232     47230     47233     47236     47233     47236     47239     47240
     47233     47236     47239     47241     47233     47236     47239     47242
     47234     47233     47236     47237     47234     47233     47236     47238
     47234     47233     47236     47239     47235     47233     47236     47237
     47235     47233     47236     47238     47235     47233     47236     47239
     47236     47239     47242     47243     47236     47239     47242     47244
     47236     47239     47242     47245     47237     47236     47239     47240
     47237     47236     47239     47241     47237     47236     47239     47242
     47238     47236     47239     47240     47238     47236     47239     47241
     47238     47236     47239     47242     47239     47242     47245     47246
     47239     47242     47245     47247     47239     47242     47245     47248
     47240     47239     47242     47243     47240     47239     47242     47244
     47240     47239     47242     47245     47241     47239     47242     47243
     47241     47239     47242     47244     47241     47239     47242     47245
     47242     47245     47248     47249     47242     47245     47248     47250
     47242     47245     47248     47251     47243     47242     47245     47246
     47243     47242     47245     47247     47243     47242     47245     47248
     47244     47242     47245     47246     47244     47242     47245     47247
     47244     47242     47245     47248     47245     47248     47251     47252
     47245     47248     47251     47253     47245     47248     47251     47254
     47246     47245     47248     47249     47246     47245     47248     47250
     47246     47245     47248     47251     47247     47245     47248     47249
     47247     47245     47248     47250     47247     47245     47248     47251
     47248     47251     47254     47255     47248     47251     47254     47256
     47248     47251     47254     47257     47249     47248     47251     47252
     47249     47248     47251     47253     47249     47248     47251     47254
     47250     47248     47251     47252     47250     47248     47251     47253
     47250     47248     47251     47254     47251     47254     47257     47258
     47251     47254     47257     47259     47251     47254     47257     47260
     47252     47251     47254     47255     47252     47251     47254     47256
     47252     47251     47254     47257     47253     47251     47254     47255
     47253     47251     47254     47256     47253     47251     47254     47257
     47254     47257     47260     47261     47254     47257     47260     47262
     47254     47257     47260     47263     47255     47254     47257     47258
     47255     47254     47257     47259     47255     47254     47257     47260
     47256     47254     47257     47258     47256     47254     47257     47259
     47256     47254     47257     47260     47257     47260     47263     47264
     47257     47260     47263     47265     47257     47260     47263     47266
     47258     47257     47260     47261     47258     47257     47260     47262
     47258     47257     47260     47263     47259     47257     47260     47261
     47259     47257     47260     47262     47259     47257     47260     47263
     47260     47263     47266     47267     47260     47263     47266     47268
     47260     47263     47266     47269     47261     47260     47263     47264
     47261     47260     47263     47265     47261     47260     47263     47266
     47262     47260     47263     47264     47262     47260     47263     47265
     47262     47260     47263     47266     47263     47266     47269     47270
     47263     47266     47269     47271     47263     47266     47269     47272
     47264     47263     47266     47267     47264     47263     47266     47268
     47264     47263     47266     47269     47265     47263     47266     47267
     47265     47263     47266     47268     47265     47263     47266     47269
     47267     47266     47269     47270     47267     47266     47269     47271
     47267     47266     47269     47272     47268     47266     47269     47270
     47268     47266     47269     47271     47268     47266     47269     47272
     47273     47277     47280     47281     47273     47277     47280     47282
     47273     47277     47280     47287     47274     47273     47277     47278
     47274     47273     47277     47279     47274     47273     47277     47280
     47275     47273     47277     47278     47275     47273     47277     47279
     47275     47273     47277     47280     47276     47273     47277     47278
     47276     47273     47277     47279     47276     47273     47277     47280
     47277     47280     47287     47283     47278     47277     47280     47281
     47278     47277     47280     47282     47278     47277     47280     47287
     47279     47277     47280     47281     47279     47277     47280     47282
     47279     47277     47280     47287     47280     47287     47283     47284
     47280     47287     47283     47285     47280     47287     47283     47286
     47281     47280     47287     47283     47282     47280     47287     47283
     47283     47286     47288     47289     47283     47286     47288     47290
     47283     47286     47288     47291     47284     47283     47286     47288
     47285     47283     47286     47288     47286     47288     47291     47292
     47286     47288     47291     47293     47286     47288     47291     47299
     47287     47283     47286     47288     47288     47291     47293     47294
     47288     47291     47299     47300     47288     47291     47299     47301
     47288     47291     47299     47302     47289     47288     47291     47292
     47289     47288     47291     47293     47289     47288     47291     47299
     47290     47288     47291     47292     47290     47288     47291     47293
     47290     47288     47291     47299     47291     47293     47294     47295
     47291     47293     47294     47296     47291     47299     47302     47303
     47292     47291     47293     47294     47292     47291     47299     47300
     47292     47291     47299     47301     47292     47291     47299     47302
     47293     47291     47299     47300     47293     47291     47299     47301
     47293     47291     47299     47302     47293     47294     47296     47297
     47293     47294     47296     47298     47293     47294     47296     47308
     47294     47293     47291     47299     47294     47296     47308     47309
     47294     47296     47308     47310     47294     47296     47308     47311
     47295     47294     47296     47297     47295     47294     47296     47298
     47295     47294     47296     47308     47296     47308     47311     47312
     47296     47308     47311     47313     47296     47308     47311     47314
     47297     47296     47308     47309     47297     47296     47308     47310
     47297     47296     47308     47311     47298     47296     47308     47309
     47298     47296     47308     47310     47298     47296     47308     47311
     47299     47302     47303     47304     47299     47302     47303     47305
     47300     47299     47302     47303     47301     47299     47302     47303
     47302     47303     47305     47306     47302     47303     47305     47307
     47302     47303     47305     47352     47303     47305     47352     47353
     47303     47305     47352     47354     47303     47305     47352     47355
     47304     47303     47305     47306     47304     47303     47305     47307
     47304     47303     47305     47352     47305     47352     47355     47356
     47305     47352     47355     47357     47305     47352     47355     47358
     47306     47305     47352     47353     47306     47305     47352     47354
     47306     47305     47352     47355     47307     47305     47352     47353
     47307     47305     47352     47354     47307     47305     47352     47355
     47308     47311     47314     47315     47308     47311     47314     47316
     47308     47311     47314     47317     47309     47308     47311     47312
     47309     47308     47311     47313     47309     47308     47311     47314
     47310     47308     47311     47312     47310     47308     47311     47313
     47310     47308     47311     47314     47311     47314     47317     47318
     47311     47314     47317     47319     47311     47314     47317     47320
     47312     47311     47314     47315     47312     47311     47314     47316
     47312     47311     47314     47317     47313     47311     47314     47315
     47313     47311     47314     47316     47313     47311     47314     47317
     47314     47317     47320     47321     47314     47317     47320     47322
     47314     47317     47320     47323     47315     47314     47317     47318
     47315     47314     47317     47319     47315     47314     47317     47320
     47316     47314     47317     47318     47316     47314     47317     47319
     47316     47314     47317     47320     47317     47320     47323     47324
     47317     47320     47323     47325     47317     47320     47323     47326
     47318     47317     47320     47321     47318     47317     47320     47322
     47318     47317     47320     47323     47319     47317     47320     47321
     47319     47317     47320     47322     47319     47317     47320     47323
     47320     47323     47326     47327     47320     47323     47326     47328
     47320     47323     47326     47331     47321     47320     47323     47324
     47321     47320     47323     47325     47321     47320     47323     47326
     47322     47320     47323     47324     47322     47320     47323     47325
     47322     47320     47323     47326     47323     47326     47328     47329
     47323     47326     47328     47330     47323     47326     47328     47331
     47323     47326     47331     47328     47323     47326     47331     47332
     47323     47326     47331     47333     47324     47323     47326     47327
     47324     47323     47326     47328     47324     47323     47326     47331
     47325     47323     47326     47327     47325     47323     47326     47328
     47325     47323     47326     47331     47326     47328     47331     47332
     47326     47328     47331     47333     47326     47331     47328     47329
     47326     47331     47328     47330     47326     47331     47333     47334
     47326     47331     47333     47335     47326     47331     47333     47336
     47327     47326     47328     47329     47327     47326     47328     47330
     47327     47326     47328     47331     47327     47326     47331     47328
     47327     47326     47331     47332     47327     47326     47331     47333
     47328     47326     47331     47332     47328     47326     47331     47333
     47328     47331     47333     47334     47328     47331     47333     47335
     47328     47331     47333     47336     47329     47328     47326     47331
     47329     47328     47331     47332     47329     47328     47331     47333
     47330     47328     47326     47331     47330     47328     47331     47332
     47330     47328     47331     47333     47331     47333     47336     47337
     47331     47333     47336     47338     47331     47333     47336     47339
     47332     47331     47333     47334     47332     47331     47333     47335
     47332     47331     47333     47336     47333     47336     47339     47340
     47333     47336     47339     47341     47333     47336     47339     47342
     47334     47333     47336     47337     47334     47333     47336     47338
     47334     47333     47336     47339     47335     47333     47336     47337
     47335     47333     47336     47338     47335     47333     47336     47339
     47336     47339     47342     47343     47336     47339     47342     47344
     47336     47339     47342     47345     47337     47336     47339     47340
     47337     47336     47339     47341     47337     47336     47339     47342
     47338     47336     47339     47340     47338     47336     47339     47341
     47338     47336     47339     47342     47339     47342     47345     47346
     47339     47342     47345     47347     47339     47342     47345     47348
     47340     47339     47342     47343     47340     47339     47342     47344
     47340     47339     47342     47345     47341     47339     47342     47343
     47341     47339     47342     47344     47341     47339     47342     47345
     47342     47345     47348     47349     47342     47345     47348     47350
     47342     47345     47348     47351     47343     47342     47345     47346
     47343     47342     47345     47347     47343     47342     47345     47348
     47344     47342     47345     47346     47344     47342     47345     47347
     47344     47342     47345     47348     47346     47345     47348     47349
     47346     47345     47348     47350     47346     47345     47348     47351
     47347     47345     47348     47349     47347     47345     47348     47350
     47347     47345     47348     47351     47352     47355     47358     47359
     47352     47355     47358     47360     47352     47355     47358     47361
     47353     47352     47355     47356     47353     47352     47355     47357
     47353     47352     47355     47358     47354     47352     47355     47356
     47354     47352     47355     47357     47354     47352     47355     47358
     47355     47358     47361     47362     47355     47358     47361     47363
     47355     47358     47361     47364     47356     47355     47358     47359
     47356     47355     47358     47360     47356     47355     47358     47361
     47357     47355     47358     47359     47357     47355     47358     47360
     47357     47355     47358     47361     47358     47361     47364     47365
     47358     47361     47364     47366     47358     47361     47364     47367
     47359     47358     47361     47362     47359     47358     47361     47363
     47359     47358     47361     47364     47360     47358     47361     47362
     47360     47358     47361     47363     47360     47358     47361     47364
     47361     47364     47367     47368     47361     47364     47367     47369
     47361     47364     47367     47370     47362     47361     47364     47365
     47362     47361     47364     47366     47362     47361     47364     47367
     47363     47361     47364     47365     47363     47361     47364     47366
     47363     47361     47364     47367     47364     47367     47370     47371
     47364     47367     47370     47372     47364     47367     47370     47373
     47365     47364     47367     47368     47365     47364     47367     47369
     47365     47364     47367     47370     47366     47364     47367     47368
     47366     47364     47367     47369     47366     47364     47367     47370
     47367     47370     47373     47374     47367     47370     47373     47375
     47367     47370     47373     47376     47368     47367     47370     47371
     47368     47367     47370     47372     47368     47367     47370     47373
     47369     47367     47370     47371     47369     47367     47370     47372
     47369     47367     47370     47373     47370     47373     47376     47377
     47370     47373     47376     47378     47370     47373     47376     47379
     47371     47370     47373     47374     47371     47370     47373     47375
     47371     47370     47373     47376     47372     47370     47373     47374
     47372     47370     47373     47375     47372     47370     47373     47376
     47373     47376     47379     47380     47373     47376     47379     47381
     47373     47376     47379     47382     47374     47373     47376     47377
     47374     47373     47376     47378     47374     47373     47376     47379
     47375     47373     47376     47377     47375     47373     47376     47378
     47375     47373     47376     47379     47376     47379     47382     47383
     47376     47379     47382     47384     47376     47379     47382     47385
     47377     47376     47379     47380     47377     47376     47379     47381
     47377     47376     47379     47382     47378     47376     47379     47380
     47378     47376     47379     47381     47378     47376     47379     47382
     47379     47382     47385     47386     47379     47382     47385     47387
     47379     47382     47385     47388     47380     47379     47382     47383
     47380     47379     47382     47384     47380     47379     47382     47385
     47381     47379     47382     47383     47381     47379     47382     47384
     47381     47379     47382     47385     47382     47385     47388     47389
     47382     47385     47388     47390     47382     47385     47388     47391
     47383     47382     47385     47386     47383     47382     47385     47387
     47383     47382     47385     47388     47384     47382     47385     47386
     47384     47382     47385     47387     47384     47382     47385     47388
     47385     47388     47391     47392     47385     47388     47391     47393
     47385     47388     47391     47394     47386     47385     47388     47389
     47386     47385     47388     47390     47386     47385     47388     47391
     47387     47385     47388     47389     47387     47385     47388     47390
     47387     47385     47388     47391     47389     47388     47391     47392
     47389     47388     47391     47393     47389     47388     47391     47394
     47390     47388     47391     47392     47390     47388     47391     47393
     47390     47388     47391     47394     47395     47401     47398     47399
     47395     47401     47398     47400     47395     47401     47398     47402
     47395     47406     47408     47409     47395     47406     47410     47411
     47395     47406     47410     47412     47395     47406     47410     47416
     47396     47395     47401     47398     47396     47395     47406     47407
     47396     47395     47406     47408     47396     47395     47406     47410
     47397     47395     47401     47398     47397     47395     47406     47407
     47397     47395     47406     47408     47397     47395     47406     47410
     47398     47401     47395     47406     47398     47402     47403     47404
     47398     47402     47403     47405     47398     47402     47403     47438
     47399     47398     47402     47403     47400     47398     47402     47403
     47401     47395     47406     47407     47401     47395     47406     47408
     47401     47395     47406     47410     47401     47398     47402     47403
     47402     47403     47438     47439     47402     47403     47438     47440
     47402     47403     47438     47446     47403     47438     47440     47441
     47403     47438     47446     47447     47403     47438     47446     47448
     47403     47438     47446     47449     47404     47403     47438     47439
     47404     47403     47438     47440     47404     47403     47438     47446
     47405     47403     47438     47439     47405     47403     47438     47440
     47405     47403     47438     47446     47406     47410     47416     47413
     47407     47406     47408     47409     47407     47406     47410     47411
     47407     47406     47410     47412     47407     47406     47410     47416
     47408     47406     47410     47411     47408     47406     47410     47412
     47408     47406     47410     47416     47409     47408     47406     47410
     47410     47416     47413     47414     47410     47416     47413     47415
     47410     47416     47413     47417     47411     47410     47416     47413
     47412     47410     47416     47413     47413     47417     47418     47419
     47413     47417     47418     47420     47413     47417     47418     47421
     47414     47413     47417     47418     47415     47413     47417     47418
     47416     47413     47417     47418     47417     47418     47421     47422
     47417     47418     47421     47423     47417     47418     47421     47429
     47418     47421     47423     47424     47418     47421     47429     47430
     47418     47421     47429     47431     47418     47421     47429     47432
     47419     47418     47421     47422     47419     47418     47421     47423
     47419     47418     47421     47429     47420     47418     47421     47422
     47420     47418     47421     47423     47420     47418     47421     47429
     47421     47423     47424     47425     47421     47423     47424     47426
     47421     47429     47432     47433     47422     47421     47423     47424
     47422     47421     47429     47430     47422     47421     47429     47431
     47422     47421     47429     47432     47423     47421     47429     47430
     47423     47421     47429     47431     47423     47421     47429     47432
     47423     47424     47426     47427     47423     47424     47426     47428
     47423     47424     47426     47455     47424     47423     47421     47429
     47424     47426     47455     47456     47424     47426     47455     47457
     47424     47426     47455     47458     47425     47424     47426     47427
     47425     47424     47426     47428     47425     47424     47426     47455
     47426     47455     47458     47459     47426     47455     47458     47460
     47426     47455     47458     47461     47427     47426     47455     47456
     47427     47426     47455     47457     47427     47426     47455     47458
     47428     47426     47455     47456     47428     47426     47455     47457
     47428     47426     47455     47458     47429     47432     47433     47434
     47429     47432     47433     47435     47430     47429     47432     47433
     47431     47429     47432     47433     47432     47433     47435     47436
     47432     47433     47435     47437     47432     47433     47435     47502
     47433     47435     47502     47503     47433     47435     47502     47504
     47433     47435     47502     47505     47434     47433     47435     47436
     47434     47433     47435     47437     47434     47433     47435     47502
     47435     47502     47505     47506     47435     47502     47505     47507
     47435     47502     47505     47508     47436     47435     47502     47503
     47436     47435     47502     47504     47436     47435     47502     47505
     47437     47435     47502     47503     47437     47435     47502     47504
     47437     47435     47502     47505     47438     47440     47441     47442
     47438     47440     47441     47443     47438     47446     47449     47450
     47439     47438     47440     47441     47439     47438     47446     47447
     47439     47438     47446     47448     47439     47438     47446     47449
     47440     47438     47446     47447     47440     47438     47446     47448
     47440     47438     47446     47449     47440     47441     47443     47444
     47440     47441     47443     47445     47440     47441     47443     47545
     47441     47440     47438     47446     47441     47443     47545     47546
     47441     47443     47545     47547     47441     47443     47545     47548
     47442     47441     47443     47444     47442     47441     47443     47445
     47442     47441     47443     47545     47443     47545     47548     47549
     47443     47545     47548     47550     47443     47545     47548     47551
     47444     47443     47545     47546     47444     47443     47545     47547
     47444     47443     47545     47548     47445     47443     47545     47546
     47445     47443     47545     47547     47445     47443     47545     47548
     47446     47449     47450     47451     47446     47449     47450     47452
     47447     47446     47449     47450     47448     47446     47449     47450
     47449     47450     47452     47453     47449     47450     47452     47454
     47449     47450     47452     47592     47450     47452     47592     47593
     47450     47452     47592     47594     47450     47452     47592     47595
     47451     47450     47452     47453     47451     47450     47452     47454
     47451     47450     47452     47592     47452     47592     47595     47596
     47452     47592     47595     47597     47452     47592     47595     47598
     47453     47452     47592     47593     47453     47452     47592     47594
     47453     47452     47592     47595     47454     47452     47592     47593
     47454     47452     47592     47594     47454     47452     47592     47595
     47455     47458     47461     47462     47455     47458     47461     47463
     47455     47458     47461     47464     47456     47455     47458     47459
     47456     47455     47458     47460     47456     47455     47458     47461
     47457     47455     47458     47459     47457     47455     47458     47460
     47457     47455     47458     47461     47458     47461     47464     47465
     47458     47461     47464     47466     47458     47461     47464     47467
     47459     47458     47461     47462     47459     47458     47461     47463
     47459     47458     47461     47464     47460     47458     47461     47462
     47460     47458     47461     47463     47460     47458     47461     47464
     47461     47464     47467     47468     47461     47464     47467     47469
     47461     47464     47467     47470     47462     47461     47464     47465
     47462     47461     47464     47466     47462     47461     47464     47467
     47463     47461     47464     47465     47463     47461     47464     47466
     47463     47461     47464     47467     47464     47467     47470     47471
     47464     47467     47470     47472     47464     47467     47470     47473
     47465     47464     47467     47468     47465     47464     47467     47469
     47465     47464     47467     47470     47466     47464     47467     47468
     47466     47464     47467     47469     47466     47464     47467     47470
     47467     47470     47473     47474     47467     47470     47473     47475
     47467     47470     47473     47476     47468     47467     47470     47471
     47468     47467     47470     47472     47468     47467     47470     47473
     47469     47467     47470     47471     47469     47467     47470     47472
     47469     47467     47470     47473     47470     47473     47476     47477
     47470     47473     47476     47478     47470     47473     47476     47479
     47471     47470     47473     47474     47471     47470     47473     47475
     47471     47470     47473     47476     47472     47470     47473     47474
     47472     47470     47473     47475     47472     47470     47473     47476
     47473     47476     47479     47480     47473     47476     47479     47481
     47474     47473     47476     47477     47474     47473     47476     47478
     47474     47473     47476     47479     47475     47473     47476     47477
     47475     47473     47476     47478     47475     47473     47476     47479
     47476     47479     47481     47482     47476     47479     47481     47483
     47477     47476     47479     47480     47477     47476     47479     47481
     47478     47476     47479     47480     47478     47476     47479     47481
     47479     47481     47483     47484     47479     47481     47483     47485
     47479     47481     47483     47486     47480     47479     47481     47482
     47480     47479     47481     47483     47481     47483     47486     47487
     47481     47483     47486     47488     47481     47483     47486     47489
     47482     47481     47483     47484     47482     47481     47483     47485
     47482     47481     47483     47486     47483     47486     47489     47490
     47483     47486     47489     47491     47483     47486     47489     47492
     47484     47483     47486     47487     47484     47483     47486     47488
     47484     47483     47486     47489     47485     47483     47486     47487
     47485     47483     47486     47488     47485     47483     47486     47489
     47486     47489     47492     47493     47486     47489     47492     47494
     47486     47489     47492     47495     47487     47486     47489     47490
     47487     47486     47489     47491     47487     47486     47489     47492
     47488     47486     47489     47490     47488     47486     47489     47491
     47488     47486     47489     47492     47489     47492     47495     47496
     47489     47492     47495     47497     47489     47492     47495     47498
     47490     47489     47492     47493     47490     47489     47492     47494
     47490     47489     47492     47495     47491     47489     47492     47493
     47491     47489     47492     47494     47491     47489     47492     47495
     47492     47495     47498     47499     47492     47495     47498     47500
     47492     47495     47498     47501     47493     47492     47495     47496
     47493     47492     47495     47497     47493     47492     47495     47498
     47494     47492     47495     47496     47494     47492     47495     47497
     47494     47492     47495     47498     47496     47495     47498     47499
     47496     47495     47498     47500     47496     47495     47498     47501
     47497     47495     47498     47499     47497     47495     47498     47500
     47497     47495     47498     47501     47502     47505     47508     47509
     47502     47505     47508     47510     47502     47505     47508     47511
     47503     47502     47505     47506     47503     47502     47505     47507
     47503     47502     47505     47508     47504     47502     47505     47506
     47504     47502     47505     47507     47504     47502     47505     47508
     47505     47508     47511     47512     47505     47508     47511     47513
     47505     47508     47511     47514     47506     47505     47508     47509
     47506     47505     47508     47510     47506     47505     47508     47511
     47507     47505     47508     47509     47507     47505     47508     47510
     47507     47505     47508     47511     47508     47511     47514     47515
     47508     47511     47514     47516     47508     47511     47514     47517
     47509     47508     47511     47512     47509     47508     47511     47513
     47509     47508     47511     47514     47510     47508     47511     47512
     47510     47508     47511     47513     47510     47508     47511     47514
     47511     47514     47517     47518     47511     47514     47517     47519
     47511     47514     47517     47520     47512     47511     47514     47515
     47512     47511     47514     47516     47512     47511     47514     47517
     47513     47511     47514     47515     47513     47511     47514     47516
     47513     47511     47514     47517     47514     47517     47520     47521
     47514     47517     47520     47522     47514     47517     47520     47523
     47515     47514     47517     47518     47515     47514     47517     47519
     47515     47514     47517     47520     47516     47514     47517     47518
     47516     47514     47517     47519     47516     47514     47517     47520
     47517     47520     47523     47524     47517     47520     47523     47525
     47517     47520     47523     47526     47518     47517     47520     47521
     47518     47517     47520     47522     47518     47517     47520     47523
     47519     47517     47520     47521     47519     47517     47520     47522
     47519     47517     47520     47523     47520     47523     47526     47527
     47520     47523     47526     47528     47520     47523     47526     47529
     47521     47520     47523     47524     47521     47520     47523     47525
     47521     47520     47523     47526     47522     47520     47523     47524
     47522     47520     47523     47525     47522     47520     47523     47526
     47523     47526     47529     47530     47523     47526     47529     47531
     47523     47526     47529     47532     47524     47523     47526     47527
     47524     47523     47526     47528     47524     47523     47526     47529
     47525     47523     47526     47527     47525     47523     47526     47528
     47525     47523     47526     47529     47526     47529     47532     47533
     47526     47529     47532     47534     47526     47529     47532     47535
     47527     47526     47529     47530     47527     47526     47529     47531
     47527     47526     47529     47532     47528     47526     47529     47530
     47528     47526     47529     47531     47528     47526     47529     47532
     47529     47532     47535     47536     47529     47532     47535     47537
     47529     47532     47535     47538     47530     47529     47532     47533
     47530     47529     47532     47534     47530     47529     47532     47535
     47531     47529     47532     47533     47531     47529     47532     47534
     47531     47529     47532     47535     47532     47535     47538     47539
     47532     47535     47538     47540     47532     47535     47538     47541
     47533     47532     47535     47536     47533     47532     47535     47537
     47533     47532     47535     47538     47534     47532     47535     47536
     47534     47532     47535     47537     47534     47532     47535     47538
     47535     47538     47541     47542     47535     47538     47541     47543
     47535     47538     47541     47544     47536     47535     47538     47539
     47536     47535     47538     47540     47536     47535     47538     47541
     47537     47535     47538     47539     47537     47535     47538     47540
     47537     47535     47538     47541     47539     47538     47541     47542
     47539     47538     47541     47543     47539     47538     47541     47544
     47540     47538     47541     47542     47540     47538     47541     47543
     47540     47538     47541     47544     47545     47548     47551     47552
     47545     47548     47551     47553     47545     47548     47551     47554
     47546     47545     47548     47549     47546     47545     47548     47550
     47546     47545     47548     47551     47547     47545     47548     47549
     47547     47545     47548     47550     47547     47545     47548     47551
     47548     47551     47554     47555     47548     47551     47554     47556
     47548     47551     47554     47557     47549     47548     47551     47552
     47549     47548     47551     47553     47549     47548     47551     47554
     47550     47548     47551     47552     47550     47548     47551     47553
     47550     47548     47551     47554     47551     47554     47557     47558
     47551     47554     47557     47559     47551     47554     47557     47560
     47552     47551     47554     47555     47552     47551     47554     47556
     47552     47551     47554     47557     47553     47551     47554     47555
     47553     47551     47554     47556     47553     47551     47554     47557
     47554     47557     47560     47561     47554     47557     47560     47562
     47554     47557     47560     47563     47555     47554     47557     47558
     47555     47554     47557     47559     47555     47554     47557     47560
     47556     47554     47557     47558     47556     47554     47557     47559
     47556     47554     47557     47560     47557     47560     47563     47564
     47557     47560     47563     47565     47557     47560     47563     47566
     47558     47557     47560     47561     47558     47557     47560     47562
     47558     47557     47560     47563     47559     47557     47560     47561
     47559     47557     47560     47562     47559     47557     47560     47563
     47560     47563     47566     47567     47560     47563     47566     47568
     47560     47563     47566     47569     47561     47560     47563     47564
     47561     47560     47563     47565     47561     47560     47563     47566
     47562     47560     47563     47564     47562     47560     47563     47565
     47562     47560     47563     47566     47563     47566     47569     47570
     47563     47566     47569     47571     47564     47563     47566     47567
     47564     47563     47566     47568     47564     47563     47566     47569
     47565     47563     47566     47567     47565     47563     47566     47568
     47565     47563     47566     47569     47566     47569     47571     47572
     47566     47569     47571     47573     47567     47566     47569     47570
     47567     47566     47569     47571     47568     47566     47569     47570
     47568     47566     47569     47571     47569     47571     47573     47574
     47569     47571     47573     47575     47569     47571     47573     47576
     47570     47569     47571     47572     47570     47569     47571     47573
     47571     47573     47576     47577     47571     47573     47576     47578
     47571     47573     47576     47579     47572     47571     47573     47574
     47572     47571     47573     47575     47572     47571     47573     47576
     47573     47576     47579     47580     47573     47576     47579     47581
     47573     47576     47579     47582     47574     47573     47576     47577
     47574     47573     47576     47578     47574     47573     47576     47579
     47575     47573     47576     47577     47575     47573     47576     47578
     47575     47573     47576     47579     47576     47579     47582     47583
     47576     47579     47582     47584     47576     47579     47582     47585
     47577     47576     47579     47580     47577     47576     47579     47581
     47577     47576     47579     47582     47578     47576     47579     47580
     47578     47576     47579     47581     47578     47576     47579     47582
     47579     47582     47585     47586     47579     47582     47585     47587
     47579     47582     47585     47588     47580     47579     47582     47583
     47580     47579     47582     47584     47580     47579     47582     47585
     47581     47579     47582     47583     47581     47579     47582     47584
     47581     47579     47582     47585     47582     47585     47588     47589
     47582     47585     47588     47590     47582     47585     47588     47591
     47583     47582     47585     47586     47583     47582     47585     47587
     47583     47582     47585     47588     47584     47582     47585     47586
     47584     47582     47585     47587     47584     47582     47585     47588
     47586     47585     47588     47589     47586     47585     47588     47590
     47586     47585     47588     47591     47587     47585     47588     47589
     47587     47585     47588     47590     47587     47585     47588     47591
     47592     47595     47598     47599     47592     47595     47598     47600
     47592     47595     47598     47601     47593     47592     47595     47596
     47593     47592     47595     47597     47593     47592     47595     47598
     47594     47592     47595     47596     47594     47592     47595     47597
     47594     47592     47595     47598     47595     47598     47601     47602
     47595     47598     47601     47603     47595     47598     47601     47604
     47596     47595     47598     47599     47596     47595     47598     47600
     47596     47595     47598     47601     47597     47595     47598     47599
     47597     47595     47598     47600     47597     47595     47598     47601
     47598     47601     47604     47605     47598     47601     47604     47606
     47598     47601     47604     47607     47599     47598     47601     47602
     47599     47598     47601     47603     47599     47598     47601     47604
     47600     47598     47601     47602     47600     47598     47601     47603
     47600     47598     47601     47604     47601     47604     47607     47608
     47601     47604     47607     47609     47601     47604     47607     47610
     47602     47601     47604     47605     47602     47601     47604     47606
     47602     47601     47604     47607     47603     47601     47604     47605
     47603     47601     47604     47606     47603     47601     47604     47607
     47604     47607     47610     47611     47604     47607     47610     47612
     47604     47607     47610     47613     47605     47604     47607     47608
     47605     47604     47607     47609     47605     47604     47607     47610
     47606     47604     47607     47608     47606     47604     47607     47609
     47606     47604     47607     47610     47607     47610     47613     47614
     47607     47610     47613     47615     47607     47610     47613     47616
     47608     47607     47610     47611     47608     47607     47610     47612
     47608     47607     47610     47613     47609     47607     47610     47611
     47609     47607     47610     47612     47609     47607     47610     47613
     47610     47613     47616     47617     47610     47613     47616     47618
     47610     47613     47616     47619     47611     47610     47613     47614
     47611     47610     47613     47615     47611     47610     47613     47616
     47612     47610     47613     47614     47612     47610     47613     47615
     47612     47610     47613     47616     47613     47616     47619     47620
     47613     47616     47619     47621     47613     47616     47619     47622
     47614     47613     47616     47617     47614     47613     47616     47618
     47614     47613     47616     47619     47615     47613     47616     47617
     47615     47613     47616     47618     47615     47613     47616     47619
     47616     47619     47622     47623     47616     47619     47622     47624
     47616     47619     47622     47625     47617     47616     47619     47620
     47617     47616     47619     47621     47617     47616     47619     47622
     47618     47616     47619     47620     47618     47616     47619     47621
     47618     47616     47619     47622     47619     47622     47625     47626
     47619     47622     47625     47627     47619     47622     47625     47628
     47620     47619     47622     47623     47620     47619     47622     47624
     47620     47619     47622     47625     47621     47619     47622     47623
     47621     47619     47622     47624     47621     47619     47622     47625
     47622     47625     47628     47629     47622     47625     47628     47630
     47622     47625     47628     47631     47623     47622     47625     47626
     47623     47622     47625     47627     47623     47622     47625     47628
     47624     47622     47625     47626     47624     47622     47625     47627
     47624     47622     47625     47628     47625     47628     47631     47632
     47625     47628     47631     47633     47625     47628     47631     47634
     47626     47625     47628     47629     47626     47625     47628     47630
     47626     47625     47628     47631     47627     47625     47628     47629
     47627     47625     47628     47630     47627     47625     47628     47631
     47629     47628     47631     47632     47629     47628     47631     47633
     47629     47628     47631     47634     47630     47628     47631     47632
     47630     47628     47631     47633     47630     47628     47631     47634
     47635     47639     47642     47643     47635     47639     47642     47644
     47635     47639     47642     47649     47636     47635     47639     47640
     47636     47635     47639     47641     47636     47635     47639     47642
     47637     47635     47639     47640     47637     47635     47639     47641
     47637     47635     47639     47642     47638     47635     47639     47640
     47638     47635     47639     47641     47638     47635     47639     47642
     47639     47642     47649     47645     47640     47639     47642     47643
     47640     47639     47642     47644     47640     47639     47642     47649
     47641     47639     47642     47643     47641     47639     47642     47644
     47641     47639     47642     47649     47642     47649     47645     47646
     47642     47649     47645     47647     47642     47649     47645     47648
     47643     47642     47649     47645     47644     47642     47649     47645
     47645     47648     47650     47651     47645     47648     47650     47652
     47645     47648     47650     47653     47646     47645     47648     47650
     47647     47645     47648     47650     47648     47650     47653     47654
     47648     47650     47653     47655     47648     47650     47653     47661
     47649     47645     47648     47650     47650     47653     47655     47656
     47650     47653     47661     47662     47650     47653     47661     47663
     47650     47653     47661     47664     47651     47650     47653     47654
     47651     47650     47653     47655     47651     47650     47653     47661
     47652     47650     47653     47654     47652     47650     47653     47655
     47652     47650     47653     47661     47653     47655     47656     47657
     47653     47655     47656     47658     47653     47661     47664     47665
     47654     47653     47655     47656     47654     47653     47661     47662
     47654     47653     47661     47663     47654     47653     47661     47664
     47655     47653     47661     47662     47655     47653     47661     47663
     47655     47653     47661     47664     47655     47656     47658     47659
     47655     47656     47658     47660     47655     47656     47658     47670
     47656     47655     47653     47661     47656     47658     47670     47671
     47656     47658     47670     47672     47656     47658     47670     47673
     47657     47656     47658     47659     47657     47656     47658     47660
     47657     47656     47658     47670     47658     47670     47673     47674
     47658     47670     47673     47675     47658     47670     47673     47676
     47659     47658     47670     47671     47659     47658     47670     47672
     47659     47658     47670     47673     47660     47658     47670     47671
     47660     47658     47670     47672     47660     47658     47670     47673
     47661     47664     47665     47666     47661     47664     47665     47667
     47662     47661     47664     47665     47663     47661     47664     47665
     47664     47665     47667     47668     47664     47665     47667     47669
     47664     47665     47667     47714     47665     47667     47714     47715
     47665     47667     47714     47716     47665     47667     47714     47717
     47666     47665     47667     47668     47666     47665     47667     47669
     47666     47665     47667     47714     47667     47714     47717     47718
     47667     47714     47717     47719     47667     47714     47717     47720
     47668     47667     47714     47715     47668     47667     47714     47716
     47668     47667     47714     47717     47669     47667     47714     47715
     47669     47667     47714     47716     47669     47667     47714     47717
     47670     47673     47676     47677     47670     47673     47676     47678
     47670     47673     47676     47679     47671     47670     47673     47674
     47671     47670     47673     47675     47671     47670     47673     47676
     47672     47670     47673     47674     47672     47670     47673     47675
     47672     47670     47673     47676     47673     47676     47679     47680
     47673     47676     47679     47681     47673     47676     47679     47682
     47674     47673     47676     47677     47674     47673     47676     47678
     47674     47673     47676     47679     47675     47673     47676     47677
     47675     47673     47676     47678     47675     47673     47676     47679
     47676     47679     47682     47683     47676     47679     47682     47684
     47676     47679     47682     47685     47677     47676     47679     47680
     47677     47676     47679     47681     47677     47676     47679     47682
     47678     47676     47679     47680     47678     47676     47679     47681
     47678     47676     47679     47682     47679     47682     47685     47686
     47679     47682     47685     47687     47679     47682     47685     47688
     47680     47679     47682     47683     47680     47679     47682     47684
     47680     47679     47682     47685     47681     47679     47682     47683
     47681     47679     47682     47684     47681     47679     47682     47685
     47682     47685     47688     47689     47682     47685     47688     47690
     47682     47685     47688     47693     47683     47682     47685     47686
     47683     47682     47685     47687     47683     47682     47685     47688
     47684     47682     47685     47686     47684     47682     47685     47687
     47684     47682     47685     47688     47685     47688     47690     47691
     47685     47688     47690     47692     47685     47688     47690     47693
     47685     47688     47693     47690     47685     47688     47693     47694
     47685     47688     47693     47695     47686     47685     47688     47689
     47686     47685     47688     47690     47686     47685     47688     47693
     47687     47685     47688     47689     47687     47685     47688     47690
     47687     47685     47688     47693     47688     47690     47693     47694
     47688     47690     47693     47695     47688     47693     47690     47691
     47688     47693     47690     47692     47688     47693     47695     47696
     47688     47693     47695     47697     47688     47693     47695     47698
     47689     47688     47690     47691     47689     47688     47690     47692
     47689     47688     47690     47693     47689     47688     47693     47690
     47689     47688     47693     47694     47689     47688     47693     47695
     47690     47688     47693     47694     47690     47688     47693     47695
     47690     47693     47695     47696     47690     47693     47695     47697
     47690     47693     47695     47698     47691     47690     47688     47693
     47691     47690     47693     47694     47691     47690     47693     47695
     47692     47690     47688     47693     47692     47690     47693     47694
     47692     47690     47693     47695     47693     47695     47698     47699
     47693     47695     47698     47700     47693     47695     47698     47701
     47694     47693     47695     47696     47694     47693     47695     47697
     47694     47693     47695     47698     47695     47698     47701     47702
     47695     47698     47701     47703     47695     47698     47701     47704
     47696     47695     47698     47699     47696     47695     47698     47700
     47696     47695     47698     47701     47697     47695     47698     47699
     47697     47695     47698     47700     47697     47695     47698     47701
     47698     47701     47704     47705     47698     47701     47704     47706
     47698     47701     47704     47707     47699     47698     47701     47702
     47699     47698     47701     47703     47699     47698     47701     47704
     47700     47698     47701     47702     47700     47698     47701     47703
     47700     47698     47701     47704     47701     47704     47707     47708
     47701     47704     47707     47709     47701     47704     47707     47710
     47702     47701     47704     47705     47702     47701     47704     47706
     47702     47701     47704     47707     47703     47701     47704     47705
     47703     47701     47704     47706     47703     47701     47704     47707
     47704     47707     47710     47711     47704     47707     47710     47712
     47704     47707     47710     47713     47705     47704     47707     47708
     47705     47704     47707     47709     47705     47704     47707     47710
     47706     47704     47707     47708     47706     47704     47707     47709
     47706     47704     47707     47710     47708     47707     47710     47711
     47708     47707     47710     47712     47708     47707     47710     47713
     47709     47707     47710     47711     47709     47707     47710     47712
     47709     47707     47710     47713     47714     47717     47720     47721
     47714     47717     47720     47722     47714     47717     47720     47723
     47715     47714     47717     47718     47715     47714     47717     47719
     47715     47714     47717     47720     47716     47714     47717     47718
     47716     47714     47717     47719     47716     47714     47717     47720
     47717     47720     47723     47724     47717     47720     47723     47725
     47717     47720     47723     47726     47718     47717     47720     47721
     47718     47717     47720     47722     47718     47717     47720     47723
     47719     47717     47720     47721     47719     47717     47720     47722
     47719     47717     47720     47723     47720     47723     47726     47727
     47720     47723     47726     47728     47720     47723     47726     47729
     47721     47720     47723     47724     47721     47720     47723     47725
     47721     47720     47723     47726     47722     47720     47723     47724
     47722     47720     47723     47725     47722     47720     47723     47726
     47723     47726     47729     47730     47723     47726     47729     47731
     47723     47726     47729     47732     47724     47723     47726     47727
     47724     47723     47726     47728     47724     47723     47726     47729
     47725     47723     47726     47727     47725     47723     47726     47728
     47725     47723     47726     47729     47726     47729     47732     47733
     47726     47729     47732     47734     47726     47729     47732     47735
     47727     47726     47729     47730     47727     47726     47729     47731
     47727     47726     47729     47732     47728     47726     47729     47730
     47728     47726     47729     47731     47728     47726     47729     47732
     47729     47732     47735     47736     47729     47732     47735     47737
     47729     47732     47735     47738     47730     47729     47732     47733
     47730     47729     47732     47734     47730     47729     47732     47735
     47731     47729     47732     47733     47731     47729     47732     47734
     47731     47729     47732     47735     47732     47735     47738     47739
     47732     47735     47738     47740     47732     47735     47738     47741
     47733     47732     47735     47736     47733     47732     47735     47737
     47733     47732     47735     47738     47734     47732     47735     47736
     47734     47732     47735     47737     47734     47732     47735     47738
     47735     47738     47741     47742     47735     47738     47741     47743
     47735     47738     47741     47744     47736     47735     47738     47739
     47736     47735     47738     47740     47736     47735     47738     47741
     47737     47735     47738     47739     47737     47735     47738     47740
     47737     47735     47738     47741     47738     47741     47744     47745
     47738     47741     47744     47746     47738     47741     47744     47747
     47739     47738     47741     47742     47739     47738     47741     47743
     47739     47738     47741     47744     47740     47738     47741     47742
     47740     47738     47741     47743     47740     47738     47741     47744
     47741     47744     47747     47748     47741     47744     47747     47749
     47741     47744     47747     47750     47742     47741     47744     47745
     47742     47741     47744     47746     47742     47741     47744     47747
     47743     47741     47744     47745     47743     47741     47744     47746
     47743     47741     47744     47747     47744     47747     47750     47751
     47744     47747     47750     47752     47744     47747     47750     47753
     47745     47744     47747     47748     47745     47744     47747     47749
     47745     47744     47747     47750     47746     47744     47747     47748
     47746     47744     47747     47749     47746     47744     47747     47750
     47747     47750     47753     47754     47747     47750     47753     47755
     47747     47750     47753     47756     47748     47747     47750     47751
     47748     47747     47750     47752     47748     47747     47750     47753
     47749     47747     47750     47751     47749     47747     47750     47752
     47749     47747     47750     47753     47751     47750     47753     47754
     47751     47750     47753     47755     47751     47750     47753     47756
     47752     47750     47753     47754     47752     47750     47753     47755
     47752     47750     47753     47756     47757     47761     47764     47765
     47757     47761     47764     47766     47757     47761     47764     47771
     47758     47757     47761     47762     47758     47757     47761     47763
     47758     47757     47761     47764     47759     47757     47761     47762
     47759     47757     47761     47763     47759     47757     47761     47764
     47760     47757     47761     47762     47760     47757     47761     47763
     47760     47757     47761     47764     47761     47764     47771     47767
     47762     47761     47764     47765     47762     47761     47764     47766
     47762     47761     47764     47771     47763     47761     47764     47765
     47763     47761     47764     47766     47763     47761     47764     47771
     47764     47771     47767     47768     47764     47771     47767     47769
     47764     47771     47767     47770     47765     47764     47771     47767
     47766     47764     47771     47767     47767     47770     47772     47773
     47767     47770     47772     47774     47767     47770     47772     47775
     47768     47767     47770     47772     47769     47767     47770     47772
     47770     47772     47775     47776     47770     47772     47775     47777
     47770     47772     47775     47783     47771     47767     47770     47772
     47772     47775     47777     47778     47772     47775     47783     47784
     47772     47775     47783     47785     47772     47775     47783     47786
     47773     47772     47775     47776     47773     47772     47775     47777
     47773     47772     47775     47783     47774     47772     47775     47776
     47774     47772     47775     47777     47774     47772     47775     47783
     47775     47777     47778     47779     47775     47777     47778     47780
     47775     47783     47786     47787     47776     47775     47777     47778
     47776     47775     47783     47784     47776     47775     47783     47785
     47776     47775     47783     47786     47777     47775     47783     47784
     47777     47775     47783     47785     47777     47775     47783     47786
     47777     47778     47780     47781     47777     47778     47780     47782
     47777     47778     47780     47792     47778     47777     47775     47783
     47778     47780     47792     47793     47778     47780     47792     47794
     47778     47780     47792     47795     47779     47778     47780     47781
     47779     47778     47780     47782     47779     47778     47780     47792
     47780     47792     47795     47796     47780     47792     47795     47797
     47780     47792     47795     47798     47781     47780     47792     47793
     47781     47780     47792     47794     47781     47780     47792     47795
     47782     47780     47792     47793     47782     47780     47792     47794
     47782     47780     47792     47795     47783     47786     47787     47788
     47783     47786     47787     47789     47784     47783     47786     47787
     47785     47783     47786     47787     47786     47787     47789     47790
     47786     47787     47789     47791     47786     47787     47789     47836
     47787     47789     47836     47837     47787     47789     47836     47838
     47787     47789     47836     47839     47788     47787     47789     47790
     47788     47787     47789     47791     47788     47787     47789     47836
     47789     47836     47839     47840     47789     47836     47839     47841
     47789     47836     47839     47842     47790     47789     47836     47837
     47790     47789     47836     47838     47790     47789     47836     47839
     47791     47789     47836     47837     47791     47789     47836     47838
     47791     47789     47836     47839     47792     47795     47798     47799
     47792     47795     47798     47800     47792     47795     47798     47801
     47793     47792     47795     47796     47793     47792     47795     47797
     47793     47792     47795     47798     47794     47792     47795     47796
     47794     47792     47795     47797     47794     47792     47795     47798
     47795     47798     47801     47802     47795     47798     47801     47803
     47795     47798     47801     47804     47796     47795     47798     47799
     47796     47795     47798     47800     47796     47795     47798     47801
     47797     47795     47798     47799     47797     47795     47798     47800
     47797     47795     47798     47801     47798     47801     47804     47805
     47798     47801     47804     47806     47798     47801     47804     47807
     47799     47798     47801     47802     47799     47798     47801     47803
     47799     47798     47801     47804     47800     47798     47801     47802
     47800     47798     47801     47803     47800     47798     47801     47804
     47801     47804     47807     47808     47801     47804     47807     47809
     47801     47804     47807     47810     47802     47801     47804     47805
     47802     47801     47804     47806     47802     47801     47804     47807
     47803     47801     47804     47805     47803     47801     47804     47806
     47803     47801     47804     47807     47804     47807     47810     47811
     47804     47807     47810     47812     47804     47807     47810     47815
     47805     47804     47807     47808     47805     47804     47807     47809
     47805     47804     47807     47810     47806     47804     47807     47808
     47806     47804     47807     47809     47806     47804     47807     47810
     47807     47810     47812     47813     47807     47810     47812     47814
     47807     47810     47812     47815     47807     47810     47815     47812
     47807     47810     47815     47816     47807     47810     47815     47817
     47808     47807     47810     47811     47808     47807     47810     47812
     47808     47807     47810     47815     47809     47807     47810     47811
     47809     47807     47810     47812     47809     47807     47810     47815
     47810     47812     47815     47816     47810     47812     47815     47817
     47810     47815     47812     47813     47810     47815     47812     47814
     47810     47815     47817     47818     47810     47815     47817     47819
     47810     47815     47817     47820     47811     47810     47812     47813
     47811     47810     47812     47814     47811     47810     47812     47815
     47811     47810     47815     47812     47811     47810     47815     47816
     47811     47810     47815     47817     47812     47810     47815     47816
     47812     47810     47815     47817     47812     47815     47817     47818
     47812     47815     47817     47819     47812     47815     47817     47820
     47813     47812     47810     47815     47813     47812     47815     47816
     47813     47812     47815     47817     47814     47812     47810     47815
     47814     47812     47815     47816     47814     47812     47815     47817
     47815     47817     47820     47821     47815     47817     47820     47822
     47815     47817     47820     47823     47816     47815     47817     47818
     47816     47815     47817     47819     47816     47815     47817     47820
     47817     47820     47823     47824     47817     47820     47823     47825
     47817     47820     47823     47826     47818     47817     47820     47821
     47818     47817     47820     47822     47818     47817     47820     47823
     47819     47817     47820     47821     47819     47817     47820     47822
     47819     47817     47820     47823     47820     47823     47826     47827
     47820     47823     47826     47828     47820     47823     47826     47829
     47821     47820     47823     47824     47821     47820     47823     47825
     47821     47820     47823     47826     47822     47820     47823     47824
     47822     47820     47823     47825     47822     47820     47823     47826
     47823     47826     47829     47830     47823     47826     47829     47831
     47823     47826     47829     47832     47824     47823     47826     47827
     47824     47823     47826     47828     47824     47823     47826     47829
     47825     47823     47826     47827     47825     47823     47826     47828
     47825     47823     47826     47829     47826     47829     47832     47833
     47826     47829     47832     47834     47826     47829     47832     47835
     47827     47826     47829     47830     47827     47826     47829     47831
     47827     47826     47829     47832     47828     47826     47829     47830
     47828     47826     47829     47831     47828     47826     47829     47832
     47830     47829     47832     47833     47830     47829     47832     47834
     47830     47829     47832     47835     47831     47829     47832     47833
     47831     47829     47832     47834     47831     47829     47832     47835
     47836     47839     47842     47843     47836     47839     47842     47844
     47836     47839     47842     47845     47837     47836     47839     47840
     47837     47836     47839     47841     47837     47836     47839     47842
     47838     47836     47839     47840     47838     47836     47839     47841
     47838     47836     47839     47842     47839     47842     47845     47846
     47839     47842     47845     47847     47839     47842     47845     47848
     47840     47839     47842     47843     47840     47839     47842     47844
     47840     47839     47842     47845     47841     47839     47842     47843
     47841     47839     47842     47844     47841     47839     47842     47845
     47842     47845     47848     47849     47842     47845     47848     47850
     47842     47845     47848     47851     47843     47842     47845     47846
     47843     47842     47845     47847     47843     47842     47845     47848
     47844     47842     47845     47846     47844     47842     47845     47847
     47844     47842     47845     47848     47845     47848     47851     47852
     47845     47848     47851     47853     47845     47848     47851     47854
     47846     47845     47848     47849     47846     47845     47848     47850
     47846     47845     47848     47851     47847     47845     47848     47849
     47847     47845     47848     47850     47847     47845     47848     47851
     47848     47851     47854     47855     47848     47851     47854     47856
     47848     47851     47854     47857     47849     47848     47851     47852
     47849     47848     47851     47853     47849     47848     47851     47854
     47850     47848     47851     47852     47850     47848     47851     47853
     47850     47848     47851     47854     47851     47854     47857     47858
     47851     47854     47857     47859     47851     47854     47857     47860
     47852     47851     47854     47855     47852     47851     47854     47856
     47852     47851     47854     47857     47853     47851     47854     47855
     47853     47851     47854     47856     47853     47851     47854     47857
     47854     47857     47860     47861     47854     47857     47860     47862
     47854     47857     47860     47863     47855     47854     47857     47858
     47855     47854     47857     47859     47855     47854     47857     47860
     47856     47854     47857     47858     47856     47854     47857     47859
     47856     47854     47857     47860     47857     47860     47863     47864
     47857     47860     47863     47865     47857     47860     47863     47866
     47858     47857     47860     47861     47858     47857     47860     47862
     47858     47857     47860     47863     47859     47857     47860     47861
     47859     47857     47860     47862     47859     47857     47860     47863
     47860     47863     47866     47867     47860     47863     47866     47868
     47860     47863     47866     47869     47861     47860     47863     47864
     47861     47860     47863     47865     47861     47860     47863     47866
     47862     47860     47863     47864     47862     47860     47863     47865
     47862     47860     47863     47866     47863     47866     47869     47870
     47863     47866     47869     47871     47863     47866     47869     47872
     47864     47863     47866     47867     47864     47863     47866     47868
     47864     47863     47866     47869     47865     47863     47866     47867
     47865     47863     47866     47868     47865     47863     47866     47869
     47866     47869     47872     47873     47866     47869     47872     47874
     47866     47869     47872     47875     47867     47866     47869     47870
     47867     47866     47869     47871     47867     47866     47869     47872
     47868     47866     47869     47870     47868     47866     47869     47871
     47868     47866     47869     47872     47869     47872     47875     47876
     47869     47872     47875     47877     47869     47872     47875     47878
     47870     47869     47872     47873     47870     47869     47872     47874
     47870     47869     47872     47875     47871     47869     47872     47873
     47871     47869     47872     47874     47871     47869     47872     47875
     47873     47872     47875     47876     47873     47872     47875     47877
     47873     47872     47875     47878     47874     47872     47875     47876
     47874     47872     47875     47877     47874     47872     47875     47878
     47879     47883     47886     47887     47879     47883     47886     47888
     47879     47883     47886     47893     47880     47879     47883     47884
     47880     47879     47883     47885     47880     47879     47883     47886
     47881     47879     47883     47884     47881     47879     47883     47885
     47881     47879     47883     47886     47882     47879     47883     47884
     47882     47879     47883     47885     47882     47879     47883     47886
     47883     47886     47893     47889     47884     47883     47886     47887
     47884     47883     47886     47888     47884     47883     47886     47893
     47885     47883     47886     47887     47885     47883     47886     47888
     47885     47883     47886     47893     47886     47893     47889     47890
     47886     47893     47889     47891     47886     47893     47889     47892
     47887     47886     47893     47889     47888     47886     47893     47889
     47889     47892     47894     47895     47889     47892     47894     47896
     47889     47892     47894     47897     47890     47889     47892     47894
     47891     47889     47892     47894     47892     47894     47897     47898
     47892     47894     47897     47899     47892     47894     47897     47905
     47893     47889     47892     47894     47894     47897     47899     47900
     47894     47897     47905     47906     47894     47897     47905     47907
     47894     47897     47905     47908     47895     47894     47897     47898
     47895     47894     47897     47899     47895     47894     47897     47905
     47896     47894     47897     47898     47896     47894     47897     47899
     47896     47894     47897     47905     47897     47899     47900     47901
     47897     47899     47900     47902     47897     47905     47908     47909
     47898     47897     47899     47900     47898     47897     47905     47906
     47898     47897     47905     47907     47898     47897     47905     47908
     47899     47897     47905     47906     47899     47897     47905     47907
     47899     47897     47905     47908     47899     47900     47902     47903
     47899     47900     47902     47904     47899     47900     47902     47914
     47900     47899     47897     47905     47900     47902     47914     47915
     47900     47902     47914     47916     47900     47902     47914     47917
     47901     47900     47902     47903     47901     47900     47902     47904
     47901     47900     47902     47914     47902     47914     47917     47918
     47902     47914     47917     47919     47902     47914     47917     47920
     47903     47902     47914     47915     47903     47902     47914     47916
     47903     47902     47914     47917     47904     47902     47914     47915
     47904     47902     47914     47916     47904     47902     47914     47917
     47905     47908     47909     47910     47905     47908     47909     47911
     47906     47905     47908     47909     47907     47905     47908     47909
     47908     47909     47911     47912     47908     47909     47911     47913
     47908     47909     47911     47958     47909     47911     47958     47959
     47909     47911     47958     47960     47909     47911     47958     47961
     47910     47909     47911     47912     47910     47909     47911     47913
     47910     47909     47911     47958     47911     47958     47961     47962
     47911     47958     47961     47963     47911     47958     47961     47964
     47912     47911     47958     47959     47912     47911     47958     47960
     47912     47911     47958     47961     47913     47911     47958     47959
     47913     47911     47958     47960     47913     47911     47958     47961
     47914     47917     47920     47921     47914     47917     47920     47922
     47914     47917     47920     47923     47915     47914     47917     47918
     47915     47914     47917     47919     47915     47914     47917     47920
     47916     47914     47917     47918     47916     47914     47917     47919
     47916     47914     47917     47920     47917     47920     47923     47924
     47917     47920     47923     47925     47917     47920     47923     47926
     47918     47917     47920     47921     47918     47917     47920     47922
     47918     47917     47920     47923     47919     47917     47920     47921
     47919     47917     47920     47922     47919     47917     47920     47923
     47920     47923     47926     47927     47920     47923     47926     47928
     47920     47923     47926     47929     47921     47920     47923     47924
     47921     47920     47923     47925     47921     47920     47923     47926
     47922     47920     47923     47924     47922     47920     47923     47925
     47922     47920     47923     47926     47923     47926     47929     47930
     47923     47926     47929     47931     47923     47926     47929     47932
     47924     47923     47926     47927     47924     47923     47926     47928
     47924     47923     47926     47929     47925     47923     47926     47927
     47925     47923     47926     47928     47925     47923     47926     47929
     47926     47929     47932     47933     47926     47929     47932     47934
     47926     47929     47932     47937     47927     47926     47929     47930
     47927     47926     47929     47931     47927     47926     47929     47932
     47928     47926     47929     47930     47928     47926     47929     47931
     47928     47926     47929     47932     47929     47932     47934     47935
     47929     47932     47934     47936     47929     47932     47934     47937
     47929     47932     47937     47934     47929     47932     47937     47938
     47929     47932     47937     47939     47930     47929     47932     47933
     47930     47929     47932     47934     47930     47929     47932     47937
     47931     47929     47932     47933     47931     47929     47932     47934
     47931     47929     47932     47937     47932     47934     47937     47938
     47932     47934     47937     47939     47932     47937     47934     47935
     47932     47937     47934     47936     47932     47937     47939     47940
     47932     47937     47939     47941     47932     47937     47939     47942
     47933     47932     47934     47935     47933     47932     47934     47936
     47933     47932     47934     47937     47933     47932     47937     47934
     47933     47932     47937     47938     47933     47932     47937     47939
     47934     47932     47937     47938     47934     47932     47937     47939
     47934     47937     47939     47940     47934     47937     47939     47941
     47934     47937     47939     47942     47935     47934     47932     47937
     47935     47934     47937     47938     47935     47934     47937     47939
     47936     47934     47932     47937     47936     47934     47937     47938
     47936     47934     47937     47939     47937     47939     47942     47943
     47937     47939     47942     47944     47937     47939     47942     47945
     47938     47937     47939     47940     47938     47937     47939     47941
     47938     47937     47939     47942     47939     47942     47945     47946
     47939     47942     47945     47947     47939     47942     47945     47948
     47940     47939     47942     47943     47940     47939     47942     47944
     47940     47939     47942     47945     47941     47939     47942     47943
     47941     47939     47942     47944     47941     47939     47942     47945
     47942     47945     47948     47949     47942     47945     47948     47950
     47942     47945     47948     47951     47943     47942     47945     47946
     47943     47942     47945     47947     47943     47942     47945     47948
     47944     47942     47945     47946     47944     47942     47945     47947
     47944     47942     47945     47948     47945     47948     47951     47952
     47945     47948     47951     47953     47945     47948     47951     47954
     47946     47945     47948     47949     47946     47945     47948     47950
     47946     47945     47948     47951     47947     47945     47948     47949
     47947     47945     47948     47950     47947     47945     47948     47951
     47948     47951     47954     47955     47948     47951     47954     47956
     47948     47951     47954     47957     47949     47948     47951     47952
     47949     47948     47951     47953     47949     47948     47951     47954
     47950     47948     47951     47952     47950     47948     47951     47953
     47950     47948     47951     47954     47952     47951     47954     47955
     47952     47951     47954     47956     47952     47951     47954     47957
     47953     47951     47954     47955     47953     47951     47954     47956
     47953     47951     47954     47957     47958     47961     47964     47965
     47958     47961     47964     47966     47958     47961     47964     47967
     47959     47958     47961     47962     47959     47958     47961     47963
     47959     47958     47961     47964     47960     47958     47961     47962
     47960     47958     47961     47963     47960     47958     47961     47964
     47961     47964     47967     47968     47961     47964     47967     47969
     47961     47964     47967     47970     47962     47961     47964     47965
     47962     47961     47964     47966     47962     47961     47964     47967
     47963     47961     47964     47965     47963     47961     47964     47966
     47963     47961     47964     47967     47964     47967     47970     47971
     47964     47967     47970     47972     47964     47967     47970     47973
     47965     47964     47967     47968     47965     47964     47967     47969
     47965     47964     47967     47970     47966     47964     47967     47968
     47966     47964     47967     47969     47966     47964     47967     47970
     47967     47970     47973     47974     47967     47970     47973     47975
     47967     47970     47973     47976     47968     47967     47970     47971
     47968     47967     47970     47972     47968     47967     47970     47973
     47969     47967     47970     47971     47969     47967     47970     47972
     47969     47967     47970     47973     47970     47973     47976     47977
     47970     47973     47976     47978     47970     47973     47976     47979
     47971     47970     47973     47974     47971     47970     47973     47975
     47971     47970     47973     47976     47972     47970     47973     47974
     47972     47970     47973     47975     47972     47970     47973     47976
     47973     47976     47979     47980     47973     47976     47979     47981
     47973     47976     47979     47982     47974     47973     47976     47977
     47974     47973     47976     47978     47974     47973     47976     47979
     47975     47973     47976     47977     47975     47973     47976     47978
     47975     47973     47976     47979     47976     47979     47982     47983
     47976     47979     47982     47984     47976     47979     47982     47985
     47977     47976     47979     47980     47977     47976     47979     47981
     47977     47976     47979     47982     47978     47976     47979     47980
     47978     47976     47979     47981     47978     47976     47979     47982
     47979     47982     47985     47986     47979     47982     47985     47987
     47979     47982     47985     47988     47980     47979     47982     47983
     47980     47979     47982     47984     47980     47979     47982     47985
     47981     47979     47982     47983     47981     47979     47982     47984
     47981     47979     47982     47985     47982     47985     47988     47989
     47982     47985     47988     47990     47982     47985     47988     47991
     47983     47982     47985     47986     47983     47982     47985     47987
     47983     47982     47985     47988     47984     47982     47985     47986
     47984     47982     47985     47987     47984     47982     47985     47988
     47985     47988     47991     47992     47985     47988     47991     47993
     47985     47988     47991     47994     47986     47985     47988     47989
     47986     47985     47988     47990     47986     47985     47988     47991
     47987     47985     47988     47989     47987     47985     47988     47990
     47987     47985     47988     47991     47988     47991     47994     47995
     47988     47991     47994     47996     47988     47991     47994     47997
     47989     47988     47991     47992     47989     47988     47991     47993
     47989     47988     47991     47994     47990     47988     47991     47992
     47990     47988     47991     47993     47990     47988     47991     47994
     47991     47994     47997     47998     47991     47994     47997     47999
     47991     47994     47997     48000     47992     47991     47994     47995
     47992     47991     47994     47996     47992     47991     47994     47997
     47993     47991     47994     47995     47993     47991     47994     47996
     47993     47991     47994     47997     47995     47994     47997     47998
     47995     47994     47997     47999     47995     47994     47997     48000
     47996     47994     47997     47998     47996     47994     47997     47999
     47996     47994     47997     48000     48001     48005     48008     48009
     48001     48005     48008     48010     48001     48005     48008     48015
     48002     48001     48005     48006     48002     48001     48005     48007
     48002     48001     48005     48008     48003     48001     48005     48006
     48003     48001     48005     48007     48003     48001     48005     48008
     48004     48001     48005     48006     48004     48001     48005     48007
     48004     48001     48005     48008     48005     48008     48015     48011
     48006     48005     48008     48009     48006     48005     48008     48010
     48006     48005     48008     48015     48007     48005     48008     48009
     48007     48005     48008     48010     48007     48005     48008     48015
     48008     48015     48011     48012     48008     48015     48011     48013
     48008     48015     48011     48014     48009     48008     48015     48011
     48010     48008     48015     48011     48011     48014     48016     48017
     48011     48014     48016     48018     48011     48014     48016     48019
     48012     48011     48014     48016     48013     48011     48014     48016
     48014     48016     48019     48020     48014     48016     48019     48021
     48014     48016     48019     48027     48015     48011     48014     48016
     48016     48019     48021     48022     48016     48019     48027     48028
     48016     48019     48027     48029     48016     48019     48027     48030
     48017     48016     48019     48020     48017     48016     48019     48021
     48017     48016     48019     48027     48018     48016     48019     48020
     48018     48016     48019     48021     48018     48016     48019     48027
     48019     48021     48022     48023     48019     48021     48022     48024
     48019     48027     48030     48031     48020     48019     48021     48022
     48020     48019     48027     48028     48020     48019     48027     48029
     48020     48019     48027     48030     48021     48019     48027     48028
     48021     48019     48027     48029     48021     48019     48027     48030
     48021     48022     48024     48025     48021     48022     48024     48026
     48021     48022     48024     48036     48022     48021     48019     48027
     48022     48024     48036     48037     48022     48024     48036     48038
     48022     48024     48036     48039     48023     48022     48024     48025
     48023     48022     48024     48026     48023     48022     48024     48036
     48024     48036     48039     48040     48024     48036     48039     48041
     48024     48036     48039     48042     48025     48024     48036     48037
     48025     48024     48036     48038     48025     48024     48036     48039
     48026     48024     48036     48037     48026     48024     48036     48038
     48026     48024     48036     48039     48027     48030     48031     48032
     48027     48030     48031     48033     48028     48027     48030     48031
     48029     48027     48030     48031     48030     48031     48033     48034
     48030     48031     48033     48035     48030     48031     48033     48083
     48031     48033     48083     48084     48031     48033     48083     48085
     48031     48033     48083     48086     48032     48031     48033     48034
     48032     48031     48033     48035     48032     48031     48033     48083
     48033     48083     48086     48087     48033     48083     48086     48088
     48033     48083     48086     48089     48034     48033     48083     48084
     48034     48033     48083     48085     48034     48033     48083     48086
     48035     48033     48083     48084     48035     48033     48083     48085
     48035     48033     48083     48086     48036     48039     48042     48043
     48036     48039     48042     48044     48036     48039     48042     48045
     48037     48036     48039     48040     48037     48036     48039     48041
     48037     48036     48039     48042     48038     48036     48039     48040
     48038     48036     48039     48041     48038     48036     48039     48042
     48039     48042     48045     48046     48039     48042     48045     48047
     48039     48042     48045     48048     48040     48039     48042     48043
     48040     48039     48042     48044     48040     48039     48042     48045
     48041     48039     48042     48043     48041     48039     48042     48044
     48041     48039     48042     48045     48042     48045     48048     48049
     48042     48045     48048     48050     48042     48045     48048     48051
     48043     48042     48045     48046     48043     48042     48045     48047
     48043     48042     48045     48048     48044     48042     48045     48046
     48044     48042     48045     48047     48044     48042     48045     48048
     48045     48048     48051     48052     48045     48048     48051     48053
     48045     48048     48051     48054     48046     48045     48048     48049
     48046     48045     48048     48050     48046     48045     48048     48051
     48047     48045     48048     48049     48047     48045     48048     48050
     48047     48045     48048     48051     48048     48051     48054     48055
     48048     48051     48054     48056     48049     48048     48051     48052
     48049     48048     48051     48053     48049     48048     48051     48054
     48050     48048     48051     48052     48050     48048     48051     48053
     48050     48048     48051     48054     48051     48054     48056     48057
     48051     48054     48056     48058     48052     48051     48054     48055
     48052     48051     48054     48056     48053     48051     48054     48055
     48053     48051     48054     48056     48054     48056     48058     48059
     48054     48056     48058     48060     48054     48056     48058     48061
     48055     48054     48056     48057     48055     48054     48056     48058
     48056     48058     48061     48062     48056     48058     48061     48063
     48056     48058     48061     48064     48057     48056     48058     48059
     48057     48056     48058     48060     48057     48056     48058     48061
     48058     48061     48064     48065     48058     48061     48064     48066
     48058     48061     48064     48067     48059     48058     48061     48062
     48059     48058     48061     48063     48059     48058     48061     48064
     48060     48058     48061     48062     48060     48058     48061     48063
     48060     48058     48061     48064     48061     48064     48067     48068
     48061     48064     48067     48069     48061     48064     48067     48070
     48062     48061     48064     48065     48062     48061     48064     48066
     48062     48061     48064     48067     48063     48061     48064     48065
     48063     48061     48064     48066     48063     48061     48064     48067
     48064     48067     48070     48071     48064     48067     48070     48072
     48064     48067     48070     48073     48065     48064     48067     48068
     48065     48064     48067     48069     48065     48064     48067     48070
     48066     48064     48067     48068     48066     48064     48067     48069
     48066     48064     48067     48070     48067     48070     48073     48074
     48067     48070     48073     48075     48067     48070     48073     48076
     48068     48067     48070     48071     48068     48067     48070     48072
     48068     48067     48070     48073     48069     48067     48070     48071
     48069     48067     48070     48072     48069     48067     48070     48073
     48070     48073     48076     48077     48070     48073     48076     48078
     48070     48073     48076     48079     48071     48070     48073     48074
     48071     48070     48073     48075     48071     48070     48073     48076
     48072     48070     48073     48074     48072     48070     48073     48075
     48072     48070     48073     48076     48073     48076     48079     48080
     48073     48076     48079     48081     48073     48076     48079     48082
     48074     48073     48076     48077     48074     48073     48076     48078
     48074     48073     48076     48079     48075     48073     48076     48077
     48075     48073     48076     48078     48075     48073     48076     48079
     48077     48076     48079     48080     48077     48076     48079     48081
     48077     48076     48079     48082     48078     48076     48079     48080
     48078     48076     48079     48081     48078     48076     48079     48082
     48083     48086     48089     48090     48083     48086     48089     48091
     48083     48086     48089     48092     48084     48083     48086     48087
     48084     48083     48086     48088     48084     48083     48086     48089
     48085     48083     48086     48087     48085     48083     48086     48088
     48085     48083     48086     48089     48086     48089     48092     48093
     48086     48089     48092     48094     48086     48089     48092     48095
     48087     48086     48089     48090     48087     48086     48089     48091
     48087     48086     48089     48092     48088     48086     48089     48090
     48088     48086     48089     48091     48088     48086     48089     48092
     48089     48092     48095     48096     48089     48092     48095     48097
     48089     48092     48095     48098     48090     48089     48092     48093
     48090     48089     48092     48094     48090     48089     48092     48095
     48091     48089     48092     48093     48091     48089     48092     48094
     48091     48089     48092     48095     48092     48095     48098     48099
     48092     48095     48098     48100     48092     48095     48098     48101
     48093     48092     48095     48096     48093     48092     48095     48097
     48093     48092     48095     48098     48094     48092     48095     48096
     48094     48092     48095     48097     48094     48092     48095     48098
     48095     48098     48101     48102     48095     48098     48101     48103
     48095     48098     48101     48104     48096     48095     48098     48099
     48096     48095     48098     48100     48096     48095     48098     48101
     48097     48095     48098     48099     48097     48095     48098     48100
     48097     48095     48098     48101     48098     48101     48104     48105
     48098     48101     48104     48106     48098     48101     48104     48107
     48099     48098     48101     48102     48099     48098     48101     48103
     48099     48098     48101     48104     48100     48098     48101     48102
     48100     48098     48101     48103     48100     48098     48101     48104
     48101     48104     48107     48108     48101     48104     48107     48109
     48101     48104     48107     48110     48102     48101     48104     48105
     48102     48101     48104     48106     48102     48101     48104     48107
     48103     48101     48104     48105     48103     48101     48104     48106
     48103     48101     48104     48107     48104     48107     48110     48111
     48104     48107     48110     48112     48104     48107     48110     48113
     48105     48104     48107     48108     48105     48104     48107     48109
     48105     48104     48107     48110     48106     48104     48107     48108
     48106     48104     48107     48109     48106     48104     48107     48110
     48107     48110     48113     48114     48107     48110     48113     48115
     48107     48110     48113     48116     48108     48107     48110     48111
     48108     48107     48110     48112     48108     48107     48110     48113
     48109     48107     48110     48111     48109     48107     48110     48112
     48109     48107     48110     48113     48110     48113     48116     48117
     48110     48113     48116     48118     48110     48113     48116     48119
     48111     48110     48113     48114     48111     48110     48113     48115
     48111     48110     48113     48116     48112     48110     48113     48114
     48112     48110     48113     48115     48112     48110     48113     48116
     48113     48116     48119     48120     48113     48116     48119     48121
     48113     48116     48119     48122     48114     48113     48116     48117
     48114     48113     48116     48118     48114     48113     48116     48119
     48115     48113     48116     48117     48115     48113     48116     48118
     48115     48113     48116     48119     48116     48119     48122     48123
     48116     48119     48122     48124     48116     48119     48122     48125
     48117     48116     48119     48120     48117     48116     48119     48121
     48117     48116     48119     48122     48118     48116     48119     48120
     48118     48116     48119     48121     48118     48116     48119     48122
     48120     48119     48122     48123     48120     48119     48122     48124
     48120     48119     48122     48125     48121     48119     48122     48123
     48121     48119     48122     48124     48121     48119     48122     48125
     48126     48130     48133     48134     48126     48130     48133     48135
     48126     48130     48133     48140     48127     48126     48130     48131
     48127     48126     48130     48132     48127     48126     48130     48133
     48128     48126     48130     48131     48128     48126     48130     48132
     48128     48126     48130     48133     48129     48126     48130     48131
     48129     48126     48130     48132     48129     48126     48130     48133
     48130     48133     48140     48136     48131     48130     48133     48134
     48131     48130     48133     48135     48131     48130     48133     48140
     48132     48130     48133     48134     48132     48130     48133     48135
     48132     48130     48133     48140     48133     48140     48136     48137
     48133     48140     48136     48138     48133     48140     48136     48139
     48134     48133     48140     48136     48135     48133     48140     48136
     48136     48139     48141     48142     48136     48139     48141     48143
     48136     48139     48141     48144     48137     48136     48139     48141
     48138     48136     48139     48141     48139     48141     48144     48145
     48139     48141     48144     48146     48139     48141     48144     48152
     48140     48136     48139     48141     48141     48144     48146     48147
     48141     48144     48152     48153     48141     48144     48152     48154
     48141     48144     48152     48155     48142     48141     48144     48145
     48142     48141     48144     48146     48142     48141     48144     48152
     48143     48141     48144     48145     48143     48141     48144     48146
     48143     48141     48144     48152     48144     48146     48147     48148
     48144     48146     48147     48149     48144     48152     48155     48156
     48145     48144     48146     48147     48145     48144     48152     48153
     48145     48144     48152     48154     48145     48144     48152     48155
     48146     48144     48152     48153     48146     48144     48152     48154
     48146     48144     48152     48155     48146     48147     48149     48150
     48146     48147     48149     48151     48146     48147     48149     48161
     48147     48146     48144     48152     48147     48149     48161     48162
     48147     48149     48161     48163     48147     48149     48161     48164
     48148     48147     48149     48150     48148     48147     48149     48151
     48148     48147     48149     48161     48149     48161     48164     48165
     48149     48161     48164     48166     48149     48161     48164     48167
     48150     48149     48161     48162     48150     48149     48161     48163
     48150     48149     48161     48164     48151     48149     48161     48162
     48151     48149     48161     48163     48151     48149     48161     48164
     48152     48155     48156     48157     48152     48155     48156     48158
     48153     48152     48155     48156     48154     48152     48155     48156
     48155     48156     48158     48159     48155     48156     48158     48160
     48155     48156     48158     48205     48156     48158     48205     48206
     48156     48158     48205     48207     48156     48158     48205     48208
     48157     48156     48158     48159     48157     48156     48158     48160
     48157     48156     48158     48205     48158     48205     48208     48209
     48158     48205     48208     48210     48158     48205     48208     48211
     48159     48158     48205     48206     48159     48158     48205     48207
     48159     48158     48205     48208     48160     48158     48205     48206
     48160     48158     48205     48207     48160     48158     48205     48208
     48161     48164     48167     48168     48161     48164     48167     48169
     48161     48164     48167     48170     48162     48161     48164     48165
     48162     48161     48164     48166     48162     48161     48164     48167
     48163     48161     48164     48165     48163     48161     48164     48166
     48163     48161     48164     48167     48164     48167     48170     48171
     48164     48167     48170     48172     48164     48167     48170     48173
     48165     48164     48167     48168     48165     48164     48167     48169
     48165     48164     48167     48170     48166     48164     48167     48168
     48166     48164     48167     48169     48166     48164     48167     48170
     48167     48170     48173     48174     48167     48170     48173     48175
     48167     48170     48173     48176     48168     48167     48170     48171
     48168     48167     48170     48172     48168     48167     48170     48173
     48169     48167     48170     48171     48169     48167     48170     48172
     48169     48167     48170     48173     48170     48173     48176     48177
     48170     48173     48176     48178     48170     48173     48176     48179
     48171     48170     48173     48174     48171     48170     48173     48175
     48171     48170     48173     48176     48172     48170     48173     48174
     48172     48170     48173     48175     48172     48170     48173     48176
     48173     48176     48179     48180     48173     48176     48179     48181
     48173     48176     48179     48184     48174     48173     48176     48177
     48174     48173     48176     48178     48174     48173     48176     48179
     48175     48173     48176     48177     48175     48173     48176     48178
     48175     48173     48176     48179     48176     48179     48181     48182
     48176     48179     48181     48183     48176     48179     48181     48184
     48176     48179     48184     48181     48176     48179     48184     48185
     48176     48179     48184     48186     48177     48176     48179     48180
     48177     48176     48179     48181     48177     48176     48179     48184
     48178     48176     48179     48180     48178     48176     48179     48181
     48178     48176     48179     48184     48179     48181     48184     48185
     48179     48181     48184     48186     48179     48184     48181     48182
     48179     48184     48181     48183     48179     48184     48186     48187
     48179     48184     48186     48188     48179     48184     48186     48189
     48180     48179     48181     48182     48180     48179     48181     48183
     48180     48179     48181     48184     48180     48179     48184     48181
     48180     48179     48184     48185     48180     48179     48184     48186
     48181     48179     48184     48185     48181     48179     48184     48186
     48181     48184     48186     48187     48181     48184     48186     48188
     48181     48184     48186     48189     48182     48181     48179     48184
     48182     48181     48184     48185     48182     48181     48184     48186
     48183     48181     48179     48184     48183     48181     48184     48185
     48183     48181     48184     48186     48184     48186     48189     48190
     48184     48186     48189     48191     48184     48186     48189     48192
     48185     48184     48186     48187     48185     48184     48186     48188
     48185     48184     48186     48189     48186     48189     48192     48193
     48186     48189     48192     48194     48186     48189     48192     48195
     48187     48186     48189     48190     48187     48186     48189     48191
     48187     48186     48189     48192     48188     48186     48189     48190
     48188     48186     48189     48191     48188     48186     48189     48192
     48189     48192     48195     48196     48189     48192     48195     48197
     48189     48192     48195     48198     48190     48189     48192     48193
     48190     48189     48192     48194     48190     48189     48192     48195
     48191     48189     48192     48193     48191     48189     48192     48194
     48191     48189     48192     48195     48192     48195     48198     48199
     48192     48195     48198     48200     48192     48195     48198     48201
     48193     48192     48195     48196     48193     48192     48195     48197
     48193     48192     48195     48198     48194     48192     48195     48196
     48194     48192     48195     48197     48194     48192     48195     48198
     48195     48198     48201     48202     48195     48198     48201     48203
     48195     48198     48201     48204     48196     48195     48198     48199
     48196     48195     48198     48200     48196     48195     48198     48201
     48197     48195     48198     48199     48197     48195     48198     48200
     48197     48195     48198     48201     48199     48198     48201     48202
     48199     48198     48201     48203     48199     48198     48201     48204
     48200     48198     48201     48202     48200     48198     48201     48203
     48200     48198     48201     48204     48205     48208     48211     48212
     48205     48208     48211     48213     48205     48208     48211     48214
     48206     48205     48208     48209     48206     48205     48208     48210
     48206     48205     48208     48211     48207     48205     48208     48209
     48207     48205     48208     48210     48207     48205     48208     48211
     48208     48211     48214     48215     48208     48211     48214     48216
     48208     48211     48214     48217     48209     48208     48211     48212
     48209     48208     48211     48213     48209     48208     48211     48214
     48210     48208     48211     48212     48210     48208     48211     48213
     48210     48208     48211     48214     48211     48214     48217     48218
     48211     48214     48217     48219     48211     48214     48217     48220
     48212     48211     48214     48215     48212     48211     48214     48216
     48212     48211     48214     48217     48213     48211     48214     48215
     48213     48211     48214     48216     48213     48211     48214     48217
     48214     48217     48220     48221     48214     48217     48220     48222
     48214     48217     48220     48223     48215     48214     48217     48218
     48215     48214     48217     48219     48215     48214     48217     48220
     48216     48214     48217     48218     48216     48214     48217     48219
     48216     48214     48217     48220     48217     48220     48223     48224
     48217     48220     48223     48225     48217     48220     48223     48226
     48218     48217     48220     48221     48218     48217     48220     48222
     48218     48217     48220     48223     48219     48217     48220     48221
     48219     48217     48220     48222     48219     48217     48220     48223
     48220     48223     48226     48227     48220     48223     48226     48228
     48220     48223     48226     48229     48221     48220     48223     48224
     48221     48220     48223     48225     48221     48220     48223     48226
     48222     48220     48223     48224     48222     48220     48223     48225
     48222     48220     48223     48226     48223     48226     48229     48230
     48223     48226     48229     48231     48223     48226     48229     48232
     48224     48223     48226     48227     48224     48223     48226     48228
     48224     48223     48226     48229     48225     48223     48226     48227
     48225     48223     48226     48228     48225     48223     48226     48229
     48226     48229     48232     48233     48226     48229     48232     48234
     48226     48229     48232     48235     48227     48226     48229     48230
     48227     48226     48229     48231     48227     48226     48229     48232
     48228     48226     48229     48230     48228     48226     48229     48231
     48228     48226     48229     48232     48229     48232     48235     48236
     48229     48232     48235     48237     48229     48232     48235     48238
     48230     48229     48232     48233     48230     48229     48232     48234
     48230     48229     48232     48235     48231     48229     48232     48233
     48231     48229     48232     48234     48231     48229     48232     48235
     48232     48235     48238     48239     48232     48235     48238     48240
     48232     48235     48238     48241     48233     48232     48235     48236
     48233     48232     48235     48237     48233     48232     48235     48238
     48234     48232     48235     48236     48234     48232     48235     48237
     48234     48232     48235     48238     48235     48238     48241     48242
     48235     48238     48241     48243     48235     48238     48241     48244
     48236     48235     48238     48239     48236     48235     48238     48240
     48236     48235     48238     48241     48237     48235     48238     48239
     48237     48235     48238     48240     48237     48235     48238     48241
     48239     48238     48241     48242     48239     48238     48241     48243
     48239     48238     48241     48244     48240     48238     48241     48242
     48240     48238     48241     48243     48240     48238     48241     48244
     48245     48250     48252     48253     48245     48250     48254     48255
     48245     48250     48254     48256     48245     48250     48254     48261
     48246     48245     48248     48249     48246     48245     48250     48251
     48246     48245     48250     48252     48246     48245     48250     48254
     48247     48245     48248     48249     48247     48245     48250     48251
     48247     48245     48250     48252     48247     48245     48250     48254
     48248     48245     48250     48251     48248     48245     48250     48252
     48248     48245     48250     48254     48249     48248     48245     48250
     48250     48254     48261     48257     48251     48250     48252     48253
     48251     48250     48254     48255     48251     48250     48254     48256
     48251     48250     48254     48261     48252     48250     48254     48255
     48252     48250     48254     48256     48252     48250     48254     48261
     48253     48252     48250     48254     48254     48261     48257     48258
     48254     48261     48257     48259     48254     48261     48257     48260
     48255     48254     48261     48257     48256     48254     48261     48257
     48257     48260     48262     48263     48257     48260     48262     48264
     48257     48260     48262     48265     48258     48257     48260     48262
     48259     48257     48260     48262     48260     48262     48265     48266
     48260     48262     48265     48267     48260     48262     48265     48273
     48261     48257     48260     48262     48262     48265     48267     48268
     48262     48265     48273     48274     48262     48265     48273     48275
     48262     48265     48273     48276     48263     48262     48265     48266
     48263     48262     48265     48267     48263     48262     48265     48273
     48264     48262     48265     48266     48264     48262     48265     48267
     48264     48262     48265     48273     48265     48267     48268     48269
     48265     48267     48268     48270     48265     48273     48276     48277
     48266     48265     48267     48268     48266     48265     48273     48274
     48266     48265     48273     48275     48266     48265     48273     48276
     48267     48265     48273     48274     48267     48265     48273     48275
     48267     48265     48273     48276     48267     48268     48270     48271
     48267     48268     48270     48272     48267     48268     48270     48282
     48268     48267     48265     48273     48268     48270     48282     48283
     48268     48270     48282     48284     48268     48270     48282     48285
     48269     48268     48270     48271     48269     48268     48270     48272
     48269     48268     48270     48282     48270     48282     48285     48286
     48270     48282     48285     48287     48270     48282     48285     48288
     48271     48270     48282     48283     48271     48270     48282     48284
     48271     48270     48282     48285     48272     48270     48282     48283
     48272     48270     48282     48284     48272     48270     48282     48285
     48273     48276     48277     48278     48273     48276     48277     48279
     48274     48273     48276     48277     48275     48273     48276     48277
     48276     48277     48279     48280     48276     48277     48279     48281
     48276     48277     48279     48326     48277     48279     48326     48327
     48277     48279     48326     48328     48277     48279     48326     48329
     48278     48277     48279     48280     48278     48277     48279     48281
     48278     48277     48279     48326     48279     48326     48329     48330
     48279     48326     48329     48331     48279     48326     48329     48332
     48280     48279     48326     48327     48280     48279     48326     48328
     48280     48279     48326     48329     48281     48279     48326     48327
     48281     48279     48326     48328     48281     48279     48326     48329
     48282     48285     48288     48289     48282     48285     48288     48290
     48282     48285     48288     48291     48283     48282     48285     48286
     48283     48282     48285     48287     48283     48282     48285     48288
     48284     48282     48285     48286     48284     48282     48285     48287
     48284     48282     48285     48288     48285     48288     48291     48292
     48285     48288     48291     48293     48285     48288     48291     48294
     48286     48285     48288     48289     48286     48285     48288     48290
     48286     48285     48288     48291     48287     48285     48288     48289
     48287     48285     48288     48290     48287     48285     48288     48291
     48288     48291     48294     48295     48288     48291     48294     48296
     48288     48291     48294     48297     48289     48288     48291     48292
     48289     48288     48291     48293     48289     48288     48291     48294
     48290     48288     48291     48292     48290     48288     48291     48293
     48290     48288     48291     48294     48291     48294     48297     48298
     48291     48294     48297     48299     48291     48294     48297     48300
     48292     48291     48294     48295     48292     48291     48294     48296
     48292     48291     48294     48297     48293     48291     48294     48295
     48293     48291     48294     48296     48293     48291     48294     48297
     48294     48297     48300     48301     48294     48297     48300     48302
     48294     48297     48300     48305     48295     48294     48297     48298
     48295     48294     48297     48299     48295     48294     48297     48300
     48296     48294     48297     48298     48296     48294     48297     48299
     48296     48294     48297     48300     48297     48300     48302     48303
     48297     48300     48302     48304     48297     48300     48302     48305
     48297     48300     48305     48302     48297     48300     48305     48306
     48297     48300     48305     48307     48298     48297     48300     48301
     48298     48297     48300     48302     48298     48297     48300     48305
     48299     48297     48300     48301     48299     48297     48300     48302
     48299     48297     48300     48305     48300     48302     48305     48306
     48300     48302     48305     48307     48300     48305     48302     48303
     48300     48305     48302     48304     48300     48305     48307     48308
     48300     48305     48307     48309     48300     48305     48307     48310
     48301     48300     48302     48303     48301     48300     48302     48304
     48301     48300     48302     48305     48301     48300     48305     48302
     48301     48300     48305     48306     48301     48300     48305     48307
     48302     48300     48305     48306     48302     48300     48305     48307
     48302     48305     48307     48308     48302     48305     48307     48309
     48302     48305     48307     48310     48303     48302     48300     48305
     48303     48302     48305     48306     48303     48302     48305     48307
     48304     48302     48300     48305     48304     48302     48305     48306
     48304     48302     48305     48307     48305     48307     48310     48311
     48305     48307     48310     48312     48305     48307     48310     48313
     48306     48305     48307     48308     48306     48305     48307     48309
     48306     48305     48307     48310     48307     48310     48313     48314
     48307     48310     48313     48315     48307     48310     48313     48316
     48308     48307     48310     48311     48308     48307     48310     48312
     48308     48307     48310     48313     48309     48307     48310     48311
     48309     48307     48310     48312     48309     48307     48310     48313
     48310     48313     48316     48317     48310     48313     48316     48318
     48310     48313     48316     48319     48311     48310     48313     48314
     48311     48310     48313     48315     48311     48310     48313     48316
     48312     48310     48313     48314     48312     48310     48313     48315
     48312     48310     48313     48316     48313     48316     48319     48320
     48313     48316     48319     48321     48313     48316     48319     48322
     48314     48313     48316     48317     48314     48313     48316     48318
     48314     48313     48316     48319     48315     48313     48316     48317
     48315     48313     48316     48318     48315     48313     48316     48319
     48316     48319     48322     48323     48316     48319     48322     48324
     48316     48319     48322     48325     48317     48316     48319     48320
     48317     48316     48319     48321     48317     48316     48319     48322
     48318     48316     48319     48320     48318     48316     48319     48321
     48318     48316     48319     48322     48320     48319     48322     48323
     48320     48319     48322     48324     48320     48319     48322     48325
     48321     48319     48322     48323     48321     48319     48322     48324
     48321     48319     48322     48325     48326     48329     48332     48333
     48326     48329     48332     48334     48326     48329     48332     48335
     48327     48326     48329     48330     48327     48326     48329     48331
     48327     48326     48329     48332     48328     48326     48329     48330
     48328     48326     48329     48331     48328     48326     48329     48332
     48329     48332     48335     48336     48329     48332     48335     48337
     48329     48332     48335     48338     48330     48329     48332     48333
     48330     48329     48332     48334     48330     48329     48332     48335
     48331     48329     48332     48333     48331     48329     48332     48334
     48331     48329     48332     48335     48332     48335     48338     48339
     48332     48335     48338     48340     48332     48335     48338     48341
     48333     48332     48335     48336     48333     48332     48335     48337
     48333     48332     48335     48338     48334     48332     48335     48336
     48334     48332     48335     48337     48334     48332     48335     48338
     48335     48338     48341     48342     48335     48338     48341     48343
     48335     48338     48341     48344     48336     48335     48338     48339
     48336     48335     48338     48340     48336     48335     48338     48341
     48337     48335     48338     48339     48337     48335     48338     48340
     48337     48335     48338     48341     48338     48341     48344     48345
     48338     48341     48344     48346     48338     48341     48344     48347
     48339     48338     48341     48342     48339     48338     48341     48343
     48339     48338     48341     48344     48340     48338     48341     48342
     48340     48338     48341     48343     48340     48338     48341     48344
     48341     48344     48347     48348     48341     48344     48347     48349
     48341     48344     48347     48350     48342     48341     48344     48345
     48342     48341     48344     48346     48342     48341     48344     48347
     48343     48341     48344     48345     48343     48341     48344     48346
     48343     48341     48344     48347     48344     48347     48350     48351
     48344     48347     48350     48352     48344     48347     48350     48353
     48345     48344     48347     48348     48345     48344     48347     48349
     48345     48344     48347     48350     48346     48344     48347     48348
     48346     48344     48347     48349     48346     48344     48347     48350
     48347     48350     48353     48354     48347     48350     48353     48355
     48347     48350     48353     48356     48348     48347     48350     48351
     48348     48347     48350     48352     48348     48347     48350     48353
     48349     48347     48350     48351     48349     48347     48350     48352
     48349     48347     48350     48353     48350     48353     48356     48357
     48350     48353     48356     48358     48350     48353     48356     48359
     48351     48350     48353     48354     48351     48350     48353     48355
     48351     48350     48353     48356     48352     48350     48353     48354
     48352     48350     48353     48355     48352     48350     48353     48356
     48353     48356     48359     48360     48353     48356     48359     48361
     48353     48356     48359     48362     48354     48353     48356     48357
     48354     48353     48356     48358     48354     48353     48356     48359
     48355     48353     48356     48357     48355     48353     48356     48358
     48355     48353     48356     48359     48356     48359     48362     48363
     48356     48359     48362     48364     48356     48359     48362     48365
     48357     48356     48359     48360     48357     48356     48359     48361
     48357     48356     48359     48362     48358     48356     48359     48360
     48358     48356     48359     48361     48358     48356     48359     48362
     48359     48362     48365     48366     48359     48362     48365     48367
     48359     48362     48365     48368     48360     48359     48362     48363
     48360     48359     48362     48364     48360     48359     48362     48365
     48361     48359     48362     48363     48361     48359     48362     48364
     48361     48359     48362     48365     48363     48362     48365     48366
     48363     48362     48365     48367     48363     48362     48365     48368
     48364     48362     48365     48366     48364     48362     48365     48367
     48364     48362     48365     48368     48369     48374     48376     48377
     48369     48374     48378     48379     48369     48374     48378     48380
     48369     48374     48378     48385     48370     48369     48372     48373
     48370     48369     48374     48375     48370     48369     48374     48376
     48370     48369     48374     48378     48371     48369     48372     48373
     48371     48369     48374     48375     48371     48369     48374     48376
     48371     48369     48374     48378     48372     48369     48374     48375
     48372     48369     48374     48376     48372     48369     48374     48378
     48373     48372     48369     48374     48374     48378     48385     48381
     48375     48374     48376     48377     48375     48374     48378     48379
     48375     48374     48378     48380     48375     48374     48378     48385
     48376     48374     48378     48379     48376     48374     48378     48380
     48376     48374     48378     48385     48377     48376     48374     48378
     48378     48385     48381     48382     48378     48385     48381     48383
     48378     48385     48381     48384     48379     48378     48385     48381
     48380     48378     48385     48381     48381     48384     48386     48387
     48381     48384     48386     48388     48381     48384     48386     48389
     48382     48381     48384     48386     48383     48381     48384     48386
     48384     48386     48389     48390     48384     48386     48389     48391
     48384     48386     48389     48397     48385     48381     48384     48386
     48386     48389     48391     48392     48386     48389     48397     48398
     48386     48389     48397     48399     48386     48389     48397     48400
     48387     48386     48389     48390     48387     48386     48389     48391
     48387     48386     48389     48397     48388     48386     48389     48390
     48388     48386     48389     48391     48388     48386     48389     48397
     48389     48391     48392     48393     48389     48391     48392     48394
     48389     48397     48400     48401     48390     48389     48391     48392
     48390     48389     48397     48398     48390     48389     48397     48399
     48390     48389     48397     48400     48391     48389     48397     48398
     48391     48389     48397     48399     48391     48389     48397     48400
     48391     48392     48394     48395     48391     48392     48394     48396
     48391     48392     48394     48406     48392     48391     48389     48397
     48392     48394     48406     48407     48392     48394     48406     48408
     48392     48394     48406     48409     48393     48392     48394     48395
     48393     48392     48394     48396     48393     48392     48394     48406
     48394     48406     48409     48410     48394     48406     48409     48411
     48394     48406     48409     48412     48395     48394     48406     48407
     48395     48394     48406     48408     48395     48394     48406     48409
     48396     48394     48406     48407     48396     48394     48406     48408
     48396     48394     48406     48409     48397     48400     48401     48402
     48397     48400     48401     48403     48398     48397     48400     48401
     48399     48397     48400     48401     48400     48401     48403     48404
     48400     48401     48403     48405     48400     48401     48403     48450
     48401     48403     48450     48451     48401     48403     48450     48452
     48401     48403     48450     48453     48402     48401     48403     48404
     48402     48401     48403     48405     48402     48401     48403     48450
     48403     48450     48453     48454     48403     48450     48453     48455
     48403     48450     48453     48456     48404     48403     48450     48451
     48404     48403     48450     48452     48404     48403     48450     48453
     48405     48403     48450     48451     48405     48403     48450     48452
     48405     48403     48450     48453     48406     48409     48412     48413
     48406     48409     48412     48414     48406     48409     48412     48415
     48407     48406     48409     48410     48407     48406     48409     48411
     48407     48406     48409     48412     48408     48406     48409     48410
     48408     48406     48409     48411     48408     48406     48409     48412
     48409     48412     48415     48416     48409     48412     48415     48417
     48409     48412     48415     48418     48410     48409     48412     48413
     48410     48409     48412     48414     48410     48409     48412     48415
     48411     48409     48412     48413     48411     48409     48412     48414
     48411     48409     48412     48415     48412     48415     48418     48419
     48412     48415     48418     48420     48412     48415     48418     48421
     48413     48412     48415     48416     48413     48412     48415     48417
     48413     48412     48415     48418     48414     48412     48415     48416
     48414     48412     48415     48417     48414     48412     48415     48418
     48415     48418     48421     48422     48415     48418     48421     48423
     48415     48418     48421     48424     48416     48415     48418     48419
     48416     48415     48418     48420     48416     48415     48418     48421
     48417     48415     48418     48419     48417     48415     48418     48420
     48417     48415     48418     48421     48418     48421     48424     48425
     48418     48421     48424     48426     48418     48421     48424     48429
     48419     48418     48421     48422     48419     48418     48421     48423
     48419     48418     48421     48424     48420     48418     48421     48422
     48420     48418     48421     48423     48420     48418     48421     48424
     48421     48424     48426     48427     48421     48424     48426     48428
     48421     48424     48426     48429     48421     48424     48429     48426
     48421     48424     48429     48430     48421     48424     48429     48431
     48422     48421     48424     48425     48422     48421     48424     48426
     48422     48421     48424     48429     48423     48421     48424     48425
     48423     48421     48424     48426     48423     48421     48424     48429
     48424     48426     48429     48430     48424     48426     48429     48431
     48424     48429     48426     48427     48424     48429     48426     48428
     48424     48429     48431     48432     48424     48429     48431     48433
     48424     48429     48431     48434     48425     48424     48426     48427
     48425     48424     48426     48428     48425     48424     48426     48429
     48425     48424     48429     48426     48425     48424     48429     48430
     48425     48424     48429     48431     48426     48424     48429     48430
     48426     48424     48429     48431     48426     48429     48431     48432
     48426     48429     48431     48433     48426     48429     48431     48434
     48427     48426     48424     48429     48427     48426     48429     48430
     48427     48426     48429     48431     48428     48426     48424     48429
     48428     48426     48429     48430     48428     48426     48429     48431
     48429     48431     48434     48435     48429     48431     48434     48436
     48429     48431     48434     48437     48430     48429     48431     48432
     48430     48429     48431     48433     48430     48429     48431     48434
     48431     48434     48437     48438     48431     48434     48437     48439
     48431     48434     48437     48440     48432     48431     48434     48435
     48432     48431     48434     48436     48432     48431     48434     48437
     48433     48431     48434     48435     48433     48431     48434     48436
     48433     48431     48434     48437     48434     48437     48440     48441
     48434     48437     48440     48442     48434     48437     48440     48443
     48435     48434     48437     48438     48435     48434     48437     48439
     48435     48434     48437     48440     48436     48434     48437     48438
     48436     48434     48437     48439     48436     48434     48437     48440
     48437     48440     48443     48444     48437     48440     48443     48445
     48437     48440     48443     48446     48438     48437     48440     48441
     48438     48437     48440     48442     48438     48437     48440     48443
     48439     48437     48440     48441     48439     48437     48440     48442
     48439     48437     48440     48443     48440     48443     48446     48447
     48440     48443     48446     48448     48440     48443     48446     48449
     48441     48440     48443     48444     48441     48440     48443     48445
     48441     48440     48443     48446     48442     48440     48443     48444
     48442     48440     48443     48445     48442     48440     48443     48446
     48444     48443     48446     48447     48444     48443     48446     48448
     48444     48443     48446     48449     48445     48443     48446     48447
     48445     48443     48446     48448     48445     48443     48446     48449
     48450     48453     48456     48457     48450     48453     48456     48458
     48450     48453     48456     48459     48451     48450     48453     48454
     48451     48450     48453     48455     48451     48450     48453     48456
     48452     48450     48453     48454     48452     48450     48453     48455
     48452     48450     48453     48456     48453     48456     48459     48460
     48453     48456     48459     48461     48453     48456     48459     48462
     48454     48453     48456     48457     48454     48453     48456     48458
     48454     48453     48456     48459     48455     48453     48456     48457
     48455     48453     48456     48458     48455     48453     48456     48459
     48456     48459     48462     48463     48456     48459     48462     48464
     48456     48459     48462     48465     48457     48456     48459     48460
     48457     48456     48459     48461     48457     48456     48459     48462
     48458     48456     48459     48460     48458     48456     48459     48461
     48458     48456     48459     48462     48459     48462     48465     48466
     48459     48462     48465     48467     48459     48462     48465     48468
     48460     48459     48462     48463     48460     48459     48462     48464
     48460     48459     48462     48465     48461     48459     48462     48463
     48461     48459     48462     48464     48461     48459     48462     48465
     48462     48465     48468     48469     48462     48465     48468     48470
     48462     48465     48468     48471     48463     48462     48465     48466
     48463     48462     48465     48467     48463     48462     48465     48468
     48464     48462     48465     48466     48464     48462     48465     48467
     48464     48462     48465     48468     48465     48468     48471     48472
     48465     48468     48471     48473     48465     48468     48471     48474
     48466     48465     48468     48469     48466     48465     48468     48470
     48466     48465     48468     48471     48467     48465     48468     48469
     48467     48465     48468     48470     48467     48465     48468     48471
     48468     48471     48474     48475     48468     48471     48474     48476
     48468     48471     48474     48477     48469     48468     48471     48472
     48469     48468     48471     48473     48469     48468     48471     48474
     48470     48468     48471     48472     48470     48468     48471     48473
     48470     48468     48471     48474     48471     48474     48477     48478
     48471     48474     48477     48479     48471     48474     48477     48480
     48472     48471     48474     48475     48472     48471     48474     48476
     48472     48471     48474     48477     48473     48471     48474     48475
     48473     48471     48474     48476     48473     48471     48474     48477
     48474     48477     48480     48481     48474     48477     48480     48482
     48474     48477     48480     48483     48475     48474     48477     48478
     48475     48474     48477     48479     48475     48474     48477     48480
     48476     48474     48477     48478     48476     48474     48477     48479
     48476     48474     48477     48480     48477     48480     48483     48484
     48477     48480     48483     48485     48477     48480     48483     48486
     48478     48477     48480     48481     48478     48477     48480     48482
     48478     48477     48480     48483     48479     48477     48480     48481
     48479     48477     48480     48482     48479     48477     48480     48483
     48480     48483     48486     48487     48480     48483     48486     48488
     48480     48483     48486     48489     48481     48480     48483     48484
     48481     48480     48483     48485     48481     48480     48483     48486
     48482     48480     48483     48484     48482     48480     48483     48485
     48482     48480     48483     48486     48483     48486     48489     48490
     48483     48486     48489     48491     48483     48486     48489     48492
     48484     48483     48486     48487     48484     48483     48486     48488
     48484     48483     48486     48489     48485     48483     48486     48487
     48485     48483     48486     48488     48485     48483     48486     48489
     48487     48486     48489     48490     48487     48486     48489     48491
     48487     48486     48489     48492     48488     48486     48489     48490
     48488     48486     48489     48491     48488     48486     48489     48492
     48493     48498     48500     48501     48493     48498     48502     48503
     48493     48498     48502     48504     48493     48498     48502     48509
     48494     48493     48496     48497     48494     48493     48498     48499
     48494     48493     48498     48500     48494     48493     48498     48502
     48495     48493     48496     48497     48495     48493     48498     48499
     48495     48493     48498     48500     48495     48493     48498     48502
     48496     48493     48498     48499     48496     48493     48498     48500
     48496     48493     48498     48502     48497     48496     48493     48498
     48498     48502     48509     48505     48499     48498     48500     48501
     48499     48498     48502     48503     48499     48498     48502     48504
     48499     48498     48502     48509     48500     48498     48502     48503
     48500     48498     48502     48504     48500     48498     48502     48509
     48501     48500     48498     48502     48502     48509     48505     48506
     48502     48509     48505     48507     48502     48509     48505     48508
     48503     48502     48509     48505     48504     48502     48509     48505
     48505     48508     48510     48511     48505     48508     48510     48512
     48505     48508     48510     48513     48506     48505     48508     48510
     48507     48505     48508     48510     48508     48510     48513     48514
     48508     48510     48513     48515     48508     48510     48513     48521
     48509     48505     48508     48510     48510     48513     48515     48516
     48510     48513     48521     48522     48510     48513     48521     48523
     48510     48513     48521     48524     48511     48510     48513     48514
     48511     48510     48513     48515     48511     48510     48513     48521
     48512     48510     48513     48514     48512     48510     48513     48515
     48512     48510     48513     48521     48513     48515     48516     48517
     48513     48515     48516     48518     48513     48521     48524     48525
     48514     48513     48515     48516     48514     48513     48521     48522
     48514     48513     48521     48523     48514     48513     48521     48524
     48515     48513     48521     48522     48515     48513     48521     48523
     48515     48513     48521     48524     48515     48516     48518     48519
     48515     48516     48518     48520     48515     48516     48518     48530
     48516     48515     48513     48521     48516     48518     48530     48531
     48516     48518     48530     48532     48516     48518     48530     48533
     48517     48516     48518     48519     48517     48516     48518     48520
     48517     48516     48518     48530     48518     48530     48533     48534
     48518     48530     48533     48535     48518     48530     48533     48536
     48519     48518     48530     48531     48519     48518     48530     48532
     48519     48518     48530     48533     48520     48518     48530     48531
     48520     48518     48530     48532     48520     48518     48530     48533
     48521     48524     48525     48526     48521     48524     48525     48527
     48522     48521     48524     48525     48523     48521     48524     48525
     48524     48525     48527     48528     48524     48525     48527     48529
     48524     48525     48527     48574     48525     48527     48574     48575
     48525     48527     48574     48576     48525     48527     48574     48577
     48526     48525     48527     48528     48526     48525     48527     48529
     48526     48525     48527     48574     48527     48574     48577     48578
     48527     48574     48577     48579     48527     48574     48577     48580
     48528     48527     48574     48575     48528     48527     48574     48576
     48528     48527     48574     48577     48529     48527     48574     48575
     48529     48527     48574     48576     48529     48527     48574     48577
     48530     48533     48536     48537     48530     48533     48536     48538
     48530     48533     48536     48539     48531     48530     48533     48534
     48531     48530     48533     48535     48531     48530     48533     48536
     48532     48530     48533     48534     48532     48530     48533     48535
     48532     48530     48533     48536     48533     48536     48539     48540
     48533     48536     48539     48541     48533     48536     48539     48542
     48534     48533     48536     48537     48534     48533     48536     48538
     48534     48533     48536     48539     48535     48533     48536     48537
     48535     48533     48536     48538     48535     48533     48536     48539
     48536     48539     48542     48543     48536     48539     48542     48544
     48536     48539     48542     48545     48537     48536     48539     48540
     48537     48536     48539     48541     48537     48536     48539     48542
     48538     48536     48539     48540     48538     48536     48539     48541
     48538     48536     48539     48542     48539     48542     48545     48546
     48539     48542     48545     48547     48539     48542     48545     48548
     48540     48539     48542     48543     48540     48539     48542     48544
     48540     48539     48542     48545     48541     48539     48542     48543
     48541     48539     48542     48544     48541     48539     48542     48545
     48542     48545     48548     48549     48542     48545     48548     48550
     48542     48545     48548     48553     48543     48542     48545     48546
     48543     48542     48545     48547     48543     48542     48545     48548
     48544     48542     48545     48546     48544     48542     48545     48547
     48544     48542     48545     48548     48545     48548     48550     48551
     48545     48548     48550     48552     48545     48548     48550     48553
     48545     48548     48553     48550     48545     48548     48553     48554
     48545     48548     48553     48555     48546     48545     48548     48549
     48546     48545     48548     48550     48546     48545     48548     48553
     48547     48545     48548     48549     48547     48545     48548     48550
     48547     48545     48548     48553     48548     48550     48553     48554
     48548     48550     48553     48555     48548     48553     48550     48551
     48548     48553     48550     48552     48548     48553     48555     48556
     48548     48553     48555     48557     48548     48553     48555     48558
     48549     48548     48550     48551     48549     48548     48550     48552
     48549     48548     48550     48553     48549     48548     48553     48550
     48549     48548     48553     48554     48549     48548     48553     48555
     48550     48548     48553     48554     48550     48548     48553     48555
     48550     48553     48555     48556     48550     48553     48555     48557
     48550     48553     48555     48558     48551     48550     48548     48553
     48551     48550     48553     48554     48551     48550     48553     48555
     48552     48550     48548     48553     48552     48550     48553     48554
     48552     48550     48553     48555     48553     48555     48558     48559
     48553     48555     48558     48560     48553     48555     48558     48561
     48554     48553     48555     48556     48554     48553     48555     48557
     48554     48553     48555     48558     48555     48558     48561     48562
     48555     48558     48561     48563     48555     48558     48561     48564
     48556     48555     48558     48559     48556     48555     48558     48560
     48556     48555     48558     48561     48557     48555     48558     48559
     48557     48555     48558     48560     48557     48555     48558     48561
     48558     48561     48564     48565     48558     48561     48564     48566
     48558     48561     48564     48567     48559     48558     48561     48562
     48559     48558     48561     48563     48559     48558     48561     48564
     48560     48558     48561     48562     48560     48558     48561     48563
     48560     48558     48561     48564     48561     48564     48567     48568
     48561     48564     48567     48569     48561     48564     48567     48570
     48562     48561     48564     48565     48562     48561     48564     48566
     48562     48561     48564     48567     48563     48561     48564     48565
     48563     48561     48564     48566     48563     48561     48564     48567
     48564     48567     48570     48571     48564     48567     48570     48572
     48564     48567     48570     48573     48565     48564     48567     48568
     48565     48564     48567     48569     48565     48564     48567     48570
     48566     48564     48567     48568     48566     48564     48567     48569
     48566     48564     48567     48570     48568     48567     48570     48571
     48568     48567     48570     48572     48568     48567     48570     48573
     48569     48567     48570     48571     48569     48567     48570     48572
     48569     48567     48570     48573     48574     48577     48580     48581
     48574     48577     48580     48582     48574     48577     48580     48583
     48575     48574     48577     48578     48575     48574     48577     48579
     48575     48574     48577     48580     48576     48574     48577     48578
     48576     48574     48577     48579     48576     48574     48577     48580
     48577     48580     48583     48584     48577     48580     48583     48585
     48577     48580     48583     48586     48578     48577     48580     48581
     48578     48577     48580     48582     48578     48577     48580     48583
     48579     48577     48580     48581     48579     48577     48580     48582
     48579     48577     48580     48583     48580     48583     48586     48587
     48580     48583     48586     48588     48580     48583     48586     48589
     48581     48580     48583     48584     48581     48580     48583     48585
     48581     48580     48583     48586     48582     48580     48583     48584
     48582     48580     48583     48585     48582     48580     48583     48586
     48583     48586     48589     48590     48583     48586     48589     48591
     48583     48586     48589     48592     48584     48583     48586     48587
     48584     48583     48586     48588     48584     48583     48586     48589
     48585     48583     48586     48587     48585     48583     48586     48588
     48585     48583     48586     48589     48586     48589     48592     48593
     48586     48589     48592     48594     48586     48589     48592     48595
     48587     48586     48589     48590     48587     48586     48589     48591
     48587     48586     48589     48592     48588     48586     48589     48590
     48588     48586     48589     48591     48588     48586     48589     48592
     48589     48592     48595     48596     48589     48592     48595     48597
     48589     48592     48595     48598     48590     48589     48592     48593
     48590     48589     48592     48594     48590     48589     48592     48595
     48591     48589     48592     48593     48591     48589     48592     48594
     48591     48589     48592     48595     48592     48595     48598     48599
     48592     48595     48598     48600     48592     48595     48598     48601
     48593     48592     48595     48596     48593     48592     48595     48597
     48593     48592     48595     48598     48594     48592     48595     48596
     48594     48592     48595     48597     48594     48592     48595     48598
     48595     48598     48601     48602     48595     48598     48601     48603
     48595     48598     48601     48604     48596     48595     48598     48599
     48596     48595     48598     48600     48596     48595     48598     48601
     48597     48595     48598     48599     48597     48595     48598     48600
     48597     48595     48598     48601     48598     48601     48604     48605
     48598     48601     48604     48606     48598     48601     48604     48607
     48599     48598     48601     48602     48599     48598     48601     48603
     48599     48598     48601     48604     48600     48598     48601     48602
     48600     48598     48601     48603     48600     48598     48601     48604
     48601     48604     48607     48608     48601     48604     48607     48609
     48601     48604     48607     48610     48602     48601     48604     48605
     48602     48601     48604     48606     48602     48601     48604     48607
     48603     48601     48604     48605     48603     48601     48604     48606
     48603     48601     48604     48607     48604     48607     48610     48611
     48604     48607     48610     48612     48604     48607     48610     48613
     48605     48604     48607     48608     48605     48604     48607     48609
     48605     48604     48607     48610     48606     48604     48607     48608
     48606     48604     48607     48609     48606     48604     48607     48610
     48607     48610     48613     48614     48607     48610     48613     48615
     48607     48610     48613     48616     48608     48607     48610     48611
     48608     48607     48610     48612     48608     48607     48610     48613
     48609     48607     48610     48611     48609     48607     48610     48612
     48609     48607     48610     48613     48611     48610     48613     48614
     48611     48610     48613     48615     48611     48610     48613     48616
     48612     48610     48613     48614     48612     48610     48613     48615
     48612     48610     48613     48616     48617     48621     48624     48625
     48617     48621     48624     48626     48617     48621     48624     48631
     48618     48617     48621     48622     48618     48617     48621     48623
     48618     48617     48621     48624     48619     48617     48621     48622
     48619     48617     48621     48623     48619     48617     48621     48624
     48620     48617     48621     48622     48620     48617     48621     48623
     48620     48617     48621     48624     48621     48624     48631     48627
     48622     48621     48624     48625     48622     48621     48624     48626
     48622     48621     48624     48631     48623     48621     48624     48625
     48623     48621     48624     48626     48623     48621     48624     48631
     48624     48631     48627     48628     48624     48631     48627     48629
     48624     48631     48627     48630     48625     48624     48631     48627
     48626     48624     48631     48627     48627     48630     48632     48633
     48627     48630     48632     48634     48627     48630     48632     48635
     48628     48627     48630     48632     48629     48627     48630     48632
     48630     48632     48635     48636     48630     48632     48635     48637
     48630     48632     48635     48643     48631     48627     48630     48632
     48632     48635     48637     48638     48632     48635     48643     48644
     48632     48635     48643     48645     48632     48635     48643     48646
     48633     48632     48635     48636     48633     48632     48635     48637
     48633     48632     48635     48643     48634     48632     48635     48636
     48634     48632     48635     48637     48634     48632     48635     48643
     48635     48637     48638     48639     48635     48637     48638     48640
     48635     48643     48646     48647     48636     48635     48637     48638
     48636     48635     48643     48644     48636     48635     48643     48645
     48636     48635     48643     48646     48637     48635     48643     48644
     48637     48635     48643     48645     48637     48635     48643     48646
     48637     48638     48640     48641     48637     48638     48640     48642
     48637     48638     48640     48652     48638     48637     48635     48643
     48638     48640     48652     48653     48638     48640     48652     48654
     48638     48640     48652     48655     48639     48638     48640     48641
     48639     48638     48640     48642     48639     48638     48640     48652
     48640     48652     48655     48656     48640     48652     48655     48657
     48640     48652     48655     48658     48641     48640     48652     48653
     48641     48640     48652     48654     48641     48640     48652     48655
     48642     48640     48652     48653     48642     48640     48652     48654
     48642     48640     48652     48655     48643     48646     48647     48648
     48643     48646     48647     48649     48644     48643     48646     48647
     48645     48643     48646     48647     48646     48647     48649     48650
     48646     48647     48649     48651     48646     48647     48649     48696
     48647     48649     48696     48697     48647     48649     48696     48698
     48647     48649     48696     48699     48648     48647     48649     48650
     48648     48647     48649     48651     48648     48647     48649     48696
     48649     48696     48699     48700     48649     48696     48699     48701
     48649     48696     48699     48702     48650     48649     48696     48697
     48650     48649     48696     48698     48650     48649     48696     48699
     48651     48649     48696     48697     48651     48649     48696     48698
     48651     48649     48696     48699     48652     48655     48658     48659
     48652     48655     48658     48660     48652     48655     48658     48661
     48653     48652     48655     48656     48653     48652     48655     48657
     48653     48652     48655     48658     48654     48652     48655     48656
     48654     48652     48655     48657     48654     48652     48655     48658
     48655     48658     48661     48662     48655     48658     48661     48663
     48655     48658     48661     48664     48656     48655     48658     48659
     48656     48655     48658     48660     48656     48655     48658     48661
     48657     48655     48658     48659     48657     48655     48658     48660
     48657     48655     48658     48661     48658     48661     48664     48665
     48658     48661     48664     48666     48658     48661     48664     48667
     48659     48658     48661     48662     48659     48658     48661     48663
     48659     48658     48661     48664     48660     48658     48661     48662
     48660     48658     48661     48663     48660     48658     48661     48664
     48661     48664     48667     48668     48661     48664     48667     48669
     48661     48664     48667     48670     48662     48661     48664     48665
     48662     48661     48664     48666     48662     48661     48664     48667
     48663     48661     48664     48665     48663     48661     48664     48666
     48663     48661     48664     48667     48664     48667     48670     48671
     48664     48667     48670     48672     48664     48667     48670     48675
     48665     48664     48667     48668     48665     48664     48667     48669
     48665     48664     48667     48670     48666     48664     48667     48668
     48666     48664     48667     48669     48666     48664     48667     48670
     48667     48670     48672     48673     48667     48670     48672     48674
     48667     48670     48672     48675     48667     48670     48675     48672
     48667     48670     48675     48676     48667     48670     48675     48677
     48668     48667     48670     48671     48668     48667     48670     48672
     48668     48667     48670     48675     48669     48667     48670     48671
     48669     48667     48670     48672     48669     48667     48670     48675
     48670     48672     48675     48676     48670     48672     48675     48677
     48670     48675     48672     48673     48670     48675     48672     48674
     48670     48675     48677     48678     48670     48675     48677     48679
     48670     48675     48677     48680     48671     48670     48672     48673
     48671     48670     48672     48674     48671     48670     48672     48675
     48671     48670     48675     48672     48671     48670     48675     48676
     48671     48670     48675     48677     48672     48670     48675     48676
     48672     48670     48675     48677     48672     48675     48677     48678
     48672     48675     48677     48679     48672     48675     48677     48680
     48673     48672     48670     48675     48673     48672     48675     48676
     48673     48672     48675     48677     48674     48672     48670     48675
     48674     48672     48675     48676     48674     48672     48675     48677
     48675     48677     48680     48681     48675     48677     48680     48682
     48675     48677     48680     48683     48676     48675     48677     48678
     48676     48675     48677     48679     48676     48675     48677     48680
     48677     48680     48683     48684     48677     48680     48683     48685
     48677     48680     48683     48686     48678     48677     48680     48681
     48678     48677     48680     48682     48678     48677     48680     48683
     48679     48677     48680     48681     48679     48677     48680     48682
     48679     48677     48680     48683     48680     48683     48686     48687
     48680     48683     48686     48688     48680     48683     48686     48689
     48681     48680     48683     48684     48681     48680     48683     48685
     48681     48680     48683     48686     48682     48680     48683     48684
     48682     48680     48683     48685     48682     48680     48683     48686
     48683     48686     48689     48690     48683     48686     48689     48691
     48683     48686     48689     48692     48684     48683     48686     48687
     48684     48683     48686     48688     48684     48683     48686     48689
     48685     48683     48686     48687     48685     48683     48686     48688
     48685     48683     48686     48689     48686     48689     48692     48693
     48686     48689     48692     48694     48686     48689     48692     48695
     48687     48686     48689     48690     48687     48686     48689     48691
     48687     48686     48689     48692     48688     48686     48689     48690
     48688     48686     48689     48691     48688     48686     48689     48692
     48690     48689     48692     48693     48690     48689     48692     48694
     48690     48689     48692     48695     48691     48689     48692     48693
     48691     48689     48692     48694     48691     48689     48692     48695
     48696     48699     48702     48703     48696     48699     48702     48704
     48696     48699     48702     48705     48697     48696     48699     48700
     48697     48696     48699     48701     48697     48696     48699     48702
     48698     48696     48699     48700     48698     48696     48699     48701
     48698     48696     48699     48702     48699     48702     48705     48706
     48699     48702     48705     48707     48699     48702     48705     48708
     48700     48699     48702     48703     48700     48699     48702     48704
     48700     48699     48702     48705     48701     48699     48702     48703
     48701     48699     48702     48704     48701     48699     48702     48705
     48702     48705     48708     48709     48702     48705     48708     48710
     48702     48705     48708     48711     48703     48702     48705     48706
     48703     48702     48705     48707     48703     48702     48705     48708
     48704     48702     48705     48706     48704     48702     48705     48707
     48704     48702     48705     48708     48705     48708     48711     48712
     48705     48708     48711     48713     48705     48708     48711     48714
     48706     48705     48708     48709     48706     48705     48708     48710
     48706     48705     48708     48711     48707     48705     48708     48709
     48707     48705     48708     48710     48707     48705     48708     48711
     48708     48711     48714     48715     48708     48711     48714     48716
     48708     48711     48714     48717     48709     48708     48711     48712
     48709     48708     48711     48713     48709     48708     48711     48714
     48710     48708     48711     48712     48710     48708     48711     48713
     48710     48708     48711     48714     48711     48714     48717     48718
     48711     48714     48717     48719     48711     48714     48717     48720
     48712     48711     48714     48715     48712     48711     48714     48716
     48712     48711     48714     48717     48713     48711     48714     48715
     48713     48711     48714     48716     48713     48711     48714     48717
     48714     48717     48720     48721     48714     48717     48720     48722
     48714     48717     48720     48723     48715     48714     48717     48718
     48715     48714     48717     48719     48715     48714     48717     48720
     48716     48714     48717     48718     48716     48714     48717     48719
     48716     48714     48717     48720     48717     48720     48723     48724
     48717     48720     48723     48725     48717     48720     48723     48726
     48718     48717     48720     48721     48718     48717     48720     48722
     48718     48717     48720     48723     48719     48717     48720     48721
     48719     48717     48720     48722     48719     48717     48720     48723
     48720     48723     48726     48727     48720     48723     48726     48728
     48720     48723     48726     48729     48721     48720     48723     48724
     48721     48720     48723     48725     48721     48720     48723     48726
     48722     48720     48723     48724     48722     48720     48723     48725
     48722     48720     48723     48726     48723     48726     48729     48730
     48723     48726     48729     48731     48723     48726     48729     48732
     48724     48723     48726     48727     48724     48723     48726     48728
     48724     48723     48726     48729     48725     48723     48726     48727
     48725     48723     48726     48728     48725     48723     48726     48729
     48726     48729     48732     48733     48726     48729     48732     48734
     48726     48729     48732     48735     48727     48726     48729     48730
     48727     48726     48729     48731     48727     48726     48729     48732
     48728     48726     48729     48730     48728     48726     48729     48731
     48728     48726     48729     48732     48729     48732     48735     48736
     48729     48732     48735     48737     48729     48732     48735     48738
     48730     48729     48732     48733     48730     48729     48732     48734
     48730     48729     48732     48735     48731     48729     48732     48733
     48731     48729     48732     48734     48731     48729     48732     48735
     48733     48732     48735     48736     48733     48732     48735     48737
     48733     48732     48735     48738     48734     48732     48735     48736
     48734     48732     48735     48737     48734     48732     48735     48738
     48739     48743     48746     48747     48739     48743     48746     48748
     48739     48743     48746     48753     48740     48739     48743     48744
     48740     48739     48743     48745     48740     48739     48743     48746
     48741     48739     48743     48744     48741     48739     48743     48745
     48741     48739     48743     48746     48742     48739     48743     48744
     48742     48739     48743     48745     48742     48739     48743     48746
     48743     48746     48753     48749     48744     48743     48746     48747
     48744     48743     48746     48748     48744     48743     48746     48753
     48745     48743     48746     48747     48745     48743     48746     48748
     48745     48743     48746     48753     48746     48753     48749     48750
     48746     48753     48749     48751     48746     48753     48749     48752
     48747     48746     48753     48749     48748     48746     48753     48749
     48749     48752     48754     48755     48749     48752     48754     48756
     48749     48752     48754     48757     48750     48749     48752     48754
     48751     48749     48752     48754     48752     48754     48757     48758
     48752     48754     48757     48759     48752     48754     48757     48765
     48753     48749     48752     48754     48754     48757     48759     48760
     48754     48757     48765     48766     48754     48757     48765     48767
     48754     48757     48765     48768     48755     48754     48757     48758
     48755     48754     48757     48759     48755     48754     48757     48765
     48756     48754     48757     48758     48756     48754     48757     48759
     48756     48754     48757     48765     48757     48759     48760     48761
     48757     48759     48760     48762     48757     48765     48768     48769
     48758     48757     48759     48760     48758     48757     48765     48766
     48758     48757     48765     48767     48758     48757     48765     48768
     48759     48757     48765     48766     48759     48757     48765     48767
     48759     48757     48765     48768     48759     48760     48762     48763
     48759     48760     48762     48764     48759     48760     48762     48774
     48760     48759     48757     48765     48760     48762     48774     48775
     48760     48762     48774     48776     48760     48762     48774     48777
     48761     48760     48762     48763     48761     48760     48762     48764
     48761     48760     48762     48774     48762     48774     48777     48778
     48762     48774     48777     48779     48762     48774     48777     48780
     48763     48762     48774     48775     48763     48762     48774     48776
     48763     48762     48774     48777     48764     48762     48774     48775
     48764     48762     48774     48776     48764     48762     48774     48777
     48765     48768     48769     48770     48765     48768     48769     48771
     48766     48765     48768     48769     48767     48765     48768     48769
     48768     48769     48771     48772     48768     48769     48771     48773
     48768     48769     48771     48818     48769     48771     48818     48819
     48769     48771     48818     48820     48769     48771     48818     48821
     48770     48769     48771     48772     48770     48769     48771     48773
     48770     48769     48771     48818     48771     48818     48821     48822
     48771     48818     48821     48823     48771     48818     48821     48824
     48772     48771     48818     48819     48772     48771     48818     48820
     48772     48771     48818     48821     48773     48771     48818     48819
     48773     48771     48818     48820     48773     48771     48818     48821
     48774     48777     48780     48781     48774     48777     48780     48782
     48774     48777     48780     48783     48775     48774     48777     48778
     48775     48774     48777     48779     48775     48774     48777     48780
     48776     48774     48777     48778     48776     48774     48777     48779
     48776     48774     48777     48780     48777     48780     48783     48784
     48777     48780     48783     48785     48777     48780     48783     48786
     48778     48777     48780     48781     48778     48777     48780     48782
     48778     48777     48780     48783     48779     48777     48780     48781
     48779     48777     48780     48782     48779     48777     48780     48783
     48780     48783     48786     48787     48780     48783     48786     48788
     48780     48783     48786     48789     48781     48780     48783     48784
     48781     48780     48783     48785     48781     48780     48783     48786
     48782     48780     48783     48784     48782     48780     48783     48785
     48782     48780     48783     48786     48783     48786     48789     48790
     48783     48786     48789     48791     48783     48786     48789     48792
     48784     48783     48786     48787     48784     48783     48786     48788
     48784     48783     48786     48789     48785     48783     48786     48787
     48785     48783     48786     48788     48785     48783     48786     48789
     48786     48789     48792     48793     48786     48789     48792     48794
     48786     48789     48792     48797     48787     48786     48789     48790
     48787     48786     48789     48791     48787     48786     48789     48792
     48788     48786     48789     48790     48788     48786     48789     48791
     48788     48786     48789     48792     48789     48792     48794     48795
     48789     48792     48794     48796     48789     48792     48794     48797
     48789     48792     48797     48794     48789     48792     48797     48798
     48789     48792     48797     48799     48790     48789     48792     48793
     48790     48789     48792     48794     48790     48789     48792     48797
     48791     48789     48792     48793     48791     48789     48792     48794
     48791     48789     48792     48797     48792     48794     48797     48798
     48792     48794     48797     48799     48792     48797     48794     48795
     48792     48797     48794     48796     48792     48797     48799     48800
     48792     48797     48799     48801     48792     48797     48799     48802
     48793     48792     48794     48795     48793     48792     48794     48796
     48793     48792     48794     48797     48793     48792     48797     48794
     48793     48792     48797     48798     48793     48792     48797     48799
     48794     48792     48797     48798     48794     48792     48797     48799
     48794     48797     48799     48800     48794     48797     48799     48801
     48794     48797     48799     48802     48795     48794     48792     48797
     48795     48794     48797     48798     48795     48794     48797     48799
     48796     48794     48792     48797     48796     48794     48797     48798
     48796     48794     48797     48799     48797     48799     48802     48803
     48797     48799     48802     48804     48797     48799     48802     48805
     48798     48797     48799     48800     48798     48797     48799     48801
     48798     48797     48799     48802     48799     48802     48805     48806
     48799     48802     48805     48807     48799     48802     48805     48808
     48800     48799     48802     48803     48800     48799     48802     48804
     48800     48799     48802     48805     48801     48799     48802     48803
     48801     48799     48802     48804     48801     48799     48802     48805
     48802     48805     48808     48809     48802     48805     48808     48810
     48802     48805     48808     48811     48803     48802     48805     48806
     48803     48802     48805     48807     48803     48802     48805     48808
     48804     48802     48805     48806     48804     48802     48805     48807
     48804     48802     48805     48808     48805     48808     48811     48812
     48805     48808     48811     48813     48805     48808     48811     48814
     48806     48805     48808     48809     48806     48805     48808     48810
     48806     48805     48808     48811     48807     48805     48808     48809
     48807     48805     48808     48810     48807     48805     48808     48811
     48808     48811     48814     48815     48808     48811     48814     48816
     48808     48811     48814     48817     48809     48808     48811     48812
     48809     48808     48811     48813     48809     48808     48811     48814
     48810     48808     48811     48812     48810     48808     48811     48813
     48810     48808     48811     48814     48812     48811     48814     48815
     48812     48811     48814     48816     48812     48811     48814     48817
     48813     48811     48814     48815     48813     48811     48814     48816
     48813     48811     48814     48817     48818     48821     48824     48825
     48818     48821     48824     48826     48818     48821     48824     48827
     48819     48818     48821     48822     48819     48818     48821     48823
     48819     48818     48821     48824     48820     48818     48821     48822
     48820     48818     48821     48823     48820     48818     48821     48824
     48821     48824     48827     48828     48821     48824     48827     48829
     48821     48824     48827     48830     48822     48821     48824     48825
     48822     48821     48824     48826     48822     48821     48824     48827
     48823     48821     48824     48825     48823     48821     48824     48826
     48823     48821     48824     48827     48824     48827     48830     48831
     48824     48827     48830     48832     48824     48827     48830     48833
     48825     48824     48827     48828     48825     48824     48827     48829
     48825     48824     48827     48830     48826     48824     48827     48828
     48826     48824     48827     48829     48826     48824     48827     48830
     48827     48830     48833     48834     48827     48830     48833     48835
     48827     48830     48833     48836     48828     48827     48830     48831
     48828     48827     48830     48832     48828     48827     48830     48833
     48829     48827     48830     48831     48829     48827     48830     48832
     48829     48827     48830     48833     48830     48833     48836     48837
     48830     48833     48836     48838     48830     48833     48836     48839
     48831     48830     48833     48834     48831     48830     48833     48835
     48831     48830     48833     48836     48832     48830     48833     48834
     48832     48830     48833     48835     48832     48830     48833     48836
     48833     48836     48839     48840     48833     48836     48839     48841
     48833     48836     48839     48842     48834     48833     48836     48837
     48834     48833     48836     48838     48834     48833     48836     48839
     48835     48833     48836     48837     48835     48833     48836     48838
     48835     48833     48836     48839     48836     48839     48842     48843
     48836     48839     48842     48844     48836     48839     48842     48845
     48837     48836     48839     48840     48837     48836     48839     48841
     48837     48836     48839     48842     48838     48836     48839     48840
     48838     48836     48839     48841     48838     48836     48839     48842
     48839     48842     48845     48846     48839     48842     48845     48847
     48839     48842     48845     48848     48840     48839     48842     48843
     48840     48839     48842     48844     48840     48839     48842     48845
     48841     48839     48842     48843     48841     48839     48842     48844
     48841     48839     48842     48845     48842     48845     48848     48849
     48842     48845     48848     48850     48842     48845     48848     48851
     48843     48842     48845     48846     48843     48842     48845     48847
     48843     48842     48845     48848     48844     48842     48845     48846
     48844     48842     48845     48847     48844     48842     48845     48848
     48845     48848     48851     48852     48845     48848     48851     48853
     48845     48848     48851     48854     48846     48845     48848     48849
     48846     48845     48848     48850     48846     48845     48848     48851
     48847     48845     48848     48849     48847     48845     48848     48850
     48847     48845     48848     48851     48848     48851     48854     48855
     48848     48851     48854     48856     48848     48851     48854     48857
     48849     48848     48851     48852     48849     48848     48851     48853
     48849     48848     48851     48854     48850     48848     48851     48852
     48850     48848     48851     48853     48850     48848     48851     48854
     48851     48854     48857     48858     48851     48854     48857     48859
     48851     48854     48857     48860     48852     48851     48854     48855
     48852     48851     48854     48856     48852     48851     48854     48857
     48853     48851     48854     48855     48853     48851     48854     48856
     48853     48851     48854     48857     48855     48854     48857     48858
     48855     48854     48857     48859     48855     48854     48857     48860
     48856     48854     48857     48858     48856     48854     48857     48859
     48856     48854     48857     48860     48861     48865     48868     48869
     48861     48865     48868     48870     48861     48865     48868     48875
     48862     48861     48865     48866     48862     48861     48865     48867
     48862     48861     48865     48868     48863     48861     48865     48866
     48863     48861     48865     48867     48863     48861     48865     48868
     48864     48861     48865     48866     48864     48861     48865     48867
     48864     48861     48865     48868     48865     48868     48875     48871
     48866     48865     48868     48869     48866     48865     48868     48870
     48866     48865     48868     48875     48867     48865     48868     48869
     48867     48865     48868     48870     48867     48865     48868     48875
     48868     48875     48871     48872     48868     48875     48871     48873
     48868     48875     48871     48874     48869     48868     48875     48871
     48870     48868     48875     48871     48871     48874     48876     48877
     48871     48874     48876     48878     48871     48874     48876     48879
     48872     48871     48874     48876     48873     48871     48874     48876
     48874     48876     48879     48880     48874     48876     48879     48881
     48874     48876     48879     48887     48875     48871     48874     48876
     48876     48879     48881     48882     48876     48879     48887     48888
     48876     48879     48887     48889     48876     48879     48887     48890
     48877     48876     48879     48880     48877     48876     48879     48881
     48877     48876     48879     48887     48878     48876     48879     48880
     48878     48876     48879     48881     48878     48876     48879     48887
     48879     48881     48882     48883     48879     48881     48882     48884
     48879     48887     48890     48891     48880     48879     48881     48882
     48880     48879     48887     48888     48880     48879     48887     48889
     48880     48879     48887     48890     48881     48879     48887     48888
     48881     48879     48887     48889     48881     48879     48887     48890
     48881     48882     48884     48885     48881     48882     48884     48886
     48881     48882     48884     48896     48882     48881     48879     48887
     48882     48884     48896     48897     48882     48884     48896     48898
     48882     48884     48896     48899     48883     48882     48884     48885
     48883     48882     48884     48886     48883     48882     48884     48896
     48884     48896     48899     48900     48884     48896     48899     48901
     48884     48896     48899     48902     48885     48884     48896     48897
     48885     48884     48896     48898     48885     48884     48896     48899
     48886     48884     48896     48897     48886     48884     48896     48898
     48886     48884     48896     48899     48887     48890     48891     48892
     48887     48890     48891     48893     48888     48887     48890     48891
     48889     48887     48890     48891     48890     48891     48893     48894
     48890     48891     48893     48895     48890     48891     48893     48940
     48891     48893     48940     48941     48891     48893     48940     48942
     48891     48893     48940     48943     48892     48891     48893     48894
     48892     48891     48893     48895     48892     48891     48893     48940
     48893     48940     48943     48944     48893     48940     48943     48945
     48893     48940     48943     48946     48894     48893     48940     48941
     48894     48893     48940     48942     48894     48893     48940     48943
     48895     48893     48940     48941     48895     48893     48940     48942
     48895     48893     48940     48943     48896     48899     48902     48903
     48896     48899     48902     48904     48896     48899     48902     48905
     48897     48896     48899     48900     48897     48896     48899     48901
     48897     48896     48899     48902     48898     48896     48899     48900
     48898     48896     48899     48901     48898     48896     48899     48902
     48899     48902     48905     48906     48899     48902     48905     48907
     48899     48902     48905     48908     48900     48899     48902     48903
     48900     48899     48902     48904     48900     48899     48902     48905
     48901     48899     48902     48903     48901     48899     48902     48904
     48901     48899     48902     48905     48902     48905     48908     48909
     48902     48905     48908     48910     48902     48905     48908     48911
     48903     48902     48905     48906     48903     48902     48905     48907
     48903     48902     48905     48908     48904     48902     48905     48906
     48904     48902     48905     48907     48904     48902     48905     48908
     48905     48908     48911     48912     48905     48908     48911     48913
     48905     48908     48911     48914     48906     48905     48908     48909
     48906     48905     48908     48910     48906     48905     48908     48911
     48907     48905     48908     48909     48907     48905     48908     48910
     48907     48905     48908     48911     48908     48911     48914     48915
     48908     48911     48914     48916     48908     48911     48914     48919
     48909     48908     48911     48912     48909     48908     48911     48913
     48909     48908     48911     48914     48910     48908     48911     48912
     48910     48908     48911     48913     48910     48908     48911     48914
     48911     48914     48916     48917     48911     48914     48916     48918
     48911     48914     48916     48919     48911     48914     48919     48916
     48911     48914     48919     48920     48911     48914     48919     48921
     48912     48911     48914     48915     48912     48911     48914     48916
     48912     48911     48914     48919     48913     48911     48914     48915
     48913     48911     48914     48916     48913     48911     48914     48919
     48914     48916     48919     48920     48914     48916     48919     48921
     48914     48919     48916     48917     48914     48919     48916     48918
     48914     48919     48921     48922     48914     48919     48921     48923
     48914     48919     48921     48924     48915     48914     48916     48917
     48915     48914     48916     48918     48915     48914     48916     48919
     48915     48914     48919     48916     48915     48914     48919     48920
     48915     48914     48919     48921     48916     48914     48919     48920
     48916     48914     48919     48921     48916     48919     48921     48922
     48916     48919     48921     48923     48916     48919     48921     48924
     48917     48916     48914     48919     48917     48916     48919     48920
     48917     48916     48919     48921     48918     48916     48914     48919
     48918     48916     48919     48920     48918     48916     48919     48921
     48919     48921     48924     48925     48919     48921     48924     48926
     48919     48921     48924     48927     48920     48919     48921     48922
     48920     48919     48921     48923     48920     48919     48921     48924
     48921     48924     48927     48928     48921     48924     48927     48929
     48921     48924     48927     48930     48922     48921     48924     48925
     48922     48921     48924     48926     48922     48921     48924     48927
     48923     48921     48924     48925     48923     48921     48924     48926
     48923     48921     48924     48927     48924     48927     48930     48931
     48924     48927     48930     48932     48924     48927     48930     48933
     48925     48924     48927     48928     48925     48924     48927     48929
     48925     48924     48927     48930     48926     48924     48927     48928
     48926     48924     48927     48929     48926     48924     48927     48930
     48927     48930     48933     48934     48927     48930     48933     48935
     48927     48930     48933     48936     48928     48927     48930     48931
     48928     48927     48930     48932     48928     48927     48930     48933
     48929     48927     48930     48931     48929     48927     48930     48932
     48929     48927     48930     48933     48930     48933     48936     48937
     48930     48933     48936     48938     48930     48933     48936     48939
     48931     48930     48933     48934     48931     48930     48933     48935
     48931     48930     48933     48936     48932     48930     48933     48934
     48932     48930     48933     48935     48932     48930     48933     48936
     48934     48933     48936     48937     48934     48933     48936     48938
     48934     48933     48936     48939     48935     48933     48936     48937
     48935     48933     48936     48938     48935     48933     48936     48939
     48940     48943     48946     48947     48940     48943     48946     48948
     48940     48943     48946     48949     48941     48940     48943     48944
     48941     48940     48943     48945     48941     48940     48943     48946
     48942     48940     48943     48944     48942     48940     48943     48945
     48942     48940     48943     48946     48943     48946     48949     48950
     48943     48946     48949     48951     48943     48946     48949     48952
     48944     48943     48946     48947     48944     48943     48946     48948
     48944     48943     48946     48949     48945     48943     48946     48947
     48945     48943     48946     48948     48945     48943     48946     48949
     48946     48949     48952     48953     48946     48949     48952     48954
     48946     48949     48952     48955     48947     48946     48949     48950
     48947     48946     48949     48951     48947     48946     48949     48952
     48948     48946     48949     48950     48948     48946     48949     48951
     48948     48946     48949     48952     48949     48952     48955     48956
     48949     48952     48955     48957     48949     48952     48955     48958
     48950     48949     48952     48953     48950     48949     48952     48954
     48950     48949     48952     48955     48951     48949     48952     48953
     48951     48949     48952     48954     48951     48949     48952     48955
     48952     48955     48958     48959     48952     48955     48958     48960
     48952     48955     48958     48961     48953     48952     48955     48956
     48953     48952     48955     48957     48953     48952     48955     48958
     48954     48952     48955     48956     48954     48952     48955     48957
     48954     48952     48955     48958     48955     48958     48961     48962
     48955     48958     48961     48963     48955     48958     48961     48964
     48956     48955     48958     48959     48956     48955     48958     48960
     48956     48955     48958     48961     48957     48955     48958     48959
     48957     48955     48958     48960     48957     48955     48958     48961
     48958     48961     48964     48965     48958     48961     48964     48966
     48958     48961     48964     48967     48959     48958     48961     48962
     48959     48958     48961     48963     48959     48958     48961     48964
     48960     48958     48961     48962     48960     48958     48961     48963
     48960     48958     48961     48964     48961     48964     48967     48968
     48961     48964     48967     48969     48961     48964     48967     48970
     48962     48961     48964     48965     48962     48961     48964     48966
     48962     48961     48964     48967     48963     48961     48964     48965
     48963     48961     48964     48966     48963     48961     48964     48967
     48964     48967     48970     48971     48964     48967     48970     48972
     48964     48967     48970     48973     48965     48964     48967     48968
     48965     48964     48967     48969     48965     48964     48967     48970
     48966     48964     48967     48968     48966     48964     48967     48969
     48966     48964     48967     48970     48967     48970     48973     48974
     48967     48970     48973     48975     48967     48970     48973     48976
     48968     48967     48970     48971     48968     48967     48970     48972
     48968     48967     48970     48973     48969     48967     48970     48971
     48969     48967     48970     48972     48969     48967     48970     48973
     48970     48973     48976     48977     48970     48973     48976     48978
     48970     48973     48976     48979     48971     48970     48973     48974
     48971     48970     48973     48975     48971     48970     48973     48976
     48972     48970     48973     48974     48972     48970     48973     48975
     48972     48970     48973     48976     48974     48973     48976     48977
     48974     48973     48976     48978     48974     48973     48976     48979
     48975     48973     48976     48977     48975     48973     48976     48978
     48975     48973     48976     48979     48980     48984     48987     48988
     48980     48984     48987     48989     48980     48984     48987     48994
     48981     48980     48984     48985     48981     48980     48984     48986
     48981     48980     48984     48987     48982     48980     48984     48985
     48982     48980     48984     48986     48982     48980     48984     48987
     48983     48980     48984     48985     48983     48980     48984     48986
     48983     48980     48984     48987     48984     48987     48994     48990
     48985     48984     48987     48988     48985     48984     48987     48989
     48985     48984     48987     48994     48986     48984     48987     48988
     48986     48984     48987     48989     48986     48984     48987     48994
     48987     48994     48990     48991     48987     48994     48990     48992
     48987     48994     48990     48993     48988     48987     48994     48990
     48989     48987     48994     48990     48990     48993     48995     48996
     48990     48993     48995     48997     48990     48993     48995     48998
     48991     48990     48993     48995     48992     48990     48993     48995
     48993     48995     48998     48999     48993     48995     48998     49000
     48993     48995     48998     49006     48994     48990     48993     48995
     48995     48998     49000     49001     48995     48998     49006     49007
     48995     48998     49006     49008     48995     48998     49006     49009
     48996     48995     48998     48999     48996     48995     48998     49000
     48996     48995     48998     49006     48997     48995     48998     48999
     48997     48995     48998     49000     48997     48995     48998     49006
     48998     49000     49001     49002     48998     49000     49001     49003
     48998     49006     49009     49010     48999     48998     49000     49001
     48999     48998     49006     49007     48999     48998     49006     49008
     48999     48998     49006     49009     49000     48998     49006     49007
     49000     48998     49006     49008     49000     48998     49006     49009
     49000     49001     49003     49004     49000     49001     49003     49005
     49000     49001     49003     49015     49001     49000     48998     49006
     49001     49003     49015     49016     49001     49003     49015     49017
     49001     49003     49015     49018     49002     49001     49003     49004
     49002     49001     49003     49005     49002     49001     49003     49015
     49003     49015     49018     49019     49003     49015     49018     49020
     49003     49015     49018     49021     49004     49003     49015     49016
     49004     49003     49015     49017     49004     49003     49015     49018
     49005     49003     49015     49016     49005     49003     49015     49017
     49005     49003     49015     49018     49006     49009     49010     49011
     49006     49009     49010     49012     49007     49006     49009     49010
     49008     49006     49009     49010     49009     49010     49012     49013
     49009     49010     49012     49014     49009     49010     49012     49059
     49010     49012     49059     49060     49010     49012     49059     49061
     49010     49012     49059     49062     49011     49010     49012     49013
     49011     49010     49012     49014     49011     49010     49012     49059
     49012     49059     49062     49063     49012     49059     49062     49064
     49012     49059     49062     49065     49013     49012     49059     49060
     49013     49012     49059     49061     49013     49012     49059     49062
     49014     49012     49059     49060     49014     49012     49059     49061
     49014     49012     49059     49062     49015     49018     49021     49022
     49015     49018     49021     49023     49015     49018     49021     49024
     49016     49015     49018     49019     49016     49015     49018     49020
     49016     49015     49018     49021     49017     49015     49018     49019
     49017     49015     49018     49020     49017     49015     49018     49021
     49018     49021     49024     49025     49018     49021     49024     49026
     49018     49021     49024     49027     49019     49018     49021     49022
     49019     49018     49021     49023     49019     49018     49021     49024
     49020     49018     49021     49022     49020     49018     49021     49023
     49020     49018     49021     49024     49021     49024     49027     49028
     49021     49024     49027     49029     49021     49024     49027     49030
     49022     49021     49024     49025     49022     49021     49024     49026
     49022     49021     49024     49027     49023     49021     49024     49025
     49023     49021     49024     49026     49023     49021     49024     49027
     49024     49027     49030     49031     49024     49027     49030     49032
     49024     49027     49030     49033     49025     49024     49027     49028
     49025     49024     49027     49029     49025     49024     49027     49030
     49026     49024     49027     49028     49026     49024     49027     49029
     49026     49024     49027     49030     49027     49030     49033     49034
     49027     49030     49033     49035     49027     49030     49033     49038
     49028     49027     49030     49031     49028     49027     49030     49032
     49028     49027     49030     49033     49029     49027     49030     49031
     49029     49027     49030     49032     49029     49027     49030     49033
     49030     49033     49035     49036     49030     49033     49035     49037
     49030     49033     49035     49038     49030     49033     49038     49035
     49030     49033     49038     49039     49030     49033     49038     49040
     49031     49030     49033     49034     49031     49030     49033     49035
     49031     49030     49033     49038     49032     49030     49033     49034
     49032     49030     49033     49035     49032     49030     49033     49038
     49033     49035     49038     49039     49033     49035     49038     49040
     49033     49038     49035     49036     49033     49038     49035     49037
     49033     49038     49040     49041     49033     49038     49040     49042
     49033     49038     49040     49043     49034     49033     49035     49036
     49034     49033     49035     49037     49034     49033     49035     49038
     49034     49033     49038     49035     49034     49033     49038     49039
     49034     49033     49038     49040     49035     49033     49038     49039
     49035     49033     49038     49040     49035     49038     49040     49041
     49035     49038     49040     49042     49035     49038     49040     49043
     49036     49035     49033     49038     49036     49035     49038     49039
     49036     49035     49038     49040     49037     49035     49033     49038
     49037     49035     49038     49039     49037     49035     49038     49040
     49038     49040     49043     49044     49038     49040     49043     49045
     49038     49040     49043     49046     49039     49038     49040     49041
     49039     49038     49040     49042     49039     49038     49040     49043
     49040     49043     49046     49047     49040     49043     49046     49048
     49040     49043     49046     49049     49041     49040     49043     49044
     49041     49040     49043     49045     49041     49040     49043     49046
     49042     49040     49043     49044     49042     49040     49043     49045
     49042     49040     49043     49046     49043     49046     49049     49050
     49043     49046     49049     49051     49043     49046     49049     49052
     49044     49043     49046     49047     49044     49043     49046     49048
     49044     49043     49046     49049     49045     49043     49046     49047
     49045     49043     49046     49048     49045     49043     49046     49049
     49046     49049     49052     49053     49046     49049     49052     49054
     49046     49049     49052     49055     49047     49046     49049     49050
     49047     49046     49049     49051     49047     49046     49049     49052
     49048     49046     49049     49050     49048     49046     49049     49051
     49048     49046     49049     49052     49049     49052     49055     49056
     49049     49052     49055     49057     49049     49052     49055     49058
     49050     49049     49052     49053     49050     49049     49052     49054
     49050     49049     49052     49055     49051     49049     49052     49053
     49051     49049     49052     49054     49051     49049     49052     49055
     49053     49052     49055     49056     49053     49052     49055     49057
     49053     49052     49055     49058     49054     49052     49055     49056
     49054     49052     49055     49057     49054     49052     49055     49058
     49059     49062     49065     49066     49059     49062     49065     49067
     49059     49062     49065     49068     49060     49059     49062     49063
     49060     49059     49062     49064     49060     49059     49062     49065
     49061     49059     49062     49063     49061     49059     49062     49064
     49061     49059     49062     49065     49062     49065     49068     49069
     49062     49065     49068     49070     49062     49065     49068     49071
     49063     49062     49065     49066     49063     49062     49065     49067
     49063     49062     49065     49068     49064     49062     49065     49066
     49064     49062     49065     49067     49064     49062     49065     49068
     49065     49068     49071     49072     49065     49068     49071     49073
     49065     49068     49071     49074     49066     49065     49068     49069
     49066     49065     49068     49070     49066     49065     49068     49071
     49067     49065     49068     49069     49067     49065     49068     49070
     49067     49065     49068     49071     49068     49071     49074     49075
     49068     49071     49074     49076     49068     49071     49074     49077
     49069     49068     49071     49072     49069     49068     49071     49073
     49069     49068     49071     49074     49070     49068     49071     49072
     49070     49068     49071     49073     49070     49068     49071     49074
     49071     49074     49077     49078     49071     49074     49077     49079
     49071     49074     49077     49080     49072     49071     49074     49075
     49072     49071     49074     49076     49072     49071     49074     49077
     49073     49071     49074     49075     49073     49071     49074     49076
     49073     49071     49074     49077     49074     49077     49080     49081
     49074     49077     49080     49082     49074     49077     49080     49083
     49075     49074     49077     49078     49075     49074     49077     49079
     49075     49074     49077     49080     49076     49074     49077     49078
     49076     49074     49077     49079     49076     49074     49077     49080
     49077     49080     49083     49084     49077     49080     49083     49085
     49077     49080     49083     49086     49078     49077     49080     49081
     49078     49077     49080     49082     49078     49077     49080     49083
     49079     49077     49080     49081     49079     49077     49080     49082
     49079     49077     49080     49083     49080     49083     49086     49087
     49080     49083     49086     49088     49080     49083     49086     49089
     49081     49080     49083     49084     49081     49080     49083     49085
     49081     49080     49083     49086     49082     49080     49083     49084
     49082     49080     49083     49085     49082     49080     49083     49086
     49083     49086     49089     49090     49083     49086     49089     49091
     49083     49086     49089     49092     49084     49083     49086     49087
     49084     49083     49086     49088     49084     49083     49086     49089
     49085     49083     49086     49087     49085     49083     49086     49088
     49085     49083     49086     49089     49086     49089     49092     49093
     49086     49089     49092     49094     49086     49089     49092     49095
     49087     49086     49089     49090     49087     49086     49089     49091
     49087     49086     49089     49092     49088     49086     49089     49090
     49088     49086     49089     49091     49088     49086     49089     49092
     49089     49092     49095     49096     49089     49092     49095     49097
     49089     49092     49095     49098     49090     49089     49092     49093
     49090     49089     49092     49094     49090     49089     49092     49095
     49091     49089     49092     49093     49091     49089     49092     49094
     49091     49089     49092     49095     49092     49095     49098     49099
     49092     49095     49098     49100     49092     49095     49098     49101
     49093     49092     49095     49096     49093     49092     49095     49097
     49093     49092     49095     49098     49094     49092     49095     49096
     49094     49092     49095     49097     49094     49092     49095     49098
     49096     49095     49098     49099     49096     49095     49098     49100
     49096     49095     49098     49101     49097     49095     49098     49099
     49097     49095     49098     49100     49097     49095     49098     49101
     49102     49106     49109     49110     49102     49106     49109     49111
     49102     49106     49109     49116     49103     49102     49106     49107
     49103     49102     49106     49108     49103     49102     49106     49109
     49104     49102     49106     49107     49104     49102     49106     49108
     49104     49102     49106     49109     49105     49102     49106     49107
     49105     49102     49106     49108     49105     49102     49106     49109
     49106     49109     49116     49112     49107     49106     49109     49110
     49107     49106     49109     49111     49107     49106     49109     49116
     49108     49106     49109     49110     49108     49106     49109     49111
     49108     49106     49109     49116     49109     49116     49112     49113
     49109     49116     49112     49114     49109     49116     49112     49115
     49110     49109     49116     49112     49111     49109     49116     49112
     49112     49115     49117     49118     49112     49115     49117     49119
     49112     49115     49117     49120     49113     49112     49115     49117
     49114     49112     49115     49117     49115     49117     49120     49121
     49115     49117     49120     49122     49115     49117     49120     49128
     49116     49112     49115     49117     49117     49120     49122     49123
     49117     49120     49128     49129     49117     49120     49128     49130
     49117     49120     49128     49131     49118     49117     49120     49121
     49118     49117     49120     49122     49118     49117     49120     49128
     49119     49117     49120     49121     49119     49117     49120     49122
     49119     49117     49120     49128     49120     49122     49123     49124
     49120     49122     49123     49125     49120     49128     49131     49132
     49121     49120     49122     49123     49121     49120     49128     49129
     49121     49120     49128     49130     49121     49120     49128     49131
     49122     49120     49128     49129     49122     49120     49128     49130
     49122     49120     49128     49131     49122     49123     49125     49126
     49122     49123     49125     49127     49122     49123     49125     49137
     49123     49122     49120     49128     49123     49125     49137     49138
     49123     49125     49137     49139     49123     49125     49137     49140
     49124     49123     49125     49126     49124     49123     49125     49127
     49124     49123     49125     49137     49125     49137     49140     49141
     49125     49137     49140     49142     49125     49137     49140     49143
     49126     49125     49137     49138     49126     49125     49137     49139
     49126     49125     49137     49140     49127     49125     49137     49138
     49127     49125     49137     49139     49127     49125     49137     49140
     49128     49131     49132     49133     49128     49131     49132     49134
     49129     49128     49131     49132     49130     49128     49131     49132
     49131     49132     49134     49135     49131     49132     49134     49136
     49131     49132     49134     49181     49132     49134     49181     49182
     49132     49134     49181     49183     49132     49134     49181     49184
     49133     49132     49134     49135     49133     49132     49134     49136
     49133     49132     49134     49181     49134     49181     49184     49185
     49134     49181     49184     49186     49134     49181     49184     49187
     49135     49134     49181     49182     49135     49134     49181     49183
     49135     49134     49181     49184     49136     49134     49181     49182
     49136     49134     49181     49183     49136     49134     49181     49184
     49137     49140     49143     49144     49137     49140     49143     49145
     49137     49140     49143     49146     49138     49137     49140     49141
     49138     49137     49140     49142     49138     49137     49140     49143
     49139     49137     49140     49141     49139     49137     49140     49142
     49139     49137     49140     49143     49140     49143     49146     49147
     49140     49143     49146     49148     49140     49143     49146     49149
     49141     49140     49143     49144     49141     49140     49143     49145
     49141     49140     49143     49146     49142     49140     49143     49144
     49142     49140     49143     49145     49142     49140     49143     49146
     49143     49146     49149     49150     49143     49146     49149     49151
     49143     49146     49149     49152     49144     49143     49146     49147
     49144     49143     49146     49148     49144     49143     49146     49149
     49145     49143     49146     49147     49145     49143     49146     49148
     49145     49143     49146     49149     49146     49149     49152     49153
     49146     49149     49152     49154     49146     49149     49152     49155
     49147     49146     49149     49150     49147     49146     49149     49151
     49147     49146     49149     49152     49148     49146     49149     49150
     49148     49146     49149     49151     49148     49146     49149     49152
     49149     49152     49155     49156     49149     49152     49155     49157
     49149     49152     49155     49160     49150     49149     49152     49153
     49150     49149     49152     49154     49150     49149     49152     49155
     49151     49149     49152     49153     49151     49149     49152     49154
     49151     49149     49152     49155     49152     49155     49157     49158
     49152     49155     49157     49159     49152     49155     49157     49160
     49152     49155     49160     49157     49152     49155     49160     49161
     49152     49155     49160     49162     49153     49152     49155     49156
     49153     49152     49155     49157     49153     49152     49155     49160
     49154     49152     49155     49156     49154     49152     49155     49157
     49154     49152     49155     49160     49155     49157     49160     49161
     49155     49157     49160     49162     49155     49160     49157     49158
     49155     49160     49157     49159     49155     49160     49162     49163
     49155     49160     49162     49164     49155     49160     49162     49165
     49156     49155     49157     49158     49156     49155     49157     49159
     49156     49155     49157     49160     49156     49155     49160     49157
     49156     49155     49160     49161     49156     49155     49160     49162
     49157     49155     49160     49161     49157     49155     49160     49162
     49157     49160     49162     49163     49157     49160     49162     49164
     49157     49160     49162     49165     49158     49157     49155     49160
     49158     49157     49160     49161     49158     49157     49160     49162
     49159     49157     49155     49160     49159     49157     49160     49161
     49159     49157     49160     49162     49160     49162     49165     49166
     49160     49162     49165     49167     49160     49162     49165     49168
     49161     49160     49162     49163     49161     49160     49162     49164
     49161     49160     49162     49165     49162     49165     49168     49169
     49162     49165     49168     49170     49162     49165     49168     49171
     49163     49162     49165     49166     49163     49162     49165     49167
     49163     49162     49165     49168     49164     49162     49165     49166
     49164     49162     49165     49167     49164     49162     49165     49168
     49165     49168     49171     49172     49165     49168     49171     49173
     49165     49168     49171     49174     49166     49165     49168     49169
     49166     49165     49168     49170     49166     49165     49168     49171
     49167     49165     49168     49169     49167     49165     49168     49170
     49167     49165     49168     49171     49168     49171     49174     49175
     49168     49171     49174     49176     49168     49171     49174     49177
     49169     49168     49171     49172     49169     49168     49171     49173
     49169     49168     49171     49174     49170     49168     49171     49172
     49170     49168     49171     49173     49170     49168     49171     49174
     49171     49174     49177     49178     49171     49174     49177     49179
     49171     49174     49177     49180     49172     49171     49174     49175
     49172     49171     49174     49176     49172     49171     49174     49177
     49173     49171     49174     49175     49173     49171     49174     49176
     49173     49171     49174     49177     49175     49174     49177     49178
     49175     49174     49177     49179     49175     49174     49177     49180
     49176     49174     49177     49178     49176     49174     49177     49179
     49176     49174     49177     49180     49181     49184     49187     49188
     49181     49184     49187     49189     49181     49184     49187     49190
     49182     49181     49184     49185     49182     49181     49184     49186
     49182     49181     49184     49187     49183     49181     49184     49185
     49183     49181     49184     49186     49183     49181     49184     49187
     49184     49187     49190     49191     49184     49187     49190     49192
     49184     49187     49190     49193     49185     49184     49187     49188
     49185     49184     49187     49189     49185     49184     49187     49190
     49186     49184     49187     49188     49186     49184     49187     49189
     49186     49184     49187     49190     49187     49190     49193     49194
     49187     49190     49193     49195     49187     49190     49193     49196
     49188     49187     49190     49191     49188     49187     49190     49192
     49188     49187     49190     49193     49189     49187     49190     49191
     49189     49187     49190     49192     49189     49187     49190     49193
     49190     49193     49196     49197     49190     49193     49196     49198
     49190     49193     49196     49199     49191     49190     49193     49194
     49191     49190     49193     49195     49191     49190     49193     49196
     49192     49190     49193     49194     49192     49190     49193     49195
     49192     49190     49193     49196     49193     49196     49199     49200
     49193     49196     49199     49201     49193     49196     49199     49202
     49194     49193     49196     49197     49194     49193     49196     49198
     49194     49193     49196     49199     49195     49193     49196     49197
     49195     49193     49196     49198     49195     49193     49196     49199
     49196     49199     49202     49203     49196     49199     49202     49204
     49196     49199     49202     49205     49197     49196     49199     49200
     49197     49196     49199     49201     49197     49196     49199     49202
     49198     49196     49199     49200     49198     49196     49199     49201
     49198     49196     49199     49202     49199     49202     49205     49206
     49199     49202     49205     49207     49199     49202     49205     49208
     49200     49199     49202     49203     49200     49199     49202     49204
     49200     49199     49202     49205     49201     49199     49202     49203
     49201     49199     49202     49204     49201     49199     49202     49205
     49202     49205     49208     49209     49202     49205     49208     49210
     49202     49205     49208     49211     49203     49202     49205     49206
     49203     49202     49205     49207     49203     49202     49205     49208
     49204     49202     49205     49206     49204     49202     49205     49207
     49204     49202     49205     49208     49205     49208     49211     49212
     49205     49208     49211     49213     49205     49208     49211     49214
     49206     49205     49208     49209     49206     49205     49208     49210
     49206     49205     49208     49211     49207     49205     49208     49209
     49207     49205     49208     49210     49207     49205     49208     49211
     49208     49211     49214     49215     49208     49211     49214     49216
     49208     49211     49214     49217     49209     49208     49211     49212
     49209     49208     49211     49213     49209     49208     49211     49214
     49210     49208     49211     49212     49210     49208     49211     49213
     49210     49208     49211     49214     49211     49214     49217     49218
     49211     49214     49217     49219     49211     49214     49217     49220
     49212     49211     49214     49215     49212     49211     49214     49216
     49212     49211     49214     49217     49213     49211     49214     49215
     49213     49211     49214     49216     49213     49211     49214     49217
     49215     49214     49217     49218     49215     49214     49217     49219
     49215     49214     49217     49220     49216     49214     49217     49218
     49216     49214     49217     49219     49216     49214     49217     49220
     49221     49225     49228     49229     49221     49225     49228     49230
     49221     49225     49228     49235     49222     49221     49225     49226
     49222     49221     49225     49227     49222     49221     49225     49228
     49223     49221     49225     49226     49223     49221     49225     49227
     49223     49221     49225     49228     49224     49221     49225     49226
     49224     49221     49225     49227     49224     49221     49225     49228
     49225     49228     49235     49231     49226     49225     49228     49229
     49226     49225     49228     49230     49226     49225     49228     49235
     49227     49225     49228     49229     49227     49225     49228     49230
     49227     49225     49228     49235     49228     49235     49231     49232
     49228     49235     49231     49233     49228     49235     49231     49234
     49229     49228     49235     49231     49230     49228     49235     49231
     49231     49234     49236     49237     49231     49234     49236     49238
     49231     49234     49236     49239     49232     49231     49234     49236
     49233     49231     49234     49236     49234     49236     49239     49240
     49234     49236     49239     49241     49234     49236     49239     49247
     49235     49231     49234     49236     49236     49239     49241     49242
     49236     49239     49247     49248     49236     49239     49247     49249
     49236     49239     49247     49250     49237     49236     49239     49240
     49237     49236     49239     49241     49237     49236     49239     49247
     49238     49236     49239     49240     49238     49236     49239     49241
     49238     49236     49239     49247     49239     49241     49242     49243
     49239     49241     49242     49244     49239     49247     49250     49251
     49240     49239     49241     49242     49240     49239     49247     49248
     49240     49239     49247     49249     49240     49239     49247     49250
     49241     49239     49247     49248     49241     49239     49247     49249
     49241     49239     49247     49250     49241     49242     49244     49245
     49241     49242     49244     49246     49241     49242     49244     49256
     49242     49241     49239     49247     49242     49244     49256     49257
     49242     49244     49256     49258     49242     49244     49256     49259
     49243     49242     49244     49245     49243     49242     49244     49246
     49243     49242     49244     49256     49244     49256     49259     49260
     49244     49256     49259     49261     49244     49256     49259     49262
     49245     49244     49256     49257     49245     49244     49256     49258
     49245     49244     49256     49259     49246     49244     49256     49257
     49246     49244     49256     49258     49246     49244     49256     49259
     49247     49250     49251     49252     49247     49250     49251     49253
     49248     49247     49250     49251     49249     49247     49250     49251
     49250     49251     49253     49254     49250     49251     49253     49255
     49250     49251     49253     49300     49251     49253     49300     49301
     49251     49253     49300     49302     49251     49253     49300     49303
     49252     49251     49253     49254     49252     49251     49253     49255
     49252     49251     49253     49300     49253     49300     49303     49304
     49253     49300     49303     49305     49253     49300     49303     49306
     49254     49253     49300     49301     49254     49253     49300     49302
     49254     49253     49300     49303     49255     49253     49300     49301
     49255     49253     49300     49302     49255     49253     49300     49303
     49256     49259     49262     49263     49256     49259     49262     49264
     49256     49259     49262     49265     49257     49256     49259     49260
     49257     49256     49259     49261     49257     49256     49259     49262
     49258     49256     49259     49260     49258     49256     49259     49261
     49258     49256     49259     49262     49259     49262     49265     49266
     49259     49262     49265     49267     49259     49262     49265     49268
     49260     49259     49262     49263     49260     49259     49262     49264
     49260     49259     49262     49265     49261     49259     49262     49263
     49261     49259     49262     49264     49261     49259     49262     49265
     49262     49265     49268     49269     49262     49265     49268     49270
     49262     49265     49268     49271     49263     49262     49265     49266
     49263     49262     49265     49267     49263     49262     49265     49268
     49264     49262     49265     49266     49264     49262     49265     49267
     49264     49262     49265     49268     49265     49268     49271     49272
     49265     49268     49271     49273     49265     49268     49271     49274
     49266     49265     49268     49269     49266     49265     49268     49270
     49266     49265     49268     49271     49267     49265     49268     49269
     49267     49265     49268     49270     49267     49265     49268     49271
     49268     49271     49274     49275     49268     49271     49274     49276
     49268     49271     49274     49279     49269     49268     49271     49272
     49269     49268     49271     49273     49269     49268     49271     49274
     49270     49268     49271     49272     49270     49268     49271     49273
     49270     49268     49271     49274     49271     49274     49276     49277
     49271     49274     49276     49278     49271     49274     49276     49279
     49271     49274     49279     49276     49271     49274     49279     49280
     49271     49274     49279     49281     49272     49271     49274     49275
     49272     49271     49274     49276     49272     49271     49274     49279
     49273     49271     49274     49275     49273     49271     49274     49276
     49273     49271     49274     49279     49274     49276     49279     49280
     49274     49276     49279     49281     49274     49279     49276     49277
     49274     49279     49276     49278     49274     49279     49281     49282
     49274     49279     49281     49283     49274     49279     49281     49284
     49275     49274     49276     49277     49275     49274     49276     49278
     49275     49274     49276     49279     49275     49274     49279     49276
     49275     49274     49279     49280     49275     49274     49279     49281
     49276     49274     49279     49280     49276     49274     49279     49281
     49276     49279     49281     49282     49276     49279     49281     49283
     49276     49279     49281     49284     49277     49276     49274     49279
     49277     49276     49279     49280     49277     49276     49279     49281
     49278     49276     49274     49279     49278     49276     49279     49280
     49278     49276     49279     49281     49279     49281     49284     49285
     49279     49281     49284     49286     49279     49281     49284     49287
     49280     49279     49281     49282     49280     49279     49281     49283
     49280     49279     49281     49284     49281     49284     49287     49288
     49281     49284     49287     49289     49281     49284     49287     49290
     49282     49281     49284     49285     49282     49281     49284     49286
     49282     49281     49284     49287     49283     49281     49284     49285
     49283     49281     49284     49286     49283     49281     49284     49287
     49284     49287     49290     49291     49284     49287     49290     49292
     49284     49287     49290     49293     49285     49284     49287     49288
     49285     49284     49287     49289     49285     49284     49287     49290
     49286     49284     49287     49288     49286     49284     49287     49289
     49286     49284     49287     49290     49287     49290     49293     49294
     49287     49290     49293     49295     49287     49290     49293     49296
     49288     49287     49290     49291     49288     49287     49290     49292
     49288     49287     49290     49293     49289     49287     49290     49291
     49289     49287     49290     49292     49289     49287     49290     49293
     49290     49293     49296     49297     49290     49293     49296     49298
     49290     49293     49296     49299     49291     49290     49293     49294
     49291     49290     49293     49295     49291     49290     49293     49296
     49292     49290     49293     49294     49292     49290     49293     49295
     49292     49290     49293     49296     49294     49293     49296     49297
     49294     49293     49296     49298     49294     49293     49296     49299
     49295     49293     49296     49297     49295     49293     49296     49298
     49295     49293     49296     49299     49300     49303     49306     49307
     49300     49303     49306     49308     49300     49303     49306     49309
     49301     49300     49303     49304     49301     49300     49303     49305
     49301     49300     49303     49306     49302     49300     49303     49304
     49302     49300     49303     49305     49302     49300     49303     49306
     49303     49306     49309     49310     49303     49306     49309     49311
     49303     49306     49309     49312     49304     49303     49306     49307
     49304     49303     49306     49308     49304     49303     49306     49309
     49305     49303     49306     49307     49305     49303     49306     49308
     49305     49303     49306     49309     49306     49309     49312     49313
     49306     49309     49312     49314     49306     49309     49312     49315
     49307     49306     49309     49310     49307     49306     49309     49311
     49307     49306     49309     49312     49308     49306     49309     49310
     49308     49306     49309     49311     49308     49306     49309     49312
     49309     49312     49315     49316     49309     49312     49315     49317
     49309     49312     49315     49318     49310     49309     49312     49313
     49310     49309     49312     49314     49310     49309     49312     49315
     49311     49309     49312     49313     49311     49309     49312     49314
     49311     49309     49312     49315     49312     49315     49318     49319
     49312     49315     49318     49320     49312     49315     49318     49321
     49313     49312     49315     49316     49313     49312     49315     49317
     49313     49312     49315     49318     49314     49312     49315     49316
     49314     49312     49315     49317     49314     49312     49315     49318
     49315     49318     49321     49322     49315     49318     49321     49323
     49315     49318     49321     49324     49316     49315     49318     49319
     49316     49315     49318     49320     49316     49315     49318     49321
     49317     49315     49318     49319     49317     49315     49318     49320
     49317     49315     49318     49321     49318     49321     49324     49325
     49318     49321     49324     49326     49318     49321     49324     49327
     49319     49318     49321     49322     49319     49318     49321     49323
     49319     49318     49321     49324     49320     49318     49321     49322
     49320     49318     49321     49323     49320     49318     49321     49324
     49321     49324     49327     49328     49321     49324     49327     49329
     49321     49324     49327     49330     49322     49321     49324     49325
     49322     49321     49324     49326     49322     49321     49324     49327
     49323     49321     49324     49325     49323     49321     49324     49326
     49323     49321     49324     49327     49324     49327     49330     49331
     49324     49327     49330     49332     49324     49327     49330     49333
     49325     49324     49327     49328     49325     49324     49327     49329
     49325     49324     49327     49330     49326     49324     49327     49328
     49326     49324     49327     49329     49326     49324     49327     49330
     49327     49330     49333     49334     49327     49330     49333     49335
     49327     49330     49333     49336     49328     49327     49330     49331
     49328     49327     49330     49332     49328     49327     49330     49333
     49329     49327     49330     49331     49329     49327     49330     49332
     49329     49327     49330     49333     49330     49333     49336     49337
     49330     49333     49336     49338     49330     49333     49336     49339
     49331     49330     49333     49334     49331     49330     49333     49335
     49331     49330     49333     49336     49332     49330     49333     49334
     49332     49330     49333     49335     49332     49330     49333     49336
     49334     49333     49336     49337     49334     49333     49336     49338
     49334     49333     49336     49339     49335     49333     49336     49337
     49335     49333     49336     49338     49335     49333     49336     49339
     49340     49344     49347     49348     49340     49344     49347     49349
     49340     49344     49347     49354     49341     49340     49344     49345
     49341     49340     49344     49346     49341     49340     49344     49347
     49342     49340     49344     49345     49342     49340     49344     49346
     49342     49340     49344     49347     49343     49340     49344     49345
     49343     49340     49344     49346     49343     49340     49344     49347
     49344     49347     49354     49350     49345     49344     49347     49348
     49345     49344     49347     49349     49345     49344     49347     49354
     49346     49344     49347     49348     49346     49344     49347     49349
     49346     49344     49347     49354     49347     49354     49350     49351
     49347     49354     49350     49352     49347     49354     49350     49353
     49348     49347     49354     49350     49349     49347     49354     49350
     49350     49353     49355     49356     49350     49353     49355     49357
     49350     49353     49355     49358     49351     49350     49353     49355
     49352     49350     49353     49355     49353     49355     49358     49359
     49353     49355     49358     49360     49353     49355     49358     49366
     49354     49350     49353     49355     49355     49358     49360     49361
     49355     49358     49366     49367     49355     49358     49366     49368
     49355     49358     49366     49369     49356     49355     49358     49359
     49356     49355     49358     49360     49356     49355     49358     49366
     49357     49355     49358     49359     49357     49355     49358     49360
     49357     49355     49358     49366     49358     49360     49361     49362
     49358     49360     49361     49363     49358     49366     49369     49370
     49359     49358     49360     49361     49359     49358     49366     49367
     49359     49358     49366     49368     49359     49358     49366     49369
     49360     49358     49366     49367     49360     49358     49366     49368
     49360     49358     49366     49369     49360     49361     49363     49364
     49360     49361     49363     49365     49360     49361     49363     49375
     49361     49360     49358     49366     49361     49363     49375     49376
     49361     49363     49375     49377     49361     49363     49375     49378
     49362     49361     49363     49364     49362     49361     49363     49365
     49362     49361     49363     49375     49363     49375     49378     49379
     49363     49375     49378     49380     49363     49375     49378     49381
     49364     49363     49375     49376     49364     49363     49375     49377
     49364     49363     49375     49378     49365     49363     49375     49376
     49365     49363     49375     49377     49365     49363     49375     49378
     49366     49369     49370     49371     49366     49369     49370     49372
     49367     49366     49369     49370     49368     49366     49369     49370
     49369     49370     49372     49373     49369     49370     49372     49374
     49369     49370     49372     49419     49370     49372     49419     49420
     49370     49372     49419     49421     49370     49372     49419     49422
     49371     49370     49372     49373     49371     49370     49372     49374
     49371     49370     49372     49419     49372     49419     49422     49423
     49372     49419     49422     49424     49372     49419     49422     49425
     49373     49372     49419     49420     49373     49372     49419     49421
     49373     49372     49419     49422     49374     49372     49419     49420
     49374     49372     49419     49421     49374     49372     49419     49422
     49375     49378     49381     49382     49375     49378     49381     49383
     49375     49378     49381     49384     49376     49375     49378     49379
     49376     49375     49378     49380     49376     49375     49378     49381
     49377     49375     49378     49379     49377     49375     49378     49380
     49377     49375     49378     49381     49378     49381     49384     49385
     49378     49381     49384     49386     49378     49381     49384     49387
     49379     49378     49381     49382     49379     49378     49381     49383
     49379     49378     49381     49384     49380     49378     49381     49382
     49380     49378     49381     49383     49380     49378     49381     49384
     49381     49384     49387     49388     49381     49384     49387     49389
     49381     49384     49387     49390     49382     49381     49384     49385
     49382     49381     49384     49386     49382     49381     49384     49387
     49383     49381     49384     49385     49383     49381     49384     49386
     49383     49381     49384     49387     49384     49387     49390     49391
     49384     49387     49390     49392     49384     49387     49390     49393
     49385     49384     49387     49388     49385     49384     49387     49389
     49385     49384     49387     49390     49386     49384     49387     49388
     49386     49384     49387     49389     49386     49384     49387     49390
     49387     49390     49393     49394     49387     49390     49393     49395
     49387     49390     49393     49398     49388     49387     49390     49391
     49388     49387     49390     49392     49388     49387     49390     49393
     49389     49387     49390     49391     49389     49387     49390     49392
     49389     49387     49390     49393     49390     49393     49395     49396
     49390     49393     49395     49397     49390     49393     49395     49398
     49390     49393     49398     49395     49390     49393     49398     49399
     49390     49393     49398     49400     49391     49390     49393     49394
     49391     49390     49393     49395     49391     49390     49393     49398
     49392     49390     49393     49394     49392     49390     49393     49395
     49392     49390     49393     49398     49393     49395     49398     49399
     49393     49395     49398     49400     49393     49398     49395     49396
     49393     49398     49395     49397     49393     49398     49400     49401
     49393     49398     49400     49402     49393     49398     49400     49403
     49394     49393     49395     49396     49394     49393     49395     49397
     49394     49393     49395     49398     49394     49393     49398     49395
     49394     49393     49398     49399     49394     49393     49398     49400
     49395     49393     49398     49399     49395     49393     49398     49400
     49395     49398     49400     49401     49395     49398     49400     49402
     49395     49398     49400     49403     49396     49395     49393     49398
     49396     49395     49398     49399     49396     49395     49398     49400
     49397     49395     49393     49398     49397     49395     49398     49399
     49397     49395     49398     49400     49398     49400     49403     49404
     49398     49400     49403     49405     49398     49400     49403     49406
     49399     49398     49400     49401     49399     49398     49400     49402
     49399     49398     49400     49403     49400     49403     49406     49407
     49400     49403     49406     49408     49400     49403     49406     49409
     49401     49400     49403     49404     49401     49400     49403     49405
     49401     49400     49403     49406     49402     49400     49403     49404
     49402     49400     49403     49405     49402     49400     49403     49406
     49403     49406     49409     49410     49403     49406     49409     49411
     49403     49406     49409     49412     49404     49403     49406     49407
     49404     49403     49406     49408     49404     49403     49406     49409
     49405     49403     49406     49407     49405     49403     49406     49408
     49405     49403     49406     49409     49406     49409     49412     49413
     49406     49409     49412     49414     49406     49409     49412     49415
     49407     49406     49409     49410     49407     49406     49409     49411
     49407     49406     49409     49412     49408     49406     49409     49410
     49408     49406     49409     49411     49408     49406     49409     49412
     49409     49412     49415     49416     49409     49412     49415     49417
     49409     49412     49415     49418     49410     49409     49412     49413
     49410     49409     49412     49414     49410     49409     49412     49415
     49411     49409     49412     49413     49411     49409     49412     49414
     49411     49409     49412     49415     49413     49412     49415     49416
     49413     49412     49415     49417     49413     49412     49415     49418
     49414     49412     49415     49416     49414     49412     49415     49417
     49414     49412     49415     49418     49419     49422     49425     49426
     49419     49422     49425     49427     49419     49422     49425     49428
     49420     49419     49422     49423     49420     49419     49422     49424
     49420     49419     49422     49425     49421     49419     49422     49423
     49421     49419     49422     49424     49421     49419     49422     49425
     49422     49425     49428     49429     49422     49425     49428     49430
     49422     49425     49428     49431     49423     49422     49425     49426
     49423     49422     49425     49427     49423     49422     49425     49428
     49424     49422     49425     49426     49424     49422     49425     49427
     49424     49422     49425     49428     49425     49428     49431     49432
     49425     49428     49431     49433     49425     49428     49431     49434
     49426     49425     49428     49429     49426     49425     49428     49430
     49426     49425     49428     49431     49427     49425     49428     49429
     49427     49425     49428     49430     49427     49425     49428     49431
     49428     49431     49434     49435     49428     49431     49434     49436
     49428     49431     49434     49437     49429     49428     49431     49432
     49429     49428     49431     49433     49429     49428     49431     49434
     49430     49428     49431     49432     49430     49428     49431     49433
     49430     49428     49431     49434     49431     49434     49437     49438
     49431     49434     49437     49439     49431     49434     49437     49440
     49432     49431     49434     49435     49432     49431     49434     49436
     49432     49431     49434     49437     49433     49431     49434     49435
     49433     49431     49434     49436     49433     49431     49434     49437
     49434     49437     49440     49441     49434     49437     49440     49442
     49434     49437     49440     49443     49435     49434     49437     49438
     49435     49434     49437     49439     49435     49434     49437     49440
     49436     49434     49437     49438     49436     49434     49437     49439
     49436     49434     49437     49440     49437     49440     49443     49444
     49437     49440     49443     49445     49437     49440     49443     49446
     49438     49437     49440     49441     49438     49437     49440     49442
     49438     49437     49440     49443     49439     49437     49440     49441
     49439     49437     49440     49442     49439     49437     49440     49443
     49440     49443     49446     49447     49440     49443     49446     49448
     49440     49443     49446     49449     49441     49440     49443     49444
     49441     49440     49443     49445     49441     49440     49443     49446
     49442     49440     49443     49444     49442     49440     49443     49445
     49442     49440     49443     49446     49443     49446     49449     49450
     49443     49446     49449     49451     49443     49446     49449     49452
     49444     49443     49446     49447     49444     49443     49446     49448
     49444     49443     49446     49449     49445     49443     49446     49447
     49445     49443     49446     49448     49445     49443     49446     49449
     49446     49449     49452     49453     49446     49449     49452     49454
     49446     49449     49452     49455     49447     49446     49449     49450
     49447     49446     49449     49451     49447     49446     49449     49452
     49448     49446     49449     49450     49448     49446     49449     49451
     49448     49446     49449     49452     49449     49452     49455     49456
     49449     49452     49455     49457     49449     49452     49455     49458
     49450     49449     49452     49453     49450     49449     49452     49454
     49450     49449     49452     49455     49451     49449     49452     49453
     49451     49449     49452     49454     49451     49449     49452     49455
     49452     49455     49458     49459     49452     49455     49458     49460
     49452     49455     49458     49461     49453     49452     49455     49456
     49453     49452     49455     49457     49453     49452     49455     49458
     49454     49452     49455     49456     49454     49452     49455     49457
     49454     49452     49455     49458     49456     49455     49458     49459
     49456     49455     49458     49460     49456     49455     49458     49461
     49457     49455     49458     49459     49457     49455     49458     49460
     49457     49455     49458     49461     49462     49466     49469     49470
     49462     49466     49469     49471     49462     49466     49469     49476
     49463     49462     49466     49467     49463     49462     49466     49468
     49463     49462     49466     49469     49464     49462     49466     49467
     49464     49462     49466     49468     49464     49462     49466     49469
     49465     49462     49466     49467     49465     49462     49466     49468
     49465     49462     49466     49469     49466     49469     49476     49472
     49467     49466     49469     49470     49467     49466     49469     49471
     49467     49466     49469     49476     49468     49466     49469     49470
     49468     49466     49469     49471     49468     49466     49469     49476
     49469     49476     49472     49473     49469     49476     49472     49474
     49469     49476     49472     49475     49470     49469     49476     49472
     49471     49469     49476     49472     49472     49475     49477     49478
     49472     49475     49477     49479     49472     49475     49477     49480
     49473     49472     49475     49477     49474     49472     49475     49477
     49475     49477     49480     49481     49475     49477     49480     49482
     49475     49477     49480     49488     49476     49472     49475     49477
     49477     49480     49482     49483     49477     49480     49488     49489
     49477     49480     49488     49490     49477     49480     49488     49491
     49478     49477     49480     49481     49478     49477     49480     49482
     49478     49477     49480     49488     49479     49477     49480     49481
     49479     49477     49480     49482     49479     49477     49480     49488
     49480     49482     49483     49484     49480     49482     49483     49485
     49480     49488     49491     49492     49481     49480     49482     49483
     49481     49480     49488     49489     49481     49480     49488     49490
     49481     49480     49488     49491     49482     49480     49488     49489
     49482     49480     49488     49490     49482     49480     49488     49491
     49482     49483     49485     49486     49482     49483     49485     49487
     49482     49483     49485     49497     49483     49482     49480     49488
     49483     49485     49497     49498     49483     49485     49497     49499
     49483     49485     49497     49500     49484     49483     49485     49486
     49484     49483     49485     49487     49484     49483     49485     49497
     49485     49497     49500     49501     49485     49497     49500     49502
     49485     49497     49500     49503     49486     49485     49497     49498
     49486     49485     49497     49499     49486     49485     49497     49500
     49487     49485     49497     49498     49487     49485     49497     49499
     49487     49485     49497     49500     49488     49491     49492     49493
     49488     49491     49492     49494     49489     49488     49491     49492
     49490     49488     49491     49492     49491     49492     49494     49495
     49491     49492     49494     49496     49491     49492     49494     49544
     49492     49494     49544     49545     49492     49494     49544     49546
     49492     49494     49544     49547     49493     49492     49494     49495
     49493     49492     49494     49496     49493     49492     49494     49544
     49494     49544     49547     49548     49494     49544     49547     49549
     49494     49544     49547     49550     49495     49494     49544     49545
     49495     49494     49544     49546     49495     49494     49544     49547
     49496     49494     49544     49545     49496     49494     49544     49546
     49496     49494     49544     49547     49497     49500     49503     49504
     49497     49500     49503     49505     49497     49500     49503     49506
     49498     49497     49500     49501     49498     49497     49500     49502
     49498     49497     49500     49503     49499     49497     49500     49501
     49499     49497     49500     49502     49499     49497     49500     49503
     49500     49503     49506     49507     49500     49503     49506     49508
     49500     49503     49506     49509     49501     49500     49503     49504
     49501     49500     49503     49505     49501     49500     49503     49506
     49502     49500     49503     49504     49502     49500     49503     49505
     49502     49500     49503     49506     49503     49506     49509     49510
     49503     49506     49509     49511     49503     49506     49509     49512
     49504     49503     49506     49507     49504     49503     49506     49508
     49504     49503     49506     49509     49505     49503     49506     49507
     49505     49503     49506     49508     49505     49503     49506     49509
     49506     49509     49512     49513     49506     49509     49512     49514
     49506     49509     49512     49515     49507     49506     49509     49510
     49507     49506     49509     49511     49507     49506     49509     49512
     49508     49506     49509     49510     49508     49506     49509     49511
     49508     49506     49509     49512     49509     49512     49515     49516
     49509     49512     49515     49517     49510     49509     49512     49513
     49510     49509     49512     49514     49510     49509     49512     49515
     49511     49509     49512     49513     49511     49509     49512     49514
     49511     49509     49512     49515     49512     49515     49517     49518
     49512     49515     49517     49519     49513     49512     49515     49516
     49513     49512     49515     49517     49514     49512     49515     49516
     49514     49512     49515     49517     49515     49517     49519     49520
     49515     49517     49519     49521     49515     49517     49519     49522
     49516     49515     49517     49518     49516     49515     49517     49519
     49517     49519     49522     49523     49517     49519     49522     49524
     49517     49519     49522     49525     49518     49517     49519     49520
     49518     49517     49519     49521     49518     49517     49519     49522
     49519     49522     49525     49526     49519     49522     49525     49527
     49519     49522     49525     49528     49520     49519     49522     49523
     49520     49519     49522     49524     49520     49519     49522     49525
     49521     49519     49522     49523     49521     49519     49522     49524
     49521     49519     49522     49525     49522     49525     49528     49529
     49522     49525     49528     49530     49522     49525     49528     49531
     49523     49522     49525     49526     49523     49522     49525     49527
     49523     49522     49525     49528     49524     49522     49525     49526
     49524     49522     49525     49527     49524     49522     49525     49528
     49525     49528     49531     49532     49525     49528     49531     49533
     49525     49528     49531     49534     49526     49525     49528     49529
     49526     49525     49528     49530     49526     49525     49528     49531
     49527     49525     49528     49529     49527     49525     49528     49530
     49527     49525     49528     49531     49528     49531     49534     49535
     49528     49531     49534     49536     49528     49531     49534     49537
     49529     49528     49531     49532     49529     49528     49531     49533
     49529     49528     49531     49534     49530     49528     49531     49532
     49530     49528     49531     49533     49530     49528     49531     49534
     49531     49534     49537     49538     49531     49534     49537     49539
     49531     49534     49537     49540     49532     49531     49534     49535
     49532     49531     49534     49536     49532     49531     49534     49537
     49533     49531     49534     49535     49533     49531     49534     49536
     49533     49531     49534     49537     49534     49537     49540     49541
     49534     49537     49540     49542     49534     49537     49540     49543
     49535     49534     49537     49538     49535     49534     49537     49539
     49535     49534     49537     49540     49536     49534     49537     49538
     49536     49534     49537     49539     49536     49534     49537     49540
     49538     49537     49540     49541     49538     49537     49540     49542
     49538     49537     49540     49543     49539     49537     49540     49541
     49539     49537     49540     49542     49539     49537     49540     49543
     49544     49547     49550     49551     49544     49547     49550     49552
     49544     49547     49550     49553     49545     49544     49547     49548
     49545     49544     49547     49549     49545     49544     49547     49550
     49546     49544     49547     49548     49546     49544     49547     49549
     49546     49544     49547     49550     49547     49550     49553     49554
     49547     49550     49553     49555     49547     49550     49553     49556
     49548     49547     49550     49551     49548     49547     49550     49552
     49548     49547     49550     49553     49549     49547     49550     49551
     49549     49547     49550     49552     49549     49547     49550     49553
     49550     49553     49556     49557     49550     49553     49556     49558
     49550     49553     49556     49559     49551     49550     49553     49554
     49551     49550     49553     49555     49551     49550     49553     49556
     49552     49550     49553     49554     49552     49550     49553     49555
     49552     49550     49553     49556     49553     49556     49559     49560
     49553     49556     49559     49561     49553     49556     49559     49562
     49554     49553     49556     49557     49554     49553     49556     49558
     49554     49553     49556     49559     49555     49553     49556     49557
     49555     49553     49556     49558     49555     49553     49556     49559
     49556     49559     49562     49563     49556     49559     49562     49564
     49556     49559     49562     49565     49557     49556     49559     49560
     49557     49556     49559     49561     49557     49556     49559     49562
     49558     49556     49559     49560     49558     49556     49559     49561
     49558     49556     49559     49562     49559     49562     49565     49566
     49559     49562     49565     49567     49559     49562     49565     49568
     49560     49559     49562     49563     49560     49559     49562     49564
     49560     49559     49562     49565     49561     49559     49562     49563
     49561     49559     49562     49564     49561     49559     49562     49565
     49562     49565     49568     49569     49562     49565     49568     49570
     49562     49565     49568     49571     49563     49562     49565     49566
     49563     49562     49565     49567     49563     49562     49565     49568
     49564     49562     49565     49566     49564     49562     49565     49567
     49564     49562     49565     49568     49565     49568     49571     49572
     49565     49568     49571     49573     49565     49568     49571     49574
     49566     49565     49568     49569     49566     49565     49568     49570
     49566     49565     49568     49571     49567     49565     49568     49569
     49567     49565     49568     49570     49567     49565     49568     49571
     49568     49571     49574     49575     49568     49571     49574     49576
     49568     49571     49574     49577     49569     49568     49571     49572
     49569     49568     49571     49573     49569     49568     49571     49574
     49570     49568     49571     49572     49570     49568     49571     49573
     49570     49568     49571     49574     49571     49574     49577     49578
     49571     49574     49577     49579     49571     49574     49577     49580
     49572     49571     49574     49575     49572     49571     49574     49576
     49572     49571     49574     49577     49573     49571     49574     49575
     49573     49571     49574     49576     49573     49571     49574     49577
     49574     49577     49580     49581     49574     49577     49580     49582
     49574     49577     49580     49583     49575     49574     49577     49578
     49575     49574     49577     49579     49575     49574     49577     49580
     49576     49574     49577     49578     49576     49574     49577     49579
     49576     49574     49577     49580     49577     49580     49583     49584
     49577     49580     49583     49585     49577     49580     49583     49586
     49578     49577     49580     49581     49578     49577     49580     49582
     49578     49577     49580     49583     49579     49577     49580     49581
     49579     49577     49580     49582     49579     49577     49580     49583
     49581     49580     49583     49584     49581     49580     49583     49585
     49581     49580     49583     49586     49582     49580     49583     49584
     49582     49580     49583     49585     49582     49580     49583     49586
     49587     49591     49594     49595     49587     49591     49594     49596
     49587     49591     49594     49601     49588     49587     49591     49592
     49588     49587     49591     49593     49588     49587     49591     49594
     49589     49587     49591     49592     49589     49587     49591     49593
     49589     49587     49591     49594     49590     49587     49591     49592
     49590     49587     49591     49593     49590     49587     49591     49594
     49591     49594     49601     49597     49592     49591     49594     49595
     49592     49591     49594     49596     49592     49591     49594     49601
     49593     49591     49594     49595     49593     49591     49594     49596
     49593     49591     49594     49601     49594     49601     49597     49598
     49594     49601     49597     49599     49594     49601     49597     49600
     49595     49594     49601     49597     49596     49594     49601     49597
     49597     49600     49602     49603     49597     49600     49602     49604
     49597     49600     49602     49605     49598     49597     49600     49602
     49599     49597     49600     49602     49600     49602     49605     49606
     49600     49602     49605     49607     49600     49602     49605     49613
     49601     49597     49600     49602     49602     49605     49607     49608
     49602     49605     49613     49614     49602     49605     49613     49615
     49602     49605     49613     49616     49603     49602     49605     49606
     49603     49602     49605     49607     49603     49602     49605     49613
     49604     49602     49605     49606     49604     49602     49605     49607
     49604     49602     49605     49613     49605     49607     49608     49609
     49605     49607     49608     49610     49605     49613     49616     49617
     49606     49605     49607     49608     49606     49605     49613     49614
     49606     49605     49613     49615     49606     49605     49613     49616
     49607     49605     49613     49614     49607     49605     49613     49615
     49607     49605     49613     49616     49607     49608     49610     49611
     49607     49608     49610     49612     49607     49608     49610     49622
     49608     49607     49605     49613     49608     49610     49622     49623
     49608     49610     49622     49624     49608     49610     49622     49625
     49609     49608     49610     49611     49609     49608     49610     49612
     49609     49608     49610     49622     49610     49622     49625     49626
     49610     49622     49625     49627     49610     49622     49625     49628
     49611     49610     49622     49623     49611     49610     49622     49624
     49611     49610     49622     49625     49612     49610     49622     49623
     49612     49610     49622     49624     49612     49610     49622     49625
     49613     49616     49617     49618     49613     49616     49617     49619
     49614     49613     49616     49617     49615     49613     49616     49617
     49616     49617     49619     49620     49616     49617     49619     49621
     49616     49617     49619     49669     49617     49619     49669     49670
     49617     49619     49669     49671     49617     49619     49669     49672
     49618     49617     49619     49620     49618     49617     49619     49621
     49618     49617     49619     49669     49619     49669     49672     49673
     49619     49669     49672     49674     49619     49669     49672     49675
     49620     49619     49669     49670     49620     49619     49669     49671
     49620     49619     49669     49672     49621     49619     49669     49670
     49621     49619     49669     49671     49621     49619     49669     49672
     49622     49625     49628     49629     49622     49625     49628     49630
     49622     49625     49628     49631     49623     49622     49625     49626
     49623     49622     49625     49627     49623     49622     49625     49628
     49624     49622     49625     49626     49624     49622     49625     49627
     49624     49622     49625     49628     49625     49628     49631     49632
     49625     49628     49631     49633     49625     49628     49631     49634
     49626     49625     49628     49629     49626     49625     49628     49630
     49626     49625     49628     49631     49627     49625     49628     49629
     49627     49625     49628     49630     49627     49625     49628     49631
     49628     49631     49634     49635     49628     49631     49634     49636
     49628     49631     49634     49637     49629     49628     49631     49632
     49629     49628     49631     49633     49629     49628     49631     49634
     49630     49628     49631     49632     49630     49628     49631     49633
     49630     49628     49631     49634     49631     49634     49637     49638
     49631     49634     49637     49639     49631     49634     49637     49640
     49632     49631     49634     49635     49632     49631     49634     49636
     49632     49631     49634     49637     49633     49631     49634     49635
     49633     49631     49634     49636     49633     49631     49634     49637
     49634     49637     49640     49641     49634     49637     49640     49642
     49635     49634     49637     49638     49635     49634     49637     49639
     49635     49634     49637     49640     49636     49634     49637     49638
     49636     49634     49637     49639     49636     49634     49637     49640
     49637     49640     49642     49643     49637     49640     49642     49644
     49638     49637     49640     49641     49638     49637     49640     49642
     49639     49637     49640     49641     49639     49637     49640     49642
     49640     49642     49644     49645     49640     49642     49644     49646
     49640     49642     49644     49647     49641     49640     49642     49643
     49641     49640     49642     49644     49642     49644     49647     49648
     49642     49644     49647     49649     49642     49644     49647     49650
     49643     49642     49644     49645     49643     49642     49644     49646
     49643     49642     49644     49647     49644     49647     49650     49651
     49644     49647     49650     49652     49644     49647     49650     49653
     49645     49644     49647     49648     49645     49644     49647     49649
     49645     49644     49647     49650     49646     49644     49647     49648
     49646     49644     49647     49649     49646     49644     49647     49650
     49647     49650     49653     49654     49647     49650     49653     49655
     49647     49650     49653     49656     49648     49647     49650     49651
     49648     49647     49650     49652     49648     49647     49650     49653
     49649     49647     49650     49651     49649     49647     49650     49652
     49649     49647     49650     49653     49650     49653     49656     49657
     49650     49653     49656     49658     49650     49653     49656     49659
     49651     49650     49653     49654     49651     49650     49653     49655
     49651     49650     49653     49656     49652     49650     49653     49654
     49652     49650     49653     49655     49652     49650     49653     49656
     49653     49656     49659     49660     49653     49656     49659     49661
     49653     49656     49659     49662     49654     49653     49656     49657
     49654     49653     49656     49658     49654     49653     49656     49659
     49655     49653     49656     49657     49655     49653     49656     49658
     49655     49653     49656     49659     49656     49659     49662     49663
     49656     49659     49662     49664     49656     49659     49662     49665
     49657     49656     49659     49660     49657     49656     49659     49661
     49657     49656     49659     49662     49658     49656     49659     49660
     49658     49656     49659     49661     49658     49656     49659     49662
     49659     49662     49665     49666     49659     49662     49665     49667
     49659     49662     49665     49668     49660     49659     49662     49663
     49660     49659     49662     49664     49660     49659     49662     49665
     49661     49659     49662     49663     49661     49659     49662     49664
     49661     49659     49662     49665     49663     49662     49665     49666
     49663     49662     49665     49667     49663     49662     49665     49668
     49664     49662     49665     49666     49664     49662     49665     49667
     49664     49662     49665     49668     49669     49672     49675     49676
     49669     49672     49675     49677     49669     49672     49675     49678
     49670     49669     49672     49673     49670     49669     49672     49674
     49670     49669     49672     49675     49671     49669     49672     49673
     49671     49669     49672     49674     49671     49669     49672     49675
     49672     49675     49678     49679     49672     49675     49678     49680
     49672     49675     49678     49681     49673     49672     49675     49676
     49673     49672     49675     49677     49673     49672     49675     49678
     49674     49672     49675     49676     49674     49672     49675     49677
     49674     49672     49675     49678     49675     49678     49681     49682
     49675     49678     49681     49683     49675     49678     49681     49684
     49676     49675     49678     49679     49676     49675     49678     49680
     49676     49675     49678     49681     49677     49675     49678     49679
     49677     49675     49678     49680     49677     49675     49678     49681
     49678     49681     49684     49685     49678     49681     49684     49686
     49678     49681     49684     49687     49679     49678     49681     49682
     49679     49678     49681     49683     49679     49678     49681     49684
     49680     49678     49681     49682     49680     49678     49681     49683
     49680     49678     49681     49684     49681     49684     49687     49688
     49681     49684     49687     49689     49681     49684     49687     49690
     49682     49681     49684     49685     49682     49681     49684     49686
     49682     49681     49684     49687     49683     49681     49684     49685
     49683     49681     49684     49686     49683     49681     49684     49687
     49684     49687     49690     49691     49684     49687     49690     49692
     49684     49687     49690     49693     49685     49684     49687     49688
     49685     49684     49687     49689     49685     49684     49687     49690
     49686     49684     49687     49688     49686     49684     49687     49689
     49686     49684     49687     49690     49687     49690     49693     49694
     49687     49690     49693     49695     49687     49690     49693     49696
     49688     49687     49690     49691     49688     49687     49690     49692
     49688     49687     49690     49693     49689     49687     49690     49691
     49689     49687     49690     49692     49689     49687     49690     49693
     49690     49693     49696     49697     49690     49693     49696     49698
     49690     49693     49696     49699     49691     49690     49693     49694
     49691     49690     49693     49695     49691     49690     49693     49696
     49692     49690     49693     49694     49692     49690     49693     49695
     49692     49690     49693     49696     49693     49696     49699     49700
     49693     49696     49699     49701     49693     49696     49699     49702
     49694     49693     49696     49697     49694     49693     49696     49698
     49694     49693     49696     49699     49695     49693     49696     49697
     49695     49693     49696     49698     49695     49693     49696     49699
     49696     49699     49702     49703     49696     49699     49702     49704
     49696     49699     49702     49705     49697     49696     49699     49700
     49697     49696     49699     49701     49697     49696     49699     49702
     49698     49696     49699     49700     49698     49696     49699     49701
     49698     49696     49699     49702     49699     49702     49705     49706
     49699     49702     49705     49707     49699     49702     49705     49708
     49700     49699     49702     49703     49700     49699     49702     49704
     49700     49699     49702     49705     49701     49699     49702     49703
     49701     49699     49702     49704     49701     49699     49702     49705
     49702     49705     49708     49709     49702     49705     49708     49710
     49702     49705     49708     49711     49703     49702     49705     49706
     49703     49702     49705     49707     49703     49702     49705     49708
     49704     49702     49705     49706     49704     49702     49705     49707
     49704     49702     49705     49708     49706     49705     49708     49709
     49706     49705     49708     49710     49706     49705     49708     49711
     49707     49705     49708     49709     49707     49705     49708     49710
     49707     49705     49708     49711     49712     49717     49719     49720
     49712     49717     49721     49722     49712     49717     49721     49723
     49712     49717     49721     49728     49713     49712     49715     49716
     49713     49712     49717     49718     49713     49712     49717     49719
     49713     49712     49717     49721     49714     49712     49715     49716
     49714     49712     49717     49718     49714     49712     49717     49719
     49714     49712     49717     49721     49715     49712     49717     49718
     49715     49712     49717     49719     49715     49712     49717     49721
     49716     49715     49712     49717     49717     49721     49728     49724
     49718     49717     49719     49720     49718     49717     49721     49722
     49718     49717     49721     49723     49718     49717     49721     49728
     49719     49717     49721     49722     49719     49717     49721     49723
     49719     49717     49721     49728     49720     49719     49717     49721
     49721     49728     49724     49725     49721     49728     49724     49726
     49721     49728     49724     49727     49722     49721     49728     49724
     49723     49721     49728     49724     49724     49727     49729     49730
     49724     49727     49729     49731     49724     49727     49729     49732
     49725     49724     49727     49729     49726     49724     49727     49729
     49727     49729     49732     49733     49727     49729     49732     49734
     49727     49729     49732     49740     49728     49724     49727     49729
     49729     49732     49734     49735     49729     49732     49740     49741
     49729     49732     49740     49742     49729     49732     49740     49743
     49730     49729     49732     49733     49730     49729     49732     49734
     49730     49729     49732     49740     49731     49729     49732     49733
     49731     49729     49732     49734     49731     49729     49732     49740
     49732     49734     49735     49736     49732     49734     49735     49737
     49732     49740     49743     49744     49733     49732     49734     49735
     49733     49732     49740     49741     49733     49732     49740     49742
     49733     49732     49740     49743     49734     49732     49740     49741
     49734     49732     49740     49742     49734     49732     49740     49743
     49734     49735     49737     49738     49734     49735     49737     49739
     49734     49735     49737     49749     49735     49734     49732     49740
     49735     49737     49749     49750     49735     49737     49749     49751
     49735     49737     49749     49752     49736     49735     49737     49738
     49736     49735     49737     49739     49736     49735     49737     49749
     49737     49749     49752     49753     49737     49749     49752     49754
     49737     49749     49752     49755     49738     49737     49749     49750
     49738     49737     49749     49751     49738     49737     49749     49752
     49739     49737     49749     49750     49739     49737     49749     49751
     49739     49737     49749     49752     49740     49743     49744     49745
     49740     49743     49744     49746     49741     49740     49743     49744
     49742     49740     49743     49744     49743     49744     49746     49747
     49743     49744     49746     49748     49743     49744     49746     49790
     49744     49746     49790     49791     49744     49746     49790     49792
     49744     49746     49790     49793     49745     49744     49746     49747
     49745     49744     49746     49748     49745     49744     49746     49790
     49746     49790     49793     49794     49746     49790     49793     49795
     49746     49790     49793     49796     49747     49746     49790     49791
     49747     49746     49790     49792     49747     49746     49790     49793
     49748     49746     49790     49791     49748     49746     49790     49792
     49748     49746     49790     49793     49749     49752     49755     49756
     49749     49752     49755     49757     49749     49752     49755     49758
     49750     49749     49752     49753     49750     49749     49752     49754
     49750     49749     49752     49755     49751     49749     49752     49753
     49751     49749     49752     49754     49751     49749     49752     49755
     49752     49755     49758     49759     49752     49755     49758     49760
     49752     49755     49758     49761     49753     49752     49755     49756
     49753     49752     49755     49757     49753     49752     49755     49758
     49754     49752     49755     49756     49754     49752     49755     49757
     49754     49752     49755     49758     49755     49758     49761     49762
     49755     49758     49761     49763     49755     49758     49761     49764
     49756     49755     49758     49759     49756     49755     49758     49760
     49756     49755     49758     49761     49757     49755     49758     49759
     49757     49755     49758     49760     49757     49755     49758     49761
     49758     49761     49764     49765     49758     49761     49764     49766
     49758     49761     49764     49767     49759     49758     49761     49762
     49759     49758     49761     49763     49759     49758     49761     49764
     49760     49758     49761     49762     49760     49758     49761     49763
     49760     49758     49761     49764     49761     49764     49767     49768
     49761     49764     49767     49769     49762     49761     49764     49765
     49762     49761     49764     49766     49762     49761     49764     49767
     49763     49761     49764     49765     49763     49761     49764     49766
     49763     49761     49764     49767     49764     49767     49769     49770
     49764     49767     49769     49771     49765     49764     49767     49768
     49765     49764     49767     49769     49766     49764     49767     49768
     49766     49764     49767     49769     49767     49769     49771     49772
     49767     49769     49771     49773     49767     49769     49771     49774
     49768     49767     49769     49770     49768     49767     49769     49771
     49769     49771     49774     49775     49769     49771     49774     49776
     49769     49771     49774     49777     49770     49769     49771     49772
     49770     49769     49771     49773     49770     49769     49771     49774
     49771     49774     49777     49778     49771     49774     49777     49779
     49771     49774     49777     49780     49772     49771     49774     49775
     49772     49771     49774     49776     49772     49771     49774     49777
     49773     49771     49774     49775     49773     49771     49774     49776
     49773     49771     49774     49777     49774     49777     49780     49781
     49774     49777     49780     49782     49774     49777     49780     49783
     49775     49774     49777     49778     49775     49774     49777     49779
     49775     49774     49777     49780     49776     49774     49777     49778
     49776     49774     49777     49779     49776     49774     49777     49780
     49777     49780     49783     49784     49777     49780     49783     49785
     49777     49780     49783     49786     49778     49777     49780     49781
     49778     49777     49780     49782     49778     49777     49780     49783
     49779     49777     49780     49781     49779     49777     49780     49782
     49779     49777     49780     49783     49780     49783     49786     49787
     49780     49783     49786     49788     49780     49783     49786     49789
     49781     49780     49783     49784     49781     49780     49783     49785
     49781     49780     49783     49786     49782     49780     49783     49784
     49782     49780     49783     49785     49782     49780     49783     49786
     49784     49783     49786     49787     49784     49783     49786     49788
     49784     49783     49786     49789     49785     49783     49786     49787
     49785     49783     49786     49788     49785     49783     49786     49789
     49790     49793     49796     49797     49790     49793     49796     49798
     49790     49793     49796     49799     49791     49790     49793     49794
     49791     49790     49793     49795     49791     49790     49793     49796
     49792     49790     49793     49794     49792     49790     49793     49795
     49792     49790     49793     49796     49793     49796     49799     49800
     49793     49796     49799     49801     49793     49796     49799     49802
     49794     49793     49796     49797     49794     49793     49796     49798
     49794     49793     49796     49799     49795     49793     49796     49797
     49795     49793     49796     49798     49795     49793     49796     49799
     49796     49799     49802     49803     49796     49799     49802     49804
     49796     49799     49802     49805     49797     49796     49799     49800
     49797     49796     49799     49801     49797     49796     49799     49802
     49798     49796     49799     49800     49798     49796     49799     49801
     49798     49796     49799     49802     49799     49802     49805     49806
     49799     49802     49805     49807     49799     49802     49805     49808
     49800     49799     49802     49803     49800     49799     49802     49804
     49800     49799     49802     49805     49801     49799     49802     49803
     49801     49799     49802     49804     49801     49799     49802     49805
     49802     49805     49808     49809     49802     49805     49808     49810
     49802     49805     49808     49811     49803     49802     49805     49806
     49803     49802     49805     49807     49803     49802     49805     49808
     49804     49802     49805     49806     49804     49802     49805     49807
     49804     49802     49805     49808     49805     49808     49811     49812
     49805     49808     49811     49813     49805     49808     49811     49814
     49806     49805     49808     49809     49806     49805     49808     49810
     49806     49805     49808     49811     49807     49805     49808     49809
     49807     49805     49808     49810     49807     49805     49808     49811
     49808     49811     49814     49815     49808     49811     49814     49816
     49808     49811     49814     49817     49809     49808     49811     49812
     49809     49808     49811     49813     49809     49808     49811     49814
     49810     49808     49811     49812     49810     49808     49811     49813
     49810     49808     49811     49814     49811     49814     49817     49818
     49811     49814     49817     49819     49811     49814     49817     49820
     49812     49811     49814     49815     49812     49811     49814     49816
     49812     49811     49814     49817     49813     49811     49814     49815
     49813     49811     49814     49816     49813     49811     49814     49817
     49814     49817     49820     49821     49814     49817     49820     49822
     49814     49817     49820     49823     49815     49814     49817     49818
     49815     49814     49817     49819     49815     49814     49817     49820
     49816     49814     49817     49818     49816     49814     49817     49819
     49816     49814     49817     49820     49817     49820     49823     49824
     49817     49820     49823     49825     49817     49820     49823     49826
     49818     49817     49820     49821     49818     49817     49820     49822
     49818     49817     49820     49823     49819     49817     49820     49821
     49819     49817     49820     49822     49819     49817     49820     49823
     49820     49823     49826     49827     49820     49823     49826     49828
     49820     49823     49826     49829     49821     49820     49823     49824
     49821     49820     49823     49825     49821     49820     49823     49826
     49822     49820     49823     49824     49822     49820     49823     49825
     49822     49820     49823     49826     49823     49826     49829     49830
     49823     49826     49829     49831     49823     49826     49829     49832
     49824     49823     49826     49827     49824     49823     49826     49828
     49824     49823     49826     49829     49825     49823     49826     49827
     49825     49823     49826     49828     49825     49823     49826     49829
     49827     49826     49829     49830     49827     49826     49829     49831
     49827     49826     49829     49832     49828     49826     49829     49830
     49828     49826     49829     49831     49828     49826     49829     49832

       816 !NIMPHI: impropers
        22        21        24        23        31        30        33        32
       147       146       149       148       156       155       158       157
       269       268       271       270       278       277       280       279
       391       390       393       392       400       399       402       401
       516       515       518       517       525       524       527       526
       638       637       640       639       647       646       649       648
       763       762       765       764       772       771       774       773
       885       884       887       886       894       893       896       895
      1007      1006      1009      1008      1016      1015      1018      1017
      1131      1130      1133      1132      1140      1139      1142      1141
      1253      1252      1255      1254      1262      1261      1264      1263
      1380      1379      1382      1381      1389      1388      1391      1390
      1501      1500      1503      1502      1510      1509      1512      1511
      1623      1622      1625      1624      1632      1631      1634      1633
      1745      1744      1747      1746      1754      1753      1756      1755
      1870      1869      1872      1871      1879      1878      1881      1880
      1992      1991      1994      1993      2001      2000      2003      2002
      2114      2113      2116      2115      2123      2122      2125      2124
      2238      2237      2240      2239      2247      2246      2249      2248
      2357      2356      2359      2358      2366      2365      2368      2367
      2476      2475      2478      2477      2485      2484      2487      2486
      2598      2597      2600      2599      2607      2606      2609      2608
      2722      2721      2724      2723      2731      2730      2733      2732
      2858      2857      2860      2859      2849      2848      2851      2850
      2875      2874      2877      2876      2866      2865      2868      2867
      3081      3080      3083      3082      3090      3089      3092      3091
      3206      3205      3208      3207      3215      3214      3217      3216
      3329      3328      3331      3330      3338      3337      3340      3339
      3451      3450      3453      3452      3460      3459      3462      3461
      3573      3572      3575      3574      3582      3581      3584      3583
      3695      3694      3697      3696      3704      3703      3706      3705
      3820      3819      3822      3821      3829      3828      3831      3830
      3945      3944      3947      3946      3954      3953      3956      3955
      4069      4068      4071      4070      4078      4077      4080      4079
      4191      4190      4193      4192      4200      4199      4202      4201
      4312      4311      4314      4313      4321      4320      4323      4322
      4431      4430      4433      4432      4440      4439      4442      4441
      4553      4552      4555      4554      4562      4561      4564      4563
      4678      4677      4680      4679      4687      4686      4689      4688
      4797      4796      4799      4798      4806      4805      4808      4807
      4919      4918      4921      4920      4928      4927      4930      4929
      5043      5042      5045      5044      5052      5051      5054      5053
      5164      5163      5166      5165      5173      5172      5175      5174
      5286      5285      5288      5287      5295      5294      5297      5296
      5408      5407      5410      5409      5417      5416      5419      5418
      5544      5543      5546      5545      5535      5534      5537      5536
      5561      5560      5563      5562      5552      5551      5554      5553
      5767      5766      5769      5768      5776      5775      5778      5777
      5889      5888      5891      5890      5898      5897      5900      5899
      6011      6010      6013      6012      6020      6019      6022      6021
      6136      6135      6138      6137      6145      6144      6147      6146
      6258      6257      6260      6259      6267      6266      6269      6268
      6383      6382      6385      6384      6392      6391      6394      6393
      6505      6504      6507      6506      6514      6513      6516      6515
      6624      6623      6626      6625      6633      6632      6635      6634
      6749      6748      6751      6750      6758      6757      6760      6759
      6868      6867      6870      6869      6877      6876      6879      6878
      6993      6992      6995      6994      7002      7001      7004      7003
      7115      7114      7117      7116      7124      7123      7126      7125
      7237      7236      7239      7238      7246      7245      7248      7247
      7362      7361      7364      7363      7371      7370      7373      7372
      7484      7483      7486      7485      7493      7492      7495      7494
      7606      7605      7608      7607      7615      7614      7617      7616
      7730      7729      7732      7731      7739      7738      7741      7740
      7851      7850      7853      7852      7860      7859      7862      7861
      7970      7969      7972      7971      7979      7978      7981      7980
      8089      8088      8091      8090      8098      8097      8100      8099
      8214      8213      8216      8215      8223      8222      8225      8224
      8337      8336      8339      8338      8346      8345      8348      8347
      8460      8459      8462      8461      8469      8468      8471      8470
      8582      8581      8584      8583      8591      8590      8593      8592
      8704      8703      8706      8705      8713      8712      8715      8714
      8827      8826      8829      8828      8836      8835      8838      8837
      8946      8945      8948      8947      8955      8954      8957      8956
      9071      9070      9073      9072      9080      9079      9082      9081
      9193      9192      9195      9194      9202      9201      9204      9203
      9312      9311      9314      9313      9321      9320      9323      9322
      9434      9433      9436      9435      9443      9442      9445      9444
      9555      9554      9557      9556      9564      9563      9566      9565
      9676      9675      9678      9677      9685      9684      9687      9686
      9800      9799      9802      9801      9809      9808      9811      9810
      9922      9921      9924      9923      9931      9930      9933      9932
     10044     10043     10046     10045     10053     10052     10055     10054
     10169     10168     10171     10170     10178     10177     10180     10179
     10293     10292     10295     10294     10302     10301     10304     10303
     10414     10413     10416     10415     10423     10422     10425     10424
     10538     10537     10540     10539     10547     10546     10549     10548
     10657     10656     10659     10658     10666     10665     10668     10667
     10779     10778     10781     10780     10788     10787     10790     10789
     10903     10902     10905     10904     10912     10911     10914     10913
     11024     11023     11026     11025     11033     11032     11035     11034
     11146     11145     11148     11147     11155     11154     11157     11156
     11268     11267     11270     11269     11277     11276     11279     11278
     11393     11392     11395     11394     11402     11401     11404     11403
     11512     11511     11514     11513     11521     11520     11523     11522
     11634     11633     11636     11635     11643     11642     11645     11644
     11756     11755     11758     11757     11765     11764     11767     11766
     11878     11877     11880     11879     11887     11886     11889     11888
     12000     11999     12002     12001     12009     12008     12011     12010
     12121     12120     12123     12122     12130     12129     12132     12131
     12243     12242     12245     12244     12252     12251     12254     12253
     12365     12364     12367     12366     12374     12373     12376     12375
     12488     12487     12490     12489     12497     12496     12499     12498
     12610     12609     12612     12611     12619     12618     12621     12620
     12734     12733     12736     12735     12743     12742     12745     12744
     12856     12855     12858     12857     12865     12864     12867     12866
     12978     12977     12980     12979     12987     12986     12989     12988
     13102     13101     13104     13103     13111     13110     13113     13112
     13224     13223     13226     13225     13233     13232     13235     13234
     13343     13342     13345     13344     13352     13351     13354     13353
     13465     13464     13467     13466     13474     13473     13476     13475
     13587     13586     13589     13588     13596     13595     13598     13597
     13709     13708     13711     13710     13718     13717     13720     13719
     13828     13827     13830     13829     13837     13836     13839     13838
     13950     13949     13952     13951     13959     13958     13961     13960
     14089     14088     14091     14090     14080     14079     14082     14081
     14106     14105     14108     14107     14097     14096     14099     14098
     14314     14313     14316     14315     14323     14322     14325     14324
     14453     14452     14455     14454     14444     14443     14446     14445
     14470     14469     14472     14471     14461     14460     14463     14462
     14676     14675     14678     14677     14685     14684     14687     14686
     14798     14797     14800     14799     14807     14806     14809     14808
     14920     14919     14922     14921     14929     14928     14931     14930
     15042     15041     15044     15043     15051     15050     15053     15052
     15164     15163     15166     15165     15173     15172     15175     15174
     15289     15288     15291     15290     15298     15297     15300     15299
     15411     15410     15413     15412     15420     15419     15422     15421
     15535     15534     15537     15536     15544     15543     15546     15545
     15657     15656     15659     15658     15666     15665     15668     15667
     15779     15778     15781     15780     15788     15787     15790     15789
     15900     15899     15902     15901     15909     15908     15911     15910
     16021     16020     16023     16022     16030     16029     16032     16031
     16140     16139     16142     16141     16149     16148     16151     16150
     16262     16261     16264     16263     16271     16270     16273     16272
     16387     16386     16389     16388     16396     16395     16398     16397
     16512     16511     16514     16513     16521     16520     16523     16522
     16635     16634     16637     16636     16644     16643     16646     16645
     16757     16756     16759     16758     16766     16765     16768     16767
     16879     16878     16881     16880     16888     16887     16890     16889
     17000     16999     17002     17001     17009     17008     17011     17010
     17122     17121     17124     17123     17131     17130     17133     17132
     17249     17248     17251     17250     17258     17257     17260     17259
     17368     17367     17370     17369     17377     17376     17379     17378
     17487     17486     17489     17488     17496     17495     17498     17497
     17610     17609     17612     17611     17619     17618     17621     17620
     17732     17731     17734     17733     17741     17740     17743     17742
     17854     17853     17856     17855     17863     17862     17865     17864
     17977     17976     17979     17978     17986     17985     17988     17987
     18104     18103     18106     18105     18113     18112     18115     18114
     18226     18225     18228     18227     18235     18234     18237     18236
     18348     18347     18350     18349     18357     18356     18359     18358
     18470     18469     18472     18471     18479     18478     18481     18480
     18592     18591     18594     18593     18601     18600     18603     18602
     18716     18715     18718     18717     18725     18724     18727     18726
     18835     18834     18837     18836     18844     18843     18846     18845
     18960     18959     18962     18961     18969     18968     18971     18970
     19079     19078     19081     19080     19088     19087     19090     19089
     19201     19200     19203     19202     19210     19209     19212     19211
     19324     19323     19326     19325     19333     19332     19335     19334
     19443     19442     19445     19444     19452     19451     19454     19453
     19565     19564     19567     19566     19574     19573     19576     19575
     19687     19686     19689     19688     19696     19695     19698     19697
     19806     19805     19808     19807     19815     19814     19817     19816
     19928     19927     19930     19929     19937     19936     19939     19938
     20055     20054     20057     20056     20064     20063     20066     20065
     20177     20176     20179     20178     20186     20185     20188     20187
     20296     20295     20298     20297     20305     20304     20307     20306
     20418     20417     20420     20419     20427     20426     20429     20428
     20540     20539     20542     20541     20549     20548     20551     20550
     20662     20661     20664     20663     20671     20670     20673     20672
     20784     20783     20786     20785     20793     20792     20795     20794
     20908     20907     20910     20909     20917     20916     20919     20918
     21030     21029     21032     21031     21039     21038     21041     21040
     21155     21154     21157     21156     21164     21163     21166     21165
     21279     21278     21281     21280     21288     21287     21290     21289
     21401     21400     21403     21402     21410     21409     21412     21411
     21523     21522     21525     21524     21532     21531     21534     21533
     21645     21644     21647     21646     21654     21653     21656     21655
     21769     21768     21771     21770     21778     21777     21780     21779
     21891     21890     21893     21892     21900     21899     21902     21901
     22010     22009     22012     22011     22019     22018     22021     22020
     22132     22131     22134     22133     22141     22140     22143     22142
     22255     22254     22257     22256     22264     22263     22266     22265
     22374     22373     22376     22375     22383     22382     22385     22384
     22496     22495     22498     22497     22505     22504     22507     22506
     22615     22614     22617     22616     22624     22623     22626     22625
     22734     22733     22736     22735     22743     22742     22745     22744
     22856     22855     22858     22857     22865     22864     22867     22866
     22979     22978     22981     22980     22988     22987     22990     22989
     23101     23100     23103     23102     23110     23109     23112     23111
     23223     23222     23225     23224     23232     23231     23234     23233
     23346     23345     23348     23347     23355     23354     23357     23356
     23468     23467     23470     23469     23477     23476     23479     23478
     23590     23589     23592     23591     23599     23598     23601     23600
     23712     23711     23714     23713     23721     23720     23723     23722
     23834     23833     23836     23835     23843     23842     23845     23844
     23956     23955     23958     23957     23965     23964     23967     23966
     24075     24074     24077     24076     24084     24083     24086     24085
     24197     24196     24199     24198     24206     24205     24208     24207
     24322     24321     24324     24323     24331     24330     24333     24332
     24444     24443     24446     24445     24453     24452     24455     24454
     24569     24568     24571     24570     24578     24577     24580     24579
     24694     24693     24696     24695     24703     24702     24705     24704
     24819     24818     24821     24820     24828     24827     24830     24829
     24940     24939     24942     24941     24949     24948     24951     24950
     25062     25061     25064     25063     25071     25070     25073     25072
     25185     25184     25187     25186     25194     25193     25196     25195
     25307     25306     25309     25308     25316     25315     25318     25317
     25431     25430     25433     25432     25440     25439     25442     25441
     25555     25554     25557     25556     25564     25563     25566     25565
     25677     25676     25679     25678     25686     25685     25688     25687
     25801     25800     25803     25802     25810     25809     25812     25811
     25920     25919     25922     25921     25929     25928     25931     25930
     26042     26041     26044     26043     26051     26050     26053     26052
     26165     26164     26167     26166     26174     26173     26176     26175
     26286     26285     26288     26287     26295     26294     26297     26296
     26408     26407     26410     26409     26417     26416     26419     26418
     26532     26531     26534     26533     26541     26540     26543     26542
     26651     26650     26653     26652     26660     26659     26662     26661
     26773     26772     26775     26774     26782     26781     26784     26783
     26895     26894     26897     26896     26904     26903     26906     26905
     27018     27017     27020     27019     27027     27026     27029     27028
     27142     27141     27144     27143     27151     27150     27153     27152
     27264     27263     27266     27265     27273     27272     27275     27274
     27386     27385     27388     27387     27395     27394     27397     27396
     27508     27507     27510     27509     27517     27516     27519     27518
     27630     27629     27632     27631     27639     27638     27641     27640
     27752     27751     27754     27753     27761     27760     27763     27762
     27894     27893     27896     27895     27885     27884     27887     27886
     27911     27910     27913     27912     27902     27901     27904     27903
     28117     28116     28119     28118     28126     28125     28128     28127
     28240     28239     28242     28241     28249     28248     28251     28250
     28359     28358     28361     28360     28368     28367     28370     28369
     28478     28477     28480     28479     28487     28486     28489     28488
     28600     28599     28602     28601     28609     28608     28611     28610
     28724     28723     28726     28725     28733     28732     28735     28734
     28846     28845     28848     28847     28855     28854     28857     28856
     28968     28967     28970     28969     28977     28976     28979     28978
     29089     29088     29091     29090     29098     29097     29100     29099
     29211     29210     29213     29212     29220     29219     29222     29221
     29333     29332     29335     29334     29342     29341     29344     29343
     29455     29454     29457     29456     29464     29463     29466     29465
     29577     29576     29579     29578     29586     29585     29588     29587
     29701     29700     29703     29702     29710     29709     29712     29711
     29823     29822     29825     29824     29832     29831     29834     29833
     29945     29944     29947     29946     29954     29953     29956     29955
     30070     30069     30072     30071     30079     30078     30081     30080
     30195     30194     30197     30196     30204     30203     30206     30205
     30318     30317     30320     30319     30327     30326     30329     30328
     30437     30436     30439     30438     30446     30445     30448     30447
     30559     30558     30561     30560     30568     30567     30570     30569
     30678     30677     30680     30679     30687     30686     30689     30688
     30800     30799     30802     30801     30809     30808     30811     30810
     30922     30921     30924     30923     30931     30930     30933     30932
     31044     31043     31046     31045     31053     31052     31055     31054
     31171     31170     31173     31172     31180     31179     31182     31181
     31293     31292     31295     31294     31302     31301     31304     31303
     31418     31417     31420     31419     31427     31426     31429     31428
     31540     31539     31542     31541     31549     31548     31551     31550
     31665     31664     31667     31666     31674     31673     31676     31675
     31787     31786     31789     31788     31796     31795     31798     31797
     31909     31908     31911     31910     31918     31917     31920     31919
     32032     32031     32034     32033     32041     32040     32043     32042
     32154     32153     32156     32155     32163     32162     32165     32164
     32276     32275     32278     32277     32285     32284     32287     32286
     32403     32402     32405     32404     32412     32411     32414     32413
     32522     32521     32524     32523     32531     32530     32533     32532
     32645     32644     32647     32646     32654     32653     32656     32655
     32766     32765     32768     32767     32775     32774     32777     32776
     32885     32884     32887     32886     32894     32893     32896     32895
     33004     33003     33006     33005     33013     33012     33015     33014
     33129     33128     33131     33130     33138     33137     33140     33139
     33251     33250     33253     33252     33260     33259     33262     33261
     33373     33372     33375     33374     33382     33381     33384     33383
     33498     33497     33500     33499     33507     33506     33509     33508
     33617     33616     33619     33618     33626     33625     33628     33627
     33739     33738     33741     33740     33748     33747     33750     33749
     33861     33860     33863     33862     33870     33869     33872     33871
     33983     33982     33985     33984     33992     33991     33994     33993
     34105     34104     34107     34106     34114     34113     34116     34115
     34227     34226     34229     34228     34236     34235     34238     34237
     34349     34348     34351     34350     34358     34357     34360     34359
     34473     34472     34475     34474     34482     34481     34484     34483
     34592     34591     34594     34593     34601     34600     34603     34602
     34715     34714     34717     34716     34724     34723     34726     34725
     34839     34838     34841     34840     34848     34847     34850     34849
     34960     34959     34962     34961     34969     34968     34971     34970
     35079     35078     35081     35080     35088     35087     35090     35089
     35203     35202     35205     35204     35212     35211     35214     35213
     35339     35338     35341     35340     35330     35329     35332     35331
     35356     35355     35358     35357     35347     35346     35349     35348
     35562     35561     35564     35563     35571     35570     35573     35572
     35684     35683     35686     35685     35693     35692     35695     35694
     35806     35805     35808     35807     35815     35814     35817     35816
     35930     35929     35932     35931     35939     35938     35941     35940
     36049     36048     36051     36050     36058     36057     36060     36059
     36172     36171     36174     36173     36181     36180     36183     36182
     36294     36293     36296     36295     36303     36302     36305     36304
     36413     36412     36415     36414     36422     36421     36424     36423
     36540     36539     36542     36541     36549     36548     36551     36550
     36662     36661     36664     36663     36671     36670     36673     36672
     36784     36783     36786     36785     36793     36792     36795     36794
     36906     36905     36908     36907     36915     36914     36917     36916
     37028     37027     37030     37029     37037     37036     37039     37038
     37150     37149     37152     37151     37159     37158     37161     37160
     37272     37271     37274     37273     37281     37280     37283     37282
     37396     37395     37398     37397     37405     37404     37407     37406
     37518     37517     37520     37519     37527     37526     37529     37528
     37640     37639     37642     37641     37649     37648     37651     37650
     37762     37761     37764     37763     37771     37770     37773     37772
     37887     37886     37889     37888     37896     37895     37898     37897
     38009     38008     38011     38010     38018     38017     38020     38019
     38134     38133     38136     38135     38143     38142     38145     38144
     38257     38256     38259     38258     38266     38265     38268     38267
     38376     38375     38378     38377     38385     38384     38387     38386
     38498     38497     38500     38499     38507     38506     38509     38508
     38620     38619     38622     38621     38629     38628     38631     38630
     38745     38744     38747     38746     38754     38753     38756     38755
     38867     38866     38869     38868     38876     38875     38878     38877
     38986     38985     38988     38987     38995     38994     38997     38996
     39105     39104     39107     39106     39114     39113     39116     39115
     39230     39229     39232     39231     39239     39238     39241     39240
     39354     39353     39356     39355     39363     39362     39365     39364
     39478     39477     39480     39479     39487     39486     39489     39488
     39614     39613     39616     39615     39605     39604     39607     39606
     39631     39630     39633     39632     39622     39621     39624     39623
     39837     39836     39839     39838     39846     39845     39848     39847
     39958     39957     39960     39959     39967     39966     39969     39968
     40080     40079     40082     40081     40089     40088     40091     40090
     40202     40201     40204     40203     40211     40210     40213     40212
     40324     40323     40326     40325     40333     40332     40335     40334
     40445     40444     40447     40446     40454     40453     40456     40455
     40564     40563     40566     40565     40573     40572     40575     40574
     40685     40684     40687     40686     40694     40693     40696     40695
     40806     40805     40808     40807     40815     40814     40817     40816
     40928     40927     40930     40929     40937     40936     40939     40938
     41050     41049     41052     41051     41059     41058     41061     41060
     41173     41172     41175     41174     41182     41181     41184     41183
     41296     41295     41298     41297     41305     41304     41307     41306
     41415     41414     41417     41416     41424     41423     41426     41425
     41540     41539     41542     41541     41549     41548     41551     41550
     41662     41661     41664     41663     41671     41670     41673     41672
     41781     41780     41783     41782     41790     41789     41792     41791
     41903     41902     41905     41904     41912     41911     41914     41913
     42028     42027     42030     42029     42037     42036     42039     42038
     42153     42152     42155     42154     42162     42161     42164     42163
     42275     42274     42277     42276     42284     42283     42286     42285
     42397     42396     42399     42398     42406     42405     42408     42407
     42519     42518     42521     42520     42528     42527     42530     42529
     42641     42640     42643     42642     42650     42649     42652     42651
     42760     42759     42762     42761     42769     42768     42771     42770
     42883     42882     42885     42884     42892     42891     42894     42893
     43008     43007     43010     43009     43017     43016     43019     43018
     43135     43134     43137     43136     43144     43143     43146     43145
     43254     43253     43256     43255     43263     43262     43265     43264
     43376     43375     43378     43377     43385     43384     43387     43386
     43501     43500     43503     43502     43510     43509     43512     43511
     43620     43619     43622     43621     43629     43628     43631     43630
     43745     43744     43747     43746     43754     43753     43756     43755
     43869     43868     43871     43870     43878     43877     43880     43879
     43991     43990     43993     43992     44000     43999     44002     44001
     44115     44114     44117     44116     44124     44123     44126     44125
     44234     44233     44236     44235     44243     44242     44245     44244
     44358     44357     44360     44359     44367     44366     44369     44368
     44480     44479     44482     44481     44489     44488     44491     44490
     44602     44601     44604     44603     44611     44610     44613     44612
     44726     44725     44728     44727     44735     44734     44737     44736
     44845     44844     44847     44846     44854     44853     44856     44855
     44967     44966     44969     44968     44976     44975     44978     44977
     45089     45088     45091     45090     45098     45097     45100     45099
     45211     45210     45213     45212     45220     45219     45222     45221
     45333     45332     45335     45334     45342     45341     45344     45343
     45458     45457     45460     45459     45467     45466     45469     45468
     45580     45579     45582     45581     45589     45588     45591     45590
     45702     45701     45704     45703     45711     45710     45713     45712
     45827     45826     45829     45828     45836     45835     45838     45837
     45949     45948     45951     45950     45958     45957     45960     45959
     46071     46070     46073     46072     46080     46079     46082     46081
     46196     46195     46198     46197     46205     46204     46207     46206
     46320     46319     46322     46321     46329     46328     46331     46330
     46439     46438     46441     46440     46448     46447     46450     46449
     46561     46560     46563     46562     46570     46569     46572     46571
     46680     46679     46682     46681     46689     46688     46691     46690
     46803     46802     46805     46804     46812     46811     46814     46813
     46925     46924     46927     46926     46934     46933     46936     46935
     47047     47046     47049     47048     47056     47055     47058     47057
     47169     47168     47171     47170     47178     47177     47180     47179
     47294     47293     47296     47295     47303     47302     47305     47304
     47433     47432     47435     47434     47424     47423     47426     47425
     47450     47449     47452     47451     47441     47440     47443     47442
     47656     47655     47658     47657     47665     47664     47667     47666
     47778     47777     47780     47779     47787     47786     47789     47788
     47900     47899     47902     47901     47909     47908     47911     47910
     48022     48021     48024     48023     48031     48030     48033     48032
     48147     48146     48149     48148     48156     48155     48158     48157
     48268     48267     48270     48269     48277     48276     48279     48278
     48392     48391     48394     48393     48401     48400     48403     48402
     48516     48515     48518     48517     48525     48524     48527     48526
     48638     48637     48640     48639     48647     48646     48649     48648
     48760     48759     48762     48761     48769     48768     48771     48770
     48882     48881     48884     48883     48891     48890     48893     48892
     49001     49000     49003     49002     49010     49009     49012     49011
     49123     49122     49125     49124     49132     49131     49134     49133
     49242     49241     49244     49243     49251     49250     49253     49252
     49361     49360     49363     49362     49370     49369     49372     49371
     49483     49482     49485     49484     49492     49491     49494     49493
     49608     49607     49610     49609     49617     49616     49619     49618
     49735     49734     49737     49736     49744     49743     49746     49745

         0 !NDON: donors


         0 !NACC: acceptors


         0 !NNB

         0         0         0         0         0         0         0         0
         0         0         0         0         0         0         0         0
         0         0         0         0         0         0         0         0
         0         0         0         0         0         0         0         0
         0         0         0         0         0         0         0         0
         0         0         0         0         0         0         0         0
         0         0         0         0         0         0         0         0
         0         0         0         0         0         0         0         0
         0         0         0         0         0         0         0         0
         0         0         0         0         0         0         0         0
         0         0         0         0         0         0         0         0
         0         0         0         0         0         0         0         0
         0         0         0         0         0         0         0         0
         0         0         0         0         0         0         0         0
         0         0         0         0         0         0         0         0
         0         0         0         0         0         0         0         0
         0         0         0         0         0         0         0         0
         0         0         0         0         0         0         0         0
         0         0         0         0         0         0         0         0
         0         0         0         0         0         0         0         0
         0         0         0         0         0         0         0         0
         0         0         0         0         0         0         0         0
         0         0         0         0         0         0         0         0
         0         0         0         0         0         0         0         0
         0         0         0         0         0         0         0         0
         0         0         0         0         0         0         0         0
         0         0         0         0         0         0         0         0
         0         0         0         0         0         0         0         0
         0         0         0         0         0         0         0         0
         0         0         0         0         0         0         0         0
         0         0         0         0         0         0         0         0
         0         0         0         0         0         0         0         0
         0         0         0         0         0         0         0         0
         0         0         0         0         0         0         0         0
         0         0         0         0         0         0         0         0
         0         0         0         0         0         0         0         0
         0         0         0         0         0         0         0         0
         0         0         0         0         0         0         0         0
         0         0         0         0         0         0         0         0
         0         0         0         0         0         0         0         0
         0         0         0         0         0         0         0         0
         0         0         0         0         0         0         0         0
         0         0         0         0         0         0         0         0
         0         0         0         0         0         0         0         0
         0         0         0         0         0         0         0         0
         0         0         0         0         0         0         0         0
         0         0         0         0         0         0         0         0
         0         0         0         0         0         0         0         0
         0         0         0         0         0         0         0         0
         0         0         0         0         0         0         0         0
         0         0         0         0         0         0         0         0
         0         0         0         0         0         0         0         0
         0         0         0         0         0         0         0         0
         0         0         0         0         0         0         0         0
         0         0         0         0         0         0         0         0
         0         0         0         0         0         0         0         0
         0         0         0         0         0         0         0         0
         0         0         0         0         0         0         0         0
         0         0         0         0         0         0         0         0
         0         0         0         0         0         0         0         0
         0         0         0         0         0         0         0         0
         0         0         0         0         0         0         0         0
         0         0         0         0         0         0         0         0
         0         0         0         0         0         0         0         0
         0         0         0         0         0         0         0         0
         0         0         0         0         0         0         0         0
         0         0         0         0         0         0         0         0
         0         0         0         0         0         0         0         0
         0         0         0         0         0         0         0         0
         0         0         0         0         0         0         0         0
         0         0         0         0         0         0         0         0
         0         0         0         0         0         0         0         0
         0         0         0         0         0         0         0         0
         0         0         0         0         0         0         0         0
         0         0         0         0         0         0         0         0
         0         0         0         0         0         0         0         0
         0         0         0         0         0         0         0         0
         0         0         0         0         0         0         0         0
         0         0         0         0         0         0         0         0
         0         0         0         0         0         0         0         0
         0         0         0         0         0         0         0         0
         0         0         0         0         0         0         0         0
         0         0         0         0         0         0         0         0
         0         0         0         0         0         0         0         0
         0         0         0         0         0         0         0         0
         0         0         0         0         0         0         0         0
         0         0         0         0         0         0         0         0
         0         0         0         0         0         0         0         0
         0         0         0         0         0         0         0         0
         0         0         0         0         0         0         0         0
         0         0         0         0         0         0         0         0
         0         0         0         0         0         0         0         0
         0         0         0         0         0         0         0         0
         0         0         0         0         0         0         0         0
         0         0         0         0         0         0         0         0
         0         0         0         0         0         0         0         0
         0         0         0         0         0         0         0         0
         0         0         0         0         0         0         0         0
         0         0         0         0         0         0         0         0
         0         0         0         0         0         0         0         0
         0         0         0         0         0         0         0         0
         0         0         0         0         0         0         0         0
         0         0         0         0         0         0         0         0
         0         0         0         0         0         0         0         0
         0         0         0         0         0         0         0         0
         0         0         0         0         0         0         0         0
         0         0         0         0         0         0         0         0
         0         0         0         0         0         0         0         0
         0         0         0         0         0         0         0         0
         0         0         0         0         0         0         0         0
         0         0         0         0         0         0         0         0
         0         0         0         0         0         0         0         0
         0         0         0         0         0         0         0         0
         0         0         0         0         0         0         0         0
         0         0         0         0         0         0         0         0
         0         0         0         0         0         0         0         0
         0         0         0         0         0         0         0         0
         0         0         0         0         0         0         0         0
         0         0         0         0         0         0         0         0
         0         0         0         0         0         0         0         0
         0         0         0         0         0         0         0         0
         0         0         0         0         0         0         0         0
         0         0         0         0         0         0         0         0
         0         0         0         0         0         0         0         0
         0         0         0         0         0         0         0         0
         0         0         0         0         0         0         0         0
         0         0         0         0         0         0         0         0
         0         0         0         0         0         0         0         0
         0         0         0         0         0         0         0         0
         0         0         0         0         0         0         0         0
         0         0         0         0         0         0         0         0
         0         0         0         0         0         0         0         0
         0         0         0         0         0         0         0         0
         0         0         0         0         0         0         0         0
         0         0         0         0         0         0         0         0
         0         0         0         0         0         0         0         0
         0         0         0         0         0         0         0         0
         0         0         0         0         0         0         0         0
         0         0         0         0         0         0         0         0
         0         0         0         0         0         0         0         0
         0         0         0         0         0         0         0         0
         0         0         0         0         0         0         0         0
         0         0         0         0         0         0         0         0
         0         0         0         0         0         0         0         0
         0         0         0         0         0         0         0         0
         0         0         0         0         0         0         0         0
         0         0         0         0         0         0         0         0
         0         0         0         0         0         0         0         0
         0         0         0         0         0         0         0         0
         0         0         0         0         0         0         0         0
         0         0         0         0         0         0         0         0
         0         0         0         0         0         0         0         0
         0         0         0         0         0         0         0         0
         0         0         0         0         0         0         0         0
         0         0         0         0         0         0         0         0
         0         0         0         0         0         0         0         0
         0         0         0         0         0         0         0         0
         0         0         0         0         0         0         0         0
         0         0         0         0         0         0         0         0
         0         0         0         0         0         0         0         0
         0         0         0         0         0         0         0         0
         0         0         0         0         0         0         0         0
         0         0         0         0         0         0         0         0
         0         0         0         0         0         0         0         0
         0         0         0         0         0         0         0         0
         0         0         0         0         0         0         0         0
         0         0         0         0         0         0         0         0
         0         0         0         0         0         0         0         0
         0         0         0         0         0         0         0         0
         0         0         0         0         0         0         0         0
         0         0         0         0         0         0         0         0
         0         0         0         0         0         0         0         0
         0         0         0         0         0         0         0         0
         0         0         0         0         0         0         0         0
         0         0         0         0         0         0         0         0
         0         0         0         0         0         0         0         0
         0         0         0         0         0         0         0         0
         0         0         0         0         0         0         0         0
         0         0         0         0         0         0         0         0
         0         0         0         0         0         0         0         0
         0         0         0         0         0         0         0         0
         0         0         0         0         0         0         0         0
         0         0         0         0         0         0         0         0
         0         0         0         0         0         0         0         0
         0         0         0         0         0         0         0         0
         0         0         0         0         0         0         0         0
         0         0         0         0         0         0         0         0
         0         0         0         0         0         0         0         0
         0         0         0         0         0         0         0         0
         0         0         0         0         0         0         0         0
         0         0         0         0         0         0         0         0
         0         0         0         0         0         0         0         0
         0         0         0         0         0         0         0         0
         0         0         0         0         0         0         0         0
         0         0         0         0         0         0         0         0
         0         0         0         0         0         0         0         0
         0         0         0         0         0         0         0         0
         0         0         0         0         0         0         0         0
         0         0         0         0         0         0         0         0
         0         0         0         0         0         0         0         0
         0         0         0         0         0         0         0         0
         0         0         0         0         0         0         0         0
         0         0         0         0         0         0         0         0
         0         0         0         0         0         0         0         0
         0         0         0         0         0         0         0         0
         0         0         0         0         0         0         0         0
         0         0         0         0         0         0         0         0
         0         0         0         0         0         0         0         0
         0         0         0         0         0         0         0         0
         0         0         0         0         0         0         0         0
         0         0         0         0         0         0         0         0
         0         0         0         0         0         0         0         0
         0         0         0         0         0         0         0         0
         0         0         0         0         0         0         0         0
         0         0         0         0         0         0         0         0
         0         0         0         0         0         0         0         0
         0         0         0         0         0         0         0         0
         0         0         0         0         0         0         0         0
         0         0         0         0         0         0         0         0
         0         0         0         0         0         0         0         0
         0         0         0         0         0         0         0         0
         0         0         0         0         0         0         0         0
         0         0         0         0         0         0         0         0
         0         0         0         0         0         0         0         0
         0         0         0         0         0         0         0         0
         0         0         0         0         0         0         0         0
         0         0         0         0         0         0         0         0
         0         0         0         0         0         0         0         0
         0         0         0         0         0         0         0         0
         0         0         0         0         0         0         0         0
         0         0         0         0         0         0         0         0
         0         0         0         0         0         0         0         0
         0         0         0         0         0         0         0         0
         0         0         0         0         0         0         0         0
         0         0         0         0         0         0         0         0
         0         0         0         0         0         0         0         0
         0         0         0         0         0         0         0         0
         0         0         0         0         0         0         0         0
         0         0         0         0         0         0         0         0
         0         0         0         0         0         0         0         0
         0         0         0         0         0         0         0         0
         0         0         0         0         0         0         0         0
         0         0         0         0         0         0         0         0
         0         0         0         0         0         0         0         0
         0         0         0         0         0         0         0         0
         0         0         0         0         0         0         0         0
         0         0         0         0         0         0         0         0
         0         0         0         0         0         0         0         0
         0         0         0         0         0         0         0         0
         0         0         0         0         0         0         0         0
         0         0         0         0         0         0         0         0
         0         0         0         0         0         0         0         0
         0         0         0         0         0         0         0         0
         0         0         0         0         0         0         0         0
         0         0         0         0         0         0         0         0
         0         0         0         0         0         0         0         0
         0         0         0         0         0         0         0         0
         0         0         0         0         0         0         0         0
         0         0         0         0         0         0         0         0
         0         0         0         0         0         0         0         0
         0         0         0         0         0         0         0         0
         0         0         0         0         0         0         0         0
         0         0         0         0         0         0         0         0
         0         0         0         0         0         0         0         0
         0         0         0         0         0         0         0         0
         0         0         0         0         0         0         0         0
         0         0         0         0         0         0         0         0
         0         0         0         0         0         0         0         0
         0         0         0         0         0         0         0         0
         0         0         0         0         0         0         0         0
         0         0         0         0         0         0         0         0
         0         0         0         0         0         0         0         0
         0         0         0         0         0         0         0         0
         0         0         0         0         0         0         0         0
         0         0         0         0         0         0         0         0
         0         0         0         0         0         0         0         0
         0         0         0         0         0         0         0         0
         0         0         0         0         0         0         0         0
         0         0         0         0         0         0         0         0
         0         0         0         0         0         0         0         0
         0         0         0         0         0         0         0         0
         0         0         0         0         0         0         0         0
         0         0         0         0         0         0         0         0
         0         0         0         0         0         0         0         0
         0         0         0         0         0         0         0         0
         0         0         0         0         0         0         0         0
         0         0         0         0         0         0         0         0
         0         0         0         0         0         0         0         0
         0         0         0         0         0         0         0         0
         0         0         0         0         0         0         0         0
         0         0         0         0         0         0         0         0
         0         0         0         0         0         0         0         0
         0         0         0         0         0         0         0         0
         0         0         0         0         0         0         0         0
         0         0         0         0         0         0         0         0
         0         0         0         0         0         0         0         0
         0         0         0         0         0         0         0         0
         0         0         0         0         0         0         0         0
         0         0         0         0         0         0         0         0
         0         0         0         0         0         0         0         0
         0         0         0         0         0         0         0         0
         0         0         0         0         0         0         0         0
         0         0         0         0         0         0         0         0
         0         0         0         0         0         0         0         0
         0         0         0         0         0         0         0         0
         0         0         0         0         0         0         0         0
         0         0         0         0         0         0         0         0
         0         0         0         0         0         0         0         0
         0         0         0         0         0         0         0         0
         0         0         0         0         0         0         0         0
         0         0         0         0         0         0         0         0
         0         0         0         0         0         0         0         0
         0         0         0         0         0         0         0         0
         0         0         0         0         0         0         0         0
         0         0         0         0         0         0         0         0
         0         0         0         0         0         0         0         0
         0         0         0         0         0         0         0         0
         0         0         0         0         0         0         0         0
         0         0         0         0         0         0         0         0
         0         0         0         0         0         0         0         0
         0         0         0         0         0         0         0         0
         0         0         0         0         0         0         0         0
         0         0         0         0         0         0         0         0
         0         0         0         0         0         0         0         0
         0         0         0         0         0         0         0         0
         0         0         0         0         0         0         0         0
         0         0         0         0         0         0         0         0
         0         0         0         0         0         0         0         0
         0         0         0         0         0         0         0         0
         0         0         0         0         0         0         0         0
         0         0         0         0         0         0         0         0
         0         0         0         0         0         0         0         0
         0         0         0         0         0         0         0         0
         0         0         0         0         0         0         0         0
         0         0         0         0         0         0         0         0
         0         0         0         0         0         0         0         0
         0         0         0         0         0         0         0         0
         0         0         0         0         0         0         0         0
         0         0         0         0         0         0         0         0
         0         0         0         0         0         0         0         0
         0         0         0         0         0         0         0         0
         0         0         0         0         0         0         0         0
         0         0         0         0         0         0         0         0
         0         0         0         0         0         0         0         0
         0         0         0         0         0         0         0         0
         0         0         0         0         0         0         0         0
         0         0         0         0         0         0         0         0
         0         0         0         0         0         0         0         0
         0         0         0         0         0         0         0         0
         0         0         0         0         0         0         0         0
         0         0         0         0         0         0         0         0
         0         0         0         0         0         0         0         0
         0         0         0         0         0         0         0         0
         0         0         0         0         0         0         0         0
         0         0         0         0         0         0         0         0
         0         0         0         0         0         0         0         0
         0         0         0         0         0         0         0         0
         0         0         0         0         0         0         0         0
         0         0         0         0         0         0         0         0
         0         0         0         0         0         0         0         0
         0         0         0         0         0         0         0         0
         0         0         0         0         0         0         0         0
         0         0         0         0         0         0         0         0
         0         0         0         0         0         0         0         0
         0         0         0         0         0         0         0         0
         0         0         0         0         0         0         0         0
         0         0         0         0         0         0         0         0
         0         0         0         0         0         0         0         0
         0         0         0         0         0         0         0         0
         0         0         0         0         0         0         0         0
         0         0         0         0         0         0         0         0
         0         0         0         0         0         0         0         0
         0         0         0         0         0         0         0         0
         0         0         0         0         0         0         0         0
         0         0         0         0         0         0         0         0
         0         0         0         0         0         0         0         0
         0         0         0         0         0         0         0         0
         0         0         0         0         0         0         0         0
         0         0         0         0         0         0         0         0
         0         0         0         0         0         0         0         0
         0         0         0         0         0         0         0         0
         0         0         0         0         0         0         0         0
         0         0         0         0         0         0         0         0
         0         0         0         0         0         0         0         0
         0         0         0         0         0         0         0         0
         0         0         0         0         0         0         0         0
         0         0         0         0         0         0         0         0
         0         0         0         0         0         0         0         0
         0         0         0         0         0         0         0         0
         0         0         0         0         0         0         0         0
         0         0         0         0         0         0         0         0
         0         0         0         0         0         0         0         0
         0         0         0         0         0         0         0         0
         0         0         0         0         0         0         0         0
         0         0         0         0         0         0         0         0
         0         0         0         0         0         0         0         0
         0         0         0         0         0         0         0         0
         0         0         0         0         0         0         0         0
         0         0         0         0         0         0         0         0
         0         0         0         0         0         0         0         0
         0         0         0         0         0         0         0         0
         0         0         0         0         0         0         0         0
         0         0         0         0         0         0         0         0
         0         0         0         0         0         0         0         0
         0         0         0         0         0         0         0         0
         0         0         0         0         0         0         0         0
         0         0         0         0         0         0         0         0
         0         0         0         0         0         0         0         0
         0         0         0         0         0         0         0         0
         0         0         0         0         0         0         0         0
         0         0         0         0         0         0         0         0
         0         0         0         0         0         0         0         0
         0         0         0         0         0         0         0         0
         0         0         0         0         0         0         0         0
         0         0         0         0         0         0         0         0
         0         0         0         0         0         0         0         0
         0         0         0         0         0         0         0         0
         0         0         0         0         0         0         0         0
         0         0         0         0         0         0         0         0
         0         0         0         0         0         0         0         0
         0         0         0         0         0         0         0         0
         0         0         0         0         0         0         0         0
         0         0         0         0         0         0         0         0
         0         0         0         0         0         0         0         0
         0         0         0         0         0         0         0         0
         0         0         0         0         0         0         0         0
         0         0         0         0         0         0         0         0
         0         0         0         0         0         0         0         0
         0         0         0         0         0         0         0         0
         0         0         0         0         0         0         0         0
         0         0         0         0         0         0         0         0
         0         0         0         0         0         0         0         0
         0         0         0         0         0         0         0         0
         0         0         0         0         0         0         0         0
         0         0         0         0         0         0         0         0
         0         0         0         0         0         0         0         0
         0         0         0         0         0         0         0         0
         0         0         0         0         0         0         0         0
         0         0         0         0         0         0         0         0
         0         0         0         0         0         0         0         0
         0         0         0         0         0         0         0         0
         0         0         0         0         0         0         0         0
         0         0         0         0         0         0         0         0
         0         0         0         0         0         0         0         0
         0         0         0         0         0         0         0         0
         0         0         0         0         0         0         0         0
         0         0         0         0         0         0         0         0
         0         0         0         0         0         0         0         0
         0         0         0         0         0         0         0         0
         0         0         0         0         0         0         0         0
         0         0         0         0         0         0         0         0
         0         0         0         0         0         0         0         0
         0         0         0         0         0         0         0         0
         0         0         0         0         0         0         0         0
         0         0         0         0         0         0         0         0
         0         0         0         0         0         0         0         0
         0         0         0         0         0         0         0         0
         0         0         0         0         0         0         0         0
         0         0         0         0         0         0         0         0
         0         0         0         0         0         0         0         0
         0         0         0         0         0         0         0         0
         0         0         0         0         0         0         0         0
         0         0         0         0         0         0         0         0
         0         0         0         0         0         0         0         0
         0         0         0         0         0         0         0         0
         0         0         0         0         0         0         0         0
         0         0         0         0         0         0         0         0
         0         0         0         0         0         0         0         0
         0         0         0         0         0         0         0         0
         0         0         0         0         0         0         0         0
         0         0         0         0         0         0         0         0
         0         0         0         0         0         0         0         0
         0         0         0         0         0         0         0         0
         0         0         0         0         0         0         0         0
         0         0         0         0         0         0         0         0
         0         0         0         0         0         0         0         0
         0         0         0         0         0         0         0         0
         0         0         0         0         0         0         0         0
         0         0         0         0         0         0         0         0
         0         0         0         0         0         0         0         0
         0         0         0         0         0         0         0         0
         0         0         0         0         0         0         0         0
         0         0         0         0         0         0         0         0
         0         0         0         0         0         0         0         0
         0         0         0         0         0         0         0         0
         0         0         0         0         0         0         0         0
         0         0         0         0         0         0         0         0
         0         0         0         0         0         0         0         0
         0         0         0         0         0         0         0         0
         0         0         0         0         0         0         0         0
         0         0         0         0         0         0         0         0
         0         0         0         0         0         0         0         0
         0         0         0         0         0         0         0         0
         0         0         0         0         0         0         0         0
         0         0         0         0         0         0         0         0
         0         0         0         0         0         0         0         0
         0         0         0         0         0         0         0         0
         0         0         0         0         0         0         0         0
         0         0         0         0         0         0         0         0
         0         0         0         0         0         0         0         0
         0         0         0         0         0         0         0         0
         0         0         0         0         0         0         0         0
         0         0         0         0         0         0         0         0
         0         0         0         0         0         0         0         0
         0         0         0         0         0         0         0         0
         0         0         0         0         0         0         0         0
         0         0         0         0         0         0         0         0
         0         0         0         0         0         0         0         0
         0         0         0         0         0         0         0         0
         0         0         0         0         0         0         0         0
         0         0         0         0         0         0         0         0
         0         0         0         0         0         0         0         0
         0         0         0         0         0         0         0         0
         0         0         0         0         0         0         0         0
         0         0         0         0         0         0         0         0
         0         0         0         0         0         0         0         0
         0         0         0         0         0         0         0         0
         0         0         0         0         0         0         0         0
         0         0         0         0         0         0         0         0
         0         0         0         0         0         0         0         0
         0         0         0         0         0         0         0         0
         0         0         0         0         0         0         0         0
         0         0         0         0         0         0         0         0
         0         0         0         0         0         0         0         0
         0         0         0         0         0         0         0         0
         0         0         0         0         0         0         0         0
         0         0         0         0         0         0         0         0
         0         0         0         0         0         0         0         0
         0         0         0         0         0         0         0         0
         0         0         0         0         0         0         0         0
         0         0         0         0         0         0         0         0
         0         0         0         0         0         0         0         0
         0         0         0         0         0         0         0         0
         0         0         0         0         0         0         0         0
         0         0         0         0         0         0         0         0
         0         0         0         0         0         0         0         0
         0         0         0         0         0         0         0         0
         0         0         0         0         0         0         0         0
         0         0         0         0         0         0         0         0
         0         0         0         0         0         0         0         0
         0         0         0         0         0         0         0         0
         0         0         0         0         0         0         0         0
         0         0         0         0         0         0         0         0
         0         0         0         0         0         0         0         0
         0         0         0         0         0         0         0         0
         0         0         0         0         0         0         0         0
         0         0         0         0         0         0         0         0
         0         0         0         0         0         0         0         0
         0         0         0         0         0         0         0         0
         0         0         0         0         0         0         0         0
         0         0         0         0         0         0         0         0
         0         0         0         0         0         0         0         0
         0         0         0         0         0         0         0         0
         0         0         0         0         0         0         0         0
         0         0         0         0         0         0         0         0
         0         0         0         0         0         0         0         0
         0         0         0         0         0         0         0         0
         0         0         0         0         0         0         0         0
         0         0         0         0         0         0         0         0
         0         0         0         0         0         0         0         0
         0         0         0         0         0         0         0         0
         0         0         0         0         0         0         0         0
         0         0         0         0         0         0         0         0
         0         0         0         0         0         0         0         0
         0         0         0         0         0         0         0         0
         0         0         0         0         0         0         0         0
         0         0         0         0         0         0         0         0
         0         0         0         0         0         0         0         0
         0         0         0         0         0         0         0         0
         0         0         0         0         0         0         0         0
         0         0         0         0         0         0         0         0
         0         0         0         0         0         0         0         0
         0         0         0         0         0         0         0         0
         0         0         0         0         0         0         0         0
         0         0         0         0         0         0         0         0
         0         0         0         0         0         0         0         0
         0         0         0         0         0         0         0         0
         0         0         0         0         0         0         0         0
         0         0         0         0         0         0         0         0
         0         0         0         0         0         0         0         0
         0         0         0         0         0         0         0         0
         0         0         0         0         0         0         0         0
         0         0         0         0         0         0         0         0
         0         0         0         0         0         0         0         0
         0         0         0         0         0         0         0         0
         0         0         0         0         0         0         0         0
         0         0         0         0         0         0         0         0
         0         0         0         0         0         0         0         0
         0         0         0         0         0         0         0         0
         0         0         0         0         0         0         0         0
         0         0         0         0         0         0         0         0
         0         0         0         0         0         0         0         0
         0         0         0         0         0         0         0         0
         0         0         0         0         0         0         0         0
         0         0         0         0         0         0         0         0
         0         0         0         0         0         0         0         0
         0         0         0         0         0         0         0         0
         0         0         0         0         0         0         0         0
         0         0         0         0         0         0         0         0
         0         0         0         0         0         0         0         0
         0         0         0         0         0         0         0         0
         0         0         0         0         0         0         0         0
         0         0         0         0         0         0         0         0
         0         0         0         0         0         0         0         0
         0         0         0         0         0         0         0         0
         0         0         0         0         0         0         0         0
         0         0         0         0         0         0         0         0
         0         0         0         0         0         0         0         0
         0         0         0         0         0         0         0         0
         0         0         0         0         0         0         0         0
         0         0         0         0         0         0         0         0
         0         0         0         0         0         0         0         0
         0         0         0         0         0         0         0         0
         0         0         0         0         0         0         0         0
         0         0         0         0         0         0         0         0
         0         0         0         0         0         0         0         0
         0         0         0         0         0         0         0         0
         0         0         0         0         0         0         0         0
         0         0         0         0         0         0         0         0
         0         0         0         0         0         0         0         0
         0         0         0         0         0         0         0         0
         0         0         0         0         0         0         0         0
         0         0         0         0         0         0         0         0
         0         0         0         0         0         0         0         0
         0         0         0         0         0         0         0         0
         0         0         0         0         0         0         0         0
         0         0         0         0         0         0         0         0
         0         0         0         0         0         0         0         0
         0         0         0         0         0         0         0         0
         0         0         0         0         0         0         0         0
         0         0         0         0         0         0         0         0
         0         0         0         0         0         0         0         0
         0         0         0         0         0         0         0         0
         0         0         0         0         0         0         0         0
         0         0         0         0         0         0         0         0
         0         0         0         0         0         0         0         0
         0         0         0         0         0         0         0         0
         0         0         0         0         0         0         0         0
         0         0         0         0         0         0         0         0
         0         0         0         0         0         0         0         0
         0         0         0         0         0         0         0         0
         0         0         0         0         0         0         0         0
         0         0         0         0         0         0         0         0
         0         0         0         0         0         0         0         0
         0         0         0         0         0         0         0         0
         0         0         0         0         0         0         0         0
         0         0         0         0         0         0         0         0
         0         0         0         0         0         0         0         0
         0         0         0         0         0         0         0         0
         0         0         0         0         0         0         0         0
         0         0         0         0         0         0         0         0
         0         0         0         0         0         0         0         0
         0         0         0         0         0         0         0         0
         0         0         0         0         0         0         0         0
         0         0         0         0         0         0         0         0
         0         0         0         0         0         0         0         0
         0         0         0         0         0         0         0         0
         0         0         0         0         0         0         0         0
         0         0         0         0         0         0         0         0
         0         0         0         0         0         0         0         0
         0         0         0         0         0         0         0         0
         0         0         0         0         0         0         0         0
         0         0         0         0         0         0         0         0
         0         0         0         0         0         0         0         0
         0         0         0         0         0         0         0         0
         0         0         0         0         0         0         0         0
         0         0         0         0         0         0         0         0
         0         0         0         0         0         0         0         0
         0         0         0         0         0         0         0         0
         0         0         0         0         0         0         0         0
         0         0         0         0         0         0         0         0
         0         0         0         0         0         0         0         0
         0         0         0         0         0         0         0         0
         0         0         0         0         0         0         0         0
         0         0         0         0         0         0         0         0
         0         0         0         0         0         0         0         0
         0         0         0         0         0         0         0         0
         0         0         0         0         0         0         0         0
         0         0         0         0         0         0         0         0
         0         0         0         0         0         0         0         0
         0         0         0         0         0         0         0         0
         0         0         0         0         0         0         0         0
         0         0         0         0         0         0         0         0
         0         0         0         0         0         0         0         0
         0         0         0         0         0         0         0         0
         0         0         0         0         0         0         0         0
         0         0         0         0         0         0         0         0
         0         0         0         0         0         0         0         0
         0         0         0         0         0         0         0         0
         0         0         0         0         0         0         0         0
         0         0         0         0         0         0         0         0
         0         0         0         0         0         0         0         0
         0         0         0         0         0         0         0         0
         0         0         0         0         0         0         0         0
         0         0         0         0         0         0         0         0
         0         0         0         0         0         0         0         0
         0         0         0         0         0         0         0         0
         0         0         0         0         0         0         0         0
         0         0         0         0         0         0         0         0
         0         0         0         0         0         0         0         0
         0         0         0         0         0         0         0         0
         0         0         0         0         0         0         0         0
         0         0         0         0         0         0         0         0
         0         0         0         0         0         0         0         0
         0         0         0         0         0         0         0         0
         0         0         0         0         0         0         0         0
         0         0         0         0         0         0         0         0
         0         0         0         0         0         0         0         0
         0         0         0         0         0         0         0         0
         0         0         0         0         0         0         0         0
         0         0         0         0         0         0         0         0
         0         0         0         0         0         0         0         0
         0         0         0         0         0         0         0         0
         0         0         0         0         0         0         0         0
         0         0         0         0         0         0         0         0
         0         0         0         0         0         0         0         0
         0         0         0         0         0         0         0         0
         0         0         0         0         0         0         0         0
         0         0         0         0         0         0         0         0
         0         0         0         0         0         0         0         0
         0         0         0         0         0         0         0         0
         0         0         0         0         0         0         0         0
         0         0         0         0         0         0         0         0
         0         0         0         0         0         0         0         0
         0         0         0         0         0         0         0         0
         0         0         0         0         0         0         0         0
         0         0         0         0         0         0         0         0
         0         0         0         0         0         0         0         0
         0         0         0         0         0         0         0         0
         0         0         0         0         0         0         0         0
         0         0         0         0         0         0         0         0
         0         0         0         0         0         0         0         0
         0         0         0         0         0         0         0         0
         0         0         0         0         0         0         0         0
         0         0         0         0         0         0         0         0
         0         0         0         0         0         0         0         0
         0         0         0         0         0         0         0         0
         0         0         0         0         0         0         0         0
         0         0         0         0         0         0         0         0
         0         0         0         0         0         0         0         0
         0         0         0         0         0         0         0         0
         0         0         0         0         0         0         0         0
         0         0         0         0         0         0         0         0
         0         0         0         0         0         0         0         0
         0         0         0         0         0         0         0         0
         0         0         0         0         0         0         0         0
         0         0         0         0         0         0         0         0
         0         0         0         0         0         0         0         0
         0         0         0         0         0         0         0         0
         0         0         0         0         0         0         0         0
         0         0         0         0         0         0         0         0
         0         0         0         0         0         0         0         0
         0         0         0         0         0         0         0         0
         0         0         0         0         0         0         0         0
         0         0         0         0         0         0         0         0
         0         0         0         0         0         0         0         0
         0         0         0         0         0         0         0         0
         0         0         0         0         0         0         0         0
         0         0         0         0         0         0         0         0
         0         0         0         0         0         0         0         0
         0         0         0         0         0         0         0         0
         0         0         0         0         0         0         0         0
         0         0         0         0         0         0         0         0
         0         0         0         0         0         0         0         0
         0         0         0         0         0         0         0         0
         0         0         0         0         0         0         0         0
         0         0         0         0         0         0         0         0
         0         0         0         0         0         0         0         0
         0         0         0         0         0         0         0         0
         0         0         0         0         0         0         0         0
         0         0         0         0         0         0         0         0
         0         0         0         0         0         0         0         0
         0         0         0         0         0         0         0         0
         0         0         0         0         0         0         0         0
         0         0         0         0         0         0         0         0
         0         0         0         0         0         0         0         0
         0         0         0         0         0         0         0         0
         0         0         0         0         0         0         0         0
         0         0         0         0         0         0         0         0
         0         0         0         0         0         0         0         0
         0         0         0         0         0         0         0         0
         0         0         0         0         0         0         0         0
         0         0         0         0         0         0         0         0
         0         0         0         0         0         0         0         0
         0         0         0         0         0         0         0         0
         0         0         0         0         0         0         0         0
         0         0         0         0         0         0         0         0
         0         0         0         0         0         0         0         0
         0         0         0         0         0         0         0         0
         0         0         0         0         0         0         0         0
         0         0         0         0         0         0         0         0
         0         0         0         0         0         0         0         0
         0         0         0         0         0         0         0         0
         0         0         0         0         0         0         0         0
         0         0         0         0         0         0         0         0
         0         0         0         0         0         0         0         0
         0         0         0         0         0         0         0         0
         0         0         0         0         0         0         0         0
         0         0         0         0         0         0         0         0
         0         0         0         0         0         0         0         0
         0         0         0         0         0         0         0         0
         0         0         0         0         0         0         0         0
         0         0         0         0         0         0         0         0
         0         0         0         0         0         0         0         0
         0         0         0         0         0         0         0         0
         0         0         0         0         0         0         0         0
         0         0         0         0         0         0         0         0
         0         0         0         0         0         0         0         0
         0         0         0         0         0         0         0         0
         0         0         0         0         0         0         0         0
         0         0         0         0         0         0         0         0
         0         0         0         0         0         0         0         0
         0         0         0         0         0         0         0         0
         0         0         0         0         0         0         0         0
         0         0         0         0         0         0         0         0
         0         0         0         0         0         0         0         0
         0         0         0         0         0         0         0         0
         0         0         0         0         0         0         0         0
         0         0         0         0         0         0         0         0
         0         0         0         0         0         0         0         0
         0         0         0         0         0         0         0         0
         0         0         0         0         0         0         0         0
         0         0         0         0         0         0         0         0
         0         0         0         0         0         0         0         0
         0         0         0         0         0         0         0         0
         0         0         0         0         0         0         0         0
         0         0         0         0         0         0         0         0
         0         0         0         0         0         0         0         0
         0         0         0         0         0         0         0         0
         0         0         0         0         0         0         0         0
         0         0         0         0         0         0         0         0
         0         0         0         0         0         0         0         0
         0         0         0         0         0         0         0         0
         0         0         0         0         0         0         0         0
         0         0         0         0         0         0         0         0
         0         0         0         0         0         0         0         0
         0         0         0         0         0         0         0         0
         0         0         0         0         0         0         0         0
         0         0         0         0         0         0         0         0
         0         0         0         0         0         0         0         0
         0         0         0         0         0         0         0         0
         0         0         0         0         0         0         0         0
         0         0         0         0         0         0         0         0
         0         0         0         0         0         0         0         0
         0         0         0         0         0         0         0         0
         0         0         0         0         0         0         0         0
         0         0         0         0         0         0         0         0
         0         0         0         0         0         0         0         0
         0         0         0         0         0         0         0         0
         0         0         0         0         0         0         0         0
         0         0         0         0         0         0         0         0
         0         0         0         0         0         0         0         0
         0         0         0         0         0         0         0         0
         0         0         0         0         0         0         0         0
         0         0         0         0         0         0         0         0
         0         0         0         0         0         0         0         0
         0         0         0         0         0         0         0         0
         0         0         0         0         0         0         0         0
         0         0         0         0         0         0         0         0
         0         0         0         0         0         0         0         0
         0         0         0         0         0         0         0         0
         0         0         0         0         0         0         0         0
         0         0         0         0         0         0         0         0
         0         0         0         0         0         0         0         0
         0         0         0         0         0         0         0         0
         0         0         0         0         0         0         0         0
         0         0         0         0         0         0         0         0
         0         0         0         0         0         0         0         0
         0         0         0         0         0         0         0         0
         0         0         0         0         0         0         0         0
         0         0         0         0         0         0         0         0
         0         0         0         0         0         0         0         0
         0         0         0         0         0         0         0         0
         0         0         0         0         0         0         0         0
         0         0         0         0         0         0         0         0
         0         0         0         0         0         0         0         0
         0         0         0         0         0         0         0         0
         0         0         0         0         0         0         0         0
         0         0         0         0         0         0         0         0
         0         0         0         0         0         0         0         0
         0         0         0         0         0         0         0         0
         0         0         0         0         0         0         0         0
         0         0         0         0         0         0         0         0
         0         0         0         0         0         0         0         0
         0         0         0         0         0         0         0         0
         0         0         0         0         0         0         0         0
         0         0         0         0         0         0         0         0
         0         0         0         0         0         0         0         0
         0         0         0         0         0         0         0         0
         0         0         0         0         0         0         0         0
         0         0         0         0         0         0         0         0
         0         0         0         0         0         0         0         0
         0         0         0         0         0         0         0         0
         0         0         0         0         0         0         0         0
         0         0         0         0         0         0         0         0
         0         0         0         0         0         0         0         0
         0         0         0         0         0         0         0         0
         0         0         0         0         0         0         0         0
         0         0         0         0         0         0         0         0
         0         0         0         0         0         0         0         0
         0         0         0         0         0         0         0         0
         0         0         0         0         0         0         0         0
         0         0         0         0         0         0         0         0
         0         0         0         0         0         0         0         0
         0         0         0         0         0         0         0         0
         0         0         0         0         0         0         0         0
         0         0         0         0         0         0         0         0
         0         0         0         0         0         0         0         0
         0         0         0         0         0         0         0         0
         0         0         0         0         0         0         0         0
         0         0         0         0         0         0         0         0
         0         0         0         0         0         0         0         0
         0         0         0         0         0         0         0         0
         0         0         0         0         0         0         0         0
         0         0         0         0         0         0         0         0
         0         0         0         0         0         0         0         0
         0         0         0         0         0         0         0         0
         0         0         0         0         0         0         0         0
         0         0         0         0         0         0         0         0
         0         0         0         0         0         0         0         0
         0         0         0         0         0         0         0         0
         0         0         0         0         0         0         0         0
         0         0         0         0         0         0         0         0
         0         0         0         0         0         0         0         0
         0         0         0         0         0         0         0         0
         0         0         0         0         0         0         0         0
         0         0         0         0         0         0         0         0
         0         0         0         0         0         0         0         0
         0         0         0         0         0         0         0         0
         0         0         0         0         0         0         0         0
         0         0         0         0         0         0         0         0
         0         0         0         0         0         0         0         0
         0         0         0         0         0         0         0         0
         0         0         0         0         0         0         0         0
         0         0         0         0         0         0         0         0
         0         0         0         0         0         0         0         0
         0         0         0         0         0         0         0         0
         0         0         0         0         0         0         0         0
         0         0         0         0         0         0         0         0
         0         0         0         0         0         0         0         0
         0         0         0         0         0         0         0         0
         0         0         0         0         0         0         0         0
         0         0         0         0         0         0         0         0
         0         0         0         0         0         0         0         0
         0         0         0         0         0         0         0         0
         0         0         0         0         0         0         0         0
         0         0         0         0         0         0         0         0
         0         0         0         0         0         0         0         0
         0         0         0         0         0         0         0         0
         0         0         0         0         0         0         0         0
         0         0         0         0         0         0         0         0
         0         0         0         0         0         0         0         0
         0         0         0         0         0         0         0         0
         0         0         0         0         0         0         0         0
         0         0         0         0         0         0         0         0
         0         0         0         0         0         0         0         0
         0         0         0         0         0         0         0         0
         0         0         0         0         0         0         0         0
         0         0         0         0         0         0         0         0
         0         0         0         0         0         0         0         0
         0         0         0         0         0         0         0         0
         0         0         0         0         0         0         0         0
         0         0         0         0         0         0         0         0
         0         0         0         0         0         0         0         0
         0         0         0         0         0         0         0         0
         0         0         0         0         0         0         0         0
         0         0         0         0         0         0         0         0
         0         0         0         0         0         0         0         0
         0         0         0         0         0         0         0         0
         0         0         0         0         0         0         0         0
         0         0         0         0         0         0         0         0
         0         0         0         0         0         0         0         0
         0         0         0         0         0         0         0         0
         0         0         0         0         0         0         0         0
         0         0         0         0         0         0         0         0
         0         0         0         0         0         0         0         0
         0         0         0         0         0         0         0         0
         0         0         0         0         0         0         0         0
         0         0         0         0         0         0         0         0
         0         0         0         0         0         0         0         0
         0         0         0         0         0         0         0         0
         0         0         0         0         0         0         0         0
         0         0         0         0         0         0         0         0
         0         0         0         0         0         0         0         0
         0         0         0         0         0         0         0         0
         0         0         0         0         0         0         0         0
         0         0         0         0         0         0         0         0
         0         0         0         0         0         0         0         0
         0         0         0         0         0         0         0         0
         0         0         0         0         0         0         0         0
         0         0         0         0         0         0         0         0
         0         0         0         0         0         0         0         0
         0         0         0         0         0         0         0         0
         0         0         0         0         0         0         0         0
         0         0         0         0         0         0         0         0
         0         0         0         0         0         0         0         0
         0         0         0         0         0         0         0         0
         0         0         0         0         0         0         0         0
         0         0         0         0         0         0         0         0
         0         0         0         0         0         0         0         0
         0         0         0         0         0         0         0         0
         0         0         0         0         0         0         0         0
         0         0         0         0         0         0         0         0
         0         0         0         0         0         0         0         0
         0         0         0         0         0         0         0         0
         0         0         0         0         0         0         0         0
         0         0         0         0         0         0         0         0
         0         0         0         0         0         0         0         0
         0         0         0         0         0         0         0         0
         0         0         0         0         0         0         0         0
         0         0         0         0         0         0         0         0
         0         0         0         0         0         0         0         0
         0         0         0         0         0         0         0         0
         0         0         0         0         0         0         0         0
         0         0         0         0         0         0         0         0
         0         0         0         0         0         0         0         0
         0         0         0         0         0         0         0         0
         0         0         0         0         0         0         0         0
         0         0         0         0         0         0         0         0
         0         0         0         0         0         0         0         0
         0         0         0         0         0         0         0         0
         0         0         0         0         0         0         0         0
         0         0         0         0         0         0         0         0
         0         0         0         0         0         0         0         0
         0         0         0         0         0         0         0         0
         0         0         0         0         0         0         0         0
         0         0         0         0         0         0         0         0
         0         0         0         0         0         0         0         0
         0         0         0         0         0         0         0         0
         0         0         0         0         0         0         0         0
         0         0         0         0         0         0         0         0
         0         0         0         0         0         0         0         0
         0         0         0         0         0         0         0         0
         0         0         0         0         0         0         0         0
         0         0         0         0         0         0         0         0
         0         0         0         0         0         0         0         0
         0         0         0         0         0         0         0         0
         0         0         0         0         0         0         0         0
         0         0         0         0         0         0         0         0
         0         0         0         0         0         0         0         0
         0         0         0         0         0         0         0         0
         0         0         0         0         0         0         0         0
         0         0         0         0         0         0         0         0
         0         0         0         0         0         0         0         0
         0         0         0         0         0         0         0         0
         0         0         0         0         0         0         0         0
         0         0         0         0         0         0         0         0
         0         0         0         0         0         0         0         0
         0         0         0         0         0         0         0         0
         0         0         0         0         0         0         0         0
         0         0         0         0         0         0         0         0
         0         0         0         0         0         0         0         0
         0         0         0         0         0         0         0         0
         0         0         0         0         0         0         0         0
         0         0         0         0         0         0         0         0
         0         0         0         0         0         0         0         0
         0         0         0         0         0         0         0         0
         0         0         0         0         0         0         0         0
         0         0         0         0         0         0         0         0
         0         0         0         0         0         0         0         0
         0         0         0         0         0         0         0         0
         0         0         0         0         0         0         0         0
         0         0         0         0         0         0         0         0
         0         0         0         0         0         0         0         0
         0         0         0         0         0         0         0         0
         0         0         0         0         0         0         0         0
         0         0         0         0         0         0         0         0
         0         0         0         0         0         0         0         0
         0         0         0         0         0         0         0         0
         0         0         0         0         0         0         0         0
         0         0         0         0         0         0         0         0
         0         0         0         0         0         0         0         0
         0         0         0         0         0         0         0         0
         0         0         0         0         0         0         0         0
         0         0         0         0         0         0         0         0
         0         0         0         0         0         0         0         0
         0         0         0         0         0         0         0         0
         0         0         0         0         0         0         0         0
         0         0         0         0         0         0         0         0
         0         0         0         0         0         0         0         0
         0         0         0         0         0         0         0         0
         0         0         0         0         0         0         0         0
         0         0         0         0         0         0         0         0
         0         0         0         0         0         0         0         0
         0         0         0         0         0         0         0         0
         0         0         0         0         0         0         0         0
         0         0         0         0         0         0         0         0
         0         0         0         0         0         0         0         0
         0         0         0         0         0         0         0         0
         0         0         0         0         0         0         0         0
         0         0         0         0         0         0         0         0
         0         0         0         0         0         0         0         0
         0         0         0         0         0         0         0         0
         0         0         0         0         0         0         0         0
         0         0         0         0         0         0         0         0
         0         0         0         0         0         0         0         0
         0         0         0         0         0         0         0         0
         0         0         0         0         0         0         0         0
         0         0         0         0         0         0         0         0
         0         0         0         0         0         0         0         0
         0         0         0         0         0         0         0         0
         0         0         0         0         0         0         0         0
         0         0         0         0         0         0         0         0
         0         0         0         0         0         0         0         0
         0         0         0         0         0         0         0         0
         0         0         0         0         0         0         0         0
         0         0         0         0         0         0         0         0
         0         0         0         0         0         0         0         0
         0         0         0         0         0         0         0         0
         0         0         0         0         0         0         0         0
         0         0         0         0         0         0         0         0
         0         0         0         0         0         0         0         0
         0         0         0         0         0         0         0         0
         0         0         0         0         0         0         0         0
         0         0         0         0         0         0         0         0
         0         0         0         0         0         0         0         0
         0         0         0         0         0         0         0         0
         0         0         0         0         0         0         0         0
         0         0         0         0         0         0         0         0
         0         0         0         0         0         0         0         0
         0         0         0         0         0         0         0         0
         0         0         0         0         0         0         0         0
         0         0         0         0         0         0         0         0
         0         0         0         0         0         0         0         0
         0         0         0         0         0         0         0         0
         0         0         0         0         0         0         0         0
         0         0         0         0         0         0         0         0
         0         0         0         0         0         0         0         0
         0         0         0         0         0         0         0         0
         0         0         0         0         0         0         0         0
         0         0         0         0         0         0         0         0
         0         0         0         0         0         0         0         0
         0         0         0         0         0         0         0         0
         0         0         0         0         0         0         0         0
         0         0         0         0         0         0         0         0
         0         0         0         0         0         0         0         0
         0         0         0         0         0         0         0         0
         0         0         0         0         0         0         0         0
         0         0         0         0         0         0         0         0
         0         0         0         0         0         0         0         0
         0         0         0         0         0         0         0         0
         0         0         0         0         0         0         0         0
         0         0         0         0         0         0         0         0
         0         0         0         0         0         0         0         0
         0         0         0         0         0         0         0         0
         0         0         0         0         0         0         0         0
         0         0         0         0         0         0         0         0
         0         0         0         0         0         0         0         0
         0         0         0         0         0         0         0         0
         0         0         0         0         0         0         0         0
         0         0         0         0         0         0         0         0
         0         0         0         0         0         0         0         0
         0         0         0         0         0         0         0         0
         0         0         0         0         0         0         0         0
         0         0         0         0         0         0         0         0
         0         0         0         0         0         0         0         0
         0         0         0         0         0         0         0         0
         0         0         0         0         0         0         0         0
         0         0         0         0         0         0         0         0
         0         0         0         0         0         0         0         0
         0         0         0         0         0         0         0         0
         0         0         0         0         0         0         0         0
         0         0         0         0         0         0         0         0
         0         0         0         0         0         0         0         0
         0         0         0         0         0         0         0         0
         0         0         0         0         0         0         0         0
         0         0         0         0         0         0         0         0
         0         0         0         0         0         0         0         0
         0         0         0         0         0         0         0         0
         0         0         0         0         0         0         0         0
         0         0         0         0         0         0         0         0
         0         0         0         0         0         0         0         0
         0         0         0         0         0         0         0         0
         0         0         0         0         0         0         0         0
         0         0         0         0         0         0         0         0
         0         0         0         0         0         0         0         0
         0         0         0         0         0         0         0         0
         0         0         0         0         0         0         0         0
         0         0         0         0         0         0         0         0
         0         0         0         0         0         0         0         0
         0         0         0         0         0         0         0         0
         0         0         0         0         0         0         0         0
         0         0         0         0         0         0         0         0
         0         0         0         0         0         0         0         0
         0         0         0         0         0         0         0         0
         0         0         0         0         0         0         0         0
         0         0         0         0         0         0         0         0
         0         0         0         0         0         0         0         0
         0         0         0         0         0         0         0         0
         0         0         0         0         0         0         0         0
         0         0         0         0         0         0         0         0
         0         0         0         0         0         0         0         0
         0         0         0         0         0         0         0         0
         0         0         0         0         0         0         0         0
         0         0         0         0         0         0         0         0
         0         0         0         0         0         0         0         0
         0         0         0         0         0         0         0         0
         0         0         0         0         0         0         0         0
         0         0         0         0         0         0         0         0
         0         0         0         0         0         0         0         0
         0         0         0         0         0         0         0         0
         0         0         0         0         0         0         0         0
         0         0         0         0         0         0         0         0
         0         0         0         0         0         0         0         0
         0         0         0         0         0         0         0         0
         0         0         0         0         0         0         0         0
         0         0         0         0         0         0         0         0
         0         0         0         0         0         0         0         0
         0         0         0         0         0         0         0         0
         0         0         0         0         0         0         0         0
         0         0         0         0         0         0         0         0
         0         0         0         0         0         0         0         0
         0         0         0         0         0         0         0         0
         0         0         0         0         0         0         0         0
         0         0         0         0         0         0         0         0
         0         0         0         0         0         0         0         0
         0         0         0         0         0         0         0         0
         0         0         0         0         0         0         0         0
         0         0         0         0         0         0         0         0
         0         0         0         0         0         0         0         0
         0         0         0         0         0         0         0         0
         0         0         0         0         0         0         0         0
         0         0         0         0         0         0         0         0
         0         0         0         0         0         0         0         0
         0         0         0         0         0         0         0         0
         0         0         0         0         0         0         0         0
         0         0         0         0         0         0         0         0
         0         0         0         0         0         0         0         0
         0         0         0         0         0         0         0         0
         0         0         0         0         0         0         0         0
         0         0         0         0         0         0         0         0
         0         0         0         0         0         0         0         0
         0         0         0         0         0         0         0         0
         0         0         0         0         0         0         0         0
         0         0         0         0         0         0         0         0
         0         0         0         0         0         0         0         0
         0         0         0         0         0         0         0         0
         0         0         0         0         0         0         0         0
         0         0         0         0         0         0         0         0
         0         0         0         0         0         0         0         0
         0         0         0         0         0         0         0         0
         0         0         0         0         0         0         0         0
         0         0         0         0         0         0         0         0
         0         0         0         0         0         0         0         0
         0         0         0         0         0         0         0         0
         0         0         0         0         0         0         0         0
         0         0         0         0         0         0         0         0
         0         0         0         0         0         0         0         0
         0         0         0         0         0         0         0         0
         0         0         0         0         0         0         0         0
         0         0         0         0         0         0         0         0
         0         0         0         0         0         0         0         0
         0         0         0         0         0         0         0         0
         0         0         0         0         0         0         0         0
         0         0         0         0         0         0         0         0
         0         0         0         0         0         0         0         0
         0         0         0         0         0         0         0         0
         0         0         0         0         0         0         0         0
         0         0         0         0         0         0         0         0
         0         0         0         0         0         0         0         0
         0         0         0         0         0         0         0         0
         0         0         0         0         0         0         0         0
         0         0         0         0         0         0         0         0
         0         0         0         0         0         0         0         0
         0         0         0         0         0         0         0         0
         0         0         0         0         0         0         0         0
         0         0         0         0         0         0         0         0
         0         0         0         0         0         0         0         0
         0         0         0         0         0         0         0         0
         0         0         0         0         0         0         0         0
         0         0         0         0         0         0         0         0
         0         0         0         0         0         0         0         0
         0         0         0         0         0         0         0         0
         0         0         0         0         0         0         0         0
         0         0         0         0         0         0         0         0
         0         0         0         0         0         0         0         0
         0         0         0         0         0         0         0         0
         0         0         0         0         0         0         0         0
         0         0         0         0         0         0         0         0
         0         0         0         0         0         0         0         0
         0         0         0         0         0         0         0         0
         0         0         0         0         0         0         0         0
         0         0         0         0         0         0         0         0
         0         0         0         0         0         0         0         0
         0         0         0         0         0         0         0         0
         0         0         0         0         0         0         0         0
         0         0         0         0         0         0         0         0
         0         0         0         0         0         0         0         0
         0         0         0         0         0         0         0         0
         0         0         0         0         0         0         0         0
         0         0         0         0         0         0         0         0
         0         0         0         0         0         0         0         0
         0         0         0         0         0         0         0         0
         0         0         0         0         0         0         0         0
         0         0         0         0         0         0         0         0
         0         0         0         0         0         0         0         0
         0         0         0         0         0         0         0         0
         0         0         0         0         0         0         0         0
         0         0         0         0         0         0         0         0
         0         0         0         0         0         0         0         0
         0         0         0         0         0         0         0         0
         0         0         0         0         0         0         0         0
         0         0         0         0         0         0         0         0
         0         0         0         0         0         0         0         0
         0         0         0         0         0         0         0         0
         0         0         0         0         0         0         0         0
         0         0         0         0         0         0         0         0
         0         0         0         0         0         0         0         0
         0         0         0         0         0         0         0         0
         0         0         0         0         0         0         0         0
         0         0         0         0         0         0         0         0
         0         0         0         0         0         0         0         0
         0         0         0         0         0         0         0         0
         0         0         0         0         0         0         0         0
         0         0         0         0         0         0         0         0
         0         0         0         0         0         0         0         0
         0         0         0         0         0         0         0         0
         0         0         0         0         0         0         0         0
         0         0         0         0         0         0         0         0
         0         0         0         0         0         0         0         0
         0         0         0         0         0         0         0         0
         0         0         0         0         0         0         0         0
         0         0         0         0         0         0         0         0
         0         0         0         0         0         0         0         0
         0         0         0         0         0         0         0         0
         0         0         0         0         0         0         0         0
         0         0         0         0         0         0         0         0
         0         0         0         0         0         0         0         0
         0         0         0         0         0         0         0         0
         0         0         0         0         0         0         0         0
         0         0         0         0         0         0         0         0
         0         0         0         0         0         0         0         0
         0         0         0         0         0         0         0         0
         0         0         0         0         0         0         0         0
         0         0         0         0         0         0         0         0
         0         0         0         0         0         0         0         0
         0         0         0         0         0         0         0         0
         0         0         0         0         0         0         0         0
         0         0         0         0         0         0         0         0
         0         0         0         0         0         0         0         0
         0         0         0         0         0         0         0         0
         0         0         0         0         0         0         0         0
         0         0         0         0         0         0         0         0
         0         0         0         0         0         0         0         0
         0         0         0         0         0         0         0         0
         0         0         0         0         0         0         0         0
         0         0         0         0         0         0         0         0
         0         0         0         0         0         0         0         0
         0         0         0         0         0         0         0         0
         0         0         0         0         0         0         0         0
         0         0         0         0         0         0         0         0
         0         0         0         0         0         0         0         0
         0         0         0         0         0         0         0         0
         0         0         0         0         0         0         0         0
         0         0         0         0         0         0         0         0
         0         0         0         0         0         0         0         0
         0         0         0         0         0         0         0         0
         0         0         0         0         0         0         0         0
         0         0         0         0         0         0         0         0
         0         0         0         0         0         0         0         0
         0         0         0         0         0         0         0         0
         0         0         0         0         0         0         0         0
         0         0         0         0         0         0         0         0
         0         0         0         0         0         0         0         0
         0         0         0         0         0         0         0         0
         0         0         0         0         0         0         0         0
         0         0         0         0         0         0         0         0
         0         0         0         0         0         0         0         0
         0         0         0         0         0         0         0         0
         0         0         0         0         0         0         0         0
         0         0         0         0         0         0         0         0
         0         0         0         0         0         0         0         0
         0         0         0         0         0         0         0         0
         0         0         0         0         0         0         0         0
         0         0         0         0         0         0         0         0
         0         0         0         0         0         0         0         0
         0         0         0         0         0         0         0         0
         0         0         0         0         0         0         0         0
         0         0         0         0         0         0         0         0
         0         0         0         0         0         0         0         0
         0         0         0         0         0         0         0         0
         0         0         0         0         0         0         0         0
         0         0         0         0         0         0         0         0
         0         0         0         0         0         0         0         0
         0         0         0         0         0         0         0         0
         0         0         0         0         0         0         0         0
         0         0         0         0         0         0         0         0
         0         0         0         0         0         0         0         0
         0         0         0         0         0         0         0         0
         0         0         0         0         0         0         0         0
         0         0         0         0         0         0         0         0
         0         0         0         0         0         0         0         0
         0         0         0         0         0         0         0         0
         0         0         0         0         0         0         0         0
         0         0         0         0         0         0         0         0
         0         0         0         0         0         0         0         0
         0         0         0         0         0         0         0         0
         0         0         0         0         0         0         0         0
         0         0         0         0         0         0         0         0
         0         0         0         0         0         0         0         0
         0         0         0         0         0         0         0         0
         0         0         0         0         0         0         0         0
         0         0         0         0         0         0         0         0
         0         0         0         0         0         0         0         0
         0         0         0         0         0         0         0         0
         0         0         0         0         0         0         0         0
         0         0         0         0         0         0         0         0
         0         0         0         0         0         0         0         0
         0         0         0         0         0         0         0         0
         0         0         0         0         0         0         0         0
         0         0         0         0         0         0         0         0
         0         0         0         0         0         0         0         0
         0         0         0         0         0         0         0         0
         0         0         0         0         0         0         0         0
         0         0         0         0         0         0         0         0
         0         0         0         0         0         0         0         0
         0         0         0         0         0         0         0         0
         0         0         0         0         0         0         0         0
         0         0         0         0         0         0         0         0
         0         0         0         0         0         0         0         0
         0         0         0         0         0         0         0         0
         0         0         0         0         0         0         0         0
         0         0         0         0         0         0         0         0
         0         0         0         0         0         0         0         0
         0         0         0         0         0         0         0         0
         0         0         0         0         0         0         0         0
         0         0         0         0         0         0         0         0
         0         0         0         0         0         0         0         0
         0         0         0         0         0         0         0         0
         0         0         0         0         0         0         0         0
         0         0         0         0         0         0         0         0
         0         0         0         0         0         0         0         0
         0         0         0         0         0         0         0         0
         0         0         0         0         0         0         0         0
         0         0         0         0         0         0         0         0
         0         0         0         0         0         0         0         0
         0         0         0         0         0         0         0         0
         0         0         0         0         0         0         0         0
         0         0         0         0         0         0         0         0
         0         0         0         0         0         0         0         0
         0         0         0         0         0         0         0         0
         0         0         0         0         0         0         0         0
         0         0         0         0         0         0         0         0
         0         0         0         0         0         0         0         0
         0         0         0         0         0         0         0         0
         0         0         0         0         0         0         0         0
         0         0         0         0         0         0         0         0
         0         0         0         0         0         0         0         0
         0         0         0         0         0         0         0         0
         0         0         0         0         0         0         0         0
         0         0         0         0         0         0         0         0
         0         0         0         0         0         0         0         0
         0         0         0         0         0         0         0         0
         0         0         0         0         0         0         0         0
         0         0         0         0         0         0         0         0
         0         0         0         0         0         0         0         0
         0         0         0         0         0         0         0         0
         0         0         0         0         0         0         0         0
         0         0         0         0         0         0         0         0
         0         0         0         0         0         0         0         0
         0         0         0         0         0         0         0         0
         0         0         0         0         0         0         0         0
         0         0         0         0         0         0         0         0
         0         0         0         0         0         0         0         0
         0         0         0         0         0         0         0         0
         0         0         0         0         0         0         0         0
         0         0         0         0         0         0         0         0
         0         0         0         0         0         0         0         0
         0         0         0         0         0         0         0         0
         0         0         0         0         0         0         0         0
         0         0         0         0         0         0         0         0
         0         0         0         0         0         0         0         0
         0         0         0         0         0         0         0         0
         0         0         0         0         0         0         0         0
         0         0         0         0         0         0         0         0
         0         0         0         0         0         0         0         0
         0         0         0         0         0         0         0         0
         0         0         0         0         0         0         0         0
         0         0         0         0         0         0         0         0
         0         0         0         0         0         0         0         0
         0         0         0         0         0         0         0         0
         0         0         0         0         0         0         0         0
         0         0         0         0         0         0         0         0
         0         0         0         0         0         0         0         0
         0         0         0         0         0         0         0         0
         0         0         0         0         0         0         0         0
         0         0         0         0         0         0         0         0
         0         0         0         0         0         0         0         0
         0         0         0         0         0         0         0         0
         0         0         0         0         0         0         0         0
         0         0         0         0         0         0         0         0
         0         0         0         0         0         0         0         0
         0         0         0         0         0         0         0         0
         0         0         0         0         0         0         0         0
         0         0         0         0         0         0         0         0
         0         0         0         0         0         0         0         0
         0         0         0         0         0         0         0         0
         0         0         0         0         0         0         0         0
         0         0         0         0         0         0         0         0
         0         0         0         0         0         0         0         0
         0         0         0         0         0         0         0         0
         0         0         0         0         0         0         0         0
         0         0         0         0         0         0         0         0
         0         0         0         0         0         0         0         0
         0         0         0         0         0         0         0         0
         0         0         0         0         0         0         0         0
         0         0         0         0         0         0         0         0
         0         0         0         0         0         0         0         0
         0         0         0         0         0         0         0         0
         0         0         0         0         0         0         0         0
         0         0         0         0         0         0         0         0
         0         0         0         0         0         0         0         0
         0         0         0         0         0         0         0         0
         0         0         0         0         0         0         0         0
         0         0         0         0         0         0         0         0
         0         0         0         0         0         0         0         0
         0         0         0         0         0         0         0         0
         0         0         0         0         0         0         0         0
         0         0         0         0         0         0         0         0
         0         0         0         0         0         0         0         0
         0         0         0         0         0         0         0         0
         0         0         0         0         0         0         0         0
         0         0         0         0         0         0         0         0
         0         0         0         0         0         0         0         0
         0         0         0         0         0         0         0         0
         0         0         0         0         0         0         0         0
         0         0         0         0         0         0         0         0
         0         0         0         0         0         0         0         0
         0         0         0         0         0         0         0         0
         0         0         0         0         0         0         0         0
         0         0         0         0         0         0         0         0
         0         0         0         0         0         0         0         0
         0         0         0         0         0         0         0         0
         0         0         0         0         0         0         0         0
         0         0         0         0         0         0         0         0
         0         0         0         0         0         0         0         0
         0         0         0         0         0         0         0         0
         0         0         0         0         0         0         0         0
         0         0         0         0         0         0         0         0
         0         0         0         0         0         0         0         0
         0         0         0         0         0         0         0         0
         0         0         0         0         0         0         0         0
         0         0         0         0         0         0         0         0
         0         0         0         0         0         0         0         0
         0         0         0         0         0         0         0         0
         0         0         0         0         0         0         0         0
         0         0         0         0         0         0         0         0
         0         0         0         0         0         0         0         0
         0         0         0         0         0         0         0         0
         0         0         0         0         0         0         0         0
         0         0         0         0         0         0         0         0
         0         0         0         0         0         0         0         0
         0         0         0         0         0         0         0         0
         0         0         0         0         0         0         0         0
         0         0         0         0         0         0         0         0
         0         0         0         0         0         0         0         0
         0         0         0         0         0         0         0         0
         0         0         0         0         0         0         0         0
         0         0         0         0         0         0         0         0
         0         0         0         0         0         0         0         0
         0         0         0         0         0         0         0         0
         0         0         0         0         0         0         0         0
         0         0         0         0         0         0         0         0
         0         0         0         0         0         0         0         0
         0         0         0         0         0         0         0         0
         0         0         0         0         0         0         0         0
         0         0         0         0         0         0         0         0
         0         0         0         0         0         0         0         0
         0         0         0         0         0         0         0         0
         0         0         0         0         0         0         0         0
         0         0         0         0         0         0         0         0
         0         0         0         0         0         0         0         0
         0         0         0         0         0         0         0         0
         0         0         0         0         0         0         0         0
         0         0         0         0         0         0         0         0
         0         0         0         0         0         0         0         0
         0         0         0         0         0         0         0         0
         0         0         0         0         0         0         0         0
         0         0         0         0         0         0         0         0
         0         0         0         0         0         0         0         0
         0         0         0         0         0         0         0         0
         0         0         0         0         0         0         0         0
         0         0         0         0         0         0         0         0
         0         0         0         0         0         0         0         0
         0         0         0         0         0         0         0         0
         0         0         0         0         0         0         0         0
         0         0         0         0         0         0         0         0
         0         0         0         0         0         0         0         0
         0         0         0         0         0         0         0         0
         0         0         0         0         0         0         0         0
         0         0         0         0         0         0         0         0
         0         0         0         0         0         0         0         0
         0         0         0         0         0         0         0         0
         0         0         0         0         0         0         0         0
         0         0         0         0         0         0         0         0
         0         0         0         0         0         0         0         0
         0         0         0         0         0         0         0         0
         0         0         0         0         0         0         0         0
         0         0         0         0         0         0         0         0
         0         0         0         0         0         0         0         0
         0         0         0         0         0         0         0         0
         0         0         0         0         0         0         0         0
         0         0         0         0         0         0         0         0
         0         0         0         0         0         0         0         0
         0         0         0         0         0         0         0         0
         0         0         0         0         0         0         0         0
         0         0         0         0         0         0         0         0
         0         0         0         0         0         0         0         0
         0         0         0         0         0         0         0         0
         0         0         0         0         0         0         0         0
         0         0         0         0         0         0         0         0
         0         0         0         0         0         0         0         0
         0         0         0         0         0         0         0         0
         0         0         0         0         0         0         0         0
         0         0         0         0         0         0         0         0
         0         0         0         0         0         0         0         0
         0         0         0         0         0         0         0         0
         0         0         0         0         0         0         0         0
         0         0         0         0         0         0         0         0
         0         0         0         0         0         0         0         0
         0         0         0         0         0         0         0         0
         0         0         0         0         0         0         0         0
         0         0         0         0         0         0         0         0
         0         0         0         0         0         0         0         0
         0         0         0         0         0         0         0         0
         0         0         0         0         0         0         0         0
         0         0         0         0         0         0         0         0
         0         0         0         0         0         0         0         0
         0         0         0         0         0         0         0         0
         0         0         0         0         0         0         0         0
         0         0         0         0         0         0         0         0
         0         0         0         0         0         0         0         0
         0         0         0         0         0         0         0         0
         0         0         0         0         0         0         0         0
         0         0         0         0         0         0         0         0
         0         0         0         0         0         0         0         0
         0         0         0         0         0         0         0         0
         0         0         0         0         0         0         0         0
         0         0         0         0         0         0         0         0
         0         0         0         0         0         0         0         0
         0         0         0         0         0         0         0         0
         0         0         0         0         0         0         0         0
         0         0         0         0         0         0         0         0
         0         0         0         0         0         0         0         0
         0         0         0         0         0         0         0         0
         0         0         0         0         0         0         0         0
         0         0         0         0         0         0         0         0
         0         0         0         0         0         0         0         0
         0         0         0         0         0         0         0         0
         0         0         0         0         0         0         0         0
         0         0         0         0         0         0         0         0
         0         0         0         0         0         0         0         0
         0         0         0         0         0         0         0         0
         0         0         0         0         0         0         0         0
         0         0         0         0         0         0         0         0
         0         0         0         0         0         0         0         0
         0         0         0         0         0         0         0         0
         0         0         0         0         0         0         0         0
         0         0         0         0         0         0         0         0
         0         0         0         0         0         0         0         0
         0         0         0         0         0         0         0         0
         0         0         0         0         0         0         0         0
         0         0         0         0         0         0         0         0
         0         0         0         0         0         0         0         0
         0         0         0         0         0         0         0         0
         0         0         0         0         0         0         0         0
         0         0         0         0         0         0         0         0
         0         0         0         0         0         0         0         0
         0         0         0         0         0         0         0         0
         0         0         0         0         0         0         0         0
         0         0         0         0         0         0         0         0
         0         0         0         0         0         0         0         0
         0         0         0         0         0         0         0         0
         0         0         0         0         0         0         0         0
         0         0         0         0         0         0         0         0
         0         0         0         0         0         0         0         0
         0         0         0         0         0         0         0         0
         0         0         0         0         0         0         0         0
         0         0         0         0         0         0         0         0
         0         0         0         0         0         0         0         0
         0         0         0         0         0         0         0         0
         0         0         0         0         0         0         0         0
         0         0         0         0         0         0         0         0
         0         0         0         0         0         0         0         0
         0         0         0         0         0         0         0         0
         0         0         0         0         0         0         0         0
         0         0         0         0         0         0         0         0
         0         0         0         0         0         0         0         0
         0         0         0         0         0         0         0         0
         0         0         0         0         0         0         0         0
         0         0         0         0         0         0         0         0
         0         0         0         0         0         0         0         0
         0         0         0         0         0         0         0         0
         0         0         0         0         0         0         0         0
         0         0         0         0         0         0         0         0
         0         0         0         0         0         0         0         0
         0         0         0         0         0         0         0         0
         0         0         0         0         0         0         0         0
         0         0         0         0         0         0         0         0
         0         0         0         0         0         0         0         0
         0         0         0         0         0         0         0         0
         0         0         0         0         0         0         0         0
         0         0         0         0         0         0         0         0
         0         0         0         0         0         0         0         0
         0         0         0         0         0         0         0         0
         0         0         0         0         0         0         0         0
         0         0         0         0         0         0         0         0
         0         0         0         0         0         0         0         0
         0         0         0         0         0         0         0         0
         0         0         0         0         0         0         0         0
         0         0         0         0         0         0         0         0
         0         0         0         0         0         0         0         0
         0         0         0         0         0         0         0         0
         0         0         0         0         0         0         0         0
         0         0         0         0         0         0         0         0
         0         0         0         0         0         0         0         0
         0         0         0         0         0         0         0         0
         0         0         0         0         0         0         0         0
         0         0         0         0         0         0         0         0
         0         0         0         0         0         0         0         0
         0         0         0         0         0         0         0         0
         0         0         0         0         0         0         0         0
         0         0         0         0         0         0         0         0
         0         0         0         0         0         0         0         0
         0         0         0         0         0         0         0         0
         0         0         0         0         0         0         0         0
         0         0         0         0         0         0         0         0
         0         0         0         0         0         0         0         0
         0         0         0         0         0         0         0         0
         0         0         0         0         0         0         0         0
         0         0         0         0         0         0         0         0
         0         0         0         0         0         0         0         0
         0         0         0         0         0         0         0         0
         0         0         0         0         0         0         0         0
         0         0         0         0         0         0         0         0
         0         0         0         0         0         0         0         0
         0         0         0         0         0         0         0         0
         0         0         0         0         0         0         0         0
         0         0         0         0         0         0         0         0
         0         0         0         0         0         0         0         0
         0         0         0         0         0         0         0         0
         0         0         0         0         0         0         0         0
         0         0         0         0         0         0         0         0
         0         0         0         0         0         0         0         0
         0         0         0         0         0         0         0         0
         0         0         0         0         0         0         0         0
         0         0         0         0         0         0         0         0
         0         0         0         0         0         0         0         0
         0         0         0         0         0         0         0         0
         0         0         0         0         0         0         0         0
         0         0         0         0         0         0         0         0
         0         0         0         0         0         0         0         0
         0         0         0         0         0         0         0         0
         0         0         0         0         0         0         0         0
         0         0         0         0         0         0         0         0
         0         0         0         0         0         0         0         0
         0         0         0         0         0         0         0         0
         0         0         0         0         0         0         0         0
         0         0         0         0         0         0         0         0
         0         0         0         0         0         0         0         0
         0         0         0         0         0         0         0         0
         0         0         0         0         0         0         0         0
         0         0         0         0         0         0         0         0
         0         0         0         0         0         0         0         0
         0         0         0         0         0         0         0         0
         0         0         0         0         0         0         0         0
         0         0         0         0         0         0         0         0
         0         0         0         0         0         0         0         0
         0         0         0         0         0         0         0         0
         0         0         0         0         0         0         0         0
         0         0         0         0         0         0         0         0
         0         0         0         0         0         0         0         0
         0         0         0         0         0         0         0         0
         0         0         0         0         0         0         0         0
         0         0         0         0         0         0         0         0
         0         0         0         0         0         0         0         0
         0         0         0         0         0         0         0         0
         0         0         0         0         0         0         0         0
         0         0         0         0         0         0         0         0
         0         0         0         0         0         0         0         0
         0         0         0         0         0         0         0         0
         0         0         0         0         0         0         0         0
         0         0         0         0         0         0         0         0
         0         0         0         0         0         0         0         0
         0         0         0         0         0         0         0         0
         0         0         0         0         0         0         0         0
         0         0         0         0         0         0         0         0
         0         0         0         0         0         0         0         0
         0         0         0         0         0         0         0         0
         0         0         0         0         0         0         0         0
         0         0         0         0         0         0         0         0
         0         0         0         0         0         0         0         0
         0         0         0         0         0         0         0         0
         0         0         0         0         0         0         0         0
         0         0         0         0         0         0         0         0
         0         0         0         0         0         0         0         0
         0         0         0         0         0         0         0         0
         0         0         0         0         0         0         0         0
         0         0         0         0         0         0         0         0
         0         0         0         0         0         0         0         0
         0         0         0         0         0         0         0         0
         0         0         0         0         0         0         0         0
         0         0         0         0         0         0         0         0
         0         0         0         0         0         0         0         0
         0         0         0         0         0         0         0         0
         0         0         0         0         0         0         0         0
         0         0         0         0         0         0         0         0
         0         0         0         0         0         0         0         0
         0         0         0         0         0         0         0         0
         0         0         0         0         0         0         0         0
         0         0         0         0         0         0         0         0
         0         0         0         0         0         0         0         0
         0         0         0         0         0         0         0         0
         0         0         0         0         0         0         0         0
         0         0         0         0         0         0         0         0
         0         0         0         0         0         0         0         0
         0         0         0         0         0         0         0         0
         0         0         0         0         0         0         0         0
         0         0         0         0         0         0         0         0
         0         0         0         0         0         0         0         0
         0         0         0         0         0         0         0         0
         0         0         0         0         0         0         0         0
         0         0         0         0         0         0         0         0
         0         0         0         0         0         0         0         0
         0         0         0         0         0         0         0         0
         0         0         0         0         0         0         0         0
         0         0         0         0         0         0         0         0
         0         0         0         0         0         0         0         0
         0         0         0         0         0         0         0         0
         0         0         0         0         0         0         0         0
         0         0         0         0         0         0         0         0
         0         0         0         0         0         0         0         0
         0         0         0         0         0         0         0         0
         0         0         0         0         0         0         0         0
         0         0         0         0         0         0         0         0
         0         0         0         0         0         0         0         0
         0         0         0         0         0         0         0         0
         0         0         0         0         0         0         0         0
         0         0         0         0         0         0         0         0
         0         0         0         0         0         0         0         0
         0         0         0         0         0         0         0         0
         0         0         0         0         0         0         0         0
         0         0         0         0         0         0         0         0
         0         0         0         0         0         0         0         0
         0         0         0         0         0         0         0         0
         0         0         0         0         0         0         0         0
         0         0         0         0         0         0         0         0
         0         0         0         0         0         0         0         0
         0         0         0         0         0         0         0         0
         0         0         0         0         0         0         0         0
         0         0         0         0         0         0         0         0
         0         0         0         0         0         0         0         0
         0         0         0         0         0         0         0         0
         0         0         0         0         0         0         0         0
         0         0         0         0         0         0         0         0
         0         0         0         0         0         0         0         0
         0         0         0         0         0         0         0         0
         0         0         0         0         0         0         0         0
         0         0         0         0         0         0         0         0
         0         0         0         0         0         0         0         0
         0         0         0         0         0         0         0         0
         0         0         0         0         0         0         0         0
         0         0         0         0         0         0         0         0
         0         0         0         0         0         0         0         0
         0         0         0         0         0         0         0         0
         0         0         0         0         0         0         0         0
         0         0         0         0         0         0         0         0
         0         0         0         0         0         0         0         0
         0         0         0         0         0         0         0         0
         0         0         0         0         0         0         0         0
         0         0         0         0         0         0         0         0
         0         0         0         0         0         0         0         0
         0         0         0         0         0         0         0         0
         0         0         0         0         0         0         0         0
         0         0         0         0         0         0         0         0
         0         0         0         0         0         0         0         0
         0         0         0         0         0         0         0         0
         0         0         0         0         0         0         0         0
         0         0         0         0         0         0         0         0
         0         0         0         0         0         0         0         0
         0         0         0         0         0         0         0         0
         0         0         0         0         0         0         0         0
         0         0         0         0         0         0         0         0
         0         0         0         0         0         0         0         0
         0         0         0         0         0         0         0         0
         0         0         0         0         0         0         0         0
         0         0         0         0         0         0         0         0
         0         0         0         0         0         0         0         0
         0         0         0         0         0         0         0         0
         0         0         0         0         0         0         0         0
         0         0         0         0         0         0         0         0
         0         0         0         0         0         0         0         0
         0         0         0         0         0         0         0         0
         0         0         0         0         0         0         0         0
         0         0         0         0         0         0         0         0
         0         0         0         0         0         0         0         0
         0         0         0         0         0         0         0         0
         0         0         0         0         0         0         0         0
         0         0         0         0         0         0         0         0
         0         0         0         0         0         0         0         0
         0         0         0         0         0         0         0         0
         0         0         0         0         0         0         0         0
         0         0         0         0         0         0         0         0
         0         0         0         0         0         0         0         0
         0         0         0         0         0         0         0         0
         0         0         0         0         0         0         0         0
         0         0         0         0         0         0         0         0
         0         0         0         0         0         0         0         0
         0         0         0         0         0         0         0         0
         0         0         0         0         0         0         0         0
         0         0         0         0         0         0         0         0
         0         0         0         0         0         0         0         0
         0         0         0         0         0         0         0         0
         0         0         0         0         0         0         0         0
         0         0         0         0         0         0         0         0
         0         0         0         0         0         0         0         0
         0         0         0         0         0         0         0         0
         0         0         0         0         0         0         0         0
         0         0         0         0         0         0         0         0
         0         0         0         0         0         0         0         0
         0         0         0         0         0         0         0         0
         0         0         0         0         0         0         0         0
         0         0         0         0         0         0         0         0
         0         0         0         0         0         0         0         0
         0         0         0         0         0         0         0         0
         0         0         0         0         0         0         0         0
         0         0         0         0         0         0         0         0
         0         0         0         0         0         0         0         0
         0         0         0         0         0         0         0         0
         0         0         0         0         0         0         0         0
         0         0         0         0         0         0         0         0
         0         0         0         0         0         0         0         0
         0         0         0         0         0         0         0         0
         0         0         0         0         0         0         0         0
         0         0         0         0         0         0         0         0
         0         0         0         0         0         0         0         0
         0         0         0         0         0         0         0         0
         0         0         0         0         0         0         0         0
         0         0         0         0         0         0         0         0
         0         0         0         0         0         0         0         0
         0         0         0         0         0         0         0         0
         0         0         0         0         0         0         0         0
         0         0         0         0         0         0         0         0
         0         0         0         0         0         0         0         0
         0         0         0         0         0         0         0         0
         0         0         0         0         0         0         0         0
         0         0         0         0         0         0         0         0
         0         0         0         0         0         0         0         0
         0         0         0         0         0         0         0         0
         0         0         0         0         0         0         0         0
         0         0         0         0         0         0         0         0
         0         0         0         0         0         0         0         0
         0         0         0         0         0         0         0         0
         0         0         0         0         0         0         0         0
         0         0         0         0         0         0         0         0
         0         0         0         0         0         0         0         0
         0         0         0         0         0         0         0         0
         0         0         0         0         0         0         0         0
         0         0         0         0         0         0         0         0
         0         0         0         0         0         0         0         0
         0         0         0         0         0         0         0         0
         0         0         0         0         0         0         0         0
         0         0         0         0         0         0         0         0
         0         0         0         0         0         0         0         0
         0         0         0         0         0         0         0         0
         0         0         0         0         0         0         0         0
         0         0         0         0         0         0         0         0
         0         0         0         0         0         0         0         0
         0         0         0         0         0         0         0         0
         0         0         0         0         0         0         0         0
         0         0         0         0         0         0         0         0
         0         0         0         0         0         0         0         0
         0         0         0         0         0         0         0         0
         0         0         0         0         0         0         0         0
         0         0         0         0         0         0         0         0
         0         0         0         0         0         0         0         0
         0         0         0         0         0         0         0         0
         0         0         0         0         0         0         0         0
         0         0         0         0         0         0         0         0
         0         0         0         0         0         0         0         0
         0         0         0         0         0         0         0         0
         0         0         0         0         0         0         0         0
         0         0         0         0         0         0         0         0
         0         0         0         0         0         0         0         0
         0         0         0         0         0         0         0         0
         0         0         0         0         0         0         0         0
         0         0         0         0         0         0         0         0
         0         0         0         0         0         0         0         0
         0         0         0         0         0         0         0         0
         0         0         0         0         0         0         0         0
         0         0         0         0         0         0         0         0
         0         0         0         0         0         0         0         0
         0         0         0         0         0         0         0         0
         0         0         0         0         0         0         0         0
         0         0         0         0         0         0         0         0
         0         0         0         0         0         0         0         0
         0         0         0         0         0         0         0         0
         0         0         0         0         0         0         0         0
         0         0         0         0         0         0         0         0
         0         0         0         0         0         0         0         0
         0         0         0         0         0         0         0         0
         0         0         0         0         0         0         0         0
         0         0         0         0         0         0         0         0
         0         0         0         0         0         0         0         0
         0         0         0         0         0         0         0         0
         0         0         0         0         0         0         0         0
         0         0         0         0         0         0         0         0
         0         0         0         0         0         0         0         0
         0         0         0         0         0         0         0         0
         0         0         0         0         0         0         0         0
         0         0         0         0         0         0         0         0
         0         0         0         0         0         0         0         0
         0         0         0         0         0         0         0         0
         0         0         0         0         0         0         0         0
         0         0         0         0         0         0         0         0
         0         0         0         0         0         0         0         0
         0         0         0         0         0         0         0         0
         0         0         0         0         0         0         0         0
         0         0         0         0         0         0         0         0
         0         0         0         0         0         0         0         0
         0         0         0         0         0         0         0         0
         0         0         0         0         0         0         0         0
         0         0         0         0         0         0         0         0
         0         0         0         0         0         0         0         0
         0         0         0         0         0         0         0         0
         0         0         0         0         0         0         0         0
         0         0         0         0         0         0         0         0
         0         0         0         0         0         0         0         0
         0         0         0         0         0         0         0         0
         0         0         0         0         0         0         0         0
         0         0         0         0         0         0         0         0
         0         0         0         0         0         0         0         0
         0         0         0         0         0         0         0         0
         0         0         0         0         0         0         0         0
         0         0         0         0         0         0         0         0
         0         0         0         0         0         0         0         0
         0         0         0         0         0         0         0         0
         0         0         0         0         0         0         0         0
         0         0         0         0         0         0         0         0
         0         0         0         0         0         0         0         0
         0         0         0         0         0         0         0         0
         0         0         0         0         0         0         0         0
         0         0         0         0         0         0         0         0
         0         0         0         0         0         0         0         0
         0         0         0         0         0         0         0         0
         0         0         0         0         0         0         0         0
         0         0         0         0         0         0         0         0
         0         0         0         0         0         0         0         0
         0         0         0         0         0         0         0         0
         0         0         0         0         0         0         0         0
         0         0         0         0         0         0         0         0
         0         0         0         0         0         0         0         0
         0         0         0         0         0         0         0         0
         0         0         0         0         0         0         0         0
         0         0         0         0         0         0         0         0
         0         0         0         0         0         0         0         0
         0         0         0         0         0         0         0         0
         0         0         0         0         0         0         0         0
         0         0         0         0         0         0         0         0
         0         0         0         0         0         0         0         0
         0         0         0         0         0         0         0         0
         0         0         0         0         0         0         0         0
         0         0         0         0         0         0         0         0
         0         0         0         0         0         0         0         0
         0         0         0         0         0         0         0         0
         0         0         0         0         0         0         0         0
         0         0         0         0         0         0         0         0
         0         0         0         0         0         0         0         0
         0         0         0         0         0         0         0         0
         0         0         0         0         0         0         0         0
         0         0         0         0         0         0         0         0
         0         0         0         0         0         0         0         0
         0         0         0         0         0         0         0         0
         0         0         0         0         0         0         0         0
         0         0         0         0         0         0         0         0
         0         0         0         0         0         0         0         0
         0         0         0         0         0         0         0         0
         0         0         0         0         0         0         0         0
         0         0         0         0         0         0         0         0
         0         0         0         0         0         0         0         0
         0         0         0         0         0         0         0         0
         0         0         0         0         0         0         0         0
         0         0         0         0         0         0         0         0
         0         0         0         0         0         0         0         0
         0         0         0         0         0         0         0         0
         0         0         0         0         0         0         0         0
         0         0         0         0         0         0         0         0
         0         0         0         0         0         0         0         0
         0         0         0         0         0         0         0         0
         0         0         0         0         0         0         0         0
         0         0         0         0         0         0         0         0
         0         0         0         0         0         0         0         0
         0         0         0         0         0         0         0         0
         0         0         0         0         0         0         0         0
         0         0         0         0         0         0         0         0
         0         0         0         0         0         0         0         0
         0         0         0         0         0         0         0         0
         0         0         0         0         0         0         0         0
         0         0         0         0         0         0         0         0
         0         0         0         0         0         0         0         0
         0         0         0         0         0         0         0         0
         0         0         0         0         0         0         0         0
         0         0         0         0         0         0         0         0
         0         0         0         0         0         0         0         0
         0         0         0         0         0         0         0         0
         0         0         0         0         0         0         0         0
         0         0         0         0         0         0         0         0
         0         0         0         0         0         0         0         0
         0         0         0         0         0         0         0         0
         0         0         0         0         0         0         0         0
         0         0         0         0         0         0         0         0
         0         0         0         0         0         0         0         0
         0         0         0         0         0         0         0         0
         0         0         0         0         0         0         0         0
         0         0         0         0         0         0         0         0
         0         0         0         0         0         0         0         0
         0         0         0         0         0         0         0         0
         0         0         0         0         0         0         0         0
         0         0         0         0         0         0         0         0
         0         0         0         0         0         0         0         0
         0         0         0         0         0         0         0         0
         0         0         0         0         0         0         0         0
         0         0         0         0         0         0         0         0
         0         0         0         0         0         0         0         0
         0         0         0         0         0         0         0         0
         0         0         0         0         0         0         0         0
         0         0         0         0         0         0         0         0
         0         0         0         0         0         0         0         0
         0         0         0         0         0         0         0         0
         0         0         0         0         0         0         0         0
         0         0         0         0         0         0         0         0
         0         0         0         0         0         0         0         0
         0         0         0         0         0         0         0         0
         0         0         0         0         0         0         0         0
         0         0         0         0         0         0         0         0
         0         0         0         0         0         0         0         0
         0         0         0         0         0         0         0         0
         0         0         0         0         0         0         0         0
         0         0         0         0         0         0         0         0
         0         0         0         0         0         0         0         0
         0         0         0         0         0         0         0         0
         0         0         0         0         0         0         0         0
         0         0         0         0         0         0         0         0
         0         0         0         0         0         0         0         0
         0         0         0         0         0         0         0         0
         0         0         0         0         0         0         0         0
         0         0         0         0         0         0         0         0
         0         0         0         0         0         0         0         0
         0         0         0         0         0         0         0         0
         0         0         0         0         0         0         0         0
         0         0         0         0         0         0         0         0
         0         0         0         0         0         0         0         0
         0         0         0         0         0         0         0         0
         0         0         0         0         0         0         0         0
         0         0         0         0         0         0         0         0
         0         0         0         0         0         0         0         0
         0         0         0         0         0         0         0         0
         0         0         0         0         0         0         0         0
         0         0         0         0         0         0         0         0
         0         0         0         0         0         0         0         0
         0         0         0         0         0         0         0         0
         0         0         0         0         0         0         0         0
         0         0         0         0         0         0         0         0
         0         0         0         0         0         0         0         0
         0         0         0         0         0         0         0         0
         0         0         0         0         0         0         0         0
         0         0         0         0         0         0         0         0
         0         0         0         0         0         0         0         0
         0         0         0         0         0         0         0         0
         0         0         0         0         0         0         0         0
         0         0         0         0         0         0         0         0
         0         0         0         0         0         0         0         0
         0         0         0         0         0         0         0         0
         0         0         0         0         0         0         0         0
         0         0         0         0         0         0         0         0
         0         0         0         0         0         0         0         0
         0         0         0         0         0         0         0         0
         0         0         0         0         0         0         0         0
         0         0         0         0         0         0         0         0
         0         0         0         0         0         0         0         0
         0         0         0         0         0         0         0         0
         0         0         0         0         0         0         0         0
         0         0         0         0         0         0         0         0
         0         0         0         0         0         0         0         0
         0         0         0         0         0         0         0         0
         0         0         0         0         0         0         0         0
         0         0         0         0         0         0         0         0
         0         0         0         0         0         0         0         0
         0         0         0         0         0         0         0         0
         0         0         0         0         0         0         0         0
         0         0         0         0         0         0         0         0
         0         0         0         0         0         0         0         0
         0         0         0         0         0         0         0         0
         0         0         0         0         0         0         0         0
         0         0         0         0         0         0         0         0
         0         0         0         0         0         0         0         0
         0         0         0         0         0         0         0         0
         0         0         0         0         0         0         0         0
         0         0         0         0         0         0         0         0
         0         0         0         0         0         0         0         0
         0         0         0         0         0         0         0         0
         0         0         0         0         0         0         0         0
         0         0         0         0         0         0         0         0
         0         0         0         0         0         0         0         0
         0         0         0         0         0         0         0         0
         0         0         0         0         0         0         0         0
         0         0         0         0         0         0         0         0
         0         0         0         0         0         0         0         0
         0         0         0         0         0         0         0         0
         0         0         0         0         0         0         0         0
         0         0         0         0         0         0         0         0
         0         0         0         0         0         0         0         0
         0         0         0         0         0         0         0         0
         0         0         0         0         0         0         0         0
         0         0         0         0         0         0         0         0
         0         0         0         0         0         0         0         0
         0         0         0         0         0         0         0         0
         0         0         0         0         0         0         0         0
         0         0         0         0         0         0         0         0
         0         0         0         0         0         0         0         0
         0         0         0         0         0         0         0         0
         0         0         0         0         0         0         0         0
         0         0         0         0         0         0         0         0
         0         0         0         0         0         0         0         0
         0         0         0         0         0         0         0         0
         0         0         0         0         0         0         0         0
         0         0         0         0         0         0         0         0
         0         0         0         0         0         0         0         0
         0         0         0         0         0         0         0         0
         0         0         0         0         0         0         0         0
         0         0         0         0         0         0         0         0
         0         0         0         0         0         0         0         0
         0         0         0         0         0         0         0         0
         0         0         0         0         0         0         0         0
         0         0         0         0         0         0         0         0
         0         0         0         0         0         0         0         0
         0         0         0         0         0         0         0         0
         0         0         0         0         0         0         0         0
         0         0         0         0         0         0         0         0
         0         0         0         0         0         0         0         0
         0         0         0         0         0         0         0         0
         0         0         0         0         0         0         0         0
         0         0         0         0         0         0         0         0
         0         0         0         0         0         0         0         0
         0         0         0         0         0         0         0         0
         0         0         0         0         0         0         0         0
         0         0         0         0         0         0         0         0
         0         0         0         0         0         0         0         0
         0         0         0         0         0         0         0         0
         0         0         0         0         0         0         0         0
         0         0         0         0         0         0         0         0
         0         0         0         0         0         0         0         0
         0         0         0         0         0         0         0         0
         0         0         0         0         0         0         0         0
         0         0         0         0         0         0         0         0
         0         0         0         0         0         0         0         0
         0         0         0         0         0         0         0         0
         0         0         0         0         0         0         0         0
         0         0         0         0         0         0         0         0
         0         0         0         0         0         0         0         0
         0         0         0         0         0         0         0         0
         0         0         0         0         0         0         0         0
         0         0         0         0         0         0         0         0
         0         0         0         0         0         0         0         0
         0         0         0         0         0         0         0         0
         0         0         0         0         0         0         0         0
         0         0         0         0         0         0         0         0
         0         0         0         0         0         0         0         0
         0         0         0         0         0         0         0         0
         0         0         0         0         0         0         0         0
         0         0         0         0         0         0         0         0
         0         0         0         0         0         0         0         0
         0         0         0         0         0         0         0         0
         0         0         0         0         0         0         0         0
         0         0         0         0         0         0         0         0
         0         0         0         0         0         0         0         0
         0         0         0         0         0         0         0         0
         0         0         0         0         0         0         0         0
         0         0         0         0         0         0         0         0
         0         0         0         0         0         0         0         0
         0         0         0         0         0         0         0         0
         0         0         0         0         0         0         0         0
         0         0         0         0         0         0         0         0
         0         0         0         0         0         0         0         0
         0         0         0         0         0         0         0         0
         0         0         0         0         0         0         0         0
         0         0         0         0         0         0         0         0
         0         0         0         0         0         0         0         0
         0         0         0         0         0         0         0         0
         0         0         0         0         0         0         0         0
         0         0         0         0         0         0         0         0
         0         0         0         0         0         0         0         0
         0         0         0         0         0         0         0         0
         0         0         0         0         0         0         0         0
         0         0         0         0         0         0         0         0
         0         0         0         0         0         0         0         0
         0         0         0         0         0         0         0         0
         0         0         0         0         0         0         0         0
         0         0         0         0         0         0         0         0
         0         0         0         0         0         0         0         0
         0         0         0         0         0         0         0         0
         0         0         0         0         0         0         0         0
         0         0         0         0         0         0         0         0
         0         0         0         0         0         0         0         0
         0         0         0         0         0         0         0         0
         0         0         0         0         0         0         0         0
         0         0         0         0         0         0         0         0
         0         0         0         0         0         0         0         0
         0         0         0         0         0         0         0         0
         0         0         0         0         0         0         0         0
         0         0         0         0         0         0         0         0
         0         0         0         0         0         0         0         0
         0         0         0         0         0         0         0         0
         0         0         0         0         0         0         0         0
         0         0         0         0         0         0         0         0
         0         0         0         0         0         0         0         0
         0         0         0         0         0         0         0         0
         0         0         0         0         0         0         0         0
         0         0         0         0         0         0         0         0
         0         0         0         0         0         0         0         0
         0         0         0         0         0         0         0         0
         0         0         0         0         0         0         0         0
         0         0         0         0         0         0         0         0
         0         0         0         0         0         0         0         0
         0         0         0         0         0         0         0         0
         0         0         0         0         0         0         0         0
         0         0         0         0         0         0         0         0
         0         0         0         0         0         0         0         0
         0         0         0         0         0         0         0         0
         0         0         0         0         0         0         0         0
         0         0         0         0         0         0         0         0
         0         0         0         0         0         0         0         0
         0         0         0         0         0         0         0         0
         0         0         0         0         0         0         0         0
         0         0         0         0         0         0         0         0
         0         0         0         0         0         0         0         0
         0         0         0         0         0         0         0         0
         0         0         0         0         0         0         0         0
         0         0         0         0         0         0         0         0
         0         0         0         0         0         0         0         0
         0         0         0         0         0         0         0         0
         0         0         0         0         0         0         0         0
         0         0         0         0         0         0         0         0
         0         0         0         0         0         0         0         0
         0         0         0         0         0         0         0         0
         0         0         0         0         0         0         0         0
         0         0         0         0         0         0         0         0
         0         0         0         0         0         0         0         0
         0         0         0         0         0         0         0         0
         0         0         0         0         0         0         0         0
         0         0         0         0         0         0         0         0
         0         0         0         0         0         0         0         0
         0         0         0         0         0         0         0         0
         0         0         0         0         0         0         0         0
         0         0         0         0         0         0         0         0
         0         0         0         0         0         0         0         0
         0         0         0         0         0         0         0         0
         0         0         0         0         0         0         0         0
         0         0         0         0         0         0         0         0
         0         0         0         0         0         0         0         0
         0         0         0         0         0         0         0         0
         0         0         0         0         0         0         0         0
         0         0         0         0         0         0         0         0
         0         0         0         0         0         0         0         0
         0         0         0         0         0         0         0         0
         0         0         0         0         0         0         0         0
         0         0         0         0         0         0         0         0
         0         0         0         0         0         0         0         0
         0         0         0         0         0         0         0         0
         0         0         0         0         0         0         0         0
         0         0         0         0         0         0         0         0
         0         0         0         0         0         0         0         0
         0         0         0         0         0         0         0         0
         0         0         0         0         0         0         0         0
         0         0         0         0         0         0         0         0
         0         0         0         0         0         0         0         0
         0         0         0         0         0         0         0         0
         0         0         0         0         0         0         0         0
         0         0         0         0         0         0         0         0
         0         0         0         0         0         0         0         0
         0         0         0         0         0         0         0         0
         0         0         0         0         0         0         0         0
         0         0         0         0         0         0         0         0
         0         0         0         0         0         0         0         0
         0         0         0         0         0         0         0         0
         0         0         0         0         0         0         0         0
         0         0         0         0         0         0         0         0
         0         0         0         0         0         0         0         0
         0         0         0         0         0         0         0         0
         0         0         0         0         0         0         0         0
         0         0         0         0         0         0         0         0
         0         0         0         0         0         0         0         0
         0         0         0         0         0         0         0         0
         0         0         0         0         0         0         0         0
         0         0         0         0         0         0         0         0
         0         0         0         0         0         0         0         0
         0         0         0         0         0         0         0         0
         0         0         0         0         0         0         0         0
         0         0         0         0         0         0         0         0
         0         0         0         0         0         0         0         0
         0         0         0         0         0         0         0         0
         0         0         0         0         0         0         0         0
         0         0         0         0         0         0         0         0
         0         0         0         0         0         0         0         0
         0         0         0         0         0         0         0         0
         0         0         0         0         0         0         0         0
         0         0         0         0         0         0         0         0
         0         0         0         0         0         0         0         0
         0         0         0         0         0         0         0         0
         0         0         0         0         0         0         0         0
         0         0         0         0         0         0         0         0
         0         0         0         0         0         0         0         0
         0         0         0         0         0         0         0         0
         0         0         0         0         0         0         0         0
         0         0         0         0         0         0         0         0
         0         0         0         0         0         0         0         0
         0         0         0         0         0         0         0         0
         0         0         0         0         0         0         0         0
         0         0         0         0         0         0         0         0
         0         0         0         0         0         0         0         0
         0         0         0         0         0         0         0         0
         0         0         0         0         0         0         0         0
         0         0         0         0         0         0         0         0
         0         0         0         0         0         0         0         0
         0         0         0         0         0         0         0         0
         0         0         0         0         0         0         0         0
         0         0         0         0         0         0         0         0
         0         0         0         0         0         0         0         0
         0         0         0         0         0         0         0         0
         0         0         0         0         0         0         0         0
         0         0         0         0         0         0         0         0
         0         0         0         0         0         0         0         0
         0         0         0         0         0         0         0         0
         0         0         0         0         0         0         0         0
         0         0         0         0         0         0         0         0
         0         0         0         0         0         0         0         0
         0         0         0         0         0         0         0         0
         0         0         0         0         0         0         0         0
         0         0         0         0         0         0         0         0
         0         0         0         0         0         0         0         0
         0         0         0         0         0         0         0         0
         0         0         0         0         0         0         0         0
         0         0         0         0         0         0         0         0
         0         0         0         0         0         0         0         0
         0         0         0         0         0         0         0         0
         0         0         0         0         0         0         0         0
         0         0         0         0         0         0         0         0
         0         0         0         0         0         0         0         0
         0         0         0         0         0         0         0         0
         0         0         0         0         0         0         0         0
         0         0         0         0         0         0         0         0
         0         0         0         0         0         0         0         0
         0         0         0         0         0         0         0         0
         0         0         0         0         0         0         0         0
         0         0         0         0         0         0         0         0
         0         0         0         0         0         0         0         0
         0         0         0         0         0         0         0         0
         0         0         0         0         0         0         0         0
         0         0         0         0         0         0         0         0
         0         0         0         0         0         0         0         0
         0         0         0         0         0         0         0         0
         0         0         0         0         0         0         0         0
         0         0         0         0         0         0         0         0
         0         0         0         0         0         0         0         0
         0         0         0         0         0         0         0         0
         0         0         0         0         0         0         0         0
         0         0         0         0         0         0         0         0
         0         0         0         0         0         0         0         0
         0         0         0         0         0         0         0         0
         0         0         0         0         0         0         0         0
         0         0         0         0         0         0         0         0
         0         0         0         0         0         0         0         0
         0         0         0         0         0         0         0         0
         0         0         0         0         0         0         0         0
         0         0         0         0         0         0         0         0
         0         0         0         0         0         0         0         0
         0         0         0         0         0         0         0         0
         0         0         0         0         0         0         0         0
         0         0         0         0         0         0         0         0
         0         0         0         0         0         0         0         0
         0         0         0         0         0         0         0         0
         0         0         0         0         0         0         0         0
         0         0         0         0         0         0         0         0
         0         0         0         0         0         0         0         0
         0         0         0         0         0         0         0         0
         0         0         0         0         0         0         0         0
         0         0         0         0         0         0         0         0
         0         0         0         0         0         0         0         0
         0         0         0         0         0         0         0         0
         0         0         0         0         0         0         0         0
         0         0         0         0         0         0         0         0
         0         0         0         0         0         0         0         0
         0         0         0         0         0         0         0         0
         0         0         0         0         0         0         0         0
         0         0         0         0         0         0         0         0
         0         0         0         0         0         0         0         0
         0         0         0         0         0         0         0         0
         0         0         0         0         0         0         0         0
         0         0         0         0         0         0         0         0
         0         0         0         0         0         0         0         0
         0         0         0         0         0         0         0         0
         0         0         0         0         0         0         0         0
         0         0         0         0         0         0         0         0
         0         0         0         0         0         0         0         0
         0         0         0         0         0         0         0         0
         0         0         0         0         0         0         0         0
         0         0         0         0         0         0         0         0
         0         0         0         0         0         0         0         0
         0         0         0         0         0         0         0         0
         0         0         0         0         0         0         0         0
         0         0         0         0         0         0         0         0
         0         0         0         0         0         0         0         0
         0         0         0         0         0         0         0         0
         0         0         0         0         0         0         0         0
         0         0         0         0         0         0         0         0
         0         0         0         0         0         0         0         0
         0         0         0         0         0         0         0         0
         0         0         0         0         0         0         0         0
         0         0         0         0         0         0         0         0
         0         0         0         0         0         0         0         0
         0         0         0         0         0         0         0         0
         0         0         0         0         0         0         0         0
         0         0         0         0         0         0         0         0
         0         0         0         0         0         0         0         0
         0         0         0         0         0         0         0         0
         0         0         0         0         0         0         0         0
         0         0         0         0         0         0         0         0
         0         0         0         0         0         0         0         0
         0         0         0         0         0         0         0         0
         0         0         0         0         0         0         0         0
         0         0         0         0         0         0         0         0
         0         0         0         0         0         0         0         0
         0         0         0         0         0         0         0         0
         0         0         0         0         0         0         0         0
         0         0         0         0         0         0         0         0
         0         0         0         0         0         0         0         0
         0         0         0         0         0         0         0         0
         0         0         0         0         0         0         0         0
         0         0         0         0         0         0         0         0
         0         0         0         0         0         0         0         0
         0         0         0         0         0         0         0         0
         0         0         0         0         0         0         0         0
         0         0         0         0         0         0         0         0
         0         0         0         0         0         0         0         0
         0         0         0         0         0         0         0         0
         0         0         0         0         0         0         0         0
         0         0         0         0         0         0         0         0
         0         0         0         0         0         0         0         0
         0         0         0         0         0         0         0         0
         0         0         0         0         0         0         0         0
         0         0         0         0         0         0         0         0
         0         0         0         0         0         0         0         0
         0         0         0         0         0         0         0         0
         0         0         0         0         0         0         0         0
         0         0         0         0         0         0         0         0
         0         0         0         0         0         0         0         0
         0         0         0         0         0         0         0         0
         0         0         0         0         0         0         0         0
         0         0         0         0         0         0         0         0
         0         0         0         0         0         0         0         0
         0         0         0         0         0         0         0         0
         0         0         0         0         0         0         0         0
         0         0         0         0         0         0         0         0
         0         0         0         0         0         0         0         0
         0         0         0         0         0         0         0         0
         0         0         0         0         0         0         0         0
         0         0         0         0         0         0         0         0
         0         0         0         0         0         0         0         0
         0         0         0         0         0         0         0         0
         0         0         0         0         0         0         0         0
         0         0         0         0         0         0         0         0
         0         0         0         0         0         0         0         0
         0         0         0         0         0         0         0         0
         0         0         0         0         0         0         0         0
         0         0         0         0         0         0         0         0
         0         0         0         0         0         0         0         0
         0         0         0         0         0         0         0         0
         0         0         0         0         0         0         0         0
         0         0         0         0         0         0         0         0
         0         0         0         0         0         0         0         0
         0         0         0         0         0         0         0         0
         0         0         0         0         0         0         0         0
         0         0         0         0         0         0         0         0
         0         0         0         0         0         0         0         0
         0         0         0         0         0         0         0         0
         0         0         0         0         0         0         0         0
         0         0         0         0         0         0         0         0
         0         0         0         0         0         0         0         0
         0         0         0         0         0         0         0         0
         0         0         0         0         0         0         0         0
         0         0         0         0         0         0         0         0
         0         0         0         0         0         0         0         0
         0         0         0         0         0         0         0         0
         0         0         0         0         0         0         0         0
         0         0         0         0         0         0         0         0
         0         0         0         0         0         0         0         0
         0         0         0         0         0         0         0         0
         0         0         0         0         0         0         0         0
         0         0         0         0         0         0         0         0
         0         0         0         0         0         0         0         0
         0         0         0         0         0         0         0         0
         0         0         0         0         0         0         0         0
         0         0         0         0         0         0         0         0
         0         0         0         0         0         0         0         0
         0         0         0         0         0         0         0         0
         0         0         0         0         0         0         0         0
         0         0         0         0         0         0         0         0
         0         0         0         0         0         0         0         0
         0         0         0         0         0         0         0         0
         0         0         0         0         0         0         0         0
         0         0         0         0         0         0         0         0
         0         0         0         0         0         0         0         0
         0         0         0         0         0         0         0         0
         0         0         0         0         0         0         0         0
         0         0         0         0         0         0         0         0
         0         0         0         0         0         0         0         0
         0         0         0         0         0         0         0         0
         0         0         0         0         0         0         0         0
         0         0         0         0         0         0         0         0
         0         0         0         0         0         0         0         0
         0         0         0         0         0         0         0         0
         0         0         0         0         0         0         0         0
         0         0         0         0         0         0         0         0
         0         0         0         0         0         0         0         0
         0         0         0         0         0         0         0         0
         0         0         0         0         0         0         0         0
         0         0         0         0         0         0         0         0
         0         0         0         0         0         0         0         0
         0         0         0         0         0         0         0         0
         0         0         0         0         0         0         0         0
         0         0         0         0         0         0         0         0
         0         0         0         0         0         0         0         0
         0         0         0         0         0         0         0         0
         0         0         0         0         0         0         0         0
         0         0         0         0         0         0         0         0
         0         0         0         0         0         0         0         0
         0         0         0         0         0         0         0         0
         0         0         0         0         0         0         0         0
         0         0         0         0         0         0         0         0
         0         0         0         0         0         0         0         0
         0         0         0         0         0         0         0         0
         0         0         0         0         0         0         0         0
         0         0         0         0         0         0         0         0
         0         0         0         0         0         0         0         0
         0         0         0         0         0         0         0         0
         0         0         0         0         0         0         0         0
         0         0         0         0         0         0         0         0
         0         0         0         0         0         0         0         0
         0         0         0         0         0         0         0         0
         0         0         0         0         0         0         0         0
         0         0         0         0         0         0         0         0
         0         0         0         0         0         0         0         0
         0         0         0         0         0         0         0         0
         0         0         0         0         0         0         0         0
         0         0         0         0         0         0         0         0
         0         0         0         0         0         0         0         0
         0         0         0         0         0         0         0         0
         0         0         0         0         0         0         0         0
         0         0         0         0         0         0         0         0
         0         0         0         0         0         0         0         0
         0         0         0         0         0         0         0         0
         0         0         0         0         0         0         0         0
         0         0         0         0         0         0         0         0
         0         0         0         0         0         0         0         0
         0         0         0         0         0         0         0         0
         0         0         0         0         0         0         0         0
         0         0         0         0         0         0         0         0
         0         0         0         0         0         0         0         0
         0         0         0         0         0         0         0         0
         0         0         0         0         0         0         0         0
         0         0         0         0         0         0         0         0
         0         0         0         0         0         0         0         0
         0         0         0         0         0         0         0         0
         0         0         0         0         0         0         0         0
         0         0         0         0         0         0         0         0
         0         0         0         0         0         0         0         0
         0         0         0         0         0         0         0         0
         0         0         0         0         0         0         0         0
         0         0         0         0         0         0         0         0
         0         0         0         0         0         0         0         0
         0         0         0         0         0         0         0         0
         0         0         0         0         0         0         0         0
         0         0         0         0         0         0         0         0
         0         0         0         0         0         0         0         0
         0         0         0         0         0         0         0         0
         0         0         0         0         0         0         0         0
         0         0         0         0         0         0         0         0
         0         0         0         0         0         0         0         0
         0         0         0         0         0         0         0         0
         0         0         0         0         0         0         0         0
         0         0         0         0         0         0         0         0
         0         0         0         0         0         0         0         0
         0         0         0         0         0         0         0         0
         0         0         0         0         0         0         0         0
         0         0         0         0         0         0         0         0
         0         0         0         0         0         0         0         0
         0         0         0         0         0         0         0         0
         0         0         0         0         0         0         0         0
         0         0         0         0         0         0         0         0
         0         0         0         0         0         0         0         0
         0         0         0         0         0         0         0         0
         0         0         0         0         0         0         0         0
         0         0         0         0         0         0         0         0
         0         0         0         0         0         0         0         0
         0         0         0         0         0         0         0         0
         0         0         0         0         0         0         0         0
         0         0         0         0         0         0         0         0
         0         0         0         0         0         0         0         0
         0         0         0         0         0         0         0         0
         0         0         0         0         0         0         0         0
         0         0         0         0         0         0         0         0
         0         0         0         0         0         0         0         0
         0         0         0         0         0         0         0         0
         0         0         0         0         0         0         0         0
         0         0         0         0         0         0         0         0
         0         0         0         0         0         0         0         0
         0         0         0         0         0         0         0         0
         0         0         0         0         0         0         0         0
         0         0         0         0         0         0         0         0
         0         0         0         0         0         0         0         0
         0         0         0         0         0         0         0         0
         0         0         0         0         0         0         0         0
         0         0         0         0         0         0         0         0
         0         0         0         0         0         0         0         0
         0         0         0         0         0         0         0         0
         0         0         0         0         0         0         0         0
         0         0         0         0         0         0         0         0
         0         0         0         0         0         0         0         0
         0         0         0         0         0         0         0         0
         0         0         0         0         0         0         0         0
         0         0         0         0         0         0         0         0
         0         0         0         0         0         0         0         0
         0         0         0         0         0         0         0         0
         0         0         0         0         0         0         0         0
         0         0         0         0         0         0         0         0
         0         0         0         0         0         0         0         0
         0         0         0         0         0         0         0         0
         0         0         0         0         0         0         0         0
         0         0         0         0         0         0         0         0
         0         0         0         0         0         0         0         0
         0         0         0         0         0         0         0         0
         0         0         0         0         0         0         0         0
         0         0         0         0         0         0         0         0
         0         0         0         0         0         0         0         0
         0         0         0         0         0         0         0         0
         0         0         0         0         0         0         0         0
         0         0         0         0         0         0         0         0
         0         0         0         0         0         0         0         0
         0         0         0         0         0         0         0         0
         0         0         0         0         0         0         0         0
         0         0         0         0         0         0         0         0
         0         0         0         0         0         0         0         0
         0         0         0         0         0         0         0         0
         0         0         0         0         0         0         0         0
         0         0         0         0         0         0         0         0
         0         0         0         0         0         0         0         0
         0         0         0         0         0         0         0         0
         0         0         0         0         0         0         0         0
         0         0         0         0         0         0         0         0
         0         0         0         0         0         0         0         0
         0         0         0         0         0         0         0         0
         0         0         0         0         0         0         0         0
         0         0         0         0         0         0         0         0
         0         0         0         0         0         0         0         0
         0         0         0         0         0         0         0         0
         0         0         0         0         0         0         0         0
         0         0         0         0         0         0         0         0
         0         0         0         0         0         0         0         0
         0         0         0         0         0         0         0         0
         0         0         0         0         0         0         0         0
         0         0         0         0         0         0         0         0
         0         0         0         0         0         0         0         0
         0         0         0         0         0         0         0         0
         0         0         0         0         0         0         0         0
         0         0         0         0         0         0         0         0
         0         0         0         0         0         0         0         0
         0         0         0         0         0         0         0         0
         0         0         0         0         0         0         0         0
         0         0         0         0         0         0         0         0
         0         0         0         0         0         0         0         0
         0         0         0         0         0         0         0         0
         0         0         0         0         0         0         0         0
         0         0         0         0         0         0         0         0
         0         0         0         0         0         0         0         0
         0         0         0         0         0         0         0         0
         0         0         0         0         0         0         0         0
         0         0         0         0         0         0         0         0
         0         0         0         0         0         0         0         0
         0         0         0         0         0         0         0         0
         0         0         0         0         0         0         0         0
         0         0         0         0         0         0         0         0
         0         0         0         0         0         0         0         0
         0         0         0         0         0         0         0         0
         0         0         0         0         0         0         0         0
         0         0         0         0         0         0         0         0
         0         0         0         0         0         0         0         0
         0         0         0         0         0         0         0         0
         0         0         0         0         0         0         0         0
         0         0         0         0         0         0         0         0
         0         0         0         0         0         0         0         0
         0         0         0         0         0         0         0         0
         0         0         0         0         0         0         0         0
         0         0         0         0         0         0         0         0
         0         0         0         0         0         0         0         0
         0         0         0         0         0         0         0         0
         0         0         0         0         0         0         0         0
         0         0         0         0         0         0         0         0
         0         0         0         0         0         0         0         0
         0         0         0         0         0         0         0         0
         0         0         0         0         0         0         0         0
         0         0         0         0         0         0         0         0
         0         0         0         0         0         0         0         0
         0         0         0         0         0         0         0         0
         0         0         0         0         0         0         0         0
         0         0         0         0         0         0         0         0
         0         0         0         0         0         0         0         0
         0         0         0         0         0         0         0         0
         0         0         0         0         0         0         0         0
         0         0         0         0         0         0         0         0
         0         0         0         0         0         0         0         0
         0         0         0         0         0         0         0         0
         0         0         0         0         0         0         0         0
         0         0         0         0         0         0         0         0
         0         0         0         0         0         0         0         0
         0         0         0         0         0         0         0         0
         0         0         0         0         0         0         0         0
         0         0         0         0         0         0         0         0
         0         0         0         0         0         0         0         0
         0         0         0         0         0         0         0         0
         0         0         0         0         0         0         0         0
         0         0         0         0         0         0         0         0
         0         0         0         0         0         0         0         0
         0         0         0         0         0         0         0         0
         0         0         0         0         0         0         0         0
         0         0         0         0         0         0         0         0
         0         0         0         0         0         0         0         0
         0         0         0         0         0         0         0         0
         0         0         0         0         0         0         0         0
         0         0         0         0         0         0         0         0
         0         0         0         0         0         0         0         0
         0         0         0         0         0         0         0         0
         0         0         0         0         0         0         0         0
         0         0         0         0         0         0         0         0
         0         0         0         0         0         0         0         0
         0         0         0         0         0         0         0         0
         0         0         0         0         0         0         0         0
         0         0         0         0         0         0         0         0
         0         0         0         0         0         0         0         0
         0         0         0         0         0         0         0         0
         0         0         0         0         0         0         0         0
         0         0         0         0         0         0         0         0
         0         0         0         0         0         0         0         0
         0         0         0         0         0         0         0         0
         0         0         0         0         0         0         0         0
         0         0         0         0         0         0         0         0
         0         0         0         0         0         0         0         0
         0         0         0         0         0         0         0         0
         0         0         0         0         0         0         0         0
         0         0         0         0         0         0         0         0
         0         0         0         0         0         0         0         0
         0         0         0         0         0         0         0         0
         0         0         0         0         0         0         0         0
         0         0         0         0         0         0         0         0
         0         0         0         0         0         0         0         0
         0         0         0         0         0         0         0         0
         0         0         0         0         0         0         0         0
         0         0         0         0         0         0         0         0
         0         0         0         0         0         0         0         0
         0         0         0         0         0         0         0         0
         0         0         0         0         0         0         0         0
         0         0         0         0         0         0         0         0
         0         0         0         0         0         0         0         0
         0         0         0         0         0         0         0         0
         0         0         0         0         0         0         0         0
         0         0         0         0         0         0         0         0
         0         0         0         0         0         0         0         0
         0         0         0         0         0         0         0         0
         0         0         0         0         0         0         0         0
         0         0         0         0         0         0         0         0
         0         0         0         0         0         0         0         0
         0         0         0         0         0         0         0         0
         0         0         0         0         0         0         0         0
         0         0         0         0         0         0         0         0
         0         0         0         0         0         0         0         0
         0         0         0         0         0         0         0         0
         0         0         0         0         0         0         0         0
         0         0         0         0         0         0         0         0
         0         0         0         0         0         0         0         0
         0         0         0         0         0         0         0         0
         0         0         0         0         0         0         0         0
         0         0         0         0         0         0         0         0
         0         0         0         0         0         0         0         0
         0         0         0         0         0         0         0         0
         0         0         0         0         0         0         0         0
         0         0         0         0         0         0         0         0
         0         0         0         0         0         0         0         0
         0         0         0         0         0         0         0         0
         0         0         0         0         0         0         0         0
         0         0         0         0         0         0         0         0
         0         0         0         0         0         0         0         0
         0         0         0         0         0         0         0         0
         0         0         0         0         0         0         0         0
         0         0         0         0         0         0         0         0
         0         0         0         0         0         0         0         0
         0         0         0         0         0         0         0         0
         0         0         0         0         0         0         0         0
         0         0         0         0         0         0         0         0
         0         0         0         0         0         0         0         0
         0         0         0         0         0         0         0         0
         0         0         0         0         0         0         0         0
         0         0         0         0         0         0         0         0
         0         0         0         0         0         0         0         0
         0         0         0         0         0         0         0         0
         0         0         0         0         0         0         0         0
         0         0         0         0         0         0         0         0
         0         0         0         0         0         0         0         0
         0         0         0         0         0         0         0         0
         0         0         0         0         0         0         0         0
         0         0         0         0         0         0         0         0
         0         0         0         0         0         0         0         0
         0         0         0         0         0         0         0         0
         0         0         0         0         0         0         0         0
         0         0         0         0         0         0         0         0
         0         0         0         0         0         0         0         0
         0         0         0         0         0         0         0         0
         0         0         0         0         0         0         0         0
         0         0         0         0         0         0         0         0
         0         0         0         0         0         0         0         0
         0         0         0         0         0         0         0         0
         0         0         0         0         0         0         0         0
         0         0         0         0         0         0         0         0
         0         0         0         0         0         0         0         0
         0         0         0         0         0         0         0         0
         0         0         0         0         0         0         0         0
         0         0         0         0         0         0         0         0
         0         0         0         0         0         0         0         0
         0         0         0         0         0         0         0         0
         0         0         0         0         0         0         0         0
         0         0         0         0         0         0         0         0
         0         0         0         0         0         0         0         0
         0         0         0         0         0         0         0         0
         0         0         0         0         0         0         0         0
         0         0         0         0         0         0         0         0
         0         0         0         0         0         0         0         0
         0         0         0         0         0         0         0         0
         0         0         0         0         0         0         0         0
         0         0         0         0         0         0         0         0
         0         0         0         0         0         0         0         0
         0         0         0         0         0         0         0         0
         0         0         0         0         0         0         0         0
         0         0         0         0         0         0         0         0
         0         0         0         0         0         0         0         0
         0         0         0         0         0         0         0         0
         0         0         0         0         0         0         0         0
         0         0         0         0         0         0         0         0
         0         0         0         0         0         0         0         0
         0         0         0         0         0         0         0         0
         0         0         0         0         0         0         0         0
         0         0         0         0         0         0         0         0
         0         0         0         0         0         0         0         0
         0         0         0         0         0         0         0         0
         0         0         0         0         0         0         0         0
         0         0         0         0         0         0         0         0
         0         0         0         0         0         0         0         0
         0         0         0         0         0         0         0         0
         0         0         0         0         0         0         0         0
         0         0         0         0         0         0         0         0
         0         0         0         0         0         0         0         0
         0         0         0         0         0         0         0         0
         0         0         0         0         0         0         0         0
         0         0         0         0         0         0         0         0
         0         0         0         0         0         0         0         0
         0         0         0         0         0         0         0         0
         0         0         0         0         0         0         0         0
         0         0         0         0         0         0         0         0
         0         0         0         0         0         0         0         0
         0         0         0         0         0         0         0         0
         0         0         0         0         0         0         0         0
         0         0         0         0         0         0         0         0
         0         0         0         0         0         0         0         0
         0         0         0         0         0         0         0         0
         0         0         0         0         0         0         0         0
         0         0         0         0         0         0         0         0
         0         0         0         0         0         0         0         0
         0         0         0         0         0         0         0         0
         0         0         0         0         0         0         0         0
         0         0         0         0         0         0         0         0
         0         0         0         0         0         0         0         0
         0         0         0         0         0         0         0         0
         0         0         0         0         0         0         0         0
         0         0         0         0         0         0         0         0
         0         0         0         0         0         0         0         0
         0         0         0         0         0         0         0         0
         0         0         0         0         0         0         0         0
         0         0         0         0         0         0         0         0
         0         0         0         0         0         0         0         0
         0         0         0         0         0         0         0         0
         0         0         0         0         0         0         0         0
         0         0         0         0         0         0         0         0
         0         0         0         0         0         0         0         0
         0         0         0         0         0         0         0         0
         0         0         0         0         0         0         0         0
         0         0         0         0         0         0         0         0
         0         0         0         0         0         0         0         0
         0         0         0         0         0         0         0         0
         0         0         0         0         0         0         0         0
         0         0         0         0         0         0         0         0
         0         0         0         0         0         0         0         0
         0         0         0         0         0         0         0         0
         0         0         0         0         0         0         0         0
         0         0         0         0         0         0         0         0
         0         0         0         0         0         0         0         0
         0         0         0         0         0         0         0         0
         0         0         0         0         0         0         0         0
         0         0         0         0         0         0         0         0
         0         0         0         0         0         0         0         0
         0         0         0         0         0         0         0         0
         0         0         0         0         0         0         0         0
         0         0         0         0         0         0         0         0
         0         0         0         0         0         0         0         0
         0         0         0         0         0         0         0         0
         0         0         0         0         0         0         0         0
         0         0         0         0         0         0         0         0
         0         0         0         0         0         0         0         0
         0         0         0         0         0         0         0         0
         0         0         0         0         0         0         0         0
         0         0         0         0         0         0         0         0
         0         0         0         0         0         0         0         0
         0         0         0         0         0         0         0         0
         0         0         0         0         0         0         0         0
         0         0         0         0         0         0         0         0
         0         0         0         0         0         0         0         0
         0         0         0         0         0         0         0         0
         0         0         0         0         0         0         0         0
         0         0         0         0         0         0         0         0
         0         0         0         0         0         0         0         0
         0         0         0         0         0         0         0         0
         0         0         0         0         0         0         0         0
         0         0         0         0         0         0         0         0
         0         0         0         0         0         0         0         0
         0         0         0         0         0         0         0         0
         0         0         0         0         0         0         0         0
         0         0         0         0         0         0         0         0
         0         0         0         0         0         0         0         0
         0         0         0         0         0         0         0         0
         0         0         0         0         0         0         0         0
         0         0         0         0         0         0         0         0
         0         0         0         0         0         0         0         0
         0         0         0         0         0         0         0         0
         0         0         0         0         0         0         0         0
         0         0         0         0         0         0         0         0
         0         0         0         0         0         0         0         0
         0         0         0         0         0         0         0         0
         0         0         0         0         0         0         0         0
         0         0         0         0         0         0         0         0
         0         0         0         0         0         0         0         0
         0         0         0         0         0         0         0         0
         0         0         0         0         0         0         0         0
         0         0         0         0         0         0         0         0
         0         0         0         0         0         0         0         0
         0         0         0         0         0         0         0         0
         0         0         0         0         0         0         0         0
         0         0         0         0         0         0         0         0
         0         0         0         0         0         0         0         0
         0         0         0         0         0         0         0         0
         0         0         0         0         0         0         0         0
         0         0         0         0         0         0         0         0
         0         0         0         0         0         0         0         0
         0         0         0         0         0         0         0         0
         0         0         0         0         0         0         0         0
         0         0         0         0         0         0         0         0
         0         0         0         0         0         0         0         0
         0         0         0         0         0         0         0         0
         0         0         0         0         0         0         0         0
         0         0         0         0         0         0         0         0
         0         0         0         0         0         0         0         0
         0         0         0         0         0         0         0         0
         0         0         0         0         0         0         0         0
         0         0         0         0         0         0         0         0
         0         0         0         0         0         0         0         0
         0         0         0         0         0         0         0         0
         0         0         0         0         0         0         0         0
         0         0         0         0         0         0         0         0
         0         0         0         0         0         0         0         0
         0         0         0         0         0         0         0         0
         0         0         0         0         0         0         0         0
         0         0         0         0         0         0         0         0
         0         0         0         0         0         0         0         0
         0         0         0         0         0         0         0         0
         0         0         0         0         0         0         0         0
         0         0         0         0         0         0         0         0
         0         0         0         0         0         0         0         0
         0         0         0         0         0         0         0         0
         0         0         0         0         0         0         0         0
         0         0         0         0         0         0         0         0
         0         0         0         0         0         0         0         0
         0         0         0         0         0         0         0         0
         0         0         0         0         0         0         0         0
         0         0         0         0         0         0         0         0
         0         0         0         0         0         0         0         0
         0         0         0         0         0         0         0         0
         0         0         0         0         0         0         0         0
         0         0         0         0         0         0         0         0
         0         0         0         0         0         0         0         0
         0         0         0         0         0         0         0         0
         0         0         0         0         0         0         0         0
         0         0         0         0         0         0         0         0
         0         0         0         0         0         0         0         0
         0         0         0         0         0         0         0         0
         0         0         0         0         0         0         0         0
         0         0         0         0         0         0         0         0
         0         0         0         0         0         0         0         0
         0         0         0         0         0         0         0         0
         0         0         0         0         0         0         0         0
         0         0         0         0         0         0         0         0
         0         0         0         0         0         0         0         0
         0         0         0         0         0         0         0         0
         0         0         0         0         0         0         0         0
         0         0         0         0         0         0         0         0
         0         0         0         0         0         0         0         0
         0         0         0         0         0         0         0         0
         0         0         0         0         0         0         0         0
         0         0         0         0         0         0         0         0
         0         0         0         0         0         0         0         0
         0         0         0         0         0         0         0         0
         0         0         0         0         0         0         0         0
         0         0         0         0         0         0         0         0
         0         0         0         0         0         0         0         0
         0         0         0         0         0         0         0         0
         0         0         0         0         0         0         0         0
         0         0         0         0         0         0         0         0
         0         0         0         0         0         0         0         0
         0         0         0         0         0         0         0         0
         0         0         0         0         0         0         0         0
         0         0         0         0         0         0         0         0
         0         0         0         0         0         0         0         0
         0         0         0         0         0         0         0         0
         0         0         0         0         0         0         0         0
         0         0         0         0         0         0         0         0
         0         0         0         0         0         0         0         0
         0         0         0         0         0         0         0         0
         0         0         0         0         0         0         0         0
         0         0         0         0         0         0         0         0
         0         0         0         0         0         0         0         0
         0         0         0         0         0         0         0         0
         0         0         0         0         0         0         0         0
         0         0         0         0         0         0         0         0
         0         0         0         0         0         0         0         0
         0         0         0         0         0         0         0         0
         0         0         0         0         0         0         0         0
         0         0         0         0         0         0         0         0
         0         0         0         0         0         0         0         0
         0         0         0         0         0         0         0         0
         0         0         0         0         0         0         0         0
         0         0         0         0         0         0         0         0
         0         0         0         0         0         0         0         0
         0         0         0         0         0         0         0         0
         0         0         0         0         0         0         0         0
         0         0         0         0         0         0         0         0
         0         0         0         0         0         0         0         0
         0         0         0         0         0         0         0         0
         0         0         0         0         0         0         0         0
         0         0         0         0         0         0         0         0
         0         0         0         0         0         0         0         0
         0         0         0         0         0         0         0         0
         0         0         0         0         0         0         0         0
         0         0         0         0         0         0         0         0
         0         0         0         0         0         0         0         0
         0         0         0         0         0         0         0         0
         0         0         0         0         0         0         0         0
         0         0         0         0         0         0         0         0
         0         0         0         0         0         0         0         0
         0         0         0         0         0         0         0         0
         0         0         0         0         0         0         0         0
         0         0         0         0         0         0         0         0
         0         0         0         0         0         0         0         0
         0         0         0         0         0         0         0         0
         0         0         0         0         0         0         0         0
         0         0         0         0         0         0         0         0
         0         0         0         0         0         0         0         0
         0         0         0         0         0         0         0         0
         0         0         0         0         0         0         0         0
         0         0         0         0         0         0         0         0
         0         0         0         0         0         0         0         0
         0         0         0         0         0         0         0         0
         0         0         0         0         0         0         0         0
         0         0         0         0         0         0         0         0
         0         0         0         0         0         0         0         0
         0         0         0         0         0         0         0         0
         0         0         0         0         0         0         0         0
         0         0         0         0         0         0         0         0
         0         0         0         0         0         0         0         0
         0         0         0         0         0         0         0         0
         0         0         0         0         0         0         0         0
         0         0         0         0         0         0         0         0
         0         0         0         0         0         0         0         0
         0         0         0         0         0         0         0         0
         0         0         0         0         0         0         0         0
         0         0         0         0         0         0         0         0
         0         0         0         0         0         0         0         0
         0         0         0         0         0         0         0         0
         0         0         0         0         0         0         0         0
         0         0         0         0         0         0         0         0
         0         0         0         0         0         0         0         0
         0         0         0         0         0         0         0         0
         0         0         0         0         0         0         0         0
         0         0         0         0         0         0         0         0
         0         0         0         0         0         0         0         0
         0         0         0         0         0         0         0         0
         0         0         0         0         0         0         0         0
         0         0         0         0         0         0         0         0
         0         0         0         0         0         0         0         0
         0         0         0         0         0         0         0         0
         0         0         0         0         0         0         0         0
         0         0         0         0         0         0         0         0
         0         0         0         0         0         0         0         0
         0         0         0         0         0         0         0         0
         0         0         0         0         0         0         0         0
         0         0         0         0         0         0         0         0
         0         0         0         0         0         0         0         0
         0         0         0         0         0         0         0         0
         0         0         0         0         0         0         0         0
         0         0         0         0         0         0         0         0
         0         0         0         0         0         0         0         0
         0         0         0         0         0         0         0         0
         0         0         0         0         0         0         0         0
         0         0         0         0         0         0         0         0
         0         0         0         0         0         0         0         0
         0         0         0         0         0         0         0         0
         0         0         0         0         0         0         0         0
         0         0         0         0         0         0         0         0
         0         0         0         0         0         0         0         0
         0         0         0         0         0         0         0         0
         0         0         0         0         0         0         0         0
         0         0         0         0         0         0         0         0
         0         0         0         0         0         0         0         0
         0         0         0         0         0         0         0         0
         0         0         0         0         0         0         0         0
         0         0         0         0         0         0         0         0
         0         0         0         0         0         0         0         0
         0         0         0         0         0         0         0         0
         0         0         0         0         0         0         0         0
         0         0         0         0         0         0         0         0
         0         0         0         0         0         0         0         0
         0         0         0         0         0         0         0         0
         0         0         0         0         0         0         0         0
         0         0         0         0         0         0         0         0
         0         0         0         0         0         0         0         0
         0         0         0         0         0         0         0         0
         0         0         0         0         0         0         0         0
         0         0         0         0         0         0         0         0
         0         0         0         0         0         0         0         0
         0         0         0         0         0         0         0         0
         0         0         0         0         0         0         0         0
         0         0         0         0         0         0         0         0
         0         0         0         0         0         0         0         0
         0         0         0         0         0         0         0         0
         0         0         0         0         0         0         0         0
         0         0         0         0         0         0         0         0
         0         0         0         0         0         0         0         0
         0         0         0         0         0         0         0         0
         0         0         0         0         0         0         0         0
         0         0         0         0         0         0         0         0
         0         0         0         0         0         0         0         0
         0         0         0         0         0         0         0         0
         0         0         0         0         0         0         0         0
         0         0         0         0         0         0         0         0
         0         0         0         0         0         0         0         0
         0         0         0         0         0         0         0         0
         0         0         0         0         0         0         0         0
         0         0         0         0         0         0         0         0
         0         0         0         0         0         0         0         0
         0         0         0         0         0         0         0         0
         0         0         0         0         0         0         0         0
         0         0         0         0         0         0         0         0
         0         0         0         0         0         0         0         0
         0         0         0         0         0         0         0         0
         0         0         0         0         0         0         0         0
         0         0         0         0         0         0         0         0
         0         0         0         0         0         0         0         0
         0         0         0         0         0         0         0         0
         0         0         0         0         0         0         0         0
         0         0         0         0         0         0         0         0
         0         0         0         0         0         0         0         0
         0         0         0         0         0         0         0         0
         0         0         0         0         0         0         0         0
         0         0         0         0         0         0         0         0
         0         0         0         0         0         0         0         0
         0         0         0         0         0         0         0         0
         0         0         0         0         0         0         0         0
         0         0         0         0         0         0         0         0
         0         0         0         0         0         0         0         0
         0         0         0         0         0         0         0         0
         0         0         0         0         0         0         0         0
         0         0         0         0         0         0         0         0
         0         0         0         0         0         0         0         0
         0         0         0         0         0         0         0         0
         0         0         0         0         0         0         0         0
         0         0         0         0         0         0         0         0
         0         0         0         0         0         0         0         0
         0         0         0         0         0         0         0         0
         0         0         0         0         0         0         0         0
         0         0         0         0         0         0         0         0
         0         0         0         0         0         0         0         0
         0         0         0         0         0         0         0         0
         0         0         0         0         0         0         0         0
         0         0         0         0         0         0         0         0
         0         0         0         0         0         0         0         0
         0         0         0         0         0         0         0         0
         0         0         0         0         0         0         0         0
         0         0         0         0         0         0         0         0
         0         0         0         0         0         0         0         0
         0         0         0         0         0         0         0         0
         0         0         0         0         0         0         0         0
         0         0         0         0         0         0         0         0
         0         0         0         0         0         0         0         0
         0         0         0         0         0         0         0         0
         0         0         0         0         0         0         0         0
         0         0         0         0         0         0         0         0
         0         0         0         0         0         0         0         0
         0         0         0         0         0         0         0         0
         0         0         0         0         0         0         0         0
         0         0         0         0         0         0         0         0
         0         0         0         0         0         0         0         0
         0         0         0         0         0         0         0         0
         0         0         0         0         0         0         0         0
         0         0         0         0         0         0         0         0
         0         0         0         0         0         0         0         0
         0         0         0         0         0         0         0         0
         0         0         0         0         0         0         0         0
         0         0         0         0         0         0         0         0
         0         0         0         0         0         0         0         0
         0         0         0         0         0         0         0         0
         0         0         0         0         0         0         0         0
         0         0         0         0         0         0         0         0
         0         0         0         0         0         0         0         0
         0         0         0         0         0         0         0         0
         0         0         0         0         0         0         0         0
         0         0         0         0         0         0         0         0
         0         0         0         0         0         0         0         0
         0         0         0         0         0         0         0         0
         0         0         0         0         0         0         0         0
         0         0         0         0         0         0         0         0
         0         0         0         0         0         0         0         0
         0         0         0         0         0         0         0         0
         0         0         0         0         0         0         0         0
         0         0         0         0         0         0         0         0
         0         0         0         0         0         0         0         0
         0         0         0         0         0         0         0         0
         0         0         0         0         0         0         0         0
         0         0         0         0         0         0         0         0
         0         0         0         0         0         0         0         0
         0         0         0         0         0         0         0         0
         0         0         0         0         0         0         0         0
         0         0         0         0         0         0         0         0
         0         0         0         0         0         0         0         0
         0         0         0         0         0         0         0         0
         0         0         0         0         0         0         0         0
         0         0         0         0         0         0         0         0
         0         0         0         0         0         0         0         0
         0         0         0         0         0         0         0         0
         0         0         0         0         0         0         0         0
         0         0         0         0         0         0         0         0
         0         0         0         0         0         0         0         0
         0         0         0         0         0         0         0         0
         0         0         0         0         0         0         0         0
         0         0         0         0         0         0         0         0
         0         0         0         0         0         0         0         0
         0         0         0         0         0         0         0         0
         0         0         0         0         0         0         0         0
         0         0         0         0         0         0         0         0
         0         0         0         0         0         0         0         0
         0         0         0         0         0         0         0         0
         0         0         0         0         0         0         0         0
         0         0         0         0         0         0         0         0
         0         0         0         0         0         0         0         0
         0         0         0         0         0         0         0         0
         0         0         0         0         0         0         0         0
         0         0         0         0         0         0         0         0
         0         0         0         0         0         0         0         0
         0         0         0         0         0         0         0         0
         0         0         0         0         0         0         0         0
         0         0         0         0         0         0         0         0
         0         0         0         0         0         0         0         0
         0         0         0         0         0         0         0         0
         0         0         0         0         0         0         0         0
         0         0         0         0         0         0         0         0
         0         0         0         0         0         0         0         0
         0         0         0         0         0         0         0         0
         0         0         0         0         0         0         0         0
         0         0         0         0         0         0         0         0
         0         0         0         0         0         0         0         0
         0         0         0         0         0         0         0         0
         0         0         0         0         0         0         0         0
         0         0         0         0         0         0         0         0
         0         0         0         0         0         0         0         0
         0         0         0         0         0         0         0         0
         0         0         0         0         0         0         0         0
         0         0         0         0         0         0         0         0
         0         0         0         0         0         0         0         0
         0         0         0         0         0         0         0         0
         0         0         0         0         0         0         0         0
         0         0         0         0         0         0         0         0
         0         0         0         0         0         0         0         0
         0         0         0         0         0         0         0         0
         0         0         0         0         0         0         0         0
         0         0         0         0         0         0         0         0
         0         0         0         0         0         0         0         0
         0         0         0         0         0         0         0         0
         0         0         0         0         0         0         0         0
         0         0         0         0         0         0         0         0
         0         0         0         0         0         0         0         0
         0         0         0         0         0         0         0         0
         0         0         0         0         0         0         0         0
         0         0         0         0         0         0         0         0
         0         0         0         0         0         0         0         0
         0         0         0         0         0         0         0         0
         0         0         0         0         0         0         0         0
         0         0         0         0         0         0         0         0
         0         0         0         0         0         0         0         0
         0         0         0         0         0         0         0         0
         0         0         0         0         0         0         0         0
         0         0         0         0         0         0         0         0
         0         0         0         0         0         0         0         0
         0         0         0         0         0         0         0         0
         0         0         0         0         0         0         0         0
         0         0         0         0         0         0         0         0
         0         0         0         0         0         0         0         0
         0         0         0         0         0         0         0         0
         0         0         0         0         0         0         0         0
         0         0         0         0         0         0         0         0
         0         0         0         0         0         0         0         0
         0         0         0         0         0         0         0         0
         0         0         0         0         0         0         0         0
         0         0         0         0         0         0         0         0
         0         0         0         0         0         0         0         0
         0         0         0         0         0         0         0         0
         0         0         0         0         0         0         0         0
         0         0         0         0         0         0         0         0
         0         0         0         0         0         0         0         0
         0         0         0         0         0         0         0         0
         0         0         0         0         0         0         0         0
         0         0         0         0         0         0         0         0
         0         0         0         0         0         0         0         0
         0         0         0         0         0         0         0         0
         0         0         0         0         0         0         0         0
         0         0         0         0         0         0         0         0
         0         0         0         0         0         0         0         0
         0         0         0         0         0         0         0         0
         0         0         0         0         0         0         0         0
         0         0         0         0         0         0         0         0
         0         0         0         0         0         0         0         0
         0         0         0         0         0         0         0         0
         0         0         0         0         0         0         0         0
         0         0         0         0         0         0         0         0
         0         0         0         0         0         0         0         0
         0         0         0         0         0         0         0         0
         0         0         0         0         0         0         0         0
         0         0         0         0         0         0         0         0
         0         0         0         0         0         0         0         0
         0         0         0         0         0         0         0         0
         0         0         0         0         0         0         0         0
         0         0         0         0         0         0         0         0
         0         0         0         0         0         0         0         0
         0         0         0         0         0         0         0         0
         0         0         0         0         0         0         0         0
         0         0         0         0         0         0         0         0
         0         0         0         0         0         0         0         0
         0         0         0         0         0         0         0         0
         0         0         0         0         0         0         0         0
         0         0         0         0         0         0         0         0
         0         0         0         0         0         0         0         0
         0         0         0         0         0         0         0         0
         0         0         0         0         0         0         0         0
         0         0         0         0         0         0         0         0
         0         0         0         0         0         0         0         0
         0         0         0         0         0         0         0         0
         0         0         0         0         0         0         0         0
         0         0         0         0         0         0         0         0
         0         0         0         0         0         0         0         0
         0         0         0         0         0         0         0         0
         0         0         0         0         0         0         0         0
         0         0         0         0         0         0         0         0
         0         0         0         0         0         0         0         0
         0         0         0         0         0         0         0         0
         0         0         0         0         0         0         0         0
         0         0         0         0         0         0         0         0
         0         0         0         0         0         0         0         0
         0         0         0         0         0         0         0         0
         0         0         0         0         0         0         0         0
         0         0         0         0         0         0         0         0
         0         0         0         0         0         0         0         0
         0         0         0         0         0         0         0         0
         0         0         0         0         0         0         0         0
         0         0         0         0         0         0         0         0
         0         0         0         0         0         0         0         0
         0         0         0         0         0         0         0         0
         0         0         0         0         0         0         0         0
         0         0         0         0         0         0         0         0
         0         0         0         0         0         0         0         0
         0         0         0         0         0         0         0         0
         0         0         0         0         0         0         0         0
         0         0         0         0         0         0         0         0
         0         0         0         0         0         0         0         0
         0         0         0         0         0         0         0         0
         0         0         0         0         0         0         0         0
         0         0         0         0         0         0         0         0
         0         0         0         0         0         0         0         0
         0         0         0         0         0         0         0         0
         0         0         0         0         0         0         0         0
         0         0         0         0         0         0         0         0
         0         0         0         0         0         0         0         0
         0         0         0         0         0         0         0         0
         0         0         0         0         0         0         0         0
         0         0         0         0         0         0         0         0
         0         0         0         0         0         0         0         0
         0         0         0         0         0         0         0         0
         0         0         0         0         0         0         0         0
         0         0         0         0         0         0         0         0
         0         0         0         0         0         0         0         0
         0         0         0         0         0         0         0         0
         0         0         0         0         0         0         0         0
         0         0         0         0         0         0         0         0
         0         0         0         0         0         0         0         0
         0         0         0         0         0         0         0         0
         0         0         0         0         0         0         0         0
         0         0         0         0         0         0         0         0
         0         0         0         0         0         0         0         0
         0         0         0         0         0         0         0         0
         0         0         0         0         0         0         0         0
         0         0         0         0         0         0         0         0
         0         0         0         0         0         0         0         0
         0         0         0         0         0         0         0         0
         0         0         0         0         0         0         0         0
         0         0         0         0         0         0         0         0
         0         0         0         0         0         0         0         0
         0         0         0         0         0         0         0         0
         0         0         0         0         0         0         0         0
         0         0         0         0         0         0         0         0
         0         0         0         0         0         0         0         0
         0         0         0         0         0         0         0         0
         0         0         0         0         0         0         0         0
         0         0         0         0         0         0         0         0
         0         0         0         0         0         0         0         0
         0         0         0         0         0         0         0         0
         0         0         0         0         0         0         0         0
         0         0         0         0         0         0         0         0
         0         0         0         0         0         0         0         0
         0         0         0         0         0         0         0         0
         0         0         0         0         0         0         0         0
         0         0         0         0         0         0         0         0
         0         0         0         0         0         0         0         0
         0         0         0         0         0         0         0         0
         0         0         0         0         0         0         0         0
         0         0         0         0         0         0         0         0
         0         0         0         0         0         0         0         0
         0         0         0         0         0         0         0         0
         0         0         0         0         0         0         0         0
         0         0         0         0         0         0         0         0
         0         0         0         0         0         0         0         0
         0         0         0         0         0         0         0         0
         0         0         0         0         0         0         0         0
         0         0         0         0         0         0         0         0
         0         0         0         0         0         0         0         0
         0         0         0         0         0         0         0         0
         0         0         0         0         0         0         0         0
         0         0         0         0         0         0         0         0
         0         0         0         0         0         0         0         0
         0         0         0         0         0         0         0         0
         0         0         0         0         0         0         0         0
         0         0         0         0         0         0         0         0
         0         0         0         0         0         0         0         0
         0         0         0         0         0         0         0         0
         0         0         0         0         0         0         0         0
         0         0         0         0         0         0         0         0
         0         0         0         0         0         0         0         0
         0         0         0         0         0         0         0         0
         0         0         0         0         0         0         0         0
         0         0         0         0         0         0         0         0
         0         0         0         0         0         0         0         0
         0         0         0         0         0         0         0         0
         0         0         0         0         0         0         0         0
         0         0         0         0         0         0         0         0
         0         0         0         0         0         0         0         0
         0         0         0         0         0         0         0         0
         0         0         0         0         0         0         0         0
         0         0         0         0         0         0         0         0
         0         0         0         0         0         0         0         0
         0         0         0         0         0         0         0         0
         0         0         0         0         0         0         0         0
         0         0         0         0         0         0         0         0
         0         0         0         0         0         0         0         0
         0         0         0         0         0         0         0         0
         0         0         0         0         0         0         0         0
         0         0         0         0         0         0         0         0
         0         0         0         0         0         0         0         0
         0         0         0         0         0         0         0         0
         0         0         0         0         0         0         0         0
         0         0         0         0         0         0         0         0
         0         0         0         0         0         0         0         0
         0         0         0         0         0         0         0         0
         0         0         0         0         0         0         0         0
         0         0         0         0         0         0         0         0
         0         0         0         0         0         0         0         0
         0         0         0         0         0         0         0         0
         0         0         0         0         0         0         0         0
         0         0         0         0         0         0         0         0
         0         0         0         0         0         0         0         0
         0         0         0         0         0         0         0         0
         0         0         0         0         0         0         0         0
         0         0         0         0         0         0         0         0
         0         0         0         0         0         0         0         0
         0         0         0         0         0         0         0         0
         0         0         0         0         0         0         0         0
         0         0         0         0         0         0         0         0
         0         0         0         0         0         0         0         0
         0         0         0         0         0         0         0         0
         0         0         0         0         0         0         0         0
         0         0         0         0         0         0         0         0
         0         0         0         0         0         0         0         0
         0         0         0         0         0         0         0         0
         0         0         0         0         0         0         0         0
         0         0         0         0         0         0         0         0
         0         0         0         0         0         0         0         0
         0         0         0         0         0         0         0         0
         0         0         0         0         0         0         0         0
         0         0         0         0         0         0         0         0
         0         0         0         0         0         0         0         0
         0         0         0         0         0         0         0         0
         0         0         0         0         0         0         0         0
         0         0         0         0         0         0         0         0
         0         0         0         0         0         0         0         0
         0         0         0         0         0         0         0         0
         0         0         0         0         0         0         0         0
         0         0         0         0         0         0         0         0
         0         0         0         0         0         0         0         0
         0         0         0         0         0         0         0         0
         0         0         0         0         0         0         0         0
         0         0         0         0         0         0         0         0
         0         0         0         0         0         0         0         0
         0         0         0         0         0         0         0         0
         0         0         0         0         0         0         0         0
         0         0         0         0         0         0         0         0
         0         0         0         0         0         0         0         0
         0         0         0         0         0         0         0         0
         0         0         0         0         0         0         0         0
         0         0         0         0         0         0         0         0
         0         0         0         0         0         0         0         0
         0         0         0         0         0         0         0         0
         0         0         0         0         0         0         0         0
         0         0         0         0         0         0         0         0
         0         0         0         0         0         0         0         0
         0         0         0         0         0         0         0         0
         0         0         0         0         0         0         0         0
         0         0         0         0         0         0         0         0
         0         0         0         0         0         0         0         0
         0         0         0         0         0         0         0         0
         0         0         0         0         0         0         0         0
         0         0         0         0         0         0         0         0
         0         0         0         0         0         0         0         0
         0         0         0         0         0         0         0         0
         0         0         0         0         0         0         0         0
         0         0         0         0         0         0         0         0
         0         0         0         0         0         0         0         0
         0         0         0         0         0         0         0         0
         0         0         0         0         0         0         0         0
         0         0         0         0         0         0         0         0
         0         0         0         0         0         0         0         0
         0         0         0         0         0         0         0         0
         0         0         0         0         0         0         0         0
         0         0         0         0         0         0         0         0
         0         0         0         0         0         0         0         0
         0         0         0         0         0         0         0         0
         0         0         0         0         0         0         0         0
         0         0         0         0         0         0         0         0
         0         0         0         0         0         0         0         0
         0         0         0         0         0         0         0         0
         0         0         0         0         0         0         0         0
         0         0         0         0         0         0         0         0
         0         0         0         0         0         0         0         0
         0         0         0         0         0         0         0         0
         0         0         0         0         0         0         0         0
         0         0         0         0         0         0         0         0
         0         0         0         0         0         0         0         0
         0         0         0         0         0         0         0         0
         0         0         0         0         0         0         0         0
         0         0         0         0         0         0         0         0
         0         0         0         0         0         0         0         0
         0         0         0         0         0         0         0         0
         0         0         0         0         0         0         0         0
         0         0         0         0         0         0         0         0
         0         0         0         0         0         0         0         0
         0         0         0         0         0         0         0         0
         0         0         0         0         0         0         0         0
         0         0         0         0         0         0         0         0
         0         0         0         0         0         0         0         0
         0         0         0         0         0         0         0         0
         0         0         0         0         0         0         0         0
         0         0         0         0         0         0         0         0
         0         0         0         0         0         0         0         0
         0         0         0         0         0         0         0         0
         0         0         0         0         0         0         0         0
         0         0         0         0         0         0         0         0
         0         0         0         0         0         0         0         0
         0         0         0         0         0         0         0         0
         0         0         0         0         0         0         0         0
         0         0         0         0         0         0         0         0
         0         0         0         0         0         0         0         0
         0         0         0         0         0         0         0         0
         0         0         0         0         0         0         0         0
         0         0         0         0         0         0         0         0
         0         0         0         0         0         0         0         0
         0         0         0         0         0         0         0         0
         0         0         0         0         0         0         0         0
         0         0         0         0         0         0         0         0
         0         0         0         0         0         0         0         0
         0         0         0         0         0         0         0         0
         0         0         0         0         0         0         0         0
         0         0         0         0         0         0         0         0
         0         0         0         0         0         0         0         0
         0         0         0         0         0         0         0         0
         0         0         0         0         0         0         0         0
         0         0         0         0         0         0         0         0
         0         0         0         0         0         0         0         0
         0         0         0         0         0         0         0         0
         0         0         0         0         0         0         0         0
         0         0         0         0         0         0         0         0
         0         0         0         0         0         0         0         0
         0         0         0         0         0         0         0         0
         0         0         0         0         0         0         0         0
         0         0         0         0         0         0         0         0
         0         0         0         0         0         0         0         0
         0         0         0         0         0         0         0         0
         0         0         0         0         0         0         0         0
         0         0         0         0         0         0         0         0
         0         0         0         0         0         0         0         0
         0         0         0         0         0         0         0         0
         0         0         0         0         0         0         0         0
         0         0         0         0         0         0         0         0
         0         0         0         0         0         0         0         0
         0         0         0         0         0         0         0         0
         0         0         0         0         0         0         0         0
         0         0         0         0         0         0         0         0
         0         0         0         0         0         0         0         0
         0         0         0         0         0         0         0         0
         0         0         0         0         0         0         0         0
         0         0         0         0         0         0         0         0
         0         0         0         0         0         0         0         0
         0         0         0         0         0         0         0         0
         0         0         0         0         0         0         0         0
         0         0         0         0         0         0         0         0
         0         0         0         0         0         0         0         0
         0         0         0         0         0         0         0         0
         0         0         0         0         0         0         0         0
         0         0         0         0         0         0         0         0
         0         0         0         0         0         0         0         0
         0         0         0         0         0         0         0         0
         0         0         0         0         0         0         0         0
         0         0         0         0         0         0         0         0
         0         0         0         0         0         0         0         0
         0         0         0         0         0         0         0         0
         0         0         0         0         0         0         0         0
         0         0         0         0         0         0         0         0
         0         0         0         0         0         0         0         0
         0         0         0         0         0         0         0         0
         0         0         0         0         0         0         0         0
         0         0         0         0         0         0         0         0
         0         0         0         0         0         0         0         0
         0         0         0         0         0         0         0         0
         0         0         0         0         0         0         0         0
         0         0         0         0         0         0         0         0
         0         0         0         0         0         0         0         0
         0         0         0         0         0         0         0         0
         0         0         0         0         0         0         0         0
         0         0         0         0         0         0         0         0
         0         0         0         0         0         0         0         0
         0         0         0         0         0         0         0         0
         0         0         0         0         0         0         0         0
         0         0         0         0         0         0         0         0
         0         0         0         0         0         0         0         0
         0         0         0         0         0         0         0         0
         0         0         0         0         0         0         0         0
         0         0         0         0         0         0         0         0
         0         0         0         0         0         0         0         0
         0         0         0         0         0         0         0         0
         0         0         0         0         0         0         0         0
         0         0         0         0         0         0         0         0
         0         0         0         0         0         0         0         0
         0         0         0         0         0         0         0         0
         0         0         0         0         0         0         0         0
         0         0         0         0         0         0         0         0
         0         0         0         0         0         0         0         0
         0         0         0         0         0         0         0         0
         0         0         0         0         0         0         0         0
         0         0         0         0         0         0         0         0
         0         0         0         0         0         0         0         0
         0         0         0         0         0         0         0         0
         0         0         0         0         0         0         0         0
         0         0         0         0         0         0         0         0
         0         0         0         0         0         0         0         0
         0         0         0         0         0         0         0         0
         0         0         0         0         0         0         0         0
         0         0         0         0         0         0         0         0
         0         0         0         0         0         0         0         0
         0         0         0         0         0         0         0         0
         0         0         0         0         0         0         0         0
         0         0         0         0         0         0         0         0
         0         0         0         0         0         0         0         0
         0         0         0         0         0         0         0         0
         0         0         0         0         0         0         0         0
         0         0         0         0         0         0         0         0
         0         0         0         0         0         0         0         0
         0         0         0         0         0         0         0         0
         0         0         0         0         0         0         0         0
         0         0         0         0         0         0         0         0
         0         0         0         0         0         0         0         0
         0         0         0         0         0         0         0         0
         0         0         0         0         0         0         0         0
         0         0         0         0         0         0         0         0
         0         0         0         0         0         0         0         0
         0         0         0         0         0         0         0         0
         0         0         0         0         0         0         0         0
         0         0         0         0         0         0         0         0
         0         0         0         0         0         0         0         0
         0         0         0         0         0         0         0         0
         0         0         0         0         0         0         0         0
         0         0         0         0         0         0         0         0
         0         0         0         0         0         0         0         0
         0         0         0         0         0         0         0         0
         0         0         0         0         0         0         0         0
         0         0         0         0         0         0         0         0
         0         0         0         0         0         0         0         0
         0         0         0         0         0         0         0         0
         0         0         0         0         0         0         0         0
         0         0         0         0         0         0         0         0
         0         0         0         0         0         0         0         0
         0         0         0         0         0         0         0         0
         0         0         0         0         0         0         0         0
         0         0         0         0         0         0         0         0
         0         0         0         0         0         0         0         0
         0         0         0         0         0         0         0         0
         0         0         0         0         0         0         0         0
         0         0         0         0         0         0         0         0
         0         0         0         0         0         0         0         0
         0         0         0         0         0         0         0         0
         0         0         0         0         0         0         0         0
         0         0         0         0         0         0         0         0
         0         0         0         0         0         0         0         0
         0         0         0         0         0         0         0         0
         0         0         0         0         0         0         0         0
         0         0         0         0         0         0         0         0
         0         0         0         0         0         0         0         0
         0         0         0         0         0         0         0         0
         0         0         0         0         0         0         0         0
         0         0         0         0         0         0         0         0
         0         0         0         0         0         0         0         0
         0         0         0         0         0         0         0         0
         0         0         0         0         0         0         0         0
         0         0         0         0         0         0         0         0
         0         0         0         0         0         0         0         0
         0         0         0         0         0         0         0         0
         0         0         0         0         0         0         0         0
         0         0         0         0         0         0         0         0
         0         0         0         0         0         0         0         0
         0         0         0         0         0         0         0         0
         0         0         0         0         0         0         0         0
         0         0         0         0         0         0         0         0
         0         0         0         0         0         0         0         0
         0         0         0         0         0         0         0         0
         0         0         0         0         0         0         0         0
         0         0         0         0         0         0         0         0
         0         0         0         0         0         0         0         0
         0         0         0         0         0         0         0         0
         0         0         0         0         0         0         0         0
         0         0         0         0         0         0         0         0
         0         0         0         0         0         0         0         0
         0         0         0         0         0         0         0         0
         0         0         0         0         0         0         0         0
         0         0         0         0         0         0         0         0
         0         0         0         0         0         0         0         0
         0         0         0         0         0         0         0         0
         0         0         0         0         0         0         0         0
         0         0         0         0         0         0         0         0
         0         0         0         0         0         0         0         0
         0         0         0         0         0         0         0         0
         0         0         0         0         0         0         0         0
         0         0         0         0         0         0         0         0
         0         0         0         0         0         0         0         0
         0         0         0         0         0         0         0         0
         0         0         0         0         0         0         0         0
         0         0         0         0         0         0         0         0
         0         0         0         0         0         0         0         0
         0         0         0         0         0         0         0         0
         0         0         0         0         0         0         0         0
         0         0         0         0         0         0         0         0
         0         0         0         0         0         0         0         0
         0         0         0         0         0         0         0         0
         0         0         0         0         0         0         0         0
         0         0         0         0         0         0         0         0
         0         0         0         0         0         0         0         0
         0         0         0         0         0         0         0         0
         0         0         0         0         0         0         0         0
         0         0         0         0         0         0         0         0
         0         0         0         0         0         0         0         0
         0         0         0         0         0         0         0         0
         0         0         0         0         0         0         0         0
         0         0         0         0         0         0         0         0
         0         0         0         0         0         0         0         0
         0         0         0         0         0         0         0         0
         0         0         0         0         0         0         0         0
         0         0         0         0         0         0         0         0
         0         0         0         0         0         0         0         0
         0         0         0         0         0         0         0         0
         0         0         0         0         0         0         0         0
         0         0         0         0         0         0         0         0
         0         0         0         0         0         0         0         0
         0         0         0         0         0         0         0         0
         0         0         0         0         0         0         0         0
         0         0         0         0         0         0         0         0
         0         0         0         0         0         0         0         0
         0         0         0         0         0         0         0         0
         0         0         0         0         0         0         0         0
         0         0         0         0         0         0         0         0
         0         0         0         0         0         0         0         0
         0         0         0         0         0         0         0         0
         0         0         0         0         0         0         0         0
         0         0         0         0         0         0         0         0
         0         0         0         0         0         0         0         0
         0         0         0         0         0         0         0         0
         0         0         0         0         0         0         0         0
         0         0         0         0         0         0         0         0
         0         0         0         0         0         0         0         0
         0         0         0         0         0         0         0         0
         0         0         0         0         0         0         0         0
         0         0         0         0         0         0         0         0
         0         0         0         0         0         0         0         0
         0         0         0         0         0         0         0         0
         0         0         0         0         0         0         0         0
         0         0         0         0         0         0         0         0
         0         0         0         0         0         0         0         0
         0         0         0         0         0         0         0         0
         0         0         0         0         0         0         0         0
         0         0         0         0         0         0         0         0
         0         0         0         0         0         0         0         0
         0         0         0         0         0         0         0         0
         0         0         0         0         0         0         0         0
         0         0         0         0         0         0         0         0
         0         0         0         0         0         0         0         0
         0         0         0         0         0         0         0         0
         0         0         0         0         0         0         0         0
         0         0         0         0         0         0         0         0
         0         0         0         0         0         0         0         0
         0         0         0         0         0         0         0         0
         0         0         0         0         0         0         0         0
         0         0         0         0         0         0         0         0
         0         0         0         0         0         0         0         0
         0         0         0         0         0         0         0         0
         0         0         0         0         0         0         0         0
         0         0         0         0         0         0         0         0
         0         0         0         0         0         0         0         0
         0         0         0         0         0         0         0         0
         0         0         0         0         0         0         0         0
         0         0         0         0         0         0         0         0
         0         0         0         0         0         0         0         0
         0         0         0         0         0         0         0         0
         0         0         0         0         0         0         0         0
         0         0         0         0         0         0         0         0
         0         0         0         0         0         0         0         0
         0         0         0         0         0         0         0         0
         0         0         0         0         0         0         0         0
         0         0         0         0         0         0         0         0
         0         0         0         0         0         0         0         0
         0         0         0         0         0         0         0         0
         0         0         0         0         0         0         0         0
         0         0         0         0         0         0         0         0
         0         0         0         0         0         0         0         0
         0         0         0         0         0         0         0         0
         0         0         0         0         0         0         0         0
         0         0         0         0         0         0         0         0
         0         0         0         0         0         0         0         0
         0         0         0         0         0         0         0         0
         0         0         0         0         0         0         0         0
         0         0         0         0         0         0         0         0
         0         0         0         0         0         0         0         0
         0         0         0         0         0         0         0         0
         0         0         0         0         0         0         0         0
         0         0         0         0         0         0         0         0
         0         0         0         0         0         0         0         0
         0         0         0         0         0         0         0         0
         0         0         0         0         0         0         0         0
         0         0         0         0         0         0         0         0
         0         0         0         0         0         0         0         0
         0         0         0         0         0         0         0         0
         0         0         0         0         0         0         0         0
         0         0         0         0         0         0         0         0
         0         0         0         0         0         0         0         0
         0         0         0         0         0         0         0         0
         0         0         0         0         0         0         0         0
         0         0         0         0         0         0         0         0
         0         0         0         0         0         0         0         0
         0         0         0         0         0         0         0         0
         0         0         0         0         0         0         0         0
         0         0         0         0         0         0         0         0
         0         0         0         0         0         0         0         0
         0         0         0         0         0         0         0         0
         0         0         0         0         0         0         0         0
         0         0         0         0         0         0         0         0
         0         0         0         0         0         0         0         0
         0         0         0         0         0         0         0         0
         0         0         0         0         0         0         0         0
         0         0         0         0         0         0         0         0
         0         0         0         0         0         0         0         0
         0         0         0         0         0         0         0         0
         0         0         0         0         0         0         0         0
         0         0         0         0         0         0         0         0
         0         0         0         0         0         0         0         0
         0         0         0         0         0         0         0         0
         0         0         0         0         0         0         0         0
         0         0         0         0         0         0         0         0
         0         0         0         0         0         0         0         0
         0         0         0         0         0         0         0         0
         0         0         0         0         0         0         0         0
         0         0         0         0         0         0         0         0
         0         0         0         0         0         0         0         0
         0         0         0         0         0         0         0         0
         0         0         0         0         0         0         0         0
         0         0         0         0         0         0         0         0
         0         0         0         0         0         0         0         0
         0         0         0         0         0         0         0         0
         0         0         0         0         0         0         0         0
         0         0         0         0         0         0         0         0
         0         0         0         0         0         0         0         0
         0         0         0         0         0         0         0         0
         0         0         0         0         0         0         0         0
         0         0         0         0         0         0         0         0
         0         0         0         0         0         0         0         0
         0         0         0         0         0         0         0         0
         0         0         0         0         0         0         0         0
         0         0         0         0         0         0         0         0
         0         0         0         0         0         0         0         0
         0         0         0         0         0         0         0         0
         0         0         0         0         0         0         0         0
         0         0         0         0         0         0         0         0
         0         0         0         0         0         0         0         0
         0         0         0         0         0         0         0         0
         0         0         0         0         0         0         0         0
         0         0         0         0         0         0         0         0
         0         0         0         0         0         0         0         0
         0         0         0         0         0         0         0         0
         0         0         0         0         0         0         0         0
         0         0         0         0         0         0         0         0
         0         0         0         0         0         0         0         0
         0         0         0         0         0         0         0         0
         0         0         0         0         0         0         0         0
         0         0         0         0         0         0         0         0
         0         0         0         0         0         0         0         0
         0         0         0         0         0         0         0         0
         0         0         0         0         0         0         0         0
         0         0         0         0         0         0         0         0
         0         0         0         0         0         0         0         0
         0         0         0         0         0         0         0         0
         0         0         0         0         0         0         0         0
         0         0         0         0         0         0         0         0
         0         0         0         0         0         0         0         0
         0         0         0         0         0         0         0         0
         0         0         0         0         0         0         0         0
         0         0         0         0         0         0         0         0
         0         0         0         0         0         0         0         0
         0         0         0         0         0         0         0         0
         0         0         0         0         0         0         0         0
         0         0         0         0         0         0         0         0
         0         0         0         0         0         0         0         0
         0         0         0         0         0         0         0         0
         0         0         0         0         0         0         0         0
         0         0         0         0         0         0         0         0
         0         0         0         0         0         0         0         0
         0         0         0         0         0         0         0         0
         0         0         0         0         0         0         0         0
         0         0         0         0         0         0         0         0
         0         0         0         0         0         0         0         0
         0         0         0         0         0         0         0         0
         0         0         0         0         0         0         0         0
         0         0         0         0         0         0         0         0
         0         0         0         0         0         0         0         0
         0         0         0         0         0         0         0         0
         0         0         0         0         0         0         0         0
         0         0         0         0         0         0         0         0
         0         0         0         0         0         0         0         0
         0         0         0         0         0         0         0         0
         0         0         0         0         0         0         0         0
         0         0         0         0         0         0         0         0
         0         0         0         0         0         0         0         0
         0         0         0         0         0         0         0         0
         0         0         0         0         0         0         0         0
         0         0         0         0         0         0         0         0
         0         0         0         0         0         0         0         0
         0         0         0         0         0         0         0         0
         0         0         0         0         0         0         0         0
         0         0         0         0         0         0         0         0
         0         0         0         0         0         0         0         0
         0         0         0         0         0         0         0         0
         0         0         0         0         0         0         0         0
         0         0         0         0         0         0         0         0
         0         0         0         0         0         0         0         0
         0         0         0         0         0         0         0         0
         0         0         0         0         0         0         0         0
         0         0         0         0         0         0         0         0
         0         0         0         0         0         0         0         0
         0         0         0         0         0         0         0         0
         0         0         0         0         0         0         0         0
         0         0         0         0         0         0         0         0
         0         0         0         0         0         0         0         0
         0         0         0         0         0         0         0         0
         0         0         0         0         0         0         0         0
         0         0         0         0         0         0         0         0
         0         0         0         0         0         0         0         0
         0         0         0         0         0         0         0         0
         0         0         0         0         0         0         0         0
         0         0         0         0         0         0         0         0
         0         0         0         0         0         0         0         0
         0         0         0         0         0         0         0         0
         0         0         0         0         0         0         0         0
         0         0         0         0         0         0         0         0
         0         0         0         0         0         0         0         0
         0         0         0         0         0         0         0         0
         0         0         0         0         0         0         0         0
         0         0         0         0         0         0         0         0
         0         0         0         0         0         0         0         0
         0         0         0         0         0         0         0         0
         0         0         0         0         0         0         0         0
         0         0         0         0         0         0         0         0
         0         0         0         0         0         0         0         0
         0         0         0         0         0         0         0         0
         0         0         0         0         0         0         0         0
         0         0         0         0         0         0         0         0
         0         0         0         0         0         0         0         0
         0         0         0         0         0         0         0         0
         0         0         0         0         0         0         0         0
         0         0         0         0         0         0         0         0
         0         0         0         0         0         0         0         0
         0         0         0         0         0         0         0         0
         0         0         0         0         0         0         0         0
         0         0         0         0         0         0         0         0
         0         0         0         0         0         0         0         0
         0         0         0         0         0         0         0         0
         0         0         0         0         0         0         0         0
         0         0         0         0         0         0         0         0
         0         0         0         0         0         0         0         0
         0         0         0         0         0         0         0         0
         0         0         0         0         0         0         0         0
         0         0         0         0         0         0         0         0
         0         0         0         0         0         0         0         0
         0         0         0         0         0         0         0         0
         0         0         0         0         0         0         0         0
         0         0         0         0         0         0         0         0
         0         0         0         0         0         0         0         0
         0         0         0         0         0         0         0         0
         0         0         0         0         0         0         0         0
         0         0         0         0         0         0         0         0
         0         0         0         0         0         0         0         0
         0         0         0         0         0         0         0         0
         0         0         0         0         0         0         0         0
         0         0         0         0         0         0         0         0
         0         0         0         0         0         0         0         0
         0         0         0         0         0         0         0         0
         0         0         0         0         0         0         0         0
         0         0         0         0         0         0         0         0
         0         0         0         0         0         0         0         0
         0         0         0         0         0         0         0         0
         0         0         0         0         0         0         0         0
         0         0         0         0         0         0         0         0
         0         0         0         0         0         0         0         0
         0         0         0         0         0         0         0         0
         0         0         0         0         0         0         0         0
         0         0         0         0         0         0         0         0
         0         0         0         0         0         0         0         0
         0         0         0         0         0         0         0         0
         0         0         0         0         0         0         0         0
         0         0         0         0         0         0         0         0
         0         0         0         0         0         0         0         0
         0         0         0         0         0         0         0         0
         0         0         0         0         0         0         0         0
         0         0         0         0         0         0         0         0
         0         0         0         0         0         0         0         0
         0         0         0         0         0         0         0         0
         0         0         0         0         0         0         0         0
         0         0         0         0         0         0         0         0
         0         0         0         0         0         0         0         0
         0         0         0         0         0         0         0         0
         0         0         0         0         0         0         0         0
         0         0         0         0         0         0         0         0
         0         0         0         0         0         0         0         0
         0         0         0         0         0         0         0         0
         0         0         0         0         0         0         0         0
         0         0         0         0         0         0         0         0
         0         0         0         0         0         0         0         0
         0         0         0         0         0         0         0         0
         0         0         0         0         0         0         0         0
         0         0         0         0         0         0         0         0
         0         0         0         0         0         0         0         0
         0         0         0         0         0         0         0         0
         0         0         0         0         0         0         0         0
         0         0         0         0         0         0         0         0
         0         0         0         0         0         0         0         0
         0         0         0         0         0         0         0         0
         0         0         0         0         0         0         0         0
         0         0         0         0         0         0         0         0
         0         0         0         0         0         0         0         0
         0         0         0         0         0         0         0         0
         0         0         0         0         0         0         0         0
         0         0         0         0         0         0         0         0
         0         0         0         0         0         0         0         0
         0         0         0         0         0         0         0         0
         0         0         0         0         0         0         0         0
         0         0         0         0         0         0         0         0
         0         0         0         0         0         0         0         0
         0         0         0         0         0         0         0         0
         0         0         0         0         0         0         0         0
         0         0         0         0         0         0         0         0
         0         0         0         0         0         0         0         0
         0         0         0         0         0         0         0         0
         0         0         0         0         0         0         0         0
         0         0         0         0         0         0         0         0
         0         0         0         0         0         0         0         0
         0         0         0         0         0         0         0         0
         0         0         0         0         0         0         0         0
         0         0         0         0         0         0         0         0
         0         0         0         0         0         0         0         0
         0         0         0         0         0         0         0         0
         0         0         0         0         0         0         0         0
         0         0         0         0         0         0         0         0
         0         0         0         0         0         0         0         0
         0         0         0         0         0         0         0         0
         0         0         0         0         0         0         0         0
         0         0         0         0         0         0         0         0
         0         0         0         0         0         0         0         0
         0         0         0         0         0         0         0         0
         0         0         0         0         0         0         0         0
         0         0         0         0         0         0         0         0
         0         0         0         0         0         0         0         0
         0         0         0         0         0         0         0         0
         0         0         0         0         0         0         0         0
         0         0         0         0         0         0         0         0
         0         0         0         0         0         0         0         0
         0         0         0         0         0         0         0         0
         0         0         0         0         0         0         0         0
         0         0         0         0         0         0         0         0
         0         0         0         0         0         0         0         0
         0         0         0         0         0         0         0         0
         0         0         0         0         0         0         0         0
         0         0         0         0         0         0         0         0
         0         0         0         0         0         0         0         0
         0         0         0         0         0         0         0         0
         0         0         0         0         0         0         0         0
         0         0         0         0         0         0         0         0
         0         0         0         0         0         0         0         0
         0         0         0         0         0         0         0         0
         0         0         0         0         0         0         0         0
         0         0         0         0         0         0         0         0
         0         0         0         0         0         0         0         0
         0         0         0         0         0         0         0         0
         0         0         0         0         0         0         0         0
         0         0         0         0         0         0         0         0
         0         0         0         0         0         0         0         0
         0         0         0         0         0         0         0         0
         0         0         0         0         0         0         0         0
         0         0         0         0         0         0         0         0
         0         0         0         0         0         0         0         0
         0         0         0         0         0         0         0         0
         0         0         0         0         0         0         0         0
         0         0         0         0         0         0         0         0
         0         0         0         0         0         0         0         0
         0         0         0         0         0         0         0         0
         0         0         0         0         0         0         0         0
         0         0         0         0         0         0         0         0
         0         0         0         0         0         0         0         0
         0         0         0         0         0         0         0         0
         0         0         0         0         0         0         0         0
         0         0         0         0         0         0         0         0
         0         0         0         0         0         0         0         0
         0         0         0         0         0         0         0         0
         0         0         0         0         0         0         0         0
         0         0         0         0         0         0         0         0
         0         0         0         0         0         0         0         0
         0         0         0         0         0         0         0         0
         0         0         0         0         0         0         0         0
         0         0         0         0         0         0         0         0
         0         0         0         0         0         0         0         0
         0         0         0         0         0         0         0         0
         0         0         0         0         0         0         0         0
         0         0         0         0         0         0         0         0
         0         0         0         0         0         0         0         0
         0         0         0         0         0         0         0         0
         0         0         0         0         0         0         0         0
         0         0         0         0         0         0         0         0
         0         0         0         0         0         0         0         0
         0         0         0         0         0         0         0         0
         0         0         0         0         0         0         0         0
         0         0         0         0         0         0         0         0
         0         0         0         0         0         0         0         0
         0         0         0         0         0         0         0         0
         0         0         0         0         0         0         0         0
         0         0         0         0         0         0         0         0
         0         0         0         0         0         0         0         0
         0         0         0         0         0         0         0         0
         0         0         0         0         0         0         0         0
         0         0         0         0         0         0         0         0
         0         0         0         0         0         0         0         0
         0         0         0         0         0         0         0         0
         0         0         0         0         0         0         0         0
         0         0         0         0         0         0         0         0
         0         0         0         0         0         0         0         0
         0         0         0         0         0         0         0         0
         0         0         0         0         0         0         0         0
         0         0         0         0         0         0         0         0
         0         0         0         0         0         0         0         0
         0         0         0         0         0         0         0         0
         0         0         0         0         0         0         0         0
         0         0         0         0         0         0         0         0
         0         0         0         0         0         0         0         0
         0         0         0         0         0         0         0         0
         0         0         0         0         0         0         0         0
         0         0         0         0         0         0         0         0
         0         0         0         0         0         0         0         0
         0         0         0         0         0         0         0         0
         0         0         0         0         0         0         0         0
         0         0         0         0         0         0         0         0
         0         0         0         0         0         0         0         0
         0         0         0         0         0         0         0         0
         0         0         0         0         0         0         0         0
         0         0         0         0         0         0         0         0
         0         0         0         0         0         0         0         0
         0         0         0         0         0         0         0         0
         0         0         0         0         0         0         0         0
         0         0         0         0         0         0         0         0
         0         0         0         0         0         0         0         0
         0         0         0         0         0         0         0         0
         0         0         0         0         0         0         0         0
         0         0         0         0         0         0         0         0
         0         0         0         0         0         0         0         0
         0         0         0         0         0         0         0         0
         0         0         0         0         0         0         0         0
         0         0         0         0         0         0         0         0
         0         0         0         0         0         0         0         0
         0         0         0         0         0         0         0         0
         0         0         0         0         0         0         0         0
         0         0         0         0         0         0         0         0
         0         0         0         0         0         0         0         0
         0         0         0         0         0         0         0         0
         0         0         0         0         0         0         0         0
         0         0         0         0         0         0         0         0
         0         0         0         0         0         0         0         0
         0         0         0         0         0         0         0         0
         0         0         0         0         0         0         0         0
         0         0         0         0         0         0         0         0
         0         0         0         0         0         0         0         0
         0         0         0         0         0         0         0         0
         0         0         0         0         0         0         0         0
         0         0         0         0         0         0         0         0
         0         0         0         0         0         0         0         0
         0         0         0         0         0         0         0         0
         0         0         0         0         0         0         0         0
         0         0         0         0         0         0         0         0
         0         0         0         0         0         0         0         0
         0         0         0         0         0         0         0         0
         0         0         0         0         0         0         0         0
         0         0         0         0         0         0         0         0
         0         0         0         0         0         0         0         0
         0         0         0         0         0         0         0         0
         0         0         0         0         0         0         0         0
         0         0         0         0         0         0         0         0
         0         0         0         0         0         0         0         0
         0         0         0         0         0         0         0         0
         0         0         0         0         0         0         0         0
         0         0         0         0         0         0         0         0
         0         0         0         0         0         0         0         0
         0         0         0         0         0         0         0         0
         0         0         0         0         0         0         0         0
         0         0         0         0         0         0         0         0
         0         0         0         0         0         0         0         0
         0         0         0         0         0         0         0         0
         0         0         0         0         0         0         0         0
         0         0         0         0         0         0         0         0
         0         0         0         0         0         0         0         0
         0         0         0         0         0         0         0         0
         0         0         0         0         0         0         0         0
         0         0         0         0         0         0         0         0
         0         0         0         0         0         0         0         0
         0         0         0         0         0         0         0         0
         0         0         0         0         0         0         0         0
         0         0         0         0         0         0         0         0
         0         0         0         0         0         0         0         0
         0         0         0         0         0         0         0         0
         0         0         0         0         0         0         0         0
         0         0         0         0         0         0         0         0
         0         0         0         0         0         0         0         0
         0         0         0         0         0         0         0         0
         0         0         0         0         0         0         0         0
         0         0         0         0         0         0         0         0
         0         0         0         0         0         0         0         0
         0         0         0         0         0         0         0         0
         0         0         0         0         0         0         0         0
         0         0         0         0         0         0         0         0
         0         0         0         0         0         0         0         0
         0         0         0         0         0         0         0         0
         0         0         0         0         0         0         0         0
         0         0         0         0         0         0         0         0
         0         0         0         0         0         0         0         0
         0         0         0         0         0         0         0         0
         0         0         0         0         0         0         0         0
         0         0         0         0         0         0         0         0
         0         0         0         0         0         0         0         0
         0         0         0         0         0         0         0         0
         0         0         0         0         0         0         0         0
         0         0         0         0         0         0         0         0
         0         0         0         0         0         0         0         0
         0         0         0         0         0         0         0         0
         0         0         0         0         0         0         0         0
         0         0         0         0         0         0         0         0
         0         0         0         0         0         0         0         0
         0         0         0         0         0         0         0         0
         0         0         0         0         0         0         0         0
         0         0         0         0         0         0         0         0
         0         0         0         0         0         0         0         0
         0         0         0         0         0         0         0         0
         0         0         0         0         0         0         0         0
         0         0         0         0         0         0         0         0
         0         0         0         0         0         0         0         0
         0         0         0         0         0         0         0         0
         0         0         0         0         0         0         0         0
         0         0         0         0         0         0         0         0
         0         0         0         0         0         0         0         0
         0         0         0         0         0         0         0         0
         0         0         0         0         0         0         0         0
         0         0         0         0         0         0         0         0
         0         0         0         0         0         0         0         0
         0         0         0         0         0         0         0         0
         0         0         0         0         0         0         0         0
         0         0         0         0         0         0         0         0
         0         0         0         0         0         0         0         0
         0         0         0         0         0         0         0         0
         0         0         0         0         0         0         0         0
         0         0         0         0         0         0         0         0
         0         0         0         0         0         0         0         0
         0         0         0         0         0         0         0         0
         0         0         0         0         0         0         0         0
         0         0         0         0         0         0         0         0
         0         0         0         0         0         0         0         0
         0         0         0         0         0         0         0         0
         0         0         0         0         0         0         0         0
         0         0         0         0         0         0         0         0
         0         0         0         0         0         0         0         0
         0         0         0         0         0         0         0         0
         0         0         0         0         0         0         0         0
         0         0         0         0         0         0         0         0
         0         0         0         0         0         0         0         0
         0         0         0         0         0         0         0         0
         0         0         0         0         0         0         0         0
         0         0         0         0         0         0         0         0
         0         0         0         0         0         0         0         0
         0         0         0         0         0         0         0         0
         0         0         0         0         0         0         0         0
         0         0         0         0         0         0         0         0
         0         0         0         0         0         0         0         0
         0         0         0         0         0         0         0         0
         0         0         0         0         0         0         0         0
         0         0         0         0         0         0         0         0
         0         0         0         0         0         0         0         0
         0         0         0         0         0         0         0         0
         0         0         0         0         0         0         0         0
         0         0         0         0         0         0         0         0
         0         0         0         0         0         0         0         0
         0         0         0         0         0         0         0         0
         0         0         0         0         0         0         0         0
         0         0         0         0         0         0         0         0
         0         0         0         0         0         0         0         0
         0         0         0         0         0         0         0         0
         0         0         0         0         0         0         0         0
         0         0         0         0         0         0         0         0
         0         0         0         0         0         0         0         0
         0         0         0         0         0         0         0         0
         0         0         0         0         0         0         0         0
         0         0         0         0         0         0         0         0
         0         0         0         0         0         0         0         0
         0         0         0         0         0         0         0         0
         0         0         0         0         0         0         0         0
         0         0         0         0         0         0         0         0
         0         0         0         0         0         0         0         0
         0         0         0         0         0         0         0         0
         0         0         0         0         0         0         0         0
         0         0         0         0         0         0         0         0
         0         0         0         0         0         0         0         0
         0         0         0         0         0         0         0         0
         0         0         0         0         0         0         0         0
         0         0         0         0         0         0         0         0
         0         0         0         0         0         0         0         0
         0         0         0         0         0         0         0         0
         0         0         0         0         0         0         0         0
         0         0         0         0         0         0         0         0
         0         0         0         0         0         0         0         0
         0         0         0         0         0         0         0         0
         0         0         0         0         0         0         0         0
         0         0         0         0         0         0         0         0
         0         0         0         0         0         0         0         0
         0         0         0         0         0         0         0         0
         0         0         0         0         0         0         0         0
         0         0         0         0         0         0         0         0
         0         0         0         0         0         0         0         0
         0         0         0         0         0         0         0         0
         0         0         0         0         0         0         0         0
         0         0         0         0         0         0         0         0
         0         0         0         0         0         0         0         0
         0         0         0         0         0         0         0         0
         0         0         0         0         0         0         0         0
         0         0         0         0         0         0         0         0
         0         0         0         0         0         0         0         0
         0         0         0         0         0         0         0         0
         0         0         0         0         0         0         0         0
         0         0         0         0         0         0         0         0
         0         0         0         0         0         0         0         0
         0         0         0         0         0         0         0         0
         0         0         0         0         0         0         0         0
         0         0         0         0         0         0         0         0
         0         0         0         0         0         0         0         0
         0         0         0         0         0         0         0         0
         0         0         0         0         0         0         0         0
         0         0         0         0         0         0         0         0
         0         0         0         0         0         0         0         0
         0         0         0         0         0         0         0         0
         0         0         0         0         0         0         0         0
         0         0         0         0         0         0         0         0
         0         0         0         0         0         0         0         0
         0         0         0         0         0         0         0         0
         0         0         0         0         0         0         0         0
         0         0         0         0         0         0         0         0
         0         0         0         0         0         0         0         0
         0         0         0         0         0         0         0         0
         0         0         0         0         0         0         0         0
         0         0         0         0         0         0         0         0
         0         0         0         0         0         0         0         0
         0         0         0         0         0         0         0         0
         0         0         0         0         0         0         0         0
         0         0         0         0         0         0         0         0
         0         0         0         0         0         0         0         0
         0         0         0         0         0         0         0         0
         0         0         0         0         0         0         0         0
         0         0         0         0         0         0         0         0
         0         0         0         0         0         0         0         0
         0         0         0         0         0         0         0         0
         0         0         0         0         0         0         0         0
         0         0         0         0         0         0         0         0
         0         0         0         0         0         0         0         0
         0         0         0         0         0         0         0         0
         0         0         0         0         0         0         0         0
         0         0         0         0         0         0         0         0
         0         0         0         0         0         0         0         0
         0         0         0         0         0         0         0         0
         0         0         0         0         0         0         0         0
         0         0         0         0         0         0         0         0
         0         0         0         0         0         0         0         0
         0         0         0         0         0         0         0         0
         0         0         0         0         0         0         0         0
         0         0         0         0         0         0         0         0
         0         0         0         0         0         0         0         0
         0         0         0         0         0         0         0         0
         0         0         0         0         0         0         0         0
         0         0         0         0         0         0         0         0
         0         0         0         0         0         0         0         0
         0         0         0         0         0         0         0         0
         0         0         0         0         0         0         0         0
         0         0         0         0         0         0         0         0
         0         0         0         0         0         0         0         0
         0         0         0         0         0         0         0         0
         0         0         0         0         0         0         0         0
         0         0         0         0         0         0         0         0
         0         0         0         0         0         0         0         0
         0         0         0         0         0         0         0         0
         0         0         0         0         0         0         0         0
         0         0         0         0         0         0         0         0
         0         0         0         0         0         0         0         0
         0         0         0         0         0         0         0         0
         0         0         0         0         0         0         0         0
         0         0         0         0         0         0         0         0
         0         0         0         0         0         0         0         0
         0         0         0         0         0         0         0         0
         0         0         0         0         0         0         0         0
         0         0         0         0         0         0         0         0
         0         0         0         0         0         0         0         0
         0         0         0         0         0         0         0         0
         0         0         0         0         0         0         0         0
         0         0         0         0         0         0         0         0
         0         0         0         0         0         0         0         0
         0         0         0         0         0         0         0         0
         0         0         0         0         0         0         0         0
         0         0         0         0         0         0         0         0
         0         0         0         0         0         0         0         0
         0         0         0         0         0         0         0         0
         0         0         0         0         0         0         0         0
         0         0         0         0         0         0         0         0
         0         0         0         0         0         0         0         0
         0         0         0         0         0         0         0         0
         0         0         0         0         0         0         0         0
         0         0         0         0         0         0         0         0
         0         0         0         0         0         0         0         0
         0         0         0         0         0         0         0         0
         0         0         0         0         0         0         0         0
         0         0         0         0         0         0         0         0
         0         0         0         0         0         0         0         0
         0         0         0         0         0         0         0         0
         0         0         0         0         0         0         0         0
         0         0         0         0         0         0         0         0
         0         0         0         0         0         0         0         0
         0         0         0         0         0         0         0         0
         0         0         0         0         0         0         0         0
         0         0         0         0         0         0         0         0
         0         0         0         0         0         0         0         0
         0         0         0         0         0         0         0         0
         0         0         0         0         0         0         0         0
         0         0         0         0         0         0         0         0
         0         0         0         0         0         0         0         0
         0         0         0         0         0         0         0         0
         0         0         0         0         0         0         0         0
         0         0         0         0         0         0         0         0
         0         0         0         0         0         0         0         0
         0         0         0         0         0         0         0         0
         0         0         0         0         0         0         0         0
         0         0         0         0         0         0         0         0
         0         0         0         0         0         0         0         0
         0         0         0         0         0         0         0         0
         0         0         0         0         0         0         0         0
         0         0         0         0         0         0         0         0
         0         0         0         0         0         0         0         0
         0         0         0         0         0         0         0         0
         0         0         0         0         0         0         0         0
         0         0         0         0         0         0         0         0
         0         0         0         0         0         0         0         0
         0         0         0         0         0         0         0         0
         0         0         0         0         0         0         0         0
         0         0         0         0         0         0         0         0
         0         0         0         0         0         0         0         0
         0         0         0         0         0         0         0         0
         0         0         0         0         0         0         0         0
         0         0         0         0         0         0         0         0
         0         0         0         0         0         0         0         0
         0         0         0         0         0         0         0         0
         0         0         0         0         0         0         0         0
         0         0         0         0         0         0         0         0
         0         0         0         0         0         0         0         0
         0         0         0         0         0         0         0         0
         0         0         0         0         0         0         0         0
         0         0         0         0         0         0         0         0
         0         0         0         0         0         0         0         0
         0         0         0         0         0         0         0         0
         0         0         0         0         0         0         0         0
         0         0         0         0         0         0         0         0
         0         0         0         0         0         0         0         0
         0         0         0         0         0         0         0         0
         0         0         0         0         0         0         0         0
         0         0         0         0         0         0         0         0
         0         0         0         0         0         0         0         0
         0         0         0         0         0         0         0         0
         0         0         0         0         0         0         0         0
         0         0         0         0         0         0         0         0
         0         0         0         0         0         0         0         0
         0         0         0         0         0         0         0         0
         0         0         0         0         0         0         0         0
         0         0         0         0         0         0         0         0
         0         0         0         0         0         0         0         0
         0         0         0         0         0         0         0         0
         0         0         0         0         0         0         0         0
         0         0         0         0         0         0         0         0
         0         0         0         0         0         0         0         0
         0         0         0         0         0         0         0         0
         0         0         0         0         0         0         0         0
         0         0         0         0         0         0         0         0
         0         0         0         0         0         0         0         0
         0         0         0         0         0         0         0         0
         0         0         0         0         0         0         0         0
         0         0         0         0         0         0         0         0
         0         0         0         0         0         0         0         0
         0         0         0         0         0         0         0         0
         0         0         0         0         0         0         0         0
         0         0         0         0         0         0         0         0
         0         0         0         0         0         0         0         0
         0         0         0         0         0         0         0         0
         0         0         0         0         0         0         0         0
         0         0         0         0         0         0         0         0
         0         0         0         0         0         0         0         0
         0         0         0         0         0         0         0         0
         0         0         0         0         0         0         0         0
         0         0         0         0         0         0         0         0
         0         0         0         0         0         0         0         0
         0         0         0         0         0         0         0         0
         0         0         0         0         0         0         0         0
         0         0         0         0         0         0         0         0
         0         0         0         0         0         0         0         0
         0         0         0         0         0         0         0         0
         0         0         0         0         0         0         0         0
         0         0         0         0         0         0         0         0
         0         0         0         0         0         0         0         0
         0         0         0         0         0         0         0         0
         0         0         0         0         0         0         0         0
         0         0         0         0         0         0         0         0
         0         0         0         0         0         0         0         0
         0         0         0         0         0         0         0         0
         0         0         0         0         0         0         0         0
         0         0         0         0         0         0         0         0
         0         0         0         0         0         0         0         0
         0         0         0         0         0         0         0         0
         0         0         0         0         0         0         0         0
         0         0         0         0         0         0         0         0
         0         0         0         0         0         0         0         0
         0         0         0         0         0         0         0         0
         0         0         0         0         0         0         0         0
         0         0         0         0         0         0         0         0
         0         0         0         0         0         0         0         0
         0         0         0         0         0         0         0         0
         0         0         0         0         0         0         0         0
         0         0         0         0         0         0         0         0
         0         0         0         0         0         0         0         0
         0         0         0         0         0         0         0         0
         0         0         0         0         0         0         0         0
         0         0         0         0         0         0         0         0
         0         0         0         0         0         0         0         0
         0         0         0         0         0         0         0         0
         0         0         0         0         0         0         0         0
         0         0         0         0         0         0         0         0
         0         0         0         0         0         0         0         0
         0         0         0         0         0         0         0         0
         0         0         0         0         0         0         0         0
         0         0         0         0         0         0         0         0
         0         0         0         0         0         0         0         0
         0         0         0         0         0         0         0         0
         0         0         0         0         0         0         0         0
         0         0         0         0         0         0         0         0
         0         0         0         0         0         0         0         0
         0         0         0         0         0         0         0         0
         0         0         0         0         0         0         0         0
         0         0         0         0         0         0         0         0
         0         0         0         0         0         0         0         0
         0         0         0         0         0         0         0         0
         0         0         0         0         0         0         0         0
         0         0         0         0         0         0         0         0
         0         0         0         0         0         0         0         0
         0         0         0         0         0         0         0         0
         0         0         0         0         0         0         0         0
         0         0         0         0         0         0         0         0
         0         0         0         0         0         0         0         0
         0         0         0         0         0         0         0         0
         0         0         0         0         0         0         0         0
         0         0         0         0         0         0         0         0
         0         0         0         0         0         0         0         0
         0         0         0         0         0         0         0         0
         0         0         0         0         0         0         0         0
         0         0         0         0         0         0         0         0
         0         0         0         0         0         0         0         0
         0         0         0         0         0         0         0         0
         0         0         0         0         0         0         0         0
         0         0         0         0         0         0         0         0
         0         0         0         0         0         0         0         0
         0         0         0         0         0         0         0         0
         0         0         0         0         0         0         0         0
         0         0         0         0         0         0         0         0
         0         0         0         0         0         0         0         0
         0         0         0         0         0         0         0         0
         0         0         0         0         0         0         0         0
         0         0         0         0         0         0         0         0
         0         0         0         0         0         0         0         0
         0         0         0         0         0         0         0         0
         0         0         0         0         0         0         0         0
         0         0         0         0         0         0         0         0
         0         0         0         0         0         0         0         0
         0         0         0         0         0         0         0         0
         0         0         0         0         0         0         0         0
         0         0         0         0         0         0         0         0
         0         0         0         0         0         0         0         0
         0         0         0         0         0         0         0         0
         0         0         0         0         0         0         0         0
         0         0         0         0         0         0         0         0
         0         0         0         0         0         0         0         0
         0         0         0         0         0         0         0         0
         0         0         0         0         0         0         0         0
         0         0         0         0         0         0         0         0
         0         0         0         0         0         0         0         0
         0         0         0         0         0         0         0         0
         0         0         0         0         0         0         0         0
         0         0         0         0         0         0         0         0
         0         0         0         0         0         0         0         0
         0         0         0         0         0         0         0         0
         0         0         0         0         0         0         0         0
         0         0         0         0         0         0         0         0
         0         0         0         0         0         0         0         0
         0         0         0         0         0         0         0         0
         0         0         0         0         0         0         0         0
         0         0         0         0         0         0         0         0
         0         0         0         0         0         0         0         0
         0         0         0         0         0         0         0         0
         0         0         0         0         0         0         0         0
         0         0         0         0         0         0         0         0
         0         0         0         0         0         0         0         0
         0         0         0         0         0         0         0         0
         0         0         0         0         0         0         0         0
         0         0         0         0         0         0         0         0
         0         0         0         0         0         0         0         0
         0         0         0         0         0         0         0         0
         0         0         0         0         0         0         0         0
         0         0         0         0         0         0         0         0
         0         0         0         0         0         0         0         0
         0         0         0         0         0         0         0         0
         0         0         0         0         0         0         0         0
         0         0         0         0         0         0         0         0
         0         0         0         0         0         0         0         0
         0         0         0         0         0         0         0         0
         0         0         0         0         0         0         0         0
         0         0         0         0         0         0         0         0
         0         0         0         0         0         0         0         0
         0         0         0         0         0         0         0         0
         0         0         0         0         0         0         0         0
         0         0         0         0         0         0         0         0
         0         0         0         0         0         0         0         0
         0         0         0         0         0         0         0         0
         0         0         0         0         0         0         0         0
         0         0         0         0         0         0         0         0
         0         0         0         0         0         0         0         0
         0         0         0         0         0         0         0         0
         0         0         0         0         0         0         0         0
         0         0         0         0         0         0         0         0
         0         0         0         0         0         0         0         0
         0         0         0         0         0         0         0         0
         0         0         0         0         0         0         0         0
         0         0         0         0         0         0         0         0
         0         0         0         0         0         0         0         0
         0         0         0         0         0         0         0         0
         0         0         0         0         0         0         0         0
         0         0         0         0         0         0         0         0
         0         0         0         0         0         0         0         0
         0         0         0         0         0         0         0         0
         0         0         0         0         0         0         0         0
         0         0         0         0         0         0         0         0
         0         0         0         0         0         0         0         0
         0         0         0         0         0         0         0         0
         0         0         0         0         0         0         0         0
         0         0         0         0         0         0         0         0
         0         0         0         0         0         0         0         0
         0         0         0         0         0         0         0         0
         0         0         0         0         0         0         0         0
         0         0         0         0         0         0         0         0
         0         0         0         0         0         0         0         0
         0         0         0         0         0         0         0         0
         0         0         0         0         0         0         0         0
         0         0         0         0         0         0         0         0
         0         0         0         0         0         0         0         0
         0         0         0         0         0         0         0         0
         0         0         0         0         0         0         0         0
         0         0         0         0         0         0         0         0
         0         0         0         0         0         0         0         0
         0         0         0         0         0         0         0         0
         0         0         0         0         0         0         0         0
         0         0         0         0         0         0         0         0
         0         0         0         0         0         0         0         0
         0         0         0         0         0         0         0         0
         0         0         0         0         0         0         0         0
         0         0         0         0         0         0         0         0
         0         0         0         0         0         0         0         0
         0         0         0         0         0         0         0         0
         0         0         0         0         0         0         0         0
         0         0         0         0         0         0         0         0
         0         0         0         0         0         0         0         0
         0         0         0         0         0         0         0         0
         0         0         0         0         0         0         0         0
         0         0         0         0         0         0         0         0
         0         0         0         0         0         0         0         0
         0         0         0         0         0         0         0         0
         0         0         0         0         0         0         0         0
         0         0         0         0         0         0         0         0
         0         0         0         0         0         0         0         0
         0         0         0         0         0         0         0         0
         0         0         0         0         0         0         0         0
         0         0         0         0         0         0         0         0
         0         0         0         0         0         0         0         0
         0         0         0         0         0         0         0         0
         0         0         0         0         0         0         0         0
         0         0         0         0         0         0         0         0
         0         0         0         0         0         0         0         0
         0         0         0         0         0         0         0         0
         0         0         0         0         0         0         0         0
         0         0         0         0         0         0         0         0
         0         0         0         0         0         0         0         0
         0         0         0         0         0         0         0         0
         0         0         0         0         0         0         0         0
         0         0         0         0         0         0         0         0
         0         0         0         0         0         0         0         0
         0         0         0         0         0         0         0         0
         0         0         0         0         0         0         0         0
         0         0         0         0         0         0         0         0
         0         0         0         0         0         0         0         0
         0         0         0         0         0         0         0         0
         0         0         0         0         0         0         0         0
         0         0         0         0         0         0         0         0
         0         0         0         0         0         0         0         0
         0         0         0         0         0         0         0         0
         0         0         0         0         0         0         0         0
         0         0         0         0         0         0         0         0
         0         0         0         0         0         0         0         0
         0         0         0         0         0         0         0         0
         0         0         0         0         0         0         0         0
         0         0         0         0         0         0         0         0
         0         0         0         0         0         0         0         0
         0         0         0         0         0         0         0         0
         0         0         0         0         0         0         0         0
         0         0         0         0         0         0         0         0
         0         0         0         0         0         0         0         0
         0         0         0         0         0         0         0         0
         0         0         0         0         0         0         0         0
         0         0         0         0         0         0         0         0
         0         0         0         0         0         0         0         0
         0         0         0         0         0         0         0         0
         0         0         0         0         0         0         0         0
         0         0         0         0         0         0         0         0
         0         0         0         0         0         0         0         0
         0         0         0         0         0         0         0         0
         0         0         0         0         0         0         0         0
         0         0         0         0         0         0         0         0
         0         0         0         0         0         0         0         0
         0         0         0         0         0         0         0         0
         0         0         0         0         0         0         0         0
         0         0         0         0         0         0         0         0
         0         0         0         0         0         0         0         0
         0         0         0         0         0         0         0         0
         0         0         0         0         0         0         0         0
         0         0         0         0         0         0         0         0
         0         0         0         0         0         0         0         0
         0         0         0         0         0         0         0         0
         0         0         0         0         0         0         0         0
         0         0         0         0         0         0         0         0
         0         0         0         0         0         0         0         0
         0         0         0         0         0         0         0         0
         0         0         0         0         0         0         0         0
         0         0         0         0         0         0         0         0
         0         0         0         0         0         0         0         0
         0         0         0         0         0         0         0         0
         0         0         0         0         0         0         0         0
         0         0         0         0         0         0         0         0
         0         0         0         0         0         0         0         0
         0         0         0         0         0         0         0         0
         0         0         0         0         0         0         0         0
         0         0         0         0         0         0         0         0
         0         0         0         0         0         0         0         0
         0         0         0         0         0         0         0         0
         0         0         0         0         0         0         0         0
         0         0         0         0         0         0         0         0
         0         0         0         0         0         0         0         0
         0         0         0         0         0         0         0         0
         0         0         0         0         0         0         0         0
         0         0         0         0         0         0         0         0
         0         0         0         0         0         0         0         0
         0         0         0         0         0         0         0         0
         0         0         0         0         0         0         0         0
         0         0         0         0         0         0         0         0
         0         0         0         0         0         0         0         0
         0         0         0         0         0         0         0         0
         0         0         0         0         0         0         0         0
         0         0         0         0         0         0         0         0
         0         0         0         0         0         0         0         0
         0         0         0         0         0         0         0         0
         0         0         0         0         0         0         0         0
         0         0         0         0         0         0         0         0
         0         0         0         0         0         0         0         0
         0         0         0         0         0         0         0         0
         0         0         0         0         0         0         0         0
         0         0         0         0         0         0         0         0
         0         0         0         0         0         0         0         0
         0         0         0         0         0         0         0         0
         0         0         0         0         0         0         0         0
         0         0         0         0         0         0         0         0
         0         0         0         0         0         0         0         0
         0         0         0         0         0         0         0         0
         0         0         0         0         0         0         0         0
         0         0         0         0         0         0         0         0
         0         0         0         0         0         0         0         0
         0         0         0         0         0         0         0         0
         0         0         0         0         0         0         0         0
         0         0         0         0         0         0         0         0
         0         0         0         0         0         0         0         0
         0         0         0         0         0         0         0         0
         0         0         0         0         0         0         0         0
         0         0         0         0         0         0         0         0
         0         0         0         0         0         0         0         0
         0         0         0         0         0         0         0         0
         0         0         0         0         0         0         0         0
         0         0         0         0         0         0         0         0
         0         0         0         0         0         0         0         0
         0         0         0         0         0         0         0         0
         0         0         0         0         0         0         0         0
         0         0         0         0         0         0         0         0
         0         0         0         0         0         0         0         0
         0         0         0         0         0         0         0         0
         0         0         0         0         0         0         0         0
         0         0         0         0         0         0         0         0
         0         0         0         0         0         0         0         0
         0         0         0         0         0         0         0         0
         0         0         0         0         0         0         0         0
         0         0         0         0         0         0         0         0
         0         0         0         0         0         0         0         0
         0         0         0         0         0         0         0         0
         0         0         0         0         0         0         0         0
         0         0         0         0         0         0         0         0
         0         0         0         0         0         0         0         0
         0         0         0         0         0         0         0         0
         0         0         0         0         0         0         0         0
         0         0         0         0         0         0         0         0
         0         0         0         0         0         0         0         0
         0         0         0         0         0         0         0         0
         0         0         0         0         0         0         0         0
         0         0         0         0         0         0         0         0
         0         0         0         0         0         0         0         0
         0         0         0         0         0         0         0         0
         0         0         0         0         0         0         0         0
         0         0         0         0         0         0         0         0
         0         0         0         0         0         0         0         0
         0         0         0         0         0         0         0         0
         0         0         0         0         0         0         0         0
         0         0         0         0         0         0         0         0
         0         0         0         0         0         0         0         0
         0         0         0         0         0         0         0         0
         0         0         0         0         0         0         0         0
         0         0         0         0         0         0         0         0
         0         0         0         0         0         0         0         0
         0         0         0         0         0         0         0         0
         0         0         0         0         0         0         0         0
         0         0         0         0         0         0         0         0
         0         0         0         0         0         0         0         0
         0         0         0         0         0         0         0         0
         0         0         0         0         0         0         0         0
         0         0         0         0         0         0         0         0
         0         0         0         0         0         0         0         0
         0         0         0         0         0         0         0         0
         0         0         0         0         0         0         0         0
         0         0         0         0         0         0         0         0
         0         0         0         0         0         0         0         0
         0         0         0         0         0         0         0         0
         0         0         0         0         0         0         0         0
         0         0         0         0         0         0         0         0
         0         0         0         0         0         0         0         0
         0         0         0         0         0         0         0         0
         0         0         0         0         0         0         0         0
         0         0         0         0         0         0         0         0
         0         0         0         0         0         0         0         0
         0         0         0         0         0         0         0         0
         0         0         0         0         0         0         0         0
         0         0         0         0         0         0         0         0
         0         0         0         0         0         0         0         0
         0         0         0         0         0         0         0         0
         0         0         0         0         0         0         0         0
         0         0         0         0         0         0         0         0
         0         0         0         0         0         0         0         0
         0         0         0         0         0         0         0         0
         0         0         0         0         0         0         0         0
         0         0         0         0         0         0         0         0
         0         0         0         0         0         0         0         0
         0         0         0         0         0         0         0         0
         0         0         0         0         0         0         0         0
         0         0         0         0         0         0         0         0
         0         0         0         0         0         0         0         0
         0         0         0         0         0         0         0         0
         0         0         0         0         0         0         0         0
         0         0         0         0         0         0         0         0
         0         0         0         0         0         0         0         0
         0         0         0         0         0         0         0         0
         0         0         0         0         0         0         0         0
         0         0         0         0         0         0         0         0
         0         0         0         0         0         0         0         0
         0         0         0         0         0         0         0         0
         0         0         0         0         0         0         0         0
         0         0         0         0         0         0         0         0
         0         0         0         0         0         0         0         0
         0         0         0         0         0         0         0         0
         0         0         0         0         0         0         0         0
         0         0         0         0         0         0         0         0
         0         0         0         0         0         0         0         0
         0         0         0         0         0         0         0         0
         0         0         0         0         0         0         0         0
         0         0         0         0         0         0         0         0
         0         0         0         0         0         0         0         0
         0         0         0         0         0         0         0         0
         0         0         0         0         0         0         0         0
         0         0         0         0         0         0         0         0
         0         0         0         0         0         0         0         0
         0         0         0         0         0         0         0         0
         0         0         0         0         0         0         0         0
         0         0         0         0         0         0         0         0
         0         0         0         0         0         0         0         0
         0         0         0         0         0         0         0         0
         0         0         0         0         0         0         0         0
         0         0         0         0         0         0         0         0
         0         0         0         0         0         0         0         0
         0         0         0         0         0         0         0         0
         0         0         0         0         0         0         0         0
         0         0         0         0         0         0         0         0
         0         0         0         0         0         0         0         0
         0         0         0         0         0         0         0         0
         0         0         0         0         0         0         0         0
         0         0         0         0         0         0         0         0
         0         0         0         0         0         0         0         0
         0         0         0         0         0         0         0         0
         0         0         0         0         0         0         0         0
         0         0         0         0         0         0         0         0
         0         0         0         0         0         0         0         0
         0         0         0         0         0         0         0         0
         0         0         0         0         0         0         0         0
         0         0         0         0         0         0         0         0
         0         0         0         0         0         0         0         0
         0         0         0         0         0         0         0         0
         0         0         0         0         0         0         0         0
         0         0         0         0         0         0         0         0
         0         0         0         0         0         0         0         0
         0         0         0         0         0         0         0         0
         0         0         0         0         0         0         0         0
         0         0         0         0         0         0         0         0
         0         0         0         0         0         0         0         0
         0         0         0         0         0         0         0         0
         0         0         0         0         0         0         0         0
         0         0         0         0         0         0         0         0
         0         0         0         0         0         0         0         0
         0         0         0         0         0         0         0         0
         0         0         0         0         0         0         0         0
         0         0         0         0         0         0         0         0
         0         0         0         0         0         0         0         0
         0         0         0         0         0         0         0         0
         0         0         0         0         0         0         0         0
         0         0         0         0         0         0         0         0
         0         0         0         0         0         0         0         0
         0         0         0         0         0         0         0         0
         0         0         0         0         0         0         0         0
         0         0         0         0         0         0         0         0
         0         0         0         0         0         0         0         0
         0         0         0         0         0         0         0         0
         0         0         0         0         0         0         0         0
         0         0         0         0         0         0         0         0
         0         0         0         0         0         0         0         0
         0         0         0         0         0         0         0         0
         0         0         0         0         0         0         0         0
         0         0         0         0         0         0         0         0
         0         0         0         0         0         0         0         0
         0         0         0         0         0         0         0         0
         0         0         0         0         0         0         0         0
         0         0         0         0         0         0         0         0
         0         0         0         0         0         0         0         0
         0         0         0         0         0         0         0         0
         0         0         0         0         0         0         0         0
         0         0         0         0         0         0         0         0
         0         0         0         0         0         0         0         0
         0         0         0         0         0         0         0         0
         0         0         0         0         0         0         0         0
         0         0         0         0         0         0         0         0
         0         0         0         0         0         0         0         0
         0         0         0         0         0         0         0         0
         0         0         0         0         0         0         0         0
         0         0         0         0         0         0         0         0
         0         0         0         0         0         0         0         0
         0         0         0         0         0         0         0         0
         0         0         0         0         0         0         0         0
         0         0         0         0         0         0         0         0
         0         0         0         0         0         0         0         0
         0         0         0         0         0         0         0         0
         0         0         0         0         0         0         0         0
         0         0         0         0         0         0         0         0
         0         0         0         0         0         0         0         0
         0         0         0         0         0         0         0         0
         0         0         0         0         0         0         0         0
         0         0         0         0         0         0         0         0
         0         0         0         0         0         0         0         0
         0         0         0         0         0         0         0         0
         0         0         0         0         0         0         0         0
         0         0         0         0         0         0         0         0
         0         0         0         0         0         0         0         0
         0         0         0         0         0         0         0         0
         0         0         0         0         0         0         0         0
         0         0         0         0         0         0         0         0
         0         0         0         0         0         0         0         0
         0         0         0         0         0         0         0         0
         0         0         0         0         0         0         0         0
         0         0         0         0         0         0         0         0
         0         0         0         0         0         0         0         0
         0         0         0         0         0         0         0         0
         0         0         0         0         0         0         0         0
         0         0         0         0         0         0         0         0
         0         0         0         0         0         0         0         0
         0         0         0         0         0         0         0         0
         0         0         0         0         0         0         0         0
         0         0         0         0         0         0         0         0
         0         0         0         0         0         0         0         0
         0         0         0         0         0         0         0         0
         0         0         0         0         0         0         0         0
         0         0         0         0         0         0         0         0
         0         0         0         0         0         0         0         0
         0         0         0         0         0         0         0         0
         0         0         0         0         0         0         0         0
         0         0         0         0         0         0         0         0
         0         0         0         0         0         0         0         0
         0         0         0         0         0         0         0         0
         0         0         0         0         0         0         0         0
         0         0         0         0         0         0         0         0
         0         0         0         0         0         0         0         0
         0         0         0         0         0         0         0         0
         0         0         0         0         0         0         0         0
         0         0         0         0         0         0         0         0
         0         0         0         0         0         0         0         0
         0         0         0         0         0         0         0         0
         0         0         0         0         0         0         0         0
         0         0         0         0         0         0         0         0
         0         0         0         0         0         0         0         0
         0         0         0         0         0         0         0         0
         0         0         0         0         0         0         0         0
         0         0         0         0         0         0         0         0
         0         0         0         0         0         0         0         0
         0         0         0         0         0         0         0         0
         0         0         0         0         0         0         0         0
         0         0         0         0         0         0         0         0
         0         0         0         0         0         0         0         0
         0         0         0         0         0         0         0         0
         0         0         0         0         0         0         0         0
         0         0         0         0         0         0         0         0
         0         0         0         0         0         0         0         0
         0         0         0         0         0         0         0         0
         0         0         0         0         0         0         0         0
         0         0         0         0         0         0         0         0
         0         0         0         0         0         0         0         0
         0         0         0         0         0         0         0         0
         0         0         0         0         0         0         0         0
         0         0         0         0         0         0         0         0
         0         0         0         0         0         0         0         0
         0         0         0         0         0         0         0         0
         0         0         0         0         0         0         0         0
         0         0         0         0         0         0         0         0
         0         0         0         0         0         0         0         0
         0         0         0         0         0         0         0         0
         0         0         0         0         0         0         0         0
         0         0         0         0         0         0         0         0
         0         0         0         0         0         0         0         0
         0         0         0         0         0         0         0         0
         0         0         0         0         0         0         0         0
         0         0         0         0         0         0         0         0
         0         0         0         0         0         0         0         0
         0         0         0         0         0         0         0         0
         0         0         0         0         0         0         0         0
         0         0         0         0         0         0         0         0
         0         0         0         0         0         0         0         0
         0         0         0         0         0         0         0         0
         0         0         0         0         0         0         0         0
         0         0         0         0         0         0         0         0
         0         0         0         0         0         0         0         0
         0         0         0         0         0         0         0         0
         0         0         0         0         0         0         0         0
         0         0         0         0         0         0         0         0
         0         0         0         0         0         0         0         0
         0         0         0         0         0         0         0         0
         0         0         0         0         0         0         0         0
         0         0         0         0         0         0         0         0
         0         0         0         0         0         0         0         0
         0         0         0         0         0         0         0         0
         0         0         0         0         0         0         0         0
         0         0         0         0         0         0         0         0
         0         0         0         0         0         0         0         0
         0         0         0         0         0         0         0         0
         0         0         0         0         0         0         0         0
         0         0         0         0         0         0         0         0
         0         0         0         0         0         0         0         0
         0         0         0         0         0         0         0         0
         0         0         0         0         0         0         0         0
         0         0         0         0         0         0         0         0
         0         0         0         0         0         0         0         0
         0         0         0         0         0         0         0         0
         0         0         0         0         0         0         0         0
         0         0         0         0         0         0         0         0
         0         0         0         0         0         0         0         0
         0         0         0         0         0         0         0         0
         0         0         0         0         0         0         0         0
         0         0         0         0         0         0         0         0
         0         0         0         0         0         0         0         0
         0         0         0         0         0         0         0         0
         0         0         0         0         0         0         0         0
         0         0         0         0         0         0         0         0
         0         0         0         0         0         0         0         0
         0         0         0         0         0         0         0         0
         0         0         0         0         0         0         0         0
         0         0         0         0         0         0         0         0
         0         0         0         0         0         0         0         0
         0         0         0         0         0         0         0         0
         0         0         0         0         0         0         0         0
         0         0         0         0         0         0         0         0
         0         0         0         0         0         0         0         0
         0         0         0         0         0         0         0         0
         0         0         0         0         0         0         0         0
         0         0         0         0         0         0         0         0
         0         0         0         0         0         0         0         0
         0         0         0         0         0         0         0         0
         0         0         0         0         0         0         0         0
         0         0         0         0         0         0         0         0
         0         0         0         0         0         0         0         0
         0         0         0         0         0         0         0         0
         0         0         0         0         0         0         0         0
         0         0         0         0         0         0         0         0
         0         0         0         0         0         0         0         0
         0         0         0         0         0         0         0         0
         0         0         0         0         0         0         0         0
         0         0         0         0         0         0         0         0
         0         0         0         0         0         0         0         0
         0         0         0         0         0         0         0         0
         0         0         0         0         0         0         0         0
         0         0         0         0         0         0         0         0
         0         0         0         0         0         0         0         0
         0         0         0         0         0         0         0         0
         0         0         0         0         0         0         0         0
         0         0         0         0         0         0         0         0
         0         0         0         0         0         0         0         0
         0         0         0         0         0         0         0         0
         0         0         0         0         0         0         0         0
         0         0         0         0         0         0         0         0
         0         0         0         0         0         0         0         0
         0         0         0         0         0         0         0         0
         0         0         0         0         0         0         0         0
         0         0         0         0         0         0         0         0
         0         0         0         0         0         0         0         0
         0         0         0         0         0         0         0         0
         0         0         0         0         0         0         0         0
         0         0         0         0         0         0         0         0
         0         0         0         0         0         0         0         0
         0         0         0         0         0         0         0         0
         0         0         0         0         0         0         0         0
         0         0         0         0         0         0         0         0
         0         0         0         0         0         0         0         0
         0         0         0         0         0         0         0         0
         0         0         0         0         0         0         0         0
         0         0         0         0         0         0         0         0
         0         0         0         0         0         0         0         0
         0         0         0         0         0         0         0         0
         0         0         0         0         0         0         0         0
         0         0         0         0         0         0         0         0
         0         0         0         0         0         0         0         0
         0         0         0         0         0         0         0         0
         0         0         0         0         0         0         0         0
         0         0         0         0         0         0         0         0
         0         0         0         0         0         0         0         0
         0         0         0         0         0         0         0         0
         0         0         0         0         0         0         0         0
         0         0         0         0         0         0         0         0
         0         0         0         0         0         0         0         0
         0         0         0         0         0         0         0         0
         0         0         0         0         0         0         0         0
         0         0         0         0         0         0         0         0
         0         0         0         0         0         0         0         0
         0         0         0         0         0         0         0         0
         0         0         0         0         0         0         0         0
         0         0         0         0         0         0         0         0
         0         0         0         0         0         0         0         0
         0         0         0         0         0         0         0         0
         0         0         0         0         0         0         0         0
         0         0         0         0         0         0         0         0
         0         0         0         0         0         0         0         0
         0         0         0         0         0         0         0         0
         0         0         0         0         0         0         0         0
         0         0         0         0         0         0         0         0
         0         0         0         0         0         0         0         0
         0         0         0         0         0         0         0         0
         0         0         0         0         0         0         0         0
         0         0         0         0         0         0         0         0
         0         0         0         0         0         0         0         0
         0         0         0         0         0         0         0         0
         0         0         0         0         0         0         0         0
         0         0         0         0         0         0         0         0
         0         0         0         0         0         0         0         0
         0         0         0         0         0         0         0         0
         0         0         0         0         0         0         0         0
         0         0         0         0         0         0         0         0
         0         0         0         0         0         0         0         0
         0         0         0         0         0         0         0         0
         0         0         0         0         0         0         0         0
         0         0         0         0         0         0         0         0
         0         0         0         0         0         0         0         0
         0         0         0         0         0         0         0         0
         0         0         0         0         0         0         0         0
         0         0         0         0         0         0         0         0
         0         0         0         0         0         0         0         0
         0         0         0         0         0         0         0         0
         0         0         0         0         0         0         0         0
         0         0         0         0         0         0         0         0
         0         0         0         0         0         0         0         0
         0         0         0         0         0         0         0         0
         0         0         0         0         0         0         0         0
         0         0         0         0         0         0         0         0
         0         0         0         0         0         0         0         0
         0         0         0         0         0         0         0         0
         0         0         0         0         0         0         0         0
         0         0         0         0         0         0         0         0
         0         0         0         0         0         0         0         0
         0         0         0         0         0         0         0         0
         0         0         0         0         0         0         0         0
         0         0         0         0         0         0         0         0
         0         0         0         0         0         0         0         0
         0         0         0         0         0         0         0         0
         0         0         0         0         0         0         0         0
         0         0         0         0         0         0         0         0
         0         0         0         0         0         0         0         0
         0         0         0         0         0         0         0         0
         0         0         0         0         0         0         0         0
         0         0         0         0         0         0         0         0
         0         0         0         0         0         0         0         0
         0         0         0         0         0         0         0         0
         0         0         0         0         0         0         0         0
         0         0         0         0         0         0         0         0
         0         0         0         0         0         0         0         0
         0         0         0         0         0         0         0         0
         0         0         0         0         0         0         0         0
         0         0         0         0         0         0         0         0
         0         0         0         0         0         0         0         0
         0         0         0         0         0         0         0         0
         0         0         0         0         0         0         0         0
         0         0         0         0         0         0         0         0
         0         0         0         0         0         0         0         0
         0         0         0         0         0         0         0         0
         0         0         0         0         0         0         0         0
         0         0         0         0         0         0         0         0
         0         0         0         0         0         0         0         0
         0         0         0         0         0         0         0         0
         0         0         0         0         0         0         0         0
         0         0         0         0         0         0         0         0
         0         0         0         0         0         0         0         0
         0         0         0         0         0         0         0         0
         0         0         0         0         0         0         0         0
         0         0         0         0         0         0         0         0
         0         0         0         0         0         0         0         0
         0         0         0         0         0         0         0         0
         0         0         0         0         0         0         0         0
         0         0         0         0         0         0         0         0
         0         0         0         0         0         0         0         0
         0         0         0         0         0         0         0         0
         0         0         0         0         0         0         0         0
         0         0         0         0         0         0         0         0
         0         0         0         0         0         0         0         0
         0         0         0         0         0         0         0         0
         0         0         0         0         0         0         0         0
         0         0         0         0         0         0         0         0
         0         0         0         0         0         0         0         0
         0         0         0         0         0         0         0         0
         0         0         0         0         0         0         0         0
         0         0         0         0         0         0         0         0
         0         0         0         0         0         0         0         0
         0         0         0         0         0         0         0         0
         0         0         0         0         0         0         0         0
         0         0         0         0         0         0         0         0
         0         0         0         0         0         0         0         0
         0         0         0         0         0         0         0         0
         0         0         0         0         0         0         0         0
         0         0         0         0         0         0         0         0
         0         0         0         0         0         0         0         0
         0         0         0         0         0         0         0         0
         0         0         0         0         0         0         0         0
         0         0         0         0         0         0         0         0
         0         0         0         0         0         0         0         0
         0         0         0         0         0         0         0         0
         0         0         0         0         0         0         0         0
         0         0         0         0         0         0         0         0
         0         0         0         0         0         0         0         0
         0         0         0         0         0         0         0         0
         0         0         0         0         0         0         0         0
         0         0         0         0         0         0         0         0
         0         0         0         0         0         0         0         0
         0         0         0         0         0         0         0         0
         0         0         0         0         0         0         0         0
         0         0         0         0         0         0         0         0
         0         0         0         0         0         0         0         0
         0         0         0         0         0         0         0         0
         0         0         0         0         0         0         0         0
         0         0         0         0         0         0         0         0
         0         0         0         0         0         0         0         0
         0         0         0         0         0         0         0         0
         0         0         0         0         0         0         0         0
         0         0         0         0         0         0         0         0
         0         0         0         0         0         0         0         0
         0         0         0         0         0         0         0         0
         0         0         0         0         0         0         0         0
         0         0         0         0         0         0         0         0
         0         0         0         0         0         0         0         0
         0         0         0         0         0         0         0         0
         0         0         0         0         0         0         0         0
         0         0         0         0         0         0         0         0
         0         0         0         0         0         0         0         0
         0         0         0         0         0         0         0         0
         0         0         0         0         0         0         0         0
         0         0         0         0         0         0         0         0
         0         0         0         0         0         0         0         0
         0         0         0         0         0         0         0         0
         0         0         0         0         0         0         0         0
         0         0         0         0         0         0         0         0
         0         0         0         0         0         0         0         0
         0         0         0         0         0         0         0         0
         0         0         0         0         0         0         0         0
         0         0         0         0         0         0         0         0
         0         0         0         0         0         0         0         0
         0         0         0         0         0         0         0         0
         0         0         0         0         0         0         0         0
         0         0         0         0         0         0         0         0
         0         0         0         0         0         0         0         0
         0         0         0         0         0         0         0         0
         0         0         0         0         0         0         0         0
         0         0         0         0         0         0         0         0
         0         0         0         0         0         0         0         0
         0         0         0         0         0         0         0         0
         0         0         0         0         0         0         0         0
         0         0         0         0         0         0         0         0
         0         0         0         0         0         0         0         0
         0         0         0         0         0         0         0         0
         0         0         0         0         0         0         0         0
         0         0         0         0         0         0         0         0
         0         0         0         0         0         0         0         0
         0         0         0         0         0         0         0         0
         0         0         0         0         0         0         0         0
         0         0         0         0         0         0         0         0
         0         0         0         0         0         0         0         0
         0         0         0         0         0         0         0         0
         0         0         0         0         0         0         0         0
         0         0         0         0         0         0         0         0
         0         0         0         0         0         0         0         0
         0         0         0         0         0         0         0         0
         0         0         0         0         0         0         0         0
         0         0         0         0         0         0         0         0
         0         0         0         0         0         0         0         0
         0         0         0         0         0         0         0         0
         0         0         0         0         0         0         0         0
         0         0         0         0         0         0         0         0
         0         0         0         0         0         0         0         0
         0         0         0         0         0         0         0         0
         0         0         0         0         0         0         0         0
         0         0         0         0         0         0         0         0
         0         0         0         0         0         0         0         0
         0         0         0         0         0         0         0         0
         0         0         0         0         0         0         0         0
         0         0         0         0         0         0         0         0
         0         0         0         0         0         0         0         0
         0         0         0         0         0         0         0         0
         0         0         0         0         0         0         0         0
         0         0         0         0         0         0         0         0
         0         0         0         0         0         0         0         0
         0         0         0         0         0         0         0         0
         0         0         0         0         0         0         0         0
         0         0         0         0         0         0         0         0
         0         0         0         0         0         0         0         0
         0         0         0         0         0         0         0         0
         0         0         0         0         0         0         0         0
         0         0         0         0         0         0         0         0
         0         0         0         0         0         0         0         0
         0         0         0         0         0         0         0         0
         0         0         0         0         0         0         0         0
         0         0         0         0         0         0         0         0
         0         0         0         0         0         0         0         0
         0         0         0         0         0         0         0         0
         0         0         0         0         0         0         0         0
         0         0         0         0         0         0         0         0
         0         0         0         0         0         0         0         0
         0         0         0         0         0         0         0         0
         0         0         0         0         0         0         0         0
         0         0         0         0         0         0         0         0
         0         0         0         0         0         0         0         0
         0         0         0         0         0         0         0         0
         0         0         0         0         0         0         0         0
         0         0         0         0         0         0         0         0
         0         0         0         0         0         0         0         0
         0         0         0         0         0         0         0         0
         0         0         0         0         0         0         0         0
         0         0         0         0         0         0         0         0
         0         0         0         0         0         0         0         0
         0         0         0         0         0         0         0         0
         0         0         0         0         0         0         0         0
         0         0         0         0         0         0         0         0
         0         0         0         0         0         0         0         0
         0         0         0         0         0         0         0         0
         0         0         0         0         0         0         0         0
         0         0         0         0         0         0         0         0
         0         0         0         0         0         0         0         0
         0         0         0         0         0         0         0         0
         0         0         0         0         0         0         0         0
         0         0         0         0         0         0         0         0
         0         0         0         0         0         0         0         0
         0         0         0         0         0         0         0         0
         0         0         0         0         0         0         0         0
         0         0         0         0         0         0         0         0
         0         0         0         0         0         0         0         0
         0         0         0         0         0         0         0         0
         0         0         0         0         0         0         0         0
         0         0         0         0         0         0         0         0
         0         0         0         0         0         0         0         0
         0         0         0         0         0         0         0         0
         0         0         0         0         0         0         0         0
         0         0         0         0         0         0         0         0
         0         0         0         0         0         0         0         0
         0         0         0         0         0         0         0         0
         0         0         0         0         0         0         0         0
         0         0         0         0         0         0         0         0
         0         0         0         0         0         0         0         0
         0         0         0         0         0         0         0         0
         0         0         0         0         0         0         0         0
         0         0         0         0         0         0         0         0
         0         0         0         0         0         0         0         0
         0         0         0         0         0         0         0         0
         0         0         0         0         0         0         0         0
         0         0         0         0         0         0         0         0
         0         0         0         0         0         0         0         0
         0         0         0         0         0         0         0         0
         0         0         0         0         0         0         0         0
         0         0         0         0         0         0         0         0
         0         0         0         0         0         0         0         0
         0         0         0         0         0         0         0         0
         0         0         0         0         0         0         0         0
         0         0         0         0         0         0         0         0
         0         0         0         0         0         0         0         0
         0         0         0         0         0         0         0         0
         0         0         0         0         0         0         0         0
         0         0         0         0         0         0         0         0
         0         0         0         0         0         0         0         0
         0         0         0         0         0         0         0         0
         0         0         0         0         0         0         0         0
         0         0         0         0         0         0         0         0
         0         0         0         0         0         0         0         0
         0         0         0         0         0         0         0         0
         0         0         0         0         0         0         0         0
         0         0         0         0         0         0         0         0
         0         0         0         0         0         0         0         0
         0         0         0         0         0         0         0         0
         0         0         0         0         0         0         0         0
         0         0         0         0         0         0         0         0
         0         0         0         0         0         0         0         0
         0         0         0         0         0         0         0         0
         0         0         0         0         0         0         0         0
         0         0         0         0         0         0         0         0
         0         0         0         0         0         0         0         0
         0         0         0         0         0         0         0         0
         0         0         0         0         0         0         0         0
         0         0         0         0         0         0         0         0
         0         0         0         0         0         0         0         0
         0         0         0         0         0         0         0         0
         0         0         0         0         0         0         0         0
         0         0         0         0         0         0         0         0
         0         0         0         0         0         0         0         0
         0         0         0         0         0         0         0         0
         0         0         0         0         0         0         0         0
         0         0         0         0         0         0         0         0
         0         0         0         0         0         0         0         0
         0         0         0         0         0         0         0         0
         0         0         0         0         0         0         0         0
         0         0         0         0         0         0         0         0
         0         0         0         0         0         0         0         0
         0         0         0         0         0         0         0         0
         0         0         0         0         0         0         0         0
         0         0         0         0         0         0         0         0
         0         0         0         0         0         0         0         0
         0         0         0         0         0         0         0         0
         0         0         0         0         0         0         0         0
         0         0         0         0         0         0         0         0
         0         0         0         0         0         0         0         0
         0         0         0         0         0         0         0         0
         0         0         0         0         0         0         0         0
         0         0         0         0         0         0         0         0
         0         0         0         0         0         0         0         0
         0         0         0         0         0         0         0         0
         0         0         0         0         0         0         0         0
         0         0         0         0         0         0         0         0
         0         0         0         0         0         0         0         0
         0         0         0         0         0         0         0         0
         0         0         0         0         0         0         0         0
         0         0         0         0         0         0         0         0
         0         0         0         0         0         0         0         0
         0         0         0         0         0         0         0         0
         0         0         0         0         0         0         0         0
         0         0         0         0         0         0         0         0
         0         0         0         0         0         0         0         0
         0         0         0         0         0         0         0         0
         0         0         0         0         0         0         0         0
         0         0         0         0         0         0         0         0
         0         0         0         0         0         0         0         0
         0         0         0         0         0         0         0         0
         0         0         0         0         0         0         0         0
         0         0         0         0         0         0         0         0
         0         0         0         0         0         0         0         0
         0         0         0         0         0         0         0         0
         0         0         0         0         0         0         0         0
         0         0         0         0         0         0         0         0
         0         0         0         0         0         0         0         0
         0         0         0         0         0         0         0         0
         0         0         0         0         0         0         0         0
         0         0         0         0         0         0         0         0
         0         0         0         0         0         0         0         0
         0         0         0         0         0         0         0         0
         0         0         0         0         0         0         0         0
         0         0         0         0         0         0         0         0
         0         0         0         0         0         0         0         0
         0         0         0         0         0         0         0         0
         0         0         0         0         0         0         0         0
         0         0         0         0         0         0         0         0
         0         0         0         0         0         0         0         0
         0         0         0         0         0         0         0         0
         0         0         0         0         0         0         0         0
         0         0         0         0         0         0         0         0
         0         0         0         0         0         0         0         0
         0         0         0         0         0         0         0         0
         0         0         0         0         0         0         0         0
         0         0         0         0         0         0         0         0
         0         0         0         0         0         0         0         0
         0         0         0         0         0         0         0         0
         0         0         0         0         0         0         0         0
         0         0         0         0         0         0         0         0
         0         0         0         0         0         0         0         0
         0         0         0         0         0         0         0         0
         0         0         0         0         0         0         0         0
         0         0         0         0         0         0         0         0
         0         0         0         0         0         0         0         0
         0         0         0         0         0         0         0         0
         0         0         0         0         0         0         0         0
         0         0         0         0         0         0         0         0
         0         0         0         0         0         0         0         0
         0         0         0         0         0         0         0         0
         0         0         0         0         0         0         0         0
         0         0         0         0         0         0         0         0
         0         0         0         0         0         0         0         0
         0         0         0         0         0         0         0         0
         0         0         0         0         0         0         0         0
         0         0         0         0         0         0         0         0
         0         0         0         0         0         0         0         0
         0         0         0         0         0         0         0         0
         0         0         0         0         0         0         0         0
         0         0         0         0         0         0         0         0
         0         0         0         0         0         0         0         0
         0         0         0         0         0         0         0         0
         0         0         0         0         0         0         0         0
         0         0         0         0         0         0         0         0
         0         0         0         0         0         0         0         0
         0         0         0         0         0         0         0         0
         0         0         0         0         0         0         0         0
         0         0         0         0         0         0         0         0
         0         0         0         0         0         0         0         0
         0         0         0         0         0         0         0         0
         0         0         0         0         0         0         0         0
         0         0         0         0         0         0         0         0
         0         0         0         0         0         0         0         0
         0         0         0         0         0         0         0         0
         0         0         0         0         0         0         0         0
         0         0         0         0         0         0         0         0
         0         0         0         0         0         0         0         0
         0         0         0         0         0         0         0         0
         0         0         0         0         0         0         0         0
         0         0         0         0         0         0         0         0
         0         0         0         0         0         0         0         0
         0         0         0         0         0         0         0         0
         0         0         0         0         0         0         0         0
         0         0         0         0         0         0         0         0
         0         0         0         0         0         0         0         0
         0         0         0         0         0         0         0         0
         0         0         0         0         0         0         0         0
         0         0         0         0         0         0         0         0
         0         0         0         0         0         0         0         0
         0         0         0         0         0         0         0         0
         0         0         0         0         0         0         0         0
         0         0         0         0         0         0         0         0
         0         0         0         0         0         0         0         0
         0         0         0         0         0         0         0         0
         0         0         0         0         0         0         0         0
         0         0         0         0         0         0         0         0
         0         0         0         0         0         0         0         0
         0         0         0         0         0         0         0         0
         0         0         0         0         0         0         0         0
         0         0         0         0         0         0         0         0
         0         0         0         0         0         0         0         0
         0         0         0         0         0         0         0         0
         0         0         0         0         0         0         0         0
         0         0         0         0         0         0         0         0
         0         0         0         0         0         0         0         0
         0         0         0         0         0         0         0         0
         0         0         0         0         0         0         0         0
         0         0         0         0         0         0         0         0
         0         0         0         0         0         0         0         0
         0         0         0         0         0         0         0         0
         0         0         0         0         0         0         0         0
         0         0         0         0         0         0         0         0
         0         0         0         0         0         0         0         0
         0         0         0         0         0         0         0         0
         0         0         0         0         0         0         0         0
         0         0         0         0         0         0         0         0
         0         0         0         0         0         0         0         0
         0         0         0         0         0         0         0         0
         0         0         0         0         0         0         0         0
         0         0         0         0         0         0         0         0
         0         0         0         0         0         0         0         0
         0         0         0         0         0         0         0         0
         0         0         0         0         0         0         0         0
         0         0         0         0         0         0         0         0
         0         0         0         0         0         0         0         0
         0         0         0         0         0         0         0         0
         0         0         0         0         0         0         0         0
         0         0         0         0         0         0         0         0
         0         0         0         0         0         0         0         0
         0         0         0         0         0         0         0         0
         0         0         0         0         0         0         0         0
         0         0         0         0         0         0         0         0
         0         0         0         0         0         0         0         0
         0         0         0         0         0         0         0         0
         0         0         0         0         0         0         0         0
         0         0         0         0         0         0         0         0
         0         0         0         0         0         0         0         0
         0         0         0         0         0         0         0         0
         0         0         0         0         0         0         0         0
         0         0         0         0         0         0         0         0
         0         0         0         0         0         0         0         0
         0         0         0         0         0         0         0         0
         0         0         0         0         0         0         0         0
         0         0         0         0         0         0         0         0
         0         0         0         0         0         0         0         0
         0         0         0         0         0         0         0         0
         0         0         0         0         0         0         0         0
         0         0         0         0         0         0         0         0
         0         0         0         0         0         0         0         0
         0         0         0         0         0         0         0         0
         0         0         0         0         0         0         0         0
         0         0         0         0         0         0         0         0
         0         0         0         0         0         0         0         0
         0         0         0         0         0         0         0         0
         0         0         0         0         0         0         0         0
         0         0         0         0         0         0         0         0
         0         0         0         0         0         0         0         0
         0         0         0         0         0         0         0         0
         0         0         0         0         0         0         0         0
         0         0         0         0         0         0         0         0
         0         0         0         0         0         0         0         0
         0         0         0         0         0         0         0         0
         0         0         0         0         0         0         0         0
         0         0         0         0         0         0         0         0
         0         0         0         0         0         0         0         0
         0         0         0         0         0         0         0         0
         0         0         0         0         0         0         0         0
         0         0         0         0         0         0         0         0
         0         0         0         0         0         0         0         0
         0         0         0         0         0         0         0         0
         0         0         0         0         0         0         0         0
         0         0         0         0         0         0         0         0
         0         0         0         0         0         0         0         0
         0         0         0         0         0         0         0         0
         0         0         0         0         0         0         0         0
         0         0         0         0         0         0         0         0
         0         0         0         0         0         0         0         0
         0         0         0         0         0         0         0         0
         0         0         0         0         0         0         0         0
         0         0         0         0         0         0         0         0
         0         0         0         0         0         0         0         0
         0         0         0         0         0         0         0         0
         0         0         0         0         0         0         0         0
         0         0         0         0         0         0         0         0
         0         0         0         0         0         0         0         0
         0         0         0         0         0         0         0         0
         0         0         0         0         0         0         0         0
         0         0         0         0         0         0         0         0
         0         0         0         0         0         0         0         0
         0         0         0         0         0         0         0         0
         0         0         0         0         0         0         0         0
         0         0         0         0         0         0         0         0
         0         0         0         0         0         0         0         0
         0         0         0         0         0         0         0         0
         0         0         0         0         0         0         0         0
         0         0         0         0         0         0         0         0
         0         0         0         0         0         0         0         0
         0         0         0         0         0         0         0         0
         0         0         0         0         0         0         0         0
         0         0         0         0         0         0         0         0
         0         0         0         0         0         0         0         0
         0         0         0         0         0         0         0         0
         0         0         0         0         0         0         0         0
         0         0         0         0         0         0         0         0
         0         0         0         0         0         0         0         0
         0         0         0         0         0         0         0         0
         0         0         0         0         0         0         0         0
         0         0         0         0         0         0         0         0
         0         0         0         0         0         0         0         0
         0         0         0         0         0         0         0         0
         0         0         0         0         0         0         0         0
         0         0         0         0         0         0         0         0
         0         0         0         0         0         0         0         0
         0         0         0         0         0         0         0         0
         0         0         0         0         0         0         0         0
         0         0         0         0         0         0         0         0
         0         0         0         0         0         0         0         0
         0         0         0         0         0         0         0         0
         0         0         0         0         0         0         0         0
         0         0         0         0         0         0         0         0
         0         0         0         0         0         0         0         0
         0         0         0         0         0         0         0         0
         0         0         0         0         0         0         0         0
         0         0         0         0         0         0         0         0
         0         0         0         0         0         0         0         0
         0         0         0         0         0         0         0         0
         0         0         0         0         0         0         0         0
         0         0         0         0         0         0         0         0
         0         0         0         0         0         0         0         0
         0         0         0         0         0         0         0         0
         0         0         0         0         0         0         0         0
         0         0         0         0         0         0         0         0
         0         0         0         0         0         0         0         0
         0         0         0         0         0         0         0         0
         0         0         0         0         0         0         0         0
         0         0         0         0         0         0         0         0
         0         0         0         0         0         0         0         0
         0         0         0         0         0         0         0         0
         0         0         0         0         0         0         0         0
         0         0         0         0         0         0         0         0
         0         0         0         0         0         0         0         0
         0         0         0         0         0         0         0         0
         0         0         0         0         0         0         0         0
         0         0         0         0         0         0         0         0
         0         0         0         0         0         0         0         0
         0         0         0         0         0         0         0         0
         0         0         0         0         0         0         0         0
         0         0         0         0         0         0         0         0
         0         0         0         0         0         0         0         0
         0         0         0         0         0         0         0         0
         0         0         0         0         0         0         0         0
         0         0         0         0         0         0         0         0
         0         0         0         0         0         0         0         0
         0         0         0         0         0         0         0         0
         0         0         0         0         0         0         0         0
         0         0         0         0         0         0         0         0
         0         0         0         0         0         0         0         0
         0         0         0         0         0         0         0         0
         0         0         0         0         0         0         0         0
         0         0         0         0         0         0         0         0
         0         0         0         0         0         0         0         0
         0         0         0         0         0         0         0         0
         0         0         0         0         0         0         0         0
         0         0         0         0         0         0         0         0
         0         0         0         0         0         0         0         0
         0         0         0         0         0         0         0         0
         0         0         0         0         0         0         0         0
         0         0         0         0         0         0         0         0
         0         0         0         0         0         0         0         0
         0         0         0         0         0         0         0         0
         0         0         0         0         0         0         0         0
         0         0         0         0         0         0         0         0
         0         0         0         0         0         0         0         0
         0         0         0         0         0         0         0         0
         0         0         0         0         0         0         0         0
         0         0         0         0         0         0         0         0
         0         0         0         0         0         0         0         0
         0         0         0         0         0         0         0         0
         0         0         0         0         0         0         0         0
         0         0         0         0         0         0         0         0
         0         0         0         0         0         0         0         0
         0         0         0         0         0         0         0         0
         0         0         0         0         0         0         0         0
         0         0         0         0         0         0         0         0
         0         0         0         0         0         0         0         0
         0         0         0         0         0         0         0         0
         0         0         0         0         0         0         0         0
         0         0         0         0         0         0         0         0
         0         0         0         0         0         0         0         0
         0         0         0         0         0         0         0         0
         0         0         0         0         0         0         0         0
         0         0         0         0         0         0         0         0
         0         0         0         0         0         0         0         0
         0         0         0         0         0         0         0         0
         0         0         0         0         0         0         0         0
         0         0         0         0         0         0         0         0
         0         0         0         0         0         0         0         0
         0         0         0         0         0         0         0         0
         0         0         0         0         0         0         0         0
         0         0         0         0         0         0         0         0
         0         0         0         0         0         0         0         0
         0         0         0         0         0         0         0         0
         0         0         0         0         0         0         0         0
         0         0         0         0         0         0         0         0
         0         0         0         0         0         0         0         0
         0         0         0         0         0         0         0         0
         0         0         0         0         0         0         0         0
         0         0         0         0         0         0         0         0
         0         0         0         0         0         0         0         0
         0         0         0         0         0         0         0         0
         0         0         0         0         0         0         0         0
         0         0         0         0         0         0         0         0
         0         0         0         0         0         0         0         0
         0         0         0         0         0         0         0         0
         0         0         0         0         0         0         0         0
         0         0         0         0         0         0         0         0
         0         0         0         0         0         0         0         0
         0         0         0         0         0         0         0         0
         0         0         0         0         0         0         0         0
         0         0         0         0         0         0         0         0
         0         0         0         0         0         0         0         0
         0         0         0         0         0         0         0         0
         0         0         0         0         0         0         0         0
         0         0         0         0         0         0         0         0
         0         0         0         0         0         0         0         0
         0         0         0         0         0         0         0         0
         0         0         0         0         0         0         0         0
         0         0         0         0         0         0         0         0
         0         0         0         0         0         0         0         0
         0         0         0         0         0         0         0         0
         0         0         0         0         0         0         0         0
         0         0         0         0         0         0         0         0
         0         0         0         0         0         0         0         0
         0         0         0         0         0         0         0         0
         0         0         0         0         0         0         0         0
         0         0         0         0         0         0         0         0
         0         0         0         0         0         0         0         0
         0         0         0         0         0         0         0         0
         0         0         0         0         0         0         0         0
         0         0         0         0         0         0         0         0
         0         0         0         0         0         0         0         0
         0         0         0         0         0         0         0         0
         0         0         0         0         0         0         0         0
         0         0         0         0         0         0         0         0
         0         0         0         0         0         0         0         0
         0         0         0         0         0         0         0         0
         0         0         0         0         0         0         0         0
         0         0         0         0         0         0         0         0
         0         0         0         0         0         0         0         0
         0         0         0         0         0         0         0         0
         0         0         0         0         0         0         0         0
         0         0         0         0         0         0         0         0
         0         0         0         0         0         0         0         0
         0         0         0         0         0         0         0         0
         0         0         0         0         0         0         0         0
         0         0         0         0         0         0         0         0
         0         0         0         0         0         0         0         0
         0         0         0         0         0         0         0         0
         0         0         0         0         0         0         0         0
         0         0         0         0         0         0         0         0
         0         0         0         0         0         0         0         0
         0         0         0         0         0         0         0         0
         0         0         0         0         0         0         0         0
         0         0         0         0         0         0         0         0
         0         0         0         0         0         0         0         0
         0         0         0         0         0         0         0         0
         0         0         0         0         0         0         0         0
         0         0         0         0         0         0         0         0
         0         0         0         0         0         0         0         0
         0         0         0         0         0         0         0         0
         0         0         0         0         0         0         0         0
         0         0         0         0         0         0         0         0
         0         0         0         0         0         0         0         0
         0         0         0         0         0         0         0         0
         0         0         0         0         0         0         0         0
         0         0         0         0         0         0         0         0
         0         0         0         0         0         0         0         0
         0         0         0         0         0         0         0         0
         0         0         0         0         0         0         0         0
         0         0         0         0         0         0         0         0
         0         0         0         0         0         0         0         0
         0         0         0         0         0         0         0         0
         0         0         0         0         0         0         0         0
         0         0         0         0         0         0         0         0
         0         0         0         0         0         0         0         0
         0         0         0         0         0         0         0         0
         0         0         0         0         0         0         0         0
         0         0         0         0         0         0         0         0
         0         0         0         0         0         0         0         0
         0         0         0         0         0         0         0         0
         0         0         0         0         0         0         0         0
         0         0         0         0         0         0         0         0
         0         0         0         0         0         0         0         0
         0         0         0         0         0         0         0         0
         0         0         0         0         0         0         0         0
         0         0         0         0         0         0         0         0
         0         0         0         0         0         0         0         0
         0         0         0         0         0         0         0         0
         0         0         0         0         0         0         0         0
         0         0         0         0         0         0         0         0
         0         0         0         0         0         0         0         0
         0         0         0         0         0         0         0         0
         0         0         0         0         0         0         0         0
         0         0         0         0         0         0         0         0
         0         0         0         0         0         0         0         0
         0         0         0         0         0         0         0         0
         0         0         0         0         0         0         0         0
         0         0         0         0         0         0         0         0
         0         0         0         0         0         0         0         0
         0         0         0         0         0         0         0         0
         0         0         0         0         0         0         0         0
         0         0         0         0         0         0         0         0
         0         0         0         0         0         0         0         0
         0         0         0         0         0         0         0         0
         0         0         0         0         0         0         0         0
         0         0         0         0         0         0         0         0
         0         0         0         0         0         0         0         0
         0         0         0         0         0         0         0         0
         0         0         0         0         0         0         0         0
         0         0         0         0         0         0         0         0
         0         0         0         0         0         0         0         0
         0         0         0         0         0         0         0         0
         0         0         0         0         0         0         0         0
         0         0         0         0         0         0         0         0
         0         0         0         0         0         0         0         0
         0         0         0         0         0         0         0         0
         0         0         0         0         0         0         0         0
         0         0         0         0         0         0         0         0
         0         0         0         0         0         0         0         0
         0         0         0         0         0         0         0         0
         0         0         0         0         0         0         0         0
         0         0         0         0         0         0         0         0
         0         0         0         0         0         0         0         0
         0         0         0         0         0         0         0         0
         0         0         0         0         0         0         0         0
         0         0         0         0         0         0         0         0
         0         0         0         0         0         0         0         0
         0         0         0         0         0         0         0         0
         0         0         0         0         0         0         0         0
         0         0         0         0         0         0         0         0
         0         0         0         0         0         0         0         0
         0         0         0         0         0         0         0         0
         0         0         0         0         0         0         0         0
         0         0         0         0         0         0         0         0
         0         0         0         0         0         0         0         0
         0         0         0         0         0         0         0         0
         0         0         0         0         0         0         0         0
         0         0         0         0         0         0         0         0
         0         0         0         0         0         0         0         0
         0         0         0         0         0         0         0         0
         0         0         0         0         0         0         0         0
         0         0         0         0         0         0         0         0
         0         0         0         0         0         0         0         0
         0         0         0         0         0         0         0         0
         0         0         0         0         0         0         0         0
         0         0         0         0         0         0         0         0
         0         0         0         0         0         0         0         0
         0         0         0         0         0         0         0         0
         0         0         0         0         0         0         0         0
         0         0         0         0         0         0         0         0
         0         0         0         0         0         0         0         0
         0         0         0         0         0         0         0         0
         0         0         0         0         0         0         0         0
         0         0         0         0         0         0         0         0
         0         0         0         0         0         0         0         0
         0         0         0         0         0         0         0         0
         0         0         0         0         0         0         0         0
         0         0         0         0         0         0         0         0
         0         0         0         0         0         0         0         0
         0         0         0         0         0         0         0         0
         0         0         0         0         0         0         0         0
         0         0         0         0         0         0         0         0
         0         0         0         0         0         0         0         0
         0         0         0         0         0         0         0         0
         0         0         0         0         0         0         0         0
         0         0         0         0         0         0         0         0
         0         0         0         0         0         0         0         0
         0         0         0         0         0         0         0         0
         0         0         0         0         0         0         0         0
         0         0         0         0         0         0         0         0
         0         0         0         0         0         0         0         0
         0         0         0         0         0         0         0         0
         0         0         0         0         0         0         0         0
         0         0         0         0         0         0         0         0
         0         0         0         0         0         0         0         0
         0         0         0         0         0         0         0         0
         0         0         0         0         0         0         0         0
         0         0         0         0         0         0         0         0
         0         0         0         0         0         0         0         0
         0         0         0         0         0         0         0         0
         0         0         0         0         0         0         0         0
         0         0         0         0         0         0         0         0
         0         0         0         0         0         0         0         0
         0         0         0         0         0         0         0         0
         0         0         0         0         0         0         0         0
         0         0         0         0         0         0         0         0
         0         0         0         0         0         0         0         0
         0         0         0         0         0         0         0         0
         0         0         0         0         0         0         0         0
         0         0         0         0         0         0         0         0
         0         0         0         0         0         0         0         0
         0         0         0         0         0         0         0         0
         0         0         0         0         0         0         0         0
         0         0         0         0         0         0         0         0
         0         0         0         0         0         0         0         0
         0         0         0         0         0         0         0         0
         0         0         0         0         0         0         0         0
         0         0         0         0         0         0         0         0
         0         0         0         0         0         0         0         0
         0         0         0         0         0         0         0         0
         0         0         0         0         0         0         0         0
         0         0         0         0         0         0         0         0
         0         0         0         0         0         0         0         0
         0         0         0         0         0         0         0         0
         0         0         0         0         0         0         0         0
         0         0         0         0         0         0         0         0
         0         0         0         0         0         0         0         0
         0         0         0         0         0         0         0         0
         0         0         0         0         0         0         0         0
         0         0         0         0         0         0         0         0
         0         0         0         0         0         0         0         0
         0         0         0         0         0         0         0         0
         0         0         0         0         0         0         0         0
         0         0         0         0         0         0         0         0
         0         0         0         0         0         0         0         0
         0         0         0         0         0         0         0         0
         0         0         0         0         0         0         0         0
         0         0         0         0         0         0         0         0
         0         0         0         0         0         0         0         0
         0         0         0         0         0         0         0         0
         0         0         0         0         0         0         0         0
         0         0         0         0         0         0         0         0
         0         0         0         0         0         0         0         0
         0         0         0         0         0         0         0         0
         0         0         0         0         0         0         0         0
         0         0         0         0         0         0         0         0
         0         0         0         0         0         0         0         0
         0         0         0         0         0         0         0         0
         0         0         0         0         0         0         0         0
         0         0         0         0         0         0         0         0
         0         0         0         0         0         0         0         0
         0         0         0         0         0         0         0         0
         0         0         0         0         0         0         0         0
         0         0         0         0         0         0         0         0
         0         0         0         0         0         0         0         0
         0         0         0         0         0         0         0         0
         0         0         0         0         0         0         0         0
         0         0         0         0         0         0         0         0
         0         0         0         0         0         0         0         0
         0         0         0         0         0         0         0         0
         0         0         0         0         0         0         0         0
         0         0         0         0         0         0         0         0
         0         0         0         0         0         0         0         0
         0         0         0         0         0         0         0         0
         0         0         0         0         0         0         0         0
         0         0         0         0         0         0         0         0
         0         0         0         0         0         0         0         0
         0         0         0         0         0         0         0         0

     13548         0 !NGRP NST2
         0         2         0         7         2         0        18         1         0
        26         1         0        35         1         0        38         1         0
        41         1         0        44         1         0        47         1         0
        50         1         0        53         1         0        55         1         0
        57         1         0        60         1         0        63         1         0
        66         1         0        69         1         0        72         1         0
        75         1         0        78         1         0        82         1         0
        85         1         0        88         1         0        91         1         0
        94         1         0        97         1         0       100         1         0
       103         1         0       106         1         0       109         1         0
       112         1         0       115         1         0       118         1         0
       121         1         0       125         2         0       132         2         0
       143         1         0       151         1         0       160         1         0
       163         1         0       166         1         0       169         1         0
       172         1         0       175         1         0       178         1         0
       180         1         0       183         1         0       185         1         0
       188         1         0       191         1         0       194         1         0
       197         1         0       200         1         0       204         1         0
       207         1         0       210         1         0       213         1         0
       216         1         0       219         1         0       222         1         0
       225         1         0       228         1         0       231         1         0
       234         1         0       237         1         0       240         1         0
       243         1         0       247         2         0       254         2         0
       265         1         0       273         1         0       282         1         0
       285         1         0       288         1         0       291         1         0
       294         1         0       297         1         0       300         1         0
       302         1         0       305         1         0       307         1         0
       310         1         0       313         1         0       316         1         0
       319         1         0       322         1         0       326         1         0
       329         1         0       332         1         0       335         1         0
       338         1         0       341         1         0       344         1         0
       347         1         0       350         1         0       353         1         0
       356         1         0       359         1         0       362         1         0
       365         1         0       369         2         0       376         2         0
       387         1         0       395         1         0       404         1         0
       407         1         0       410         1         0       413         1         0
       416         1         0       419         1         0       422         1         0
       424         1         0       426         1         0       429         1         0
       432         1         0       435         1         0       438         1         0
       441         1         0       444         1         0       447         1         0
       451         1         0       454         1         0       457         1         0
       460         1         0       463         1         0       466         1         0
       469         1         0       472         1         0       475         1         0
       478         1         0       481         1         0       484         1         0
       487         1         0       490         1         0       494         2         0
       501         2         0       512         1         0       520         1         0
       529         1         0       532         1         0       535         1         0
       538         1         0       541         1         0       544         1         0
       547         1         0       549         1         0       552         1         0
       554         1         0       557         1         0       560         1         0
       563         1         0       566         1         0       569         1         0
       573         1         0       576         1         0       579         1         0
       582         1         0       585         1         0       588         1         0
       591         1         0       594         1         0       597         1         0
       600         1         0       603         1         0       606         1         0
       609         1         0       612         1         0       616         2         0
       623         2         0       634         1         0       642         1         0
       651         1         0       654         1         0       657         1         0
       660         1         0       663         1         0       666         1         0
       669         1         0       671         1         0       673         1         0
       676         1         0       679         1         0       682         1         0
       685         1         0       688         1         0       691         1         0
       694         1         0       698         1         0       701         1         0
       704         1         0       707         1         0       710         1         0
       713         1         0       716         1         0       719         1         0
       722         1         0       725         1         0       728         1         0
       731         1         0       734         1         0       737         1         0
       741         2         0       748         2         0       759         1         0
       767         1         0       776         1         0       779         1         0
       782         1         0       785         1         0       788         1         0
       791         1         0       794         1         0       796         1         0
       799         1         0       801         1         0       804         1         0
       807         1         0       810         1         0       813         1         0
       816         1         0       820         1         0       823         1         0
       826         1         0       829         1         0       832         1         0
       835         1         0       838         1         0       841         1         0
       844         1         0       847         1         0       850         1         0
       853         1         0       856         1         0       859         1         0
       863         2         0       870         2         0       881         1         0
       889         1         0       898         1         0       901         1         0
       904         1         0       907         1         0       910         1         0
       913         1         0       916         1         0       918         1         0
       921         1         0       923         1         0       926         1         0
       929         1         0       932         1         0       935         1         0
       938         1         0       942         1         0       945         1         0
       948         1         0       951         1         0       954         1         0
       957         1         0       960         1         0       963         1         0
       966         1         0       969         1         0       972         1         0
       975         1         0       978         1         0       981         1         0
       985         2         0       992         2         0      1003         1         0
      1011         1         0      1020         1         0      1023         1         0
      1026         1         0      1029         1         0      1032         1         0
      1035         1         0      1038         1         0      1040         1         0
      1043         1         0      1045         1         0      1048         1         0
      1051         1         0      1054         1         0      1057         1         0
      1060         1         0      1064         1         0      1067         1         0
      1070         1         0      1073         1         0      1076         1         0
      1079         1         0      1082         1         0      1085         1         0
      1088         1         0      1091         1         0      1094         1         0
      1097         1         0      1100         1         0      1103         1         0
      1107         1         0      1112         1         0      1116         2         0
      1127         1         0      1135         1         0      1144         1         0
      1147         1         0      1150         1         0      1153         1         0
      1156         1         0      1159         1         0      1162         1         0
      1164         1         0      1167         1         0      1169         1         0
      1172         1         0      1175         1         0      1178         1         0
      1181         1         0      1184         1         0      1188         1         0
      1191         1         0      1194         1         0      1197         1         0
      1200         1         0      1203         1         0      1206         1         0
      1209         1         0      1212         1         0      1215         1         0
      1218         1         0      1221         1         0      1224         1         0
      1227         1         0      1231         2         0      1238         2         0
      1249         1         0      1257         1         0      1266         1         0
      1269         1         0      1272         1         0      1275         1         0
      1278         1         0      1281         1         0      1284         1         0
      1286         1         0      1288         1         0      1291         1         0
      1294         1         0      1297         1         0      1300         1         0
      1303         1         0      1306         1         0      1309         1         0
      1313         1         0      1316         1         0      1319         1         0
      1322         1         0      1325         1         0      1328         1         0
      1331         1         0      1334         1         0      1337         1         0
      1340         1         0      1343         1         0      1346         1         0
      1349         1         0      1352         1         0      1356         1         0
      1361         1         0      1365         2         0      1376         1         0
      1384         1         0      1393         1         0      1396         1         0
      1399         1         0      1402         1         0      1405         1         0
      1408         1         0      1411         1         0      1413         1         0
      1415         1         0      1418         1         0      1421         1         0
      1424         1         0      1427         1         0      1430         1         0
      1434         1         0      1437         1         0      1440         1         0
      1443         1         0      1446         1         0      1449         1         0
      1452         1         0      1455         1         0      1458         1         0
      1461         1         0      1464         1         0      1467         1         0
      1470         1         0      1473         1         0      1477         1         0
      1482         1         0      1486         2         0      1497         1         0
      1505         1         0      1514         1         0      1517         1         0
      1520         1         0      1523         1         0      1526         1         0
      1529         1         0      1532         1         0      1534         1         0
      1537         1         0      1539         1         0      1542         1         0
      1545         1         0      1548         1         0      1551         1         0
      1554         1         0      1558         1         0      1561         1         0
      1564         1         0      1567         1         0      1570         1         0
      1573         1         0      1576         1         0      1579         1         0
      1582         1         0      1585         1         0      1588         1         0
      1591         1         0      1594         1         0      1597         1         0
      1601         2         0      1608         2         0      1619         1         0
      1627         1         0      1636         1         0      1639         1         0
      1642         1         0      1645         1         0      1648         1         0
      1651         1         0      1654         1         0      1656         1         0
      1659         1         0      1661         1         0      1664         1         0
      1667         1         0      1670         1         0      1673         1         0
      1676         1         0      1680         1         0      1683         1         0
      1686         1         0      1689         1         0      1692         1         0
      1695         1         0      1698         1         0      1701         1         0
      1704         1         0      1707         1         0      1710         1         0
      1713         1         0      1716         1         0      1719         1         0
      1723         2         0      1730         2         0      1741         1         0
      1749         1         0      1758         1         0      1761         1         0
      1764         1         0      1767         1         0      1770         1         0
      1773         1         0      1776         1         0      1778         1         0
      1780         1         0      1783         1         0      1786         1         0
      1789         1         0      1792         1         0      1795         1         0
      1798         1         0      1801         1         0      1805         1         0
      1808         1         0      1811         1         0      1814         1         0
      1817         1         0      1820         1         0      1823         1         0
      1826         1         0      1829         1         0      1832         1         0
      1835         1         0      1838         1         0      1841         1         0
      1844         1         0      1848         2         0      1855         2         0
      1866         1         0      1874         1         0      1883         1         0
      1886         1         0      1889         1         0      1892         1         0
      1895         1         0      1898         1         0      1901         1         0
      1903         1         0      1906         1         0      1908         1         0
      1911         1         0      1914         1         0      1917         1         0
      1920         1         0      1923         1         0      1927         1         0
      1930         1         0      1933         1         0      1936         1         0
      1939         1         0      1942         1         0      1945         1         0
      1948         1         0      1951         1         0      1954         1         0
      1957         1         0      1960         1         0      1963         1         0
      1966         1         0      1970         2         0      1977         2         0
      1988         1         0      1996         1         0      2005         1         0
      2008         1         0      2011         1         0      2014         1         0
      2017         1         0      2020         1         0      2023         1         0
      2025         1         0      2028         1         0      2030         1         0
      2033         1         0      2036         1         0      2039         1         0
      2042         1         0      2045         1         0      2049         1         0
      2052         1         0      2055         1         0      2058         1         0
      2061         1         0      2064         1         0      2067         1         0
      2070         1         0      2073         1         0      2076         1         0
      2079         1         0      2082         1         0      2085         1         0
      2088         1         0      2092         2         0      2099         2         0
      2110         1         0      2118         1         0      2127         1         0
      2130         1         0      2133         1         0      2136         1         0
      2139         1         0      2142         1         0      2145         1         0
      2147         1         0      2150         1         0      2152         1         0
      2155         1         0      2158         1         0      2161         1         0
      2164         1         0      2167         1         0      2171         1         0
      2174         1         0      2177         1         0      2180         1         0
      2183         1         0      2186         1         0      2189         1         0
      2192         1         0      2195         1         0      2198         1         0
      2201         1         0      2204         1         0      2207         1         0
      2210         1         0      2214         1         0      2219         1         0
      2223         2         0      2234         1         0      2242         1         0
      2251         1         0      2254         1         0      2257         1         0
      2260         1         0      2263         1         0      2266         1         0
      2269         1         0      2271         1         0      2273         1         0
      2276         1         0      2279         1         0      2282         1         0
      2285         1         0      2288         1         0      2292         1         0
      2295         1         0      2298         1         0      2301         1         0
      2304         1         0      2307         1         0      2310         1         0
      2313         1         0      2316         1         0      2319         1         0
      2322         1         0      2325         1         0      2328         1         0
      2331         1         0      2335         2         0      2342         2         0
      2353         1         0      2361         1         0      2370         1         0
      2373         1         0      2376         1         0      2379         1         0
      2382         1         0      2385         1         0      2388         1         0
      2390         1         0      2393         1         0      2395         1         0
      2398         1         0      2401         1         0      2404         1         0
      2407         1         0      2410         1         0      2414         1         0
      2417         1         0      2420         1         0      2423         1         0
      2426         1         0      2429         1         0      2432         1         0
      2435         1         0      2438         1         0      2441         1         0
      2444         1         0      2447         1         0      2450         1         0
      2454         2         0      2461         2         0      2472         1         0
      2480         1         0      2489         1         0      2492         1         0
      2495         1         0      2498         1         0      2501         1         0
      2504         1         0      2507         1         0      2509         1         0
      2512         1         0      2514         1         0      2517         1         0
      2520         1         0      2523         1         0      2526         1         0
      2529         1         0      2533         1         0      2536         1         0
      2539         1         0      2542         1         0      2545         1         0
      2548         1         0      2551         1         0      2554         1         0
      2557         1         0      2560         1         0      2563         1         0
      2566         1         0      2569         1         0      2572         1         0
      2576         2         0      2583         2         0      2594         1         0
      2602         1         0      2611         1         0      2614         1         0
      2617         1         0      2620         1         0      2623         1         0
      2626         1         0      2629         1         0      2631         1         0
      2634         1         0      2636         1         0      2639         1         0
      2642         1         0      2645         1         0      2648         1         0
      2651         1         0      2655         1         0      2658         1         0
      2661         1         0      2664         1         0      2667         1         0
      2670         1         0      2673         1         0      2676         1         0
      2679         1         0      2682         1         0      2685         1         0
      2688         1         0      2691         1         0      2694         1         0
      2698         1         0      2703         1         0      2707         2         0
      2718         1         0      2726         1         0      2735         1         0
      2738         1         0      2741         1         0      2744         1         0
      2747         1         0      2750         1         0      2753         1         0
      2755         1         0      2757         1         0      2760         1         0
      2763         1         0      2766         1         0      2769         1         0
      2772         1         0      2776         1         0      2779         1         0
      2782         1         0      2785         1         0      2788         1         0
      2791         1         0      2794         1         0      2797         1         0
      2800         1         0      2803         1         0      2806         1         0
      2809         1         0      2812         1         0      2815         1         0
      2819         2         0      2830         1         0      2834         2         0
      2845         1         0      2853         1         0      2862         1         0
      2870         1         0      2879         1         0      2882         1         0
      2885         1         0      2888         1         0      2891         1         0
      2894         1         0      2897         1         0      2900         1         0
      2903         1         0      2905         1         0      2907         1         0
      2910         1         0      2913         1         0      2916         1         0
      2919         1         0      2922         1         0      2926         1         0
      2929         1         0      2932         1         0      2935         1         0
      2938         1         0      2941         1         0      2944         1         0
      2947         1         0      2950         1         0      2953         1         0
      2956         1         0      2959         1         0      2962         1         0
      2965         1         0      2969         1         0      2972         1         0
      2975         1         0      2978         1         0      2981         1         0
      2984         1         0      2987         1         0      2990         1         0
      2993         1         0      2995         1         0      2997         1         0
      3000         1         0      3003         1         0      3006         1         0
      3009         1         0      3012         1         0      3016         1         0
      3019         1         0      3022         1         0      3025         1         0
      3028         1         0      3031         1         0      3034         1         0
      3037         1         0      3040         1         0      3043         1         0
      3046         1         0      3049         1         0      3052         1         0
      3055         1         0      3059         2         0      3066         2         0
      3077         1         0      3085         1         0      3094         1         0
      3097         1         0      3100         1         0      3103         1         0
      3106         1         0      3109         1         0      3112         1         0
      3114         1         0      3116         1         0      3119         1         0
      3122         1         0      3125         1         0      3128         1         0
      3131         1         0      3134         1         0      3137         1         0
      3141         1         0      3144         1         0      3147         1         0
      3150         1         0      3153         1         0      3156         1         0
      3159         1         0      3162         1         0      3165         1         0
      3168         1         0      3171         1         0      3174         1         0
      3177         1         0      3180         1         0      3184         2         0
      3191         2         0      3202         1         0      3210         1         0
      3219         1         0      3222         1         0      3225         1         0
      3228         1         0      3231         1         0      3234         1         0
      3237         1         0      3239         1         0      3241         1         0
      3244         1         0      3247         1         0      3250         1         0
      3253         1         0      3256         1         0      3260         1         0
      3263         1         0      3266         1         0      3269         1         0
      3272         1         0      3275         1         0      3278         1         0
      3280         1         0      3282         1         0      3285         1         0
      3288         1         0      3291         1         0      3294         1         0
      3297         1         0      3300         1         0      3303         1         0
      3307         2         0      3314         2         0      3325         1         0
      3333         1         0      3342         1         0      3345         1         0
      3348         1         0      3351         1         0      3354         1         0
      3357         1         0      3360         1         0      3362         1         0
      3365         1         0      3367         1         0      3370         1         0
      3373         1         0      3376         1         0      3379         1         0
      3382         1         0      3386         1         0      3389         1         0
      3392         1         0      3395         1         0      3398         1         0
      3401         1         0      3404         1         0      3407         1         0
      3410         1         0      3413         1         0      3416         1         0
      3419         1         0      3422         1         0      3425         1         0
      3429         2         0      3436         2         0      3447         1         0
      3455         1         0      3464         1         0      3467         1         0
      3470         1         0      3473         1         0      3476         1         0
      3479         1         0      3482         1         0      3484         1         0
      3487         1         0      3489         1         0      3492         1         0
      3495         1         0      3498         1         0      3501         1         0
      3504         1         0      3508         1         0      3511         1         0
      3514         1         0      3517         1         0      3520         1         0
      3523         1         0      3526         1         0      3529         1         0
      3532         1         0      3535         1         0      3538         1         0
      3541         1         0      3544         1         0      3547         1         0
      3551         2         0      3558         2         0      3569         1         0
      3577         1         0      3586         1         0      3589         1         0
      3592         1         0      3595         1         0      3598         1         0
      3601         1         0      3604         1         0      3606         1         0
      3609         1         0      3611         1         0      3614         1         0
      3617         1         0      3620         1         0      3623         1         0
      3626         1         0      3630         1         0      3633         1         0
      3636         1         0      3639         1         0      3642         1         0
      3645         1         0      3648         1         0      3651         1         0
      3654         1         0      3657         1         0      3660         1         0
      3663         1         0      3666         1         0      3669         1         0
      3673         2         0      3680         2         0      3691         1         0
      3699         1         0      3708         1         0      3711         1         0
      3714         1         0      3717         1         0      3720         1         0
      3723         1         0      3726         1         0      3728         1         0
      3730         1         0      3733         1         0      3736         1         0
      3739         1         0      3742         1         0      3745         1         0
      3748         1         0      3751         1         0      3755         1         0
      3758         1         0      3761         1         0      3764         1         0
      3767         1         0      3770         1         0      3773         1         0
      3776         1         0      3779         1         0      3782         1         0
      3785         1         0      3788         1         0      3791         1         0
      3794         1         0      3798         2         0      3805         2         0
      3816         1         0      3824         1         0      3833         1         0
      3836         1         0      3839         1         0      3842         1         0
      3845         1         0      3848         1         0      3851         1         0
      3853         1         0      3855         1         0      3858         1         0
      3861         1         0      3864         1         0      3867         1         0
      3870         1         0      3873         1         0      3876         1         0
      3880         1         0      3883         1         0      3886         1         0
      3889         1         0      3892         1         0      3895         1         0
      3898         1         0      3901         1         0      3904         1         0
      3907         1         0      3910         1         0      3913         1         0
      3916         1         0      3919         1         0      3923         2         0
      3930         2         0      3941         1         0      3949         1         0
      3958         1         0      3961         1         0      3964         1         0
      3967         1         0      3970         1         0      3973         1         0
      3976         1         0      3978         1         0      3981         1         0
      3983         1         0      3986         1         0      3989         1         0
      3992         1         0      3995         1         0      3998         1         0
      4002         1         0      4005         1         0      4008         1         0
      4011         1         0      4014         1         0      4017         1         0
      4020         1         0      4023         1         0      4026         1         0
      4029         1         0      4032         1         0      4035         1         0
      4038         1         0      4041         1         0      4045         1         0
      4050         1         0      4054         2         0      4065         1         0
      4073         1         0      4082         1         0      4085         1         0
      4088         1         0      4091         1         0      4094         1         0
      4097         1         0      4100         1         0      4102         1         0
      4105         1         0      4107         1         0      4110         1         0
      4113         1         0      4116         1         0      4119         1         0
      4122         1         0      4126         1         0      4129         1         0
      4132         1         0      4135         1         0      4138         1         0
      4141         1         0      4144         1         0      4147         1         0
      4150         1         0      4153         1         0      4156         1         0
      4159         1         0      4162         1         0      4165         1         0
      4169         2         0      4176         2         0      4187         1         0
      4195         1         0      4204         1         0      4207         1         0
      4210         1         0      4213         1         0      4216         1         0
      4219         1         0      4222         1         0      4224         1         0
      4227         1         0      4229         1         0      4232         1         0
      4235         1         0      4238         1         0      4241         1         0
      4244         1         0      4248         1         0      4251         1         0
      4254         1         0      4257         1         0      4260         1         0
      4263         1         0      4266         1         0      4269         1         0
      4272         1         0      4275         1         0      4278         1         0
      4281         1         0      4284         1         0      4288         1         0
      4293         1         0      4297         2         0      4308         1         0
      4316         1         0      4325         1         0      4328         1         0
      4331         1         0      4334         1         0      4337         1         0
      4340         1         0      4343         1         0      4345         1         0
      4347         1         0      4350         1         0      4353         1         0
      4356         1         0      4359         1         0      4362         1         0
      4366         1         0      4369         1         0      4372         1         0
      4375         1         0      4378         1         0      4381         1         0
      4384         1         0      4387         1         0      4390         1         0
      4393         1         0      4396         1         0      4399         1         0
      4402         1         0      4405         1         0      4409         2         0
      4416         2         0      4427         1         0      4435         1         0
      4444         1         0      4447         1         0      4450         1         0
      4453         1         0      4456         1         0      4459         1         0
      4462         1         0      4464         1         0      4467         1         0
      4469         1         0      4472         1         0      4475         1         0
      4478         1         0      4481         1         0      4484         1         0
      4488         1         0      4491         1         0      4494         1         0
      4497         1         0      4500         1         0      4503         1         0
      4506         1         0      4509         1         0      4512         1         0
      4515         1         0      4518         1         0      4521         1         0
      4524         1         0      4527         1         0      4531         2         0
      4538         2         0      4549         1         0      4557         1         0
      4566         1         0      4569         1         0      4572         1         0
      4575         1         0      4578         1         0      4581         1         0
      4584         1         0      4586         1         0      4588         1         0
      4591         1         0      4594         1         0      4597         1         0
      4600         1         0      4603         1         0      4606         1         0
      4609         1         0      4613         1         0      4616         1         0
      4619         1         0      4622         1         0      4625         1         0
      4628         1         0      4631         1         0      4634         1         0
      4637         1         0      4640         1         0      4643         1         0
      4646         1         0      4649         1         0      4652         1         0
      4656         2         0      4663         2         0      4674         1         0
      4682         1         0      4691         1         0      4694         1         0
      4697         1         0      4700         1         0      4703         1         0
      4706         1         0      4709         1         0      4711         1         0
      4714         1         0      4716         1         0      4719         1         0
      4722         1         0      4725         1         0      4728         1         0
      4731         1         0      4735         1         0      4738         1         0
      4741         1         0      4744         1         0      4747         1         0
      4750         1         0      4753         1         0      4756         1         0
      4759         1         0      4762         1         0      4765         1         0
      4768         1         0      4771         1         0      4775         2         0
      4782         2         0      4793         1         0      4801         1         0
      4810         1         0      4813         1         0      4816         1         0
      4819         1         0      4822         1         0      4825         1         0
      4828         1         0      4830         1         0      4833         1         0
      4835         1         0      4838         1         0      4841         1         0
      4844         1         0      4847         1         0      4850         1         0
      4854         1         0      4857         1         0      4860         1         0
      4863         1         0      4866         1         0      4869         1         0
      4872         1         0      4875         1         0      4878         1         0
      4881         1         0      4884         1         0      4887         1         0
      4890         1         0      4893         1         0      4897         2         0
      4904         2         0      4915         1         0      4923         1         0
      4932         1         0      4935         1         0      4938         1         0
      4941         1         0      4944         1         0      4947         1         0
      4950         1         0      4952         1         0      4955         1         0
      4957         1         0      4960         1         0      4963         1         0
      4966         1         0      4969         1         0      4972         1         0
      4976         1         0      4979         1         0      4982         1         0
      4985         1         0      4988         1         0      4991         1         0
      4994         1         0      4997         1         0      5000         1         0
      5003         1         0      5006         1         0      5009         1         0
      5012         1         0      5015         1         0      5019         1         0
      5024         1         0      5028         2         0      5039         1         0
      5047         1         0      5056         1         0      5059         1         0
      5062         1         0      5065         1         0      5068         1         0
      5071         1         0      5074         1         0      5076         1         0
      5078         1         0      5081         1         0      5084         1         0
      5087         1         0      5090         1         0      5093         1         0
      5097         1         0      5100         1         0      5103         1         0
      5106         1         0      5109         1         0      5112         1         0
      5115         1         0      5118         1         0      5121         1         0
      5124         1         0      5127         1         0      5130         1         0
      5133         1         0      5136         1         0      5140         1         0
      5145         1         0      5149         2         0      5160         1         0
      5168         1         0      5177         1         0      5180         1         0
      5183         1         0      5186         1         0      5189         1         0
      5192         1         0      5195         1         0      5197         1         0
      5200         1         0      5202         1         0      5205         1         0
      5208         1         0      5211         1         0      5214         1         0
      5217         1         0      5221         1         0      5224         1         0
      5227         1         0      5230         1         0      5233         1         0
      5236         1         0      5239         1         0      5242         1         0
      5245         1         0      5248         1         0      5251         1         0
      5254         1         0      5257         1         0      5260         1         0
      5264         2         0      5271         2         0      5282         1         0
      5290         1         0      5299         1         0      5302         1         0
      5305         1         0      5308         1         0      5311         1         0
      5314         1         0      5317         1         0      5319         1         0
      5322         1         0      5324         1         0      5327         1         0
      5330         1         0      5333         1         0      5336         1         0
      5339         1         0      5343         1         0      5346         1         0
      5349         1         0      5352         1         0      5355         1         0
      5358         1         0      5361         1         0      5364         1         0
      5367         1         0      5370         1         0      5373         1         0
      5376         1         0      5379         1         0      5382         1         0
      5386         2         0      5393         2         0      5404         1         0
      5412         1         0      5421         1         0      5424         1         0
      5427         1         0      5430         1         0      5433         1         0
      5436         1         0      5439         1         0      5441         1         0
      5444         1         0      5446         1         0      5449         1         0
      5452         1         0      5455         1         0      5458         1         0
      5461         1         0      5465         1         0      5468         1         0
      5471         1         0      5474         1         0      5477         1         0
      5480         1         0      5483         1         0      5486         1         0
      5489         1         0      5492         1         0      5495         1         0
      5498         1         0      5501         1         0      5505         2         0
      5516         1         0      5520         2         0      5531         1         0
      5539         1         0      5548         1         0      5556         1         0
      5565         1         0      5568         1         0      5571         1         0
      5574         1         0      5577         1         0      5580         1         0
      5583         1         0      5586         1         0      5589         1         0
      5591         1         0      5593         1         0      5596         1         0
      5599         1         0      5602         1         0      5605         1         0
      5608         1         0      5612         1         0      5615         1         0
      5618         1         0      5621         1         0      5624         1         0
      5627         1         0      5630         1         0      5633         1         0
      5636         1         0      5639         1         0      5642         1         0
      5645         1         0      5648         1         0      5651         1         0
      5655         1         0      5658         1         0      5661         1         0
      5664         1         0      5667         1         0      5670         1         0
      5673         1         0      5676         1         0      5679         1         0
      5681         1         0      5683         1         0      5686         1         0
      5689         1         0      5692         1         0      5695         1         0
      5698         1         0      5702         1         0      5705         1         0
      5708         1         0      5711         1         0      5714         1         0
      5717         1         0      5720         1         0      5723         1         0
      5726         1         0      5729         1         0      5732         1         0
      5735         1         0      5738         1         0      5741         1         0
      5745         2         0      5752         2         0      5763         1         0
      5771         1         0      5780         1         0      5783         1         0
      5786         1         0      5789         1         0      5792         1         0
      5795         1         0      5798         1         0      5800         1         0
      5803         1         0      5805         1         0      5808         1         0
      5811         1         0      5814         1         0      5817         1         0
      5820         1         0      5824         1         0      5827         1         0
      5830         1         0      5833         1         0      5836         1         0
      5839         1         0      5842         1         0      5845         1         0
      5848         1         0      5851         1         0      5854         1         0
      5857         1         0      5860         1         0      5863         1         0
      5867         2         0      5874         2         0      5885         1         0
      5893         1         0      5902         1         0      5905         1         0
      5908         1         0      5911         1         0      5914         1         0
      5917         1         0      5920         1         0      5922         1         0
      5925         1         0      5927         1         0      5930         1         0
      5933         1         0      5936         1         0      5939         1         0
      5942         1         0      5946         1         0      5949         1         0
      5952         1         0      5955         1         0      5958         1         0
      5961         1         0      5964         1         0      5967         1         0
      5970         1         0      5973         1         0      5976         1         0
      5979         1         0      5982         1         0      5985         1         0
      5989         2         0      5996         2         0      6007         1         0
      6015         1         0      6024         1         0      6027         1         0
      6030         1         0      6033         1         0      6036         1         0
      6039         1         0      6042         1         0      6044         1         0
      6046         1         0      6049         1         0      6052         1         0
      6055         1         0      6058         1         0      6061         1         0
      6064         1         0      6067         1         0      6071         1         0
      6074         1         0      6077         1         0      6080         1         0
      6083         1         0      6086         1         0      6089         1         0
      6092         1         0      6095         1         0      6098         1         0
      6101         1         0      6104         1         0      6107         1         0
      6110         1         0      6114         2         0      6121         2         0
      6132         1         0      6140         1         0      6149         1         0
      6152         1         0      6155         1         0      6158         1         0
      6161         1         0      6164         1         0      6167         1         0
      6169         1         0      6172         1         0      6174         1         0
      6177         1         0      6180         1         0      6183         1         0
      6186         1         0      6189         1         0      6193         1         0
      6196         1         0      6199         1         0      6202         1         0
      6205         1         0      6208         1         0      6211         1         0
      6214         1         0      6217         1         0      6220         1         0
      6223         1         0      6226         1         0      6229         1         0
      6232         1         0      6236         2         0      6243         2         0
      6254         1         0      6262         1         0      6271         1         0
      6274         1         0      6277         1         0      6280         1         0
      6283         1         0      6286         1         0      6289         1         0
      6291         1         0      6293         1         0      6296         1         0
      6299         1         0      6302         1         0      6305         1         0
      6308         1         0      6311         1         0      6314         1         0
      6318         1         0      6321         1         0      6324         1         0
      6327         1         0      6330         1         0      6333         1         0
      6336         1         0      6339         1         0      6342         1         0
      6345         1         0      6348         1         0      6351         1         0
      6354         1         0      6357         1         0      6361         2         0
      6368         2         0      6379         1         0      6387         1         0
      6396         1         0      6399         1         0      6402         1         0
      6405         1         0      6408         1         0      6411         1         0
      6414         1         0      6416         1         0      6419         1         0
      6421         1         0      6424         1         0      6427         1         0
      6430         1         0      6433         1         0      6436         1         0
      6440         1         0      6443         1         0      6446         1         0
      6449         1         0      6452         1         0      6455         1         0
      6458         1         0      6461         1         0      6464         1         0
      6467         1         0      6470         1         0      6473         1         0
      6476         1         0      6479         1         0      6483         2         0
      6490         2         0      6501         1         0      6509         1         0
      6518         1         0      6521         1         0      6524         1         0
      6527         1         0      6530         1         0      6533         1         0
      6536         1         0      6538         1         0      6541         1         0
      6543         1         0      6546         1         0      6549         1         0
      6552         1         0      6555         1         0      6558         1         0
      6562         1         0      6565         1         0      6568         1         0
      6571         1         0      6574         1         0      6577         1         0
      6580         1         0      6583         1         0      6586         1         0
      6589         1         0      6592         1         0      6595         1         0
      6598         1         0      6602         2         0      6609         2         0
      6620         1         0      6628         1         0      6637         1         0
      6640         1         0      6643         1         0      6646         1         0
      6649         1         0      6652         1         0      6655         1         0
      6657         1         0      6659         1         0      6662         1         0
      6665         1         0      6668         1         0      6671         1         0
      6674         1         0      6677         1         0      6680         1         0
      6684         1         0      6687         1         0      6690         1         0
      6693         1         0      6696         1         0      6699         1         0
      6702         1         0      6705         1         0      6708         1         0
      6711         1         0      6714         1         0      6717         1         0
      6720         1         0      6723         1         0      6727         2         0
      6734         2         0      6745         1         0      6753         1         0
      6762         1         0      6765         1         0      6768         1         0
      6771         1         0      6774         1         0      6777         1         0
      6780         1         0      6782         1         0      6785         1         0
      6787         1         0      6790         1         0      6793         1         0
      6796         1         0      6799         1         0      6802         1         0
      6806         1         0      6809         1         0      6812         1         0
      6815         1         0      6818         1         0      6821         1         0
      6824         1         0      6827         1         0      6830         1         0
      6833         1         0      6836         1         0      6839         1         0
      6842         1         0      6846         2         0      6853         2         0
      6864         1         0      6872         1         0      6881         1         0
      6884         1         0      6887         1         0      6890         1         0
      6893         1         0      6896         1         0      6899         1         0
      6901         1         0      6903         1         0      6906         1         0
      6909         1         0      6912         1         0      6915         1         0
      6918         1         0      6921         1         0      6924         1         0
      6928         1         0      6931         1         0      6934         1         0
      6937         1         0      6940         1         0      6943         1         0
      6946         1         0      6949         1         0      6952         1         0
      6955         1         0      6958         1         0      6961         1         0
      6964         1         0      6967         1         0      6971         2         0
      6978         2         0      6989         1         0      6997         1         0
      7006         1         0      7009         1         0      7012         1         0
      7015         1         0      7018         1         0      7021         1         0
      7024         1         0      7026         1         0      7029         1         0
      7031         1         0      7034         1         0      7037         1         0
      7040         1         0      7043         1         0      7046         1         0
      7050         1         0      7053         1         0      7056         1         0
      7059         1         0      7062         1         0      7065         1         0
      7068         1         0      7071         1         0      7074         1         0
      7077         1         0      7080         1         0      7083         1         0
      7086         1         0      7089         1         0      7093         2         0
      7100         2         0      7111         1         0      7119         1         0
      7128         1         0      7131         1         0      7134         1         0
      7137         1         0      7140         1         0      7143         1         0
      7146         1         0      7148         1         0      7151         1         0
      7153         1         0      7156         1         0      7159         1         0
      7162         1         0      7165         1         0      7168         1         0
      7172         1         0      7175         1         0      7178         1         0
      7181         1         0      7184         1         0      7187         1         0
      7190         1         0      7193         1         0      7196         1         0
      7199         1         0      7202         1         0      7205         1         0
      7208         1         0      7211         1         0      7215         2         0
      7222         2         0      7233         1         0      7241         1         0
      7250         1         0      7253         1         0      7256         1         0
      7259         1         0      7262         1         0      7265         1         0
      7268         1         0      7270         1         0      7272         1         0
      7275         1         0      7278         1         0      7281         1         0
      7284         1         0      7287         1         0      7290         1         0
      7293         1         0      7297         1         0      7300         1         0
      7303         1         0      7306         1         0      7309         1         0
      7312         1         0      7315         1         0      7318         1         0
      7321         1         0      7324         1         0      7327         1         0
      7330         1         0      7333         1         0      7336         1         0
      7340         2         0      7347         2         0      7358         1         0
      7366         1         0      7375         1         0      7378         1         0
      7381         1         0      7384         1         0      7387         1         0
      7390         1         0      7393         1         0      7395         1         0
      7398         1         0      7400         1         0      7403         1         0
      7406         1         0      7409         1         0      7412         1         0
      7415         1         0      7419         1         0      7422         1         0
      7425         1         0      7428         1         0      7431         1         0
      7434         1         0      7437         1         0      7440         1         0
      7443         1         0      7446         1         0      7449         1         0
      7452         1         0      7455         1         0      7458         1         0
      7462         2         0      7469         2         0      7480         1         0
      7488         1         0      7497         1         0      7500         1         0
      7503         1         0      7506         1         0      7509         1         0
      7512         1         0      7515         1         0      7517         1         0
      7520         1         0      7522         1         0      7525         1         0
      7528         1         0      7531         1         0      7534         1         0
      7537         1         0      7541         1         0      7544         1         0
      7547         1         0      7550         1         0      7553         1         0
      7556         1         0      7559         1         0      7562         1         0
      7565         1         0      7568         1         0      7571         1         0
      7574         1         0      7577         1         0      7580         1         0
      7584         2         0      7591         2         0      7602         1         0
      7610         1         0      7619         1         0      7622         1         0
      7625         1         0      7628         1         0      7631         1         0
      7634         1         0      7637         1         0      7639         1         0
      7642         1         0      7644         1         0      7647         1         0
      7650         1         0      7653         1         0      7656         1         0
      7659         1         0      7663         1         0      7666         1         0
      7669         1         0      7672         1         0      7675         1         0
      7678         1         0      7681         1         0      7684         1         0
      7687         1         0      7690         1         0      7693         1         0
      7696         1         0      7699         1         0      7702         1         0
      7706         1         0      7711         1         0      7715         2         0
      7726         1         0      7734         1         0      7743         1         0
      7746         1         0      7749         1         0      7752         1         0
      7755         1         0      7758         1         0      7761         1         0
      7763         1         0      7765         1         0      7768         1         0
      7771         1         0      7774         1         0      7777         1         0
      7780         1         0      7784         1         0      7787         1         0
      7790         1         0      7793         1         0      7796         1         0
      7799         1         0      7802         1         0      7805         1         0
      7808         1         0      7811         1         0      7814         1         0
      7817         1         0      7820         1         0      7823         1         0
      7827         1         0      7832         1         0      7836         2         0
      7847         1         0      7855         1         0      7864         1         0
      7867         1         0      7870         1         0      7873         1         0
      7876         1         0      7879         1         0      7882         1         0
      7884         1         0      7886         1         0      7889         1         0
      7892         1         0      7895         1         0      7898         1         0
      7901         1         0      7905         1         0      7908         1         0
      7911         1         0      7914         1         0      7917         1         0
      7920         1         0      7923         1         0      7926         1         0
      7929         1         0      7932         1         0      7935         1         0
      7938         1         0      7941         1         0      7944         1         0
      7948         2         0      7955         2         0      7966         1         0
      7974         1         0      7983         1         0      7986         1         0
      7989         1         0      7992         1         0      7995         1         0
      7998         1         0      8001         1         0      8003         1         0
      8006         1         0      8008         1         0      8011         1         0
      8014         1         0      8017         1         0      8020         1         0
      8023         1         0      8027         1         0      8030         1         0
      8033         1         0      8036         1         0      8039         1         0
      8042         1         0      8045         1         0      8048         1         0
      8051         1         0      8054         1         0      8057         1         0
      8060         1         0      8063         1         0      8067         2         0
      8074         2         0      8085         1         0      8093         1         0
      8102         1         0      8105         1         0      8108         1         0
      8111         1         0      8114         1         0      8117         1         0
      8120         1         0      8122         1         0      8124         1         0
      8127         1         0      8130         1         0      8133         1         0
      8136         1         0      8139         1         0      8142         1         0
      8145         1         0      8149         1         0      8152         1         0
      8155         1         0      8158         1         0      8161         1         0
      8164         1         0      8167         1         0      8170         1         0
      8173         1         0      8176         1         0      8179         1         0
      8182         1         0      8185         1         0      8188         1         0
      8192         2         0      8199         2         0      8210         1         0
      8218         1         0      8227         1         0      8230         1         0
      8233         1         0      8236         1         0      8239         1         0
      8242         1         0      8245         1         0      8247         1         0
      8249         1         0      8252         1         0      8255         1         0
      8258         1         0      8261         1         0      8264         1         0
      8268         1         0      8271         1         0      8274         1         0
      8277         1         0      8280         1         0      8283         1         0
      8286         1         0      8288         1         0      8290         1         0
      8293         1         0      8296         1         0      8299         1         0
      8302         1         0      8305         1         0      8308         1         0
      8311         1         0      8315         2         0      8322         2         0
      8333         1         0      8341         1         0      8350         1         0
      8353         1         0      8356         1         0      8359         1         0
      8362         1         0      8365         1         0      8368         1         0
      8370         1         0      8372         1         0      8375         1         0
      8378         1         0      8381         1         0      8384         1         0
      8387         1         0      8391         1         0      8394         1         0
      8397         1         0      8400         1         0      8403         1         0
      8406         1         0      8409         1         0      8411         1         0
      8413         1         0      8416         1         0      8419         1         0
      8422         1         0      8425         1         0      8428         1         0
      8431         1         0      8434         1         0      8438         2         0
      8445         2         0      8456         1         0      8464         1         0
      8473         1         0      8476         1         0      8479         1         0
      8482         1         0      8485         1         0      8488         1         0
      8491         1         0      8493         1         0      8496         1         0
      8498         1         0      8501         1         0      8504         1         0
      8507         1         0      8510         1         0      8513         1         0
      8517         1         0      8520         1         0      8523         1         0
      8526         1         0      8529         1         0      8532         1         0
      8535         1         0      8538         1         0      8541         1         0
      8544         1         0      8547         1         0      8550         1         0
      8553         1         0      8556         1         0      8560         2         0
      8567         2         0      8578         1         0      8586         1         0
      8595         1         0      8598         1         0      8601         1         0
      8604         1         0      8607         1         0      8610         1         0
      8613         1         0      8615         1         0      8618         1         0
      8620         1         0      8623         1         0      8626         1         0
      8629         1         0      8632         1         0      8635         1         0
      8639         1         0      8642         1         0      8645         1         0
      8648         1         0      8651         1         0      8654         1         0
      8657         1         0      8660         1         0      8663         1         0
      8666         1         0      8669         1         0      8672         1         0
      8675         1         0      8678         1         0      8682         2         0
      8689         2         0      8700         1         0      8708         1         0
      8717         1         0      8720         1         0      8723         1         0
      8726         1         0      8729         1         0      8732         1         0
      8735         1         0      8737         1         0      8739         1         0
      8742         1         0      8745         1         0      8748         1         0
      8751         1         0      8754         1         0      8758         1         0
      8761         1         0      8764         1         0      8767         1         0
      8770         1         0      8773         1         0      8776         1         0
      8778         1         0      8780         1         0      8783         1         0
      8786         1         0      8789         1         0      8792         1         0
      8795         1         0      8798         1         0      8801         1         0
      8805         2         0      8812         2         0      8823         1         0
      8831         1         0      8840         1         0      8843         1         0
      8846         1         0      8849         1         0      8852         1         0
      8855         1         0      8858         1         0      8860         1         0
      8863         1         0      8865         1         0      8868         1         0
      8871         1         0      8874         1         0      8877         1         0
      8880         1         0      8884         1         0      8887         1         0
      8890         1         0      8893         1         0      8896         1         0
      8899         1         0      8902         1         0      8905         1         0
      8908         1         0      8911         1         0      8914         1         0
      8917         1         0      8920         1         0      8924         2         0
      8931         2         0      8942         1         0      8950         1         0
      8959         1         0      8962         1         0      8965         1         0
      8968         1         0      8971         1         0      8974         1         0
      8977         1         0      8979         1         0      8981         1         0
      8984         1         0      8987         1         0      8990         1         0
      8993         1         0      8996         1         0      9000         1         0
      9003         1         0      9006         1         0      9009         1         0
      9012         1         0      9015         1         0      9018         1         0
      9020         1         0      9022         1         0      9025         1         0
      9028         1         0      9031         1         0      9034         1         0
      9037         1         0      9040         1         0      9043         1         0
      9047         1         0      9052         1         0      9056         2         0
      9067         1         0      9075         1         0      9084         1         0
      9087         1         0      9090         1         0      9093         1         0
      9096         1         0      9099         1         0      9102         1         0
      9104         1         0      9107         1         0      9109         1         0
      9112         1         0      9115         1         0      9118         1         0
      9121         1         0      9124         1         0      9128         1         0
      9131         1         0      9134         1         0      9137         1         0
      9140         1         0      9143         1         0      9146         1         0
      9149         1         0      9152         1         0      9155         1         0
      9158         1         0      9161         1         0      9164         1         0
      9167         1         0      9171         2         0      9178         2         0
      9189         1         0      9197         1         0      9206         1         0
      9209         1         0      9212         1         0      9215         1         0
      9218         1         0      9221         1         0      9224         1         0
      9226         1         0      9229         1         0      9231         1         0
      9234         1         0      9237         1         0      9240         1         0
      9243         1         0      9246         1         0      9250         1         0
      9253         1         0      9256         1         0      9259         1         0
      9262         1         0      9265         1         0      9268         1         0
      9271         1         0      9274         1         0      9277         1         0
      9280         1         0      9283         1         0      9286         1         0
      9290         2         0      9297         2         0      9308         1         0
      9316         1         0      9325         1         0      9328         1         0
      9331         1         0      9334         1         0      9337         1         0
      9340         1         0      9343         1         0      9345         1         0
      9348         1         0      9350         1         0      9353         1         0
      9356         1         0      9359         1         0      9362         1         0
      9365         1         0      9369         1         0      9372         1         0
      9375         1         0      9378         1         0      9381         1         0
      9384         1         0      9387         1         0      9390         1         0
      9393         1         0      9396         1         0      9399         1         0
      9402         1         0      9405         1         0      9408         1         0
      9412         2         0      9419         2         0      9430         1         0
      9438         1         0      9447         1         0      9450         1         0
      9453         1         0      9456         1         0      9459         1         0
      9462         1         0      9465         1         0      9467         1         0
      9470         1         0      9472         1         0      9475         1         0
      9478         1         0      9481         1         0      9484         1         0
      9487         1         0      9491         1         0      9494         1         0
      9497         1         0      9500         1         0      9503         1         0
      9506         1         0      9509         1         0      9512         1         0
      9515         1         0      9518         1         0      9521         1         0
      9524         1         0      9527         1         0      9531         1         0
      9536         1         0      9540         2         0      9551         1         0
      9559         1         0      9568         1         0      9571         1         0
      9574         1         0      9577         1         0      9580         1         0
      9583         1         0      9586         1         0      9588         1         0
      9590         1         0      9593         1         0      9596         1         0
      9599         1         0      9602         1         0      9605         1         0
      9609         1         0      9612         1         0      9615         1         0
      9618         1         0      9621         1         0      9624         1         0
      9627         1         0      9630         1         0      9633         1         0
      9636         1         0      9639         1         0      9642         1         0
      9645         1         0      9648         1         0      9652         1         0
      9657         1         0      9661         2         0      9672         1         0
      9680         1         0      9689         1         0      9692         1         0
      9695         1         0      9698         1         0      9701         1         0
      9704         1         0      9707         1         0      9709         1         0
      9712         1         0      9714         1         0      9717         1         0
      9720         1         0      9723         1         0      9726         1         0
      9729         1         0      9733         1         0      9736         1         0
      9739         1         0      9742         1         0      9745         1         0
      9748         1         0      9751         1         0      9754         1         0
      9757         1         0      9760         1         0      9763         1         0
      9766         1         0      9769         1         0      9772         1         0
      9776         1         0      9781         1         0      9785         2         0
      9796         1         0      9804         1         0      9813         1         0
      9816         1         0      9819         1         0      9822         1         0
      9825         1         0      9828         1         0      9831         1         0
      9833         1         0      9836         1         0      9838         1         0
      9841         1         0      9844         1         0      9847         1         0
      9850         1         0      9853         1         0      9857         1         0
      9860         1         0      9863         1         0      9866         1         0
      9869         1         0      9872         1         0      9875         1         0
      9878         1         0      9881         1         0      9884         1         0
      9887         1         0      9890         1         0      9893         1         0
      9896         1         0      9900         2         0      9907         2         0
      9918         1         0      9926         1         0      9935         1         0
      9938         1         0      9941         1         0      9944         1         0
      9947         1         0      9950         1         0      9953         1         0
      9955         1         0      9958         1         0      9960         1         0
      9963         1         0      9966         1         0      9969         1         0
      9972         1         0      9975         1         0      9979         1         0
      9982         1         0      9985         1         0      9988         1         0
      9991         1         0      9994         1         0      9997         1         0
     10000         1         0     10003         1         0     10006         1         0
     10009         1         0     10012         1         0     10015         1         0
     10018         1         0     10022         2         0     10029         2         0
     10040         1         0     10048         1         0     10057         1         0
     10060         1         0     10063         1         0     10066         1         0
     10069         1         0     10072         1         0     10075         1         0
     10077         1         0     10079         1         0     10082         1         0
     10085         1         0     10088         1         0     10091         1         0
     10094         1         0     10097         1         0     10100         1         0
     10104         1         0     10107         1         0     10110         1         0
     10113         1         0     10116         1         0     10119         1         0
     10122         1         0     10125         1         0     10128         1         0
     10131         1         0     10134         1         0     10137         1         0
     10140         1         0     10143         1         0     10147         2         0
     10154         2         0     10165         1         0     10173         1         0
     10182         1         0     10185         1         0     10188         1         0
     10191         1         0     10194         1         0     10197         1         0
     10200         1         0     10202         1         0     10205         1         0
     10207         1         0     10210         1         0     10213         1         0
     10216         1         0     10219         1         0     10222         1         0
     10226         1         0     10229         1         0     10232         1         0
     10235         1         0     10238         1         0     10241         1         0
     10244         1         0     10247         1         0     10250         1         0
     10253         1         0     10256         1         0     10259         1         0
     10262         1         0     10265         1         0     10269         1         0
     10274         1         0     10278         2         0     10289         1         0
     10297         1         0     10306         1         0     10309         1         0
     10312         1         0     10315         1         0     10318         1         0
     10321         1         0     10324         1         0     10326         1         0
     10328         1         0     10331         1         0     10334         1         0
     10337         1         0     10340         1         0     10343         1         0
     10347         1         0     10350         1         0     10353         1         0
     10356         1         0     10359         1         0     10362         1         0
     10365         1         0     10368         1         0     10371         1         0
     10374         1         0     10377         1         0     10380         1         0
     10383         1         0     10386         1         0     10390         1         0
     10395         1         0     10399         2         0     10410         1         0
     10418         1         0     10427         1         0     10430         1         0
     10433         1         0     10436         1         0     10439         1         0
     10442         1         0     10445         1         0     10447         1         0
     10450         1         0     10452         1         0     10455         1         0
     10458         1         0     10461         1         0     10464         1         0
     10467         1         0     10471         1         0     10474         1         0
     10477         1         0     10480         1         0     10483         1         0
     10486         1         0     10489         1         0     10492         1         0
     10495         1         0     10498         1         0     10501         1         0
     10504         1         0     10507         1         0     10510         1         0
     10514         1         0     10519         1         0     10523         2         0
     10534         1         0     10542         1         0     10551         1         0
     10554         1         0     10557         1         0     10560         1         0
     10563         1         0     10566         1         0     10569         1         0
     10571         1         0     10573         1         0     10576         1         0
     10579         1         0     10582         1         0     10585         1         0
     10588         1         0     10592         1         0     10595         1         0
     10598         1         0     10601         1         0     10604         1         0
     10607         1         0     10610         1         0     10613         1         0
     10616         1         0     10619         1         0     10622         1         0
     10625         1         0     10628         1         0     10631         1         0
     10635         2         0     10642         2         0     10653         1         0
     10661         1         0     10670         1         0     10673         1         0
     10676         1         0     10679         1         0     10682         1         0
     10685         1         0     10688         1         0     10690         1         0
     10693         1         0     10695         1         0     10698         1         0
     10701         1         0     10704         1         0     10707         1         0
     10710         1         0     10714         1         0     10717         1         0
     10720         1         0     10723         1         0     10726         1         0
     10729         1         0     10732         1         0     10735         1         0
     10738         1         0     10741         1         0     10744         1         0
     10747         1         0     10750         1         0     10753         1         0
     10757         2         0     10764         2         0     10775         1         0
     10783         1         0     10792         1         0     10795         1         0
     10798         1         0     10801         1         0     10804         1         0
     10807         1         0     10810         1         0     10812         1         0
     10815         1         0     10817         1         0     10820         1         0
     10823         1         0     10826         1         0     10829         1         0
     10832         1         0     10836         1         0     10839         1         0
     10842         1         0     10845         1         0     10848         1         0
     10851         1         0     10854         1         0     10857         1         0
     10860         1         0     10863         1         0     10866         1         0
     10869         1         0     10872         1         0     10875         1         0
     10879         1         0     10884         1         0     10888         2         0
     10899         1         0     10907         1         0     10916         1         0
     10919         1         0     10922         1         0     10925         1         0
     10928         1         0     10931         1         0     10934         1         0
     10936         1         0     10938         1         0     10941         1         0
     10944         1         0     10947         1         0     10950         1         0
     10953         1         0     10957         1         0     10960         1         0
     10963         1         0     10966         1         0     10969         1         0
     10972         1         0     10975         1         0     10978         1         0
     10981         1         0     10984         1         0     10987         1         0
     10990         1         0     10993         1         0     10996         1         0
     11000         1         0     11005         1         0     11009         2         0
     11020         1         0     11028         1         0     11037         1         0
     11040         1         0     11043         1         0     11046         1         0
     11049         1         0     11052         1         0     11055         1         0
     11057         1         0     11060         1         0     11062         1         0
     11065         1         0     11068         1         0     11071         1         0
     11074         1         0     11077         1         0     11081         1         0
     11084         1         0     11087         1         0     11090         1         0
     11093         1         0     11096         1         0     11099         1         0
     11102         1         0     11105         1         0     11108         1         0
     11111         1         0     11114         1         0     11117         1         0
     11120         1         0     11124         2         0     11131         2         0
     11142         1         0     11150         1         0     11159         1         0
     11162         1         0     11165         1         0     11168         1         0
     11171         1         0     11174         1         0     11177         1         0
     11179         1         0     11182         1         0     11184         1         0
     11187         1         0     11190         1         0     11193         1         0
     11196         1         0     11199         1         0     11203         1         0
     11206         1         0     11209         1         0     11212         1         0
     11215         1         0     11218         1         0     11221         1         0
     11224         1         0     11227         1         0     11230         1         0
     11233         1         0     11236         1         0     11239         1         0
     11242         1         0     11246         2         0     11253         2         0
     11264         1         0     11272         1         0     11281         1         0
     11284         1         0     11287         1         0     11290         1         0
     11293         1         0     11296         1         0     11299         1         0
     11301         1         0     11303         1         0     11306         1         0
     11309         1         0     11312         1         0     11315         1         0
     11318         1         0     11322         1         0     11325         1         0
     11328         1         0     11331         1         0     11334         1         0
     11337         1         0     11340         1         0     11342         1         0
     11344         1         0     11347         1         0     11350         1         0
     11353         1         0     11356         1         0     11359         1         0
     11362         1         0     11365         1         0     11369         1         0
     11374         1         0     11378         2         0     11389         1         0
     11397         1         0     11406         1         0     11409         1         0
     11412         1         0     11415         1         0     11418         1         0
     11421         1         0     11424         1         0     11426         1         0
     11428         1         0     11431         1         0     11434         1         0
     11437         1         0     11440         1         0     11443         1         0
     11447         1         0     11450         1         0     11453         1         0
     11456         1         0     11459         1         0     11462         1         0
     11465         1         0     11468         1         0     11471         1         0
     11474         1         0     11477         1         0     11480         1         0
     11483         1         0     11486         1         0     11490         2         0
     11497         2         0     11508         1         0     11516         1         0
     11525         1         0     11528         1         0     11531         1         0
     11534         1         0     11537         1         0     11540         1         0
     11543         1         0     11545         1         0     11548         1         0
     11550         1         0     11553         1         0     11556         1         0
     11559         1         0     11562         1         0     11565         1         0
     11569         1         0     11572         1         0     11575         1         0
     11578         1         0     11581         1         0     11584         1         0
     11587         1         0     11590         1         0     11593         1         0
     11596         1         0     11599         1         0     11602         1         0
     11605         1         0     11608         1         0     11612         2         0
     11619         2         0     11630         1         0     11638         1         0
     11647         1         0     11650         1         0     11653         1         0
     11656         1         0     11659         1         0     11662         1         0
     11665         1         0     11667         1         0     11670         1         0
     11672         1         0     11675         1         0     11678         1         0
     11681         1         0     11684         1         0     11687         1         0
     11691         1         0     11694         1         0     11697         1         0
     11700         1         0     11703         1         0     11706         1         0
     11709         1         0     11712         1         0     11715         1         0
     11718         1         0     11721         1         0     11724         1         0
     11727         1         0     11730         1         0     11734         2         0
     11741         2         0     11752         1         0     11760         1         0
     11769         1         0     11772         1         0     11775         1         0
     11778         1         0     11781         1         0     11784         1         0
     11787         1         0     11789         1         0     11792         1         0
     11794         1         0     11797         1         0     11800         1         0
     11803         1         0     11806         1         0     11809         1         0
     11813         1         0     11816         1         0     11819         1         0
     11822         1         0     11825         1         0     11828         1         0
     11831         1         0     11834         1         0     11837         1         0
     11840         1         0     11843         1         0     11846         1         0
     11849         1         0     11852         1         0     11856         2         0
     11863         2         0     11874         1         0     11882         1         0
     11891         1         0     11894         1         0     11897         1         0
     11900         1         0     11903         1         0     11906         1         0
     11909         1         0     11911         1         0     11914         1         0
     11916         1         0     11919         1         0     11922         1         0
     11925         1         0     11928         1         0     11931         1         0
     11935         1         0     11938         1         0     11941         1         0
     11944         1         0     11947         1         0     11950         1         0
     11953         1         0     11956         1         0     11959         1         0
     11962         1         0     11965         1         0     11968         1         0
     11971         1         0     11974         1         0     11978         2         0
     11985         2         0     11996         1         0     12004         1         0
     12013         1         0     12016         1         0     12019         1         0
     12022         1         0     12025         1         0     12028         1         0
     12031         1         0     12033         1         0     12036         1         0
     12038         1         0     12041         1         0     12044         1         0
     12047         1         0     12050         1         0     12053         1         0
     12057         1         0     12060         1         0     12063         1         0
     12066         1         0     12069         1         0     12072         1         0
     12075         1         0     12078         1         0     12081         1         0
     12084         1         0     12087         1         0     12090         1         0
     12093         1         0     12097         1         0     12102         1         0
     12106         2         0     12117         1         0     12125         1         0
     12134         1         0     12137         1         0     12140         1         0
     12143         1         0     12146         1         0     12149         1         0
     12152         1         0     12154         1         0     12157         1         0
     12159         1         0     12162         1         0     12165         1         0
     12168         1         0     12171         1         0     12174         1         0
     12178         1         0     12181         1         0     12184         1         0
     12187         1         0     12190         1         0     12193         1         0
     12196         1         0     12199         1         0     12202         1         0
     12205         1         0     12208         1         0     12211         1         0
     12214         1         0     12217         1         0     12221         2         0
     12228         2         0     12239         1         0     12247         1         0
     12256         1         0     12259         1         0     12262         1         0
     12265         1         0     12268         1         0     12271         1         0
     12274         1         0     12276         1         0     12279         1         0
     12281         1         0     12284         1         0     12287         1         0
     12290         1         0     12293         1         0     12296         1         0
     12300         1         0     12303         1         0     12306         1         0
     12309         1         0     12312         1         0     12315         1         0
     12318         1         0     12321         1         0     12324         1         0
     12327         1         0     12330         1         0     12333         1         0
     12336         1         0     12339         1         0     12343         2         0
     12350         2         0     12361         1         0     12369         1         0
     12378         1         0     12381         1         0     12384         1         0
     12387         1         0     12390         1         0     12393         1         0
     12396         1         0     12398         1         0     12400         1         0
     12403         1         0     12406         1         0     12409         1         0
     12412         1         0     12415         1         0     12419         1         0
     12422         1         0     12425         1         0     12428         1         0
     12431         1         0     12434         1         0     12437         1         0
     12439         1         0     12441         1         0     12444         1         0
     12447         1         0     12450         1         0     12453         1         0
     12456         1         0     12459         1         0     12462         1         0
     12466         2         0     12473         2         0     12484         1         0
     12492         1         0     12501         1         0     12504         1         0
     12507         1         0     12510         1         0     12513         1         0
     12516         1         0     12519         1         0     12521         1         0
     12524         1         0     12526         1         0     12529         1         0
     12532         1         0     12535         1         0     12538         1         0
     12541         1         0     12545         1         0     12548         1         0
     12551         1         0     12554         1         0     12557         1         0
     12560         1         0     12563         1         0     12566         1         0
     12569         1         0     12572         1         0     12575         1         0
     12578         1         0     12581         1         0     12584         1         0
     12588         2         0     12595         2         0     12606         1         0
     12614         1         0     12623         1         0     12626         1         0
     12629         1         0     12632         1         0     12635         1         0
     12638         1         0     12641         1         0     12643         1         0
     12646         1         0     12648         1         0     12651         1         0
     12654         1         0     12657         1         0     12660         1         0
     12663         1         0     12667         1         0     12670         1         0
     12673         1         0     12676         1         0     12679         1         0
     12682         1         0     12685         1         0     12688         1         0
     12691         1         0     12694         1         0     12697         1         0
     12700         1         0     12703         1         0     12706         1         0
     12710         1         0     12715         1         0     12719         2         0
     12730         1         0     12738         1         0     12747         1         0
     12750         1         0     12753         1         0     12756         1         0
     12759         1         0     12762         1         0     12765         1         0
     12767         1         0     12770         1         0     12772         1         0
     12775         1         0     12778         1         0     12781         1         0
     12784         1         0     12787         1         0     12791         1         0
     12794         1         0     12797         1         0     12800         1         0
     12803         1         0     12806         1         0     12809         1         0
     12812         1         0     12815         1         0     12818         1         0
     12821         1         0     12824         1         0     12827         1         0
     12830         1         0     12834         2         0     12841         2         0
     12852         1         0     12860         1         0     12869         1         0
     12872         1         0     12875         1         0     12878         1         0
     12881         1         0     12884         1         0     12887         1         0
     12889         1         0     12892         1         0     12894         1         0
     12897         1         0     12900         1         0     12903         1         0
     12906         1         0     12909         1         0     12913         1         0
     12916         1         0     12919         1         0     12922         1         0
     12925         1         0     12928         1         0     12931         1         0
     12934         1         0     12937         1         0     12940         1         0
     12943         1         0     12946         1         0     12949         1         0
     12952         1         0     12956         2         0     12963         2         0
     12974         1         0     12982         1         0     12991         1         0
     12994         1         0     12997         1         0     13000         1         0
     13003         1         0     13006         1         0     13009         1         0
     13011         1         0     13014         1         0     13016         1         0
     13019         1         0     13022         1         0     13025         1         0
     13028         1         0     13031         1         0     13035         1         0
     13038         1         0     13041         1         0     13044         1         0
     13047         1         0     13050         1         0     13053         1         0
     13056         1         0     13059         1         0     13062         1         0
     13065         1         0     13068         1         0     13071         1         0
     13074         1         0     13078         1         0     13083         1         0
     13087         2         0     13098         1         0     13106         1         0
     13115         1         0     13118         1         0     13121         1         0
     13124         1         0     13127         1         0     13130         1         0
     13133         1         0     13135         1         0     13138         1         0
     13140         1         0     13143         1         0     13146         1         0
     13149         1         0     13152         1         0     13155         1         0
     13159         1         0     13162         1         0     13165         1         0
     13168         1         0     13171         1         0     13174         1         0
     13177         1         0     13180         1         0     13183         1         0
     13186         1         0     13189         1         0     13192         1         0
     13195         1         0     13198         1         0     13202         2         0
     13209         2         0     13220         1         0     13228         1         0
     13237         1         0     13240         1         0     13243         1         0
     13246         1         0     13249         1         0     13252         1         0
     13255         1         0     13257         1         0     13260         1         0
     13262         1         0     13265         1         0     13268         1         0
     13271         1         0     13274         1         0     13277         1         0
     13281         1         0     13284         1         0     13287         1         0
     13290         1         0     13293         1         0     13296         1         0
     13299         1         0     13302         1         0     13305         1         0
     13308         1         0     13311         1         0     13314         1         0
     13317         1         0     13321         2         0     13328         2         0
     13339         1         0     13347         1         0     13356         1         0
     13359         1         0     13362         1         0     13365         1         0
     13368         1         0     13371         1         0     13374         1         0
     13376         1         0     13379         1         0     13381         1         0
     13384         1         0     13387         1         0     13390         1         0
     13393         1         0     13396         1         0     13400         1         0
     13403         1         0     13406         1         0     13409         1         0
     13412         1         0     13415         1         0     13418         1         0
     13421         1         0     13424         1         0     13427         1         0
     13430         1         0     13433         1         0     13436         1         0
     13439         1         0     13443         2         0     13450         2         0
     13461         1         0     13469         1         0     13478         1         0
     13481         1         0     13484         1         0     13487         1         0
     13490         1         0     13493         1         0     13496         1         0
     13498         1         0     13501         1         0     13503         1         0
     13506         1         0     13509         1         0     13512         1         0
     13515         1         0     13518         1         0     13522         1         0
     13525         1         0     13528         1         0     13531         1         0
     13534         1         0     13537         1         0     13540         1         0
     13543         1         0     13546         1         0     13549         1         0
     13552         1         0     13555         1         0     13558         1         0
     13561         1         0     13565         2         0     13572         2         0
     13583         1         0     13591         1         0     13600         1         0
     13603         1         0     13606         1         0     13609         1         0
     13612         1         0     13615         1         0     13618         1         0
     13620         1         0     13623         1         0     13625         1         0
     13628         1         0     13631         1         0     13634         1         0
     13637         1         0     13640         1         0     13644         1         0
     13647         1         0     13650         1         0     13653         1         0
     13656         1         0     13659         1         0     13662         1         0
     13665         1         0     13668         1         0     13671         1         0
     13674         1         0     13677         1         0     13680         1         0
     13683         1         0     13687         2         0     13694         2         0
     13705         1         0     13713         1         0     13722         1         0
     13725         1         0     13728         1         0     13731         1         0
     13734         1         0     13737         1         0     13740         1         0
     13742         1         0     13745         1         0     13747         1         0
     13750         1         0     13753         1         0     13756         1         0
     13759         1         0     13762         1         0     13766         1         0
     13769         1         0     13772         1         0     13775         1         0
     13778         1         0     13781         1         0     13784         1         0
     13787         1         0     13790         1         0     13793         1         0
     13796         1         0     13799         1         0     13802         1         0
     13806         2         0     13813         2         0     13824         1         0
     13832         1         0     13841         1         0     13844         1         0
     13847         1         0     13850         1         0     13853         1         0
     13856         1         0     13859         1         0     13861         1         0
     13864         1         0     13866         1         0     13869         1         0
     13872         1         0     13875         1         0     13878         1         0
     13881         1         0     13885         1         0     13888         1         0
     13891         1         0     13894         1         0     13897         1         0
     13900         1         0     13903         1         0     13906         1         0
     13909         1         0     13912         1         0     13915         1         0
     13918         1         0     13921         1         0     13924         1         0
     13928         2         0     13935         2         0     13946         1         0
     13954         1         0     13963         1         0     13966         1         0
     13969         1         0     13972         1         0     13975         1         0
     13978         1         0     13981         1         0     13983         1         0
     13986         1         0     13988         1         0     13991         1         0
     13994         1         0     13997         1         0     14000         1         0
     14003         1         0     14007         1         0     14010         1         0
     14013         1         0     14016         1         0     14019         1         0
     14022         1         0     14025         1         0     14028         1         0
     14031         1         0     14034         1         0     14037         1         0
     14040         1         0     14043         1         0     14046         1         0
     14050         2         0     14061         1         0     14065         2         0
     14076         1         0     14084         1         0     14093         1         0
     14101         1         0     14110         1         0     14113         1         0
     14116         1         0     14119         1         0     14122         1         0
     14125         1         0     14128         1         0     14131         1         0
     14134         1         0     14136         1         0     14138         1         0
     14141         1         0     14144         1         0     14147         1         0
     14150         1         0     14153         1         0     14157         1         0
     14160         1         0     14163         1         0     14166         1         0
     14169         1         0     14172         1         0     14175         1         0
     14178         1         0     14181         1         0     14184         1         0
     14187         1         0     14190         1         0     14193         1         0
     14196         1         0     14200         1         0     14203         1         0
     14206         1         0     14209         1         0     14212         1         0
     14215         1         0     14218         1         0     14221         1         0
     14224         1         0     14226         1         0     14228         1         0
     14231         1         0     14234         1         0     14237         1         0
     14240         1         0     14243         1         0     14247         1         0
     14250         1         0     14253         1         0     14256         1         0
     14259         1         0     14262         1         0     14265         1         0
     14268         1         0     14271         1         0     14274         1         0
     14277         1         0     14280         1         0     14283         1         0
     14286         1         0     14290         1         0     14295         1         0
     14299         2         0     14310         1         0     14318         1         0
     14327         1         0     14330         1         0     14333         1         0
     14336         1         0     14339         1         0     14342         1         0
     14345         1         0     14347         1         0     14350         1         0
     14352         1         0     14355         1         0     14358         1         0
     14361         1         0     14364         1         0     14367         1         0
     14371         1         0     14374         1         0     14377         1         0
     14380         1         0     14383         1         0     14386         1         0
     14389         1         0     14392         1         0     14395         1         0
     14398         1         0     14401         1         0     14404         1         0
     14407         1         0     14410         1         0     14414         2         0
     14425         1         0     14429         2         0     14440         1         0
     14448         1         0     14457         1         0     14465         1         0
     14474         1         0     14477         1         0     14480         1         0
     14483         1         0     14486         1         0     14489         1         0
     14492         1         0     14495         1         0     14498         1         0
     14500         1         0     14502         1         0     14505         1         0
     14508         1         0     14511         1         0     14514         1         0
     14517         1         0     14521         1         0     14524         1         0
     14527         1         0     14530         1         0     14533         1         0
     14536         1         0     14539         1         0     14542         1         0
     14545         1         0     14548         1         0     14551         1         0
     14554         1         0     14557         1         0     14560         1         0
     14564         1         0     14567         1         0     14570         1         0
     14573         1         0     14576         1         0     14579         1         0
     14582         1         0     14585         1         0     14588         1         0
     14590         1         0     14592         1         0     14595         1         0
     14598         1         0     14601         1         0     14604         1         0
     14607         1         0     14611         1         0     14614         1         0
     14617         1         0     14620         1         0     14623         1         0
     14626         1         0     14629         1         0     14632         1         0
     14635         1         0     14638         1         0     14641         1         0
     14644         1         0     14647         1         0     14650         1         0
     14654         2         0     14661         2         0     14672         1         0
     14680         1         0     14689         1         0     14692         1         0
     14695         1         0     14698         1         0     14701         1         0
     14704         1         0     14707         1         0     14709         1         0
     14712         1         0     14714         1         0     14717         1         0
     14720         1         0     14723         1         0     14726         1         0
     14729         1         0     14733         1         0     14736         1         0
     14739         1         0     14742         1         0     14745         1         0
     14748         1         0     14751         1         0     14754         1         0
     14757         1         0     14760         1         0     14763         1         0
     14766         1         0     14769         1         0     14772         1         0
     14776         2         0     14783         2         0     14794         1         0
     14802         1         0     14811         1         0     14814         1         0
     14817         1         0     14820         1         0     14823         1         0
     14826         1         0     14829         1         0     14831         1         0
     14834         1         0     14836         1         0     14839         1         0
     14842         1         0     14845         1         0     14848         1         0
     14851         1         0     14855         1         0     14858         1         0
     14861         1         0     14864         1         0     14867         1         0
     14870         1         0     14873         1         0     14876         1         0
     14879         1         0     14882         1         0     14885         1         0
     14888         1         0     14891         1         0     14894         1         0
     14898         2         0     14905         2         0     14916         1         0
     14924         1         0     14933         1         0     14936         1         0
     14939         1         0     14942         1         0     14945         1         0
     14948         1         0     14951         1         0     14953         1         0
     14956         1         0     14958         1         0     14961         1         0
     14964         1         0     14967         1         0     14970         1         0
     14973         1         0     14977         1         0     14980         1         0
     14983         1         0     14986         1         0     14989         1         0
     14992         1         0     14995         1         0     14998         1         0
     15001         1         0     15004         1         0     15007         1         0
     15010         1         0     15013         1         0     15016         1         0
     15020         2         0     15027         2         0     15038         1         0
     15046         1         0     15055         1         0     15058         1         0
     15061         1         0     15064         1         0     15067         1         0
     15070         1         0     15073         1         0     15075         1         0
     15078         1         0     15080         1         0     15083         1         0
     15086         1         0     15089         1         0     15092         1         0
     15095         1         0     15099         1         0     15102         1         0
     15105         1         0     15108         1         0     15111         1         0
     15114         1         0     15117         1         0     15120         1         0
     15123         1         0     15126         1         0     15129         1         0
     15132         1         0     15135         1         0     15138         1         0
     15142         2         0     15149         2         0     15160         1         0
     15168         1         0     15177         1         0     15180         1         0
     15183         1         0     15186         1         0     15189         1         0
     15192         1         0     15195         1         0     15197         1         0
     15199         1         0     15202         1         0     15205         1         0
     15208         1         0     15211         1         0     15214         1         0
     15217         1         0     15220         1         0     15224         1         0
     15227         1         0     15230         1         0     15233         1         0
     15236         1         0     15239         1         0     15242         1         0
     15245         1         0     15248         1         0     15251         1         0
     15254         1         0     15257         1         0     15260         1         0
     15263         1         0     15267         2         0     15274         2         0
     15285         1         0     15293         1         0     15302         1         0
     15305         1         0     15308         1         0     15311         1         0
     15314         1         0     15317         1         0     15320         1         0
     15322         1         0     15325         1         0     15327         1         0
     15330         1         0     15333         1         0     15336         1         0
     15339         1         0     15342         1         0     15346         1         0
     15349         1         0     15352         1         0     15355         1         0
     15358         1         0     15361         1         0     15364         1         0
     15367         1         0     15370         1         0     15373         1         0
     15376         1         0     15379         1         0     15382         1         0
     15385         1         0     15389         2         0     15396         2         0
     15407         1         0     15415         1         0     15424         1         0
     15427         1         0     15430         1         0     15433         1         0
     15436         1         0     15439         1         0     15442         1         0
     15444         1         0     15447         1         0     15449         1         0
     15452         1         0     15455         1         0     15458         1         0
     15461         1         0     15464         1         0     15468         1         0
     15471         1         0     15474         1         0     15477         1         0
     15480         1         0     15483         1         0     15486         1         0
     15489         1         0     15492         1         0     15495         1         0
     15498         1         0     15501         1         0     15504         1         0
     15507         1         0     15511         1         0     15516         1         0
     15520         2         0     15531         1         0     15539         1         0
     15548         1         0     15551         1         0     15554         1         0
     15557         1         0     15560         1         0     15563         1         0
     15566         1         0     15568         1         0     15571         1         0
     15573         1         0     15576         1         0     15579         1         0
     15582         1         0     15585         1         0     15588         1         0
     15592         1         0     15595         1         0     15598         1         0
     15601         1         0     15604         1         0     15607         1         0
     15610         1         0     15613         1         0     15616         1         0
     15619         1         0     15622         1         0     15625         1         0
     15628         1         0     15631         1         0     15635         2         0
     15642         2         0     15653         1         0     15661         1         0
     15670         1         0     15673         1         0     15676         1         0
     15679         1         0     15682         1         0     15685         1         0
     15688         1         0     15690         1         0     15693         1         0
     15695         1         0     15698         1         0     15701         1         0
     15704         1         0     15707         1         0     15710         1         0
     15714         1         0     15717         1         0     15720         1         0
     15723         1         0     15726         1         0     15729         1         0
     15732         1         0     15735         1         0     15738         1         0
     15741         1         0     15744         1         0     15747         1         0
     15750         1         0     15753         1         0     15757         2         0
     15764         2         0     15775         1         0     15783         1         0
     15792         1         0     15795         1         0     15798         1         0
     15801         1         0     15804         1         0     15807         1         0
     15810         1         0     15812         1         0     15815         1         0
     15817         1         0     15820         1         0     15823         1         0
     15826         1         0     15829         1         0     15832         1         0
     15836         1         0     15839         1         0     15842         1         0
     15845         1         0     15848         1         0     15851         1         0
     15854         1         0     15857         1         0     15860         1         0
     15863         1         0     15866         1         0     15869         1         0
     15872         1         0     15876         1         0     15881         1         0
     15885         2         0     15896         1         0     15904         1         0
     15913         1         0     15916         1         0     15919         1         0
     15922         1         0     15925         1         0     15928         1         0
     15931         1         0     15933         1         0     15935         1         0
     15938         1         0     15941         1         0     15944         1         0
     15947         1         0     15950         1         0     15954         1         0
     15957         1         0     15960         1         0     15963         1         0
     15966         1         0     15969         1         0     15972         1         0
     15975         1         0     15978         1         0     15981         1         0
     15984         1         0     15987         1         0     15990         1         0
     15993         1         0     15997         1         0     16002         1         0
     16006         2         0     16017         1         0     16025         1         0
     16034         1         0     16037         1         0     16040         1         0
     16043         1         0     16046         1         0     16049         1         0
     16052         1         0     16054         1         0     16056         1         0
     16059         1         0     16062         1         0     16065         1         0
     16068         1         0     16071         1         0     16075         1         0
     16078         1         0     16081         1         0     16084         1         0
     16087         1         0     16090         1         0     16093         1         0
     16096         1         0     16099         1         0     16102         1         0
     16105         1         0     16108         1         0     16111         1         0
     16114         1         0     16118         2         0     16125         2         0
     16136         1         0     16144         1         0     16153         1         0
     16156         1         0     16159         1         0     16162         1         0
     16165         1         0     16168         1         0     16171         1         0
     16173         1         0     16176         1         0     16178         1         0
     16181         1         0     16184         1         0     16187         1         0
     16190         1         0     16193         1         0     16197         1         0
     16200         1         0     16203         1         0     16206         1         0
     16209         1         0     16212         1         0     16215         1         0
     16218         1         0     16221         1         0     16224         1         0
     16227         1         0     16230         1         0     16233         1         0
     16236         1         0     16240         2         0     16247         2         0
     16258         1         0     16266         1         0     16275         1         0
     16278         1         0     16281         1         0     16284         1         0
     16287         1         0     16290         1         0     16293         1         0
     16295         1         0     16297         1         0     16300         1         0
     16303         1         0     16306         1         0     16309         1         0
     16312         1         0     16315         1         0     16318         1         0
     16322         1         0     16325         1         0     16328         1         0
     16331         1         0     16334         1         0     16337         1         0
     16340         1         0     16343         1         0     16346         1         0
     16349         1         0     16352         1         0     16355         1         0
     16358         1         0     16361         1         0     16365         2         0
     16372         2         0     16383         1         0     16391         1         0
     16400         1         0     16403         1         0     16406         1         0
     16409         1         0     16412         1         0     16415         1         0
     16418         1         0     16420         1         0     16422         1         0
     16425         1         0     16428         1         0     16431         1         0
     16434         1         0     16437         1         0     16440         1         0
     16443         1         0     16447         1         0     16450         1         0
     16453         1         0     16456         1         0     16459         1         0
     16462         1         0     16465         1         0     16468         1         0
     16471         1         0     16474         1         0     16477         1         0
     16480         1         0     16483         1         0     16486         1         0
     16490         2         0     16497         2         0     16508         1         0
     16516         1         0     16525         1         0     16528         1         0
     16531         1         0     16534         1         0     16537         1         0
     16540         1         0     16543         1         0     16545         1         0
     16547         1         0     16550         1         0     16553         1         0
     16556         1         0     16559         1         0     16562         1         0
     16566         1         0     16569         1         0     16572         1         0
     16575         1         0     16578         1         0     16581         1         0
     16584         1         0     16586         1         0     16588         1         0
     16591         1         0     16594         1         0     16597         1         0
     16600         1         0     16603         1         0     16606         1         0
     16609         1         0     16613         2         0     16620         2         0
     16631         1         0     16639         1         0     16648         1         0
     16651         1         0     16654         1         0     16657         1         0
     16660         1         0     16663         1         0     16666         1         0
     16668         1         0     16671         1         0     16673         1         0
     16676         1         0     16679         1         0     16682         1         0
     16685         1         0     16688         1         0     16692         1         0
     16695         1         0     16698         1         0     16701         1         0
     16704         1         0     16707         1         0     16710         1         0
     16713         1         0     16716         1         0     16719         1         0
     16722         1         0     16725         1         0     16728         1         0
     16731         1         0     16735         2         0     16742         2         0
     16753         1         0     16761         1         0     16770         1         0
     16773         1         0     16776         1         0     16779         1         0
     16782         1         0     16785         1         0     16788         1         0
     16790         1         0     16793         1         0     16795         1         0
     16798         1         0     16801         1         0     16804         1         0
     16807         1         0     16810         1         0     16814         1         0
     16817         1         0     16820         1         0     16823         1         0
     16826         1         0     16829         1         0     16832         1         0
     16835         1         0     16838         1         0     16841         1         0
     16844         1         0     16847         1         0     16850         1         0
     16853         1         0     16857         2         0     16864         2         0
     16875         1         0     16883         1         0     16892         1         0
     16895         1         0     16898         1         0     16901         1         0
     16904         1         0     16907         1         0     16910         1         0
     16912         1         0     16915         1         0     16917         1         0
     16920         1         0     16923         1         0     16926         1         0
     16929         1         0     16932         1         0     16936         1         0
     16939         1         0     16942         1         0     16945         1         0
     16948         1         0     16951         1         0     16954         1         0
     16957         1         0     16960         1         0     16963         1         0
     16966         1         0     16969         1         0     16972         1         0
     16976         1         0     16981         1         0     16985         2         0
     16996         1         0     17004         1         0     17013         1         0
     17016         1         0     17019         1         0     17022         1         0
     17025         1         0     17028         1         0     17031         1         0
     17033         1         0     17036         1         0     17038         1         0
     17041         1         0     17044         1         0     17047         1         0
     17050         1         0     17053         1         0     17057         1         0
     17060         1         0     17063         1         0     17066         1         0
     17069         1         0     17072         1         0     17075         1         0
     17078         1         0     17081         1         0     17084         1         0
     17087         1         0     17090         1         0     17093         1         0
     17096         1         0     17100         2         0     17107         2         0
     17118         1         0     17126         1         0     17135         1         0
     17138         1         0     17141         1         0     17144         1         0
     17147         1         0     17150         1         0     17153         1         0
     17155         1         0     17157         1         0     17160         1         0
     17163         1         0     17166         1         0     17169         1         0
     17172         1         0     17175         1         0     17178         1         0
     17182         1         0     17185         1         0     17188         1         0
     17191         1         0     17194         1         0     17197         1         0
     17200         1         0     17203         1         0     17206         1         0
     17209         1         0     17212         1         0     17215         1         0
     17218         1         0     17221         1         0     17225         1         0
     17230         1         0     17234         2         0     17245         1         0
     17253         1         0     17262         1         0     17265         1         0
     17268         1         0     17271         1         0     17274         1         0
     17277         1         0     17280         1         0     17282         1         0
     17284         1         0     17287         1         0     17290         1         0
     17293         1         0     17296         1         0     17299         1         0
     17303         1         0     17306         1         0     17309         1         0
     17312         1         0     17315         1         0     17318         1         0
     17321         1         0     17324         1         0     17327         1         0
     17330         1         0     17333         1         0     17336         1         0
     17339         1         0     17342         1         0     17346         2         0
     17353         2         0     17364         1         0     17372         1         0
     17381         1         0     17384         1         0     17387         1         0
     17390         1         0     17393         1         0     17396         1         0
     17399         1         0     17401         1         0     17404         1         0
     17406         1         0     17409         1         0     17412         1         0
     17415         1         0     17418         1         0     17421         1         0
     17425         1         0     17428         1         0     17431         1         0
     17434         1         0     17437         1         0     17440         1         0
     17443         1         0     17446         1         0     17449         1         0
     17452         1         0     17455         1         0     17458         1         0
     17461         1         0     17465         2         0     17472         2         0
     17483         1         0     17491         1         0     17500         1         0
     17503         1         0     17506         1         0     17509         1         0
     17512         1         0     17515         1         0     17518         1         0
     17520         1         0     17522         1         0     17525         1         0
     17528         1         0     17531         1         0     17534         1         0
     17537         1         0     17541         1         0     17544         1         0
     17547         1         0     17550         1         0     17553         1         0
     17556         1         0     17559         1         0     17561         1         0
     17563         1         0     17566         1         0     17569         1         0
     17572         1         0     17575         1         0     17578         1         0
     17581         1         0     17584         1         0     17588         2         0
     17595         2         0     17606         1         0     17614         1         0
     17623         1         0     17626         1         0     17629         1         0
     17632         1         0     17635         1         0     17638         1         0
     17641         1         0     17643         1         0     17646         1         0
     17648         1         0     17651         1         0     17654         1         0
     17657         1         0     17660         1         0     17663         1         0
     17667         1         0     17670         1         0     17673         1         0
     17676         1         0     17679         1         0     17682         1         0
     17685         1         0     17688         1         0     17691         1         0
     17694         1         0     17697         1         0     17700         1         0
     17703         1         0     17706         1         0     17710         2         0
     17717         2         0     17728         1         0     17736         1         0
     17745         1         0     17748         1         0     17751         1         0
     17754         1         0     17757         1         0     17760         1         0
     17763         1         0     17765         1         0     17768         1         0
     17770         1         0     17773         1         0     17776         1         0
     17779         1         0     17782         1         0     17785         1         0
     17789         1         0     17792         1         0     17795         1         0
     17798         1         0     17801         1         0     17804         1         0
     17807         1         0     17810         1         0     17813         1         0
     17816         1         0     17819         1         0     17822         1         0
     17825         1         0     17828         1         0     17832         2         0
     17839         2         0     17850         1         0     17858         1         0
     17867         1         0     17870         1         0     17873         1         0
     17876         1         0     17879         1         0     17882         1         0
     17885         1         0     17887         1         0     17889         1         0
     17892         1         0     17895         1         0     17898         1         0
     17901         1         0     17904         1         0     17908         1         0
     17911         1         0     17914         1         0     17917         1         0
     17920         1         0     17923         1         0     17926         1         0
     17928         1         0     17930         1         0     17933         1         0
     17936         1         0     17939         1         0     17942         1         0
     17945         1         0     17948         1         0     17951         1         0
     17955         2         0     17962         2         0     17973         1         0
     17981         1         0     17990         1         0     17993         1         0
     17996         1         0     17999         1         0     18002         1         0
     18005         1         0     18008         1         0     18010         1         0
     18012         1         0     18015         1         0     18018         1         0
     18021         1         0     18024         1         0     18027         1         0
     18030         1         0     18033         1         0     18037         1         0
     18040         1         0     18043         1         0     18046         1         0
     18049         1         0     18052         1         0     18055         1         0
     18058         1         0     18061         1         0     18064         1         0
     18067         1         0     18070         1         0     18073         1         0
     18076         1         0     18080         1         0     18085         1         0
     18089         2         0     18100         1         0     18108         1         0
     18117         1         0     18120         1         0     18123         1         0
     18126         1         0     18129         1         0     18132         1         0
     18135         1         0     18137         1         0     18140         1         0
     18142         1         0     18145         1         0     18148         1         0
     18151         1         0     18154         1         0     18157         1         0
     18161         1         0     18164         1         0     18167         1         0
     18170         1         0     18173         1         0     18176         1         0
     18179         1         0     18182         1         0     18185         1         0
     18188         1         0     18191         1         0     18194         1         0
     18197         1         0     18200         1         0     18204         2         0
     18211         2         0     18222         1         0     18230         1         0
     18239         1         0     18242         1         0     18245         1         0
     18248         1         0     18251         1         0     18254         1         0
     18257         1         0     18259         1         0     18262         1         0
     18264         1         0     18267         1         0     18270         1         0
     18273         1         0     18276         1         0     18279         1         0
     18283         1         0     18286         1         0     18289         1         0
     18292         1         0     18295         1         0     18298         1         0
     18301         1         0     18304         1         0     18307         1         0
     18310         1         0     18313         1         0     18316         1         0
     18319         1         0     18322         1         0     18326         2         0
     18333         2         0     18344         1         0     18352         1         0
     18361         1         0     18364         1         0     18367         1         0
     18370         1         0     18373         1         0     18376         1         0
     18379         1         0     18381         1         0     18384         1         0
     18386         1         0     18389         1         0     18392         1         0
     18395         1         0     18398         1         0     18401         1         0
     18405         1         0     18408         1         0     18411         1         0
     18414         1         0     18417         1         0     18420         1         0
     18423         1         0     18426         1         0     18429         1         0
     18432         1         0     18435         1         0     18438         1         0
     18441         1         0     18444         1         0     18448         2         0
     18455         2         0     18466         1         0     18474         1         0
     18483         1         0     18486         1         0     18489         1         0
     18492         1         0     18495         1         0     18498         1         0
     18501         1         0     18503         1         0     18506         1         0
     18508         1         0     18511         1         0     18514         1         0
     18517         1         0     18520         1         0     18523         1         0
     18527         1         0     18530         1         0     18533         1         0
     18536         1         0     18539         1         0     18542         1         0
     18545         1         0     18548         1         0     18551         1         0
     18554         1         0     18557         1         0     18560         1         0
     18563         1         0     18566         1         0     18570         2         0
     18577         2         0     18588         1         0     18596         1         0
     18605         1         0     18608         1         0     18611         1         0
     18614         1         0     18617         1         0     18620         1         0
     18623         1         0     18625         1         0     18628         1         0
     18630         1         0     18633         1         0     18636         1         0
     18639         1         0     18642         1         0     18645         1         0
     18649         1         0     18652         1         0     18655         1         0
     18658         1         0     18661         1         0     18664         1         0
     18667         1         0     18670         1         0     18673         1         0
     18676         1         0     18679         1         0     18682         1         0
     18685         1         0     18688         1         0     18692         1         0
     18697         1         0     18701         2         0     18712         1         0
     18720         1         0     18729         1         0     18732         1         0
     18735         1         0     18738         1         0     18741         1         0
     18744         1         0     18747         1         0     18749         1         0
     18751         1         0     18754         1         0     18757         1         0
     18760         1         0     18763         1         0     18766         1         0
     18770         1         0     18773         1         0     18776         1         0
     18779         1         0     18782         1         0     18785         1         0
     18788         1         0     18791         1         0     18794         1         0
     18797         1         0     18800         1         0     18803         1         0
     18806         1         0     18809         1         0     18813         2         0
     18820         2         0     18831         1         0     18839         1         0
     18848         1         0     18851         1         0     18854         1         0
     18857         1         0     18860         1         0     18863         1         0
     18866         1         0     18868         1         0     18870         1         0
     18873         1         0     18876         1         0     18879         1         0
     18882         1         0     18885         1         0     18889         1         0
     18892         1         0     18895         1         0     18898         1         0
     18901         1         0     18904         1         0     18907         1         0
     18909         1         0     18911         1         0     18914         1         0
     18917         1         0     18920         1         0     18923         1         0
     18926         1         0     18929         1         0     18932         1         0
     18936         1         0     18941         1         0     18945         2         0
     18956         1         0     18964         1         0     18973         1         0
     18976         1         0     18979         1         0     18982         1         0
     18985         1         0     18988         1         0     18991         1         0
     18993         1         0     18995         1         0     18998         1         0
     19001         1         0     19004         1         0     19007         1         0
     19010         1         0     19014         1         0     19017         1         0
     19020         1         0     19023         1         0     19026         1         0
     19029         1         0     19032         1         0     19035         1         0
     19038         1         0     19041         1         0     19044         1         0
     19047         1         0     19050         1         0     19053         1         0
     19057         2         0     19064         2         0     19075         1         0
     19083         1         0     19092         1         0     19095         1         0
     19098         1         0     19101         1         0     19104         1         0
     19107         1         0     19110         1         0     19112         1         0
     19115         1         0     19117         1         0     19120         1         0
     19123         1         0     19126         1         0     19129         1         0
     19132         1         0     19136         1         0     19139         1         0
     19142         1         0     19145         1         0     19148         1         0
     19151         1         0     19154         1         0     19157         1         0
     19160         1         0     19163         1         0     19166         1         0
     19169         1         0     19172         1         0     19175         1         0
     19179         2         0     19186         2         0     19197         1         0
     19205         1         0     19214         1         0     19217         1         0
     19220         1         0     19223         1         0     19226         1         0
     19229         1         0     19232         1         0     19234         1         0
     19236         1         0     19239         1         0     19242         1         0
     19245         1         0     19248         1         0     19251         1         0
     19255         1         0     19258         1         0     19261         1         0
     19264         1         0     19267         1         0     19270         1         0
     19273         1         0     19275         1         0     19277         1         0
     19280         1         0     19283         1         0     19286         1         0
     19289         1         0     19292         1         0     19295         1         0
     19298         1         0     19302         2         0     19309         2         0
     19320         1         0     19328         1         0     19337         1         0
     19340         1         0     19343         1         0     19346         1         0
     19349         1         0     19352         1         0     19355         1         0
     19357         1         0     19360         1         0     19362         1         0
     19365         1         0     19368         1         0     19371         1         0
     19374         1         0     19377         1         0     19381         1         0
     19384         1         0     19387         1         0     19390         1         0
     19393         1         0     19396         1         0     19399         1         0
     19402         1         0     19405         1         0     19408         1         0
     19411         1         0     19414         1         0     19417         1         0
     19421         2         0     19428         2         0     19439         1         0
     19447         1         0     19456         1         0     19459         1         0
     19462         1         0     19465         1         0     19468         1         0
     19471         1         0     19474         1         0     19476         1         0
     19479         1         0     19481         1         0     19484         1         0
     19487         1         0     19490         1         0     19493         1         0
     19496         1         0     19500         1         0     19503         1         0
     19506         1         0     19509         1         0     19512         1         0
     19515         1         0     19518         1         0     19521         1         0
     19524         1         0     19527         1         0     19530         1         0
     19533         1         0     19536         1         0     19539         1         0
     19543         2         0     19550         2         0     19561         1         0
     19569         1         0     19578         1         0     19581         1         0
     19584         1         0     19587         1         0     19590         1         0
     19593         1         0     19596         1         0     19598         1         0
     19601         1         0     19603         1         0     19606         1         0
     19609         1         0     19612         1         0     19615         1         0
     19618         1         0     19622         1         0     19625         1         0
     19628         1         0     19631         1         0     19634         1         0
     19637         1         0     19640         1         0     19643         1         0
     19646         1         0     19649         1         0     19652         1         0
     19655         1         0     19658         1         0     19661         1         0
     19665         2         0     19672         2         0     19683         1         0
     19691         1         0     19700         1         0     19703         1         0
     19706         1         0     19709         1         0     19712         1         0
     19715         1         0     19718         1         0     19720         1         0
     19723         1         0     19725         1         0     19728         1         0
     19731         1         0     19734         1         0     19737         1         0
     19740         1         0     19744         1         0     19747         1         0
     19750         1         0     19753         1         0     19756         1         0
     19759         1         0     19762         1         0     19765         1         0
     19768         1         0     19771         1         0     19774         1         0
     19777         1         0     19780         1         0     19784         2         0
     19791         2         0     19802         1         0     19810         1         0
     19819         1         0     19822         1         0     19825         1         0
     19828         1         0     19831         1         0     19834         1         0
     19837         1         0     19839         1         0     19842         1         0
     19844         1         0     19847         1         0     19850         1         0
     19853         1         0     19856         1         0     19859         1         0
     19863         1         0     19866         1         0     19869         1         0
     19872         1         0     19875         1         0     19878         1         0
     19881         1         0     19884         1         0     19887         1         0
     19890         1         0     19893         1         0     19896         1         0
     19899         1         0     19902         1         0     19906         2         0
     19913         2         0     19924         1         0     19932         1         0
     19941         1         0     19944         1         0     19947         1         0
     19950         1         0     19953         1         0     19956         1         0
     19959         1         0     19961         1         0     19963         1         0
     19966         1         0     19969         1         0     19972         1         0
     19975         1         0     19978         1         0     19981         1         0
     19984         1         0     19988         1         0     19991         1         0
     19994         1         0     19997         1         0     20000         1         0
     20003         1         0     20006         1         0     20009         1         0
     20012         1         0     20015         1         0     20018         1         0
     20021         1         0     20024         1         0     20027         1         0
     20031         1         0     20036         1         0     20040         2         0
     20051         1         0     20059         1         0     20068         1         0
     20071         1         0     20074         1         0     20077         1         0
     20080         1         0     20083         1         0     20086         1         0
     20088         1         0     20091         1         0     20093         1         0
     20096         1         0     20099         1         0     20102         1         0
     20105         1         0     20108         1         0     20112         1         0
     20115         1         0     20118         1         0     20121         1         0
     20124         1         0     20127         1         0     20130         1         0
     20133         1         0     20136         1         0     20139         1         0
     20142         1         0     20145         1         0     20148         1         0
     20151         1         0     20155         2         0     20162         2         0
     20173         1         0     20181         1         0     20190         1         0
     20193         1         0     20196         1         0     20199         1         0
     20202         1         0     20205         1         0     20208         1         0
     20210         1         0     20213         1         0     20215         1         0
     20218         1         0     20221         1         0     20224         1         0
     20227         1         0     20230         1         0     20234         1         0
     20237         1         0     20240         1         0     20243         1         0
     20246         1         0     20249         1         0     20252         1         0
     20255         1         0     20258         1         0     20261         1         0
     20264         1         0     20267         1         0     20270         1         0
     20274         2         0     20281         2         0     20292         1         0
     20300         1         0     20309         1         0     20312         1         0
     20315         1         0     20318         1         0     20321         1         0
     20324         1         0     20327         1         0     20329         1         0
     20332         1         0     20334         1         0     20337         1         0
     20340         1         0     20343         1         0     20346         1         0
     20349         1         0     20353         1         0     20356         1         0
     20359         1         0     20362         1         0     20365         1         0
     20368         1         0     20371         1         0     20374         1         0
     20377         1         0     20380         1         0     20383         1         0
     20386         1         0     20389         1         0     20392         1         0
     20396         2         0     20403         2         0     20414         1         0
     20422         1         0     20431         1         0     20434         1         0
     20437         1         0     20440         1         0     20443         1         0
     20446         1         0     20449         1         0     20451         1         0
     20454         1         0     20456         1         0     20459         1         0
     20462         1         0     20465         1         0     20468         1         0
     20471         1         0     20475         1         0     20478         1         0
     20481         1         0     20484         1         0     20487         1         0
     20490         1         0     20493         1         0     20496         1         0
     20499         1         0     20502         1         0     20505         1         0
     20508         1         0     20511         1         0     20514         1         0
     20518         2         0     20525         2         0     20536         1         0
     20544         1         0     20553         1         0     20556         1         0
     20559         1         0     20562         1         0     20565         1         0
     20568         1         0     20571         1         0     20573         1         0
     20576         1         0     20578         1         0     20581         1         0
     20584         1         0     20587         1         0     20590         1         0
     20593         1         0     20597         1         0     20600         1         0
     20603         1         0     20606         1         0     20609         1         0
     20612         1         0     20615         1         0     20618         1         0
     20621         1         0     20624         1         0     20627         1         0
     20630         1         0     20633         1         0     20636         1         0
     20640         2         0     20647         2         0     20658         1         0
     20666         1         0     20675         1         0     20678         1         0
     20681         1         0     20684         1         0     20687         1         0
     20690         1         0     20693         1         0     20695         1         0
     20698         1         0     20700         1         0     20703         1         0
     20706         1         0     20709         1         0     20712         1         0
     20715         1         0     20719         1         0     20722         1         0
     20725         1         0     20728         1         0     20731         1         0
     20734         1         0     20737         1         0     20740         1         0
     20743         1         0     20746         1         0     20749         1         0
     20752         1         0     20755         1         0     20758         1         0
     20762         2         0     20769         2         0     20780         1         0
     20788         1         0     20797         1         0     20800         1         0
     20803         1         0     20806         1         0     20809         1         0
     20812         1         0     20815         1         0     20817         1         0
     20820         1         0     20822         1         0     20825         1         0
     20828         1         0     20831         1         0     20834         1         0
     20837         1         0     20841         1         0     20844         1         0
     20847         1         0     20850         1         0     20853         1         0
     20856         1         0     20859         1         0     20862         1         0
     20865         1         0     20868         1         0     20871         1         0
     20874         1         0     20877         1         0     20880         1         0
     20884         1         0     20889         1         0     20893         2         0
     20904         1         0     20912         1         0     20921         1         0
     20924         1         0     20927         1         0     20930         1         0
     20933         1         0     20936         1         0     20939         1         0
     20941         1         0     20944         1         0     20946         1         0
     20949         1         0     20952         1         0     20955         1         0
     20958         1         0     20961         1         0     20965         1         0
     20968         1         0     20971         1         0     20974         1         0
     20977         1         0     20980         1         0     20983         1         0
     20986         1         0     20989         1         0     20992         1         0
     20995         1         0     20998         1         0     21001         1         0
     21004         1         0     21008         2         0     21015         2         0
     21026         1         0     21034         1         0     21043         1         0
     21046         1         0     21049         1         0     21052         1         0
     21055         1         0     21058         1         0     21061         1         0
     21063         1         0     21065         1         0     21068         1         0
     21071         1         0     21074         1         0     21077         1         0
     21080         1         0     21083         1         0     21086         1         0
     21090         1         0     21093         1         0     21096         1         0
     21099         1         0     21102         1         0     21105         1         0
     21108         1         0     21111         1         0     21114         1         0
     21117         1         0     21120         1         0     21123         1         0
     21126         1         0     21129         1         0     21133         2         0
     21140         2         0     21151         1         0     21159         1         0
     21168         1         0     21171         1         0     21174         1         0
     21177         1         0     21180         1         0     21183         1         0
     21186         1         0     21188         1         0     21191         1         0
     21193         1         0     21196         1         0     21199         1         0
     21202         1         0     21205         1         0     21208         1         0
     21212         1         0     21215         1         0     21218         1         0
     21221         1         0     21224         1         0     21227         1         0
     21230         1         0     21233         1         0     21236         1         0
     21239         1         0     21242         1         0     21245         1         0
     21248         1         0     21251         1         0     21255         1         0
     21260         1         0     21264         2         0     21275         1         0
     21283         1         0     21292         1         0     21295         1         0
     21298         1         0     21301         1         0     21304         1         0
     21307         1         0     21310         1         0     21312         1         0
     21315         1         0     21317         1         0     21320         1         0
     21323         1         0     21326         1         0     21329         1         0
     21332         1         0     21336         1         0     21339         1         0
     21342         1         0     21345         1         0     21348         1         0
     21351         1         0     21354         1         0     21357         1         0
     21360         1         0     21363         1         0     21366         1         0
     21369         1         0     21372         1         0     21375         1         0
     21379         2         0     21386         2         0     21397         1         0
     21405         1         0     21414         1         0     21417         1         0
     21420         1         0     21423         1         0     21426         1         0
     21429         1         0     21432         1         0     21434         1         0
     21437         1         0     21439         1         0     21442         1         0
     21445         1         0     21448         1         0     21451         1         0
     21454         1         0     21458         1         0     21461         1         0
     21464         1         0     21467         1         0     21470         1         0
     21473         1         0     21476         1         0     21479         1         0
     21482         1         0     21485         1         0     21488         1         0
     21491         1         0     21494         1         0     21497         1         0
     21501         2         0     21508         2         0     21519         1         0
     21527         1         0     21536         1         0     21539         1         0
     21542         1         0     21545         1         0     21548         1         0
     21551         1         0     21554         1         0     21556         1         0
     21559         1         0     21561         1         0     21564         1         0
     21567         1         0     21570         1         0     21573         1         0
     21576         1         0     21580         1         0     21583         1         0
     21586         1         0     21589         1         0     21592         1         0
     21595         1         0     21598         1         0     21601         1         0
     21604         1         0     21607         1         0     21610         1         0
     21613         1         0     21616         1         0     21619         1         0
     21623         2         0     21630         2         0     21641         1         0
     21649         1         0     21658         1         0     21661         1         0
     21664         1         0     21667         1         0     21670         1         0
     21673         1         0     21676         1         0     21678         1         0
     21681         1         0     21683         1         0     21686         1         0
     21689         1         0     21692         1         0     21695         1         0
     21698         1         0     21702         1         0     21705         1         0
     21708         1         0     21711         1         0     21714         1         0
     21717         1         0     21720         1         0     21723         1         0
     21726         1         0     21729         1         0     21732         1         0
     21735         1         0     21738         1         0     21741         1         0
     21745         1         0     21750         1         0     21754         2         0
     21765         1         0     21773         1         0     21782         1         0
     21785         1         0     21788         1         0     21791         1         0
     21794         1         0     21797         1         0     21800         1         0
     21802         1         0     21805         1         0     21807         1         0
     21810         1         0     21813         1         0     21816         1         0
     21819         1         0     21822         1         0     21826         1         0
     21829         1         0     21832         1         0     21835         1         0
     21838         1         0     21841         1         0     21844         1         0
     21847         1         0     21850         1         0     21853         1         0
     21856         1         0     21859         1         0     21862         1         0
     21865         1         0     21869         2         0     21876         2         0
     21887         1         0     21895         1         0     21904         1         0
     21907         1         0     21910         1         0     21913         1         0
     21916         1         0     21919         1         0     21922         1         0
     21924         1         0     21927         1         0     21929         1         0
     21932         1         0     21935         1         0     21938         1         0
     21941         1         0     21944         1         0     21948         1         0
     21951         1         0     21954         1         0     21957         1         0
     21960         1         0     21963         1         0     21966         1         0
     21969         1         0     21972         1         0     21975         1         0
     21978         1         0     21981         1         0     21984         1         0
     21988         2         0     21995         2         0     22006         1         0
     22014         1         0     22023         1         0     22026         1         0
     22029         1         0     22032         1         0     22035         1         0
     22038         1         0     22041         1         0     22043         1         0
     22046         1         0     22048         1         0     22051         1         0
     22054         1         0     22057         1         0     22060         1         0
     22063         1         0     22067         1         0     22070         1         0
     22073         1         0     22076         1         0     22079         1         0
     22082         1         0     22085         1         0     22088         1         0
     22091         1         0     22094         1         0     22097         1         0
     22100         1         0     22103         1         0     22106         1         0
     22110         2         0     22117         2         0     22128         1         0
     22136         1         0     22145         1         0     22148         1         0
     22151         1         0     22154         1         0     22157         1         0
     22160         1         0     22163         1         0     22165         1         0
     22167         1         0     22170         1         0     22173         1         0
     22176         1         0     22179         1         0     22182         1         0
     22186         1         0     22189         1         0     22192         1         0
     22195         1         0     22198         1         0     22201         1         0
     22204         1         0     22206         1         0     22208         1         0
     22211         1         0     22214         1         0     22217         1         0
     22220         1         0     22223         1         0     22226         1         0
     22229         1         0     22233         2         0     22240         2         0
     22251         1         0     22259         1         0     22268         1         0
     22271         1         0     22274         1         0     22277         1         0
     22280         1         0     22283         1         0     22286         1         0
     22288         1         0     22291         1         0     22293         1         0
     22296         1         0     22299         1         0     22302         1         0
     22305         1         0     22308         1         0     22312         1         0
     22315         1         0     22318         1         0     22321         1         0
     22324         1         0     22327         1         0     22330         1         0
     22333         1         0     22336         1         0     22339         1         0
     22342         1         0     22345         1         0     22348         1         0
     22352         2         0     22359         2         0     22370         1         0
     22378         1         0     22387         1         0     22390         1         0
     22393         1         0     22396         1         0     22399         1         0
     22402         1         0     22405         1         0     22407         1         0
     22410         1         0     22412         1         0     22415         1         0
     22418         1         0     22421         1         0     22424         1         0
     22427         1         0     22431         1         0     22434         1         0
     22437         1         0     22440         1         0     22443         1         0
     22446         1         0     22449         1         0     22452         1         0
     22455         1         0     22458         1         0     22461         1         0
     22464         1         0     22467         1         0     22470         1         0
     22474         2         0     22481         2         0     22492         1         0
     22500         1         0     22509         1         0     22512         1         0
     22515         1         0     22518         1         0     22521         1         0
     22524         1         0     22527         1         0     22529         1         0
     22532         1         0     22534         1         0     22537         1         0
     22540         1         0     22543         1         0     22546         1         0
     22549         1         0     22553         1         0     22556         1         0
     22559         1         0     22562         1         0     22565         1         0
     22568         1         0     22571         1         0     22574         1         0
     22577         1         0     22580         1         0     22583         1         0
     22586         1         0     22589         1         0     22593         2         0
     22600         2         0     22611         1         0     22619         1         0
     22628         1         0     22631         1         0     22634         1         0
     22637         1         0     22640         1         0     22643         1         0
     22646         1         0     22648         1         0     22651         1         0
     22653         1         0     22656         1         0     22659         1         0
     22662         1         0     22665         1         0     22668         1         0
     22672         1         0     22675         1         0     22678         1         0
     22681         1         0     22684         1         0     22687         1         0
     22690         1         0     22693         1         0     22696         1         0
     22699         1         0     22702         1         0     22705         1         0
     22708         1         0     22712         2         0     22719         2         0
     22730         1         0     22738         1         0     22747         1         0
     22750         1         0     22753         1         0     22756         1         0
     22759         1         0     22762         1         0     22765         1         0
     22767         1         0     22770         1         0     22772         1         0
     22775         1         0     22778         1         0     22781         1         0
     22784         1         0     22787         1         0     22791         1         0
     22794         1         0     22797         1         0     22800         1         0
     22803         1         0     22806         1         0     22809         1         0
     22812         1         0     22815         1         0     22818         1         0
     22821         1         0     22824         1         0     22827         1         0
     22830         1         0     22834         2         0     22841         2         0
     22852         1         0     22860         1         0     22869         1         0
     22872         1         0     22875         1         0     22878         1         0
     22881         1         0     22884         1         0     22887         1         0
     22889         1         0     22891         1         0     22894         1         0
     22897         1         0     22900         1         0     22903         1         0
     22906         1         0     22910         1         0     22913         1         0
     22916         1         0     22919         1         0     22922         1         0
     22925         1         0     22928         1         0     22930         1         0
     22932         1         0     22935         1         0     22938         1         0
     22941         1         0     22944         1         0     22947         1         0
     22950         1         0     22953         1         0     22957         2         0
     22964         2         0     22975         1         0     22983         1         0
     22992         1         0     22995         1         0     22998         1         0
     23001         1         0     23004         1         0     23007         1         0
     23010         1         0     23012         1         0     23015         1         0
     23017         1         0     23020         1         0     23023         1         0
     23026         1         0     23029         1         0     23032         1         0
     23036         1         0     23039         1         0     23042         1         0
     23045         1         0     23048         1         0     23051         1         0
     23054         1         0     23057         1         0     23060         1         0
     23063         1         0     23066         1         0     23069         1         0
     23072         1         0     23075         1         0     23079         2         0
     23086         2         0     23097         1         0     23105         1         0
     23114         1         0     23117         1         0     23120         1         0
     23123         1         0     23126         1         0     23129         1         0
     23132         1         0     23134         1         0     23137         1         0
     23139         1         0     23142         1         0     23145         1         0
     23148         1         0     23151         1         0     23154         1         0
     23158         1         0     23161         1         0     23164         1         0
     23167         1         0     23170         1         0     23173         1         0
     23176         1         0     23179         1         0     23182         1         0
     23185         1         0     23188         1         0     23191         1         0
     23194         1         0     23197         1         0     23201         2         0
     23208         2         0     23219         1         0     23227         1         0
     23236         1         0     23239         1         0     23242         1         0
     23245         1         0     23248         1         0     23251         1         0
     23254         1         0     23256         1         0     23258         1         0
     23261         1         0     23264         1         0     23267         1         0
     23270         1         0     23273         1         0     23277         1         0
     23280         1         0     23283         1         0     23286         1         0
     23289         1         0     23292         1         0     23295         1         0
     23297         1         0     23299         1         0     23302         1         0
     23305         1         0     23308         1         0     23311         1         0
     23314         1         0     23317         1         0     23320         1         0
     23324         2         0     23331         2         0     23342         1         0
     23350         1         0     23359         1         0     23362         1         0
     23365         1         0     23368         1         0     23371         1         0
     23374         1         0     23377         1         0     23379         1         0
     23382         1         0     23384         1         0     23387         1         0
     23390         1         0     23393         1         0     23396         1         0
     23399         1         0     23403         1         0     23406         1         0
     23409         1         0     23412         1         0     23415         1         0
     23418         1         0     23421         1         0     23424         1         0
     23427         1         0     23430         1         0     23433         1         0
     23436         1         0     23439         1         0     23442         1         0
     23446         2         0     23453         2         0     23464         1         0
     23472         1         0     23481         1         0     23484         1         0
     23487         1         0     23490         1         0     23493         1         0
     23496         1         0     23499         1         0     23501         1         0
     23504         1         0     23506         1         0     23509         1         0
     23512         1         0     23515         1         0     23518         1         0
     23521         1         0     23525         1         0     23528         1         0
     23531         1         0     23534         1         0     23537         1         0
     23540         1         0     23543         1         0     23546         1         0
     23549         1         0     23552         1         0     23555         1         0
     23558         1         0     23561         1         0     23564         1         0
     23568         2         0     23575         2         0     23586         1         0
     23594         1         0     23603         1         0     23606         1         0
     23609         1         0     23612         1         0     23615         1         0
     23618         1         0     23621         1         0     23623         1         0
     23626         1         0     23628         1         0     23631         1         0
     23634         1         0     23637         1         0     23640         1         0
     23643         1         0     23647         1         0     23650         1         0
     23653         1         0     23656         1         0     23659         1         0
     23662         1         0     23665         1         0     23668         1         0
     23671         1         0     23674         1         0     23677         1         0
     23680         1         0     23683         1         0     23686         1         0
     23690         2         0     23697         2         0     23708         1         0
     23716         1         0     23725         1         0     23728         1         0
     23731         1         0     23734         1         0     23737         1         0
     23740         1         0     23743         1         0     23745         1         0
     23748         1         0     23750         1         0     23753         1         0
     23756         1         0     23759         1         0     23762         1         0
     23765         1         0     23769         1         0     23772         1         0
     23775         1         0     23778         1         0     23781         1         0
     23784         1         0     23787         1         0     23790         1         0
     23793         1         0     23796         1         0     23799         1         0
     23802         1         0     23805         1         0     23808         1         0
     23812         2         0     23819         2         0     23830         1         0
     23838         1         0     23847         1         0     23850         1         0
     23853         1         0     23856         1         0     23859         1         0
     23862         1         0     23865         1         0     23867         1         0
     23870         1         0     23872         1         0     23875         1         0
     23878         1         0     23881         1         0     23884         1         0
     23887         1         0     23891         1         0     23894         1         0
     23897         1         0     23900         1         0     23903         1         0
     23906         1         0     23909         1         0     23912         1         0
     23915         1         0     23918         1         0     23921         1         0
     23924         1         0     23927         1         0     23930         1         0
     23934         2         0     23941         2         0     23952         1         0
     23960         1         0     23969         1         0     23972         1         0
     23975         1         0     23978         1         0     23981         1         0
     23984         1         0     23987         1         0     23989         1         0
     23992         1         0     23994         1         0     23997         1         0
     24000         1         0     24003         1         0     24006         1         0
     24009         1         0     24013         1         0     24016         1         0
     24019         1         0     24022         1         0     24025         1         0
     24028         1         0     24031         1         0     24034         1         0
     24037         1         0     24040         1         0     24043         1         0
     24046         1         0     24049         1         0     24053         2         0
     24060         2         0     24071         1         0     24079         1         0
     24088         1         0     24091         1         0     24094         1         0
     24097         1         0     24100         1         0     24103         1         0
     24106         1         0     24108         1         0     24111         1         0
     24113         1         0     24116         1         0     24119         1         0
     24122         1         0     24125         1         0     24128         1         0
     24132         1         0     24135         1         0     24138         1         0
     24141         1         0     24144         1         0     24147         1         0
     24150         1         0     24153         1         0     24156         1         0
     24159         1         0     24162         1         0     24165         1         0
     24168         1         0     24171         1         0     24175         2         0
     24182         2         0     24193         1         0     24201         1         0
     24210         1         0     24213         1         0     24216         1         0
     24219         1         0     24222         1         0     24225         1         0
     24228         1         0     24230         1         0     24232         1         0
     24235         1         0     24238         1         0     24241         1         0
     24244         1         0     24247         1         0     24250         1         0
     24253         1         0     24257         1         0     24260         1         0
     24263         1         0     24266         1         0     24269         1         0
     24272         1         0     24275         1         0     24278         1         0
     24281         1         0     24284         1         0     24287         1         0
     24290         1         0     24293         1         0     24296         1         0
     24300         2         0     24307         2         0     24318         1         0
     24326         1         0     24335         1         0     24338         1         0
     24341         1         0     24344         1         0     24347         1         0
     24350         1         0     24353         1         0     24355         1         0
     24358         1         0     24360         1         0     24363         1         0
     24366         1         0     24369         1         0     24372         1         0
     24375         1         0     24379         1         0     24382         1         0
     24385         1         0     24388         1         0     24391         1         0
     24394         1         0     24397         1         0     24400         1         0
     24403         1         0     24406         1         0     24409         1         0
     24412         1         0     24415         1         0     24418         1         0
     24422         2         0     24429         2         0     24440         1         0
     24448         1         0     24457         1         0     24460         1         0
     24463         1         0     24466         1         0     24469         1         0
     24472         1         0     24475         1         0     24477         1         0
     24479         1         0     24482         1         0     24485         1         0
     24488         1         0     24491         1         0     24494         1         0
     24497         1         0     24500         1         0     24504         1         0
     24507         1         0     24510         1         0     24513         1         0
     24516         1         0     24519         1         0     24522         1         0
     24525         1         0     24528         1         0     24531         1         0
     24534         1         0     24537         1         0     24540         1         0
     24543         1         0     24547         2         0     24554         2         0
     24565         1         0     24573         1         0     24582         1         0
     24585         1         0     24588         1         0     24591         1         0
     24594         1         0     24597         1         0     24600         1         0
     24602         1         0     24604         1         0     24607         1         0
     24610         1         0     24613         1         0     24616         1         0
     24619         1         0     24622         1         0     24625         1         0
     24629         1         0     24632         1         0     24635         1         0
     24638         1         0     24641         1         0     24644         1         0
     24647         1         0     24650         1         0     24653         1         0
     24656         1         0     24659         1         0     24662         1         0
     24665         1         0     24668         1         0     24672         2         0
     24679         2         0     24690         1         0     24698         1         0
     24707         1         0     24710         1         0     24713         1         0
     24716         1         0     24719         1         0     24722         1         0
     24725         1         0     24727         1         0     24729         1         0
     24732         1         0     24735         1         0     24738         1         0
     24741         1         0     24744         1         0     24748         1         0
     24751         1         0     24754         1         0     24757         1         0
     24760         1         0     24763         1         0     24766         1         0
     24768         1         0     24770         1         0     24773         1         0
     24776         1         0     24779         1         0     24782         1         0
     24785         1         0     24788         1         0     24791         1         0
     24795         1         0     24800         1         0     24804         2         0
     24815         1         0     24823         1         0     24832         1         0
     24835         1         0     24838         1         0     24841         1         0
     24844         1         0     24847         1         0     24850         1         0
     24852         1         0     24854         1         0     24857         1         0
     24860         1         0     24863         1         0     24866         1         0
     24869         1         0     24873         1         0     24876         1         0
     24879         1         0     24882         1         0     24885         1         0
     24888         1         0     24891         1         0     24894         1         0
     24897         1         0     24900         1         0     24903         1         0
     24906         1         0     24909         1         0     24912         1         0
     24916         1         0     24921         1         0     24925         2         0
     24936         1         0     24944         1         0     24953         1         0
     24956         1         0     24959         1         0     24962         1         0
     24965         1         0     24968         1         0     24971         1         0
     24973         1         0     24976         1         0     24978         1         0
     24981         1         0     24984         1         0     24987         1         0
     24990         1         0     24993         1         0     24997         1         0
     25000         1         0     25003         1         0     25006         1         0
     25009         1         0     25012         1         0     25015         1         0
     25018         1         0     25021         1         0     25024         1         0
     25027         1         0     25030         1         0     25033         1         0
     25036         1         0     25040         2         0     25047         2         0
     25058         1         0     25066         1         0     25075         1         0
     25078         1         0     25081         1         0     25084         1         0
     25087         1         0     25090         1         0     25093         1         0
     25095         1         0     25097         1         0     25100         1         0
     25103         1         0     25106         1         0     25109         1         0
     25112         1         0     25116         1         0     25119         1         0
     25122         1         0     25125         1         0     25128         1         0
     25131         1         0     25134         1         0     25136         1         0
     25138         1         0     25141         1         0     25144         1         0
     25147         1         0     25150         1         0     25153         1         0
     25156         1         0     25159         1         0     25163         2         0
     25170         2         0     25181         1         0     25189         1         0
     25198         1         0     25201         1         0     25204         1         0
     25207         1         0     25210         1         0     25213         1         0
     25216         1         0     25218         1         0     25221         1         0
     25223         1         0     25226         1         0     25229         1         0
     25232         1         0     25235         1         0     25238         1         0
     25242         1         0     25245         1         0     25248         1         0
     25251         1         0     25254         1         0     25257         1         0
     25260         1         0     25263         1         0     25266         1         0
     25269         1         0     25272         1         0     25275         1         0
     25278         1         0     25281         1         0     25285         2         0
     25292         2         0     25303         1         0     25311         1         0
     25320         1         0     25323         1         0     25326         1         0
     25329         1         0     25332         1         0     25335         1         0
     25338         1         0     25340         1         0     25343         1         0
     25345         1         0     25348         1         0     25351         1         0
     25354         1         0     25357         1         0     25360         1         0
     25364         1         0     25367         1         0     25370         1         0
     25373         1         0     25376         1         0     25379         1         0
     25382         1         0     25385         1         0     25388         1         0
     25391         1         0     25394         1         0     25397         1         0
     25400         1         0     25403         1         0     25407         1         0
     25412         1         0     25416         2         0     25427         1         0
     25435         1         0     25444         1         0     25447         1         0
     25450         1         0     25453         1         0     25456         1         0
     25459         1         0     25462         1         0     25464         1         0
     25467         1         0     25469         1         0     25472         1         0
     25475         1         0     25478         1         0     25481         1         0
     25484         1         0     25488         1         0     25491         1         0
     25494         1         0     25497         1         0     25500         1         0
     25503         1         0     25506         1         0     25509         1         0
     25512         1         0     25515         1         0     25518         1         0
     25521         1         0     25524         1         0     25527         1         0
     25531         1         0     25536         1         0     25540         2         0
     25551         1         0     25559         1         0     25568         1         0
     25571         1         0     25574         1         0     25577         1         0
     25580         1         0     25583         1         0     25586         1         0
     25588         1         0     25591         1         0     25593         1         0
     25596         1         0     25599         1         0     25602         1         0
     25605         1         0     25608         1         0     25612         1         0
     25615         1         0     25618         1         0     25621         1         0
     25624         1         0     25627         1         0     25630         1         0
     25633         1         0     25636         1         0     25639         1         0
     25642         1         0     25645         1         0     25648         1         0
     25651         1         0     25655         2         0     25662         2         0
     25673         1         0     25681         1         0     25690         1         0
     25693         1         0     25696         1         0     25699         1         0
     25702         1         0     25705         1         0     25708         1         0
     25710         1         0     25713         1         0     25715         1         0
     25718         1         0     25721         1         0     25724         1         0
     25727         1         0     25730         1         0     25734         1         0
     25737         1         0     25740         1         0     25743         1         0
     25746         1         0     25749         1         0     25752         1         0
     25755         1         0     25758         1         0     25761         1         0
     25764         1         0     25767         1         0     25770         1         0
     25773         1         0     25777         1         0     25782         1         0
     25786         2         0     25797         1         0     25805         1         0
     25814         1         0     25817         1         0     25820         1         0
     25823         1         0     25826         1         0     25829         1         0
     25832         1         0     25834         1         0     25836         1         0
     25839         1         0     25842         1         0     25845         1         0
     25848         1         0     25851         1         0     25855         1         0
     25858         1         0     25861         1         0     25864         1         0
     25867         1         0     25870         1         0     25873         1         0
     25876         1         0     25879         1         0     25882         1         0
     25885         1         0     25888         1         0     25891         1         0
     25894         1         0     25898         2         0     25905         2         0
     25916         1         0     25924         1         0     25933         1         0
     25936         1         0     25939         1         0     25942         1         0
     25945         1         0     25948         1         0     25951         1         0
     25953         1         0     25956         1         0     25958         1         0
     25961         1         0     25964         1         0     25967         1         0
     25970         1         0     25973         1         0     25977         1         0
     25980         1         0     25983         1         0     25986         1         0
     25989         1         0     25992         1         0     25995         1         0
     25998         1         0     26001         1         0     26004         1         0
     26007         1         0     26010         1         0     26013         1         0
     26016         1         0     26020         2         0     26027         2         0
     26038         1         0     26046         1         0     26055         1         0
     26058         1         0     26061         1         0     26064         1         0
     26067         1         0     26070         1         0     26073         1         0
     26075         1         0     26077         1         0     26080         1         0
     26083         1         0     26086         1         0     26089         1         0
     26092         1         0     26096         1         0     26099         1         0
     26102         1         0     26105         1         0     26108         1         0
     26111         1         0     26114         1         0     26116         1         0
     26118         1         0     26121         1         0     26124         1         0
     26127         1         0     26130         1         0     26133         1         0
     26136         1         0     26139         1         0     26143         2         0
     26150         2         0     26161         1         0     26169         1         0
     26178         1         0     26181         1         0     26184         1         0
     26187         1         0     26190         1         0     26193         1         0
     26196         1         0     26198         1         0     26201         1         0
     26203         1         0     26206         1         0     26209         1         0
     26212         1         0     26215         1         0     26218         1         0
     26222         1         0     26225         1         0     26228         1         0
     26231         1         0     26234         1         0     26237         1         0
     26240         1         0     26243         1         0     26246         1         0
     26249         1         0     26252         1         0     26255         1         0
     26258         1         0     26262         1         0     26267         1         0
     26271         2         0     26282         1         0     26290         1         0
     26299         1         0     26302         1         0     26305         1         0
     26308         1         0     26311         1         0     26314         1         0
     26317         1         0     26319         1         0     26322         1         0
     26324         1         0     26327         1         0     26330         1         0
     26333         1         0     26336         1         0     26339         1         0
     26343         1         0     26346         1         0     26349         1         0
     26352         1         0     26355         1         0     26358         1         0
     26361         1         0     26364         1         0     26367         1         0
     26370         1         0     26373         1         0     26376         1         0
     26379         1         0     26382         1         0     26386         2         0
     26393         2         0     26404         1         0     26412         1         0
     26421         1         0     26424         1         0     26427         1         0
     26430         1         0     26433         1         0     26436         1         0
     26439         1         0     26441         1         0     26444         1         0
     26446         1         0     26449         1         0     26452         1         0
     26455         1         0     26458         1         0     26461         1         0
     26465         1         0     26468         1         0     26471         1         0
     26474         1         0     26477         1         0     26480         1         0
     26483         1         0     26486         1         0     26489         1         0
     26492         1         0     26495         1         0     26498         1         0
     26501         1         0     26504         1         0     26508         1         0
     26513         1         0     26517         2         0     26528         1         0
     26536         1         0     26545         1         0     26548         1         0
     26551         1         0     26554         1         0     26557         1         0
     26560         1         0     26563         1         0     26565         1         0
     26567         1         0     26570         1         0     26573         1         0
     26576         1         0     26579         1         0     26582         1         0
     26586         1         0     26589         1         0     26592         1         0
     26595         1         0     26598         1         0     26601         1         0
     26604         1         0     26607         1         0     26610         1         0
     26613         1         0     26616         1         0     26619         1         0
     26622         1         0     26625         1         0     26629         2         0
     26636         2         0     26647         1         0     26655         1         0
     26664         1         0     26667         1         0     26670         1         0
     26673         1         0     26676         1         0     26679         1         0
     26682         1         0     26684         1         0     26687         1         0
     26689         1         0     26692         1         0     26695         1         0
     26698         1         0     26701         1         0     26704         1         0
     26708         1         0     26711         1         0     26714         1         0
     26717         1         0     26720         1         0     26723         1         0
     26726         1         0     26729         1         0     26732         1         0
     26735         1         0     26738         1         0     26741         1         0
     26744         1         0     26747         1         0     26751         2         0
     26758         2         0     26769         1         0     26777         1         0
     26786         1         0     26789         1         0     26792         1         0
     26795         1         0     26798         1         0     26801         1         0
     26804         1         0     26806         1         0     26809         1         0
     26811         1         0     26814         1         0     26817         1         0
     26820         1         0     26823         1         0     26826         1         0
     26830         1         0     26833         1         0     26836         1         0
     26839         1         0     26842         1         0     26845         1         0
     26848         1         0     26851         1         0     26854         1         0
     26857         1         0     26860         1         0     26863         1         0
     26866         1         0     26869         1         0     26873         2         0
     26880         2         0     26891         1         0     26899         1         0
     26908         1         0     26911         1         0     26914         1         0
     26917         1         0     26920         1         0     26923         1         0
     26926         1         0     26928         1         0     26930         1         0
     26933         1         0     26936         1         0     26939         1         0
     26942         1         0     26945         1         0     26949         1         0
     26952         1         0     26955         1         0     26958         1         0
     26961         1         0     26964         1         0     26967         1         0
     26969         1         0     26971         1         0     26974         1         0
     26977         1         0     26980         1         0     26983         1         0
     26986         1         0     26989         1         0     26992         1         0
     26996         2         0     27003         2         0     27014         1         0
     27022         1         0     27031         1         0     27034         1         0
     27037         1         0     27040         1         0     27043         1         0
     27046         1         0     27049         1         0     27051         1         0
     27054         1         0     27056         1         0     27059         1         0
     27062         1         0     27065         1         0     27068         1         0
     27071         1         0     27075         1         0     27078         1         0
     27081         1         0     27084         1         0     27087         1         0
     27090         1         0     27093         1         0     27096         1         0
     27099         1         0     27102         1         0     27105         1         0
     27108         1         0     27111         1         0     27114         1         0
     27118         1         0     27123         1         0     27127         2         0
     27138         1         0     27146         1         0     27155         1         0
     27158         1         0     27161         1         0     27164         1         0
     27167         1         0     27170         1         0     27173         1         0
     27175         1         0     27178         1         0     27180         1         0
     27183         1         0     27186         1         0     27189         1         0
     27192         1         0     27195         1         0     27199         1         0
     27202         1         0     27205         1         0     27208         1         0
     27211         1         0     27214         1         0     27217         1         0
     27220         1         0     27223         1         0     27226         1         0
     27229         1         0     27232         1         0     27235         1         0
     27238         1         0     27242         2         0     27249         2         0
     27260         1         0     27268         1         0     27277         1         0
     27280         1         0     27283         1         0     27286         1         0
     27289         1         0     27292         1         0     27295         1         0
     27297         1         0     27300         1         0     27302         1         0
     27305         1         0     27308         1         0     27311         1         0
     27314         1         0     27317         1         0     27321         1         0
     27324         1         0     27327         1         0     27330         1         0
     27333         1         0     27336         1         0     27339         1         0
     27342         1         0     27345         1         0     27348         1         0
     27351         1         0     27354         1         0     27357         1         0
     27360         1         0     27364         2         0     27371         2         0
     27382         1         0     27390         1         0     27399         1         0
     27402         1         0     27405         1         0     27408         1         0
     27411         1         0     27414         1         0     27417         1         0
     27419         1         0     27422         1         0     27424         1         0
     27427         1         0     27430         1         0     27433         1         0
     27436         1         0     27439         1         0     27443         1         0
     27446         1         0     27449         1         0     27452         1         0
     27455         1         0     27458         1         0     27461         1         0
     27464         1         0     27467         1         0     27470         1         0
     27473         1         0     27476         1         0     27479         1         0
     27482         1         0     27486         2         0     27493         2         0
     27504         1         0     27512         1         0     27521         1         0
     27524         1         0     27527         1         0     27530         1         0
     27533         1         0     27536         1         0     27539         1         0
     27541         1         0     27544         1         0     27546         1         0
     27549         1         0     27552         1         0     27555         1         0
     27558         1         0     27561         1         0     27565         1         0
     27568         1         0     27571         1         0     27574         1         0
     27577         1         0     27580         1         0     27583         1         0
     27586         1         0     27589         1         0     27592         1         0
     27595         1         0     27598         1         0     27601         1         0
     27604         1         0     27608         2         0     27615         2         0
     27626         1         0     27634         1         0     27643         1         0
     27646         1         0     27649         1         0     27652         1         0
     27655         1         0     27658         1         0     27661         1         0
     27663         1         0     27666         1         0     27668         1         0
     27671         1         0     27674         1         0     27677         1         0
     27680         1         0     27683         1         0     27687         1         0
     27690         1         0     27693         1         0     27696         1         0
     27699         1         0     27702         1         0     27705         1         0
     27708         1         0     27711         1         0     27714         1         0
     27717         1         0     27720         1         0     27723         1         0
     27726         1         0     27730         2         0     27737         2         0
     27748         1         0     27756         1         0     27765         1         0
     27768         1         0     27771         1         0     27774         1         0
     27777         1         0     27780         1         0     27783         1         0
     27785         1         0     27787         1         0     27790         1         0
     27793         1         0     27796         1         0     27799         1         0
     27802         1         0     27805         1         0     27808         1         0
     27812         1         0     27815         1         0     27818         1         0
     27821         1         0     27824         1         0     27827         1         0
     27830         1         0     27833         1         0     27836         1         0
     27839         1         0     27842         1         0     27845         1         0
     27848         1         0     27851         1         0     27855         2         0
     27866         1         0     27870         2         0     27881         1         0
     27889         1         0     27898         1         0     27906         1         0
     27915         1         0     27918         1         0     27921         1         0
     27924         1         0     27927         1         0     27930         1         0
     27933         1         0     27936         1         0     27939         1         0
     27941         1         0     27943         1         0     27946         1         0
     27949         1         0     27952         1         0     27955         1         0
     27958         1         0     27962         1         0     27965         1         0
     27968         1         0     27971         1         0     27974         1         0
     27977         1         0     27980         1         0     27983         1         0
     27986         1         0     27989         1         0     27992         1         0
     27995         1         0     27998         1         0     28001         1         0
     28005         1         0     28008         1         0     28011         1         0
     28014         1         0     28017         1         0     28020         1         0
     28023         1         0     28026         1         0     28029         1         0
     28031         1         0     28033         1         0     28036         1         0
     28039         1         0     28042         1         0     28045         1         0
     28048         1         0     28052         1         0     28055         1         0
     28058         1         0     28061         1         0     28064         1         0
     28067         1         0     28070         1         0     28073         1         0
     28076         1         0     28079         1         0     28082         1         0
     28085         1         0     28088         1         0     28091         1         0
     28095         2         0     28102         2         0     28113         1         0
     28121         1         0     28130         1         0     28133         1         0
     28136         1         0     28139         1         0     28142         1         0
     28145         1         0     28148         1         0     28150         1         0
     28152         1         0     28155         1         0     28158         1         0
     28161         1         0     28164         1         0     28167         1         0
     28171         1         0     28174         1         0     28177         1         0
     28180         1         0     28183         1         0     28186         1         0
     28189         1         0     28191         1         0     28193         1         0
     28196         1         0     28199         1         0     28202         1         0
     28205         1         0     28208         1         0     28211         1         0
     28214         1         0     28218         2         0     28225         2         0
     28236         1         0     28244         1         0     28253         1         0
     28256         1         0     28259         1         0     28262         1         0
     28265         1         0     28268         1         0     28271         1         0
     28273         1         0     28276         1         0     28278         1         0
     28281         1         0     28284         1         0     28287         1         0
     28290         1         0     28293         1         0     28297         1         0
     28300         1         0     28303         1         0     28306         1         0
     28309         1         0     28312         1         0     28315         1         0
     28318         1         0     28321         1         0     28324         1         0
     28327         1         0     28330         1         0     28333         1         0
     28337         2         0     28344         2         0     28355         1         0
     28363         1         0     28372         1         0     28375         1         0
     28378         1         0     28381         1         0     28384         1         0
     28387         1         0     28390         1         0     28392         1         0
     28395         1         0     28397         1         0     28400         1         0
     28403         1         0     28406         1         0     28409         1         0
     28412         1         0     28416         1         0     28419         1         0
     28422         1         0     28425         1         0     28428         1         0
     28431         1         0     28434         1         0     28437         1         0
     28440         1         0     28443         1         0     28446         1         0
     28449         1         0     28452         1         0     28456         2         0
     28463         2         0     28474         1         0     28482         1         0
     28491         1         0     28494         1         0     28497         1         0
     28500         1         0     28503         1         0     28506         1         0
     28509         1         0     28511         1         0     28514         1         0
     28516         1         0     28519         1         0     28522         1         0
     28525         1         0     28528         1         0     28531         1         0
     28535         1         0     28538         1         0     28541         1         0
     28544         1         0     28547         1         0     28550         1         0
     28553         1         0     28556         1         0     28559         1         0
     28562         1         0     28565         1         0     28568         1         0
     28571         1         0     28574         1         0     28578         2         0
     28585         2         0     28596         1         0     28604         1         0
     28613         1         0     28616         1         0     28619         1         0
     28622         1         0     28625         1         0     28628         1         0
     28631         1         0     28633         1         0     28636         1         0
     28638         1         0     28641         1         0     28644         1         0
     28647         1         0     28650         1         0     28653         1         0
     28657         1         0     28660         1         0     28663         1         0
     28666         1         0     28669         1         0     28672         1         0
     28675         1         0     28678         1         0     28681         1         0
     28684         1         0     28687         1         0     28690         1         0
     28693         1         0     28696         1         0     28700         1         0
     28705         1         0     28709         2         0     28720         1         0
     28728         1         0     28737         1         0     28740         1         0
     28743         1         0     28746         1         0     28749         1         0
     28752         1         0     28755         1         0     28757         1         0
     28760         1         0     28762         1         0     28765         1         0
     28768         1         0     28771         1         0     28774         1         0
     28777         1         0     28781         1         0     28784         1         0
     28787         1         0     28790         1         0     28793         1         0
     28796         1         0     28799         1         0     28802         1         0
     28805         1         0     28808         1         0     28811         1         0
     28814         1         0     28817         1         0     28820         1         0
     28824         2         0     28831         2         0     28842         1         0
     28850         1         0     28859         1         0     28862         1         0
     28865         1         0     28868         1         0     28871         1         0
     28874         1         0     28877         1         0     28879         1         0
     28882         1         0     28884         1         0     28887         1         0
     28890         1         0     28893         1         0     28896         1         0
     28899         1         0     28903         1         0     28906         1         0
     28909         1         0     28912         1         0     28915         1         0
     28918         1         0     28921         1         0     28924         1         0
     28927         1         0     28930         1         0     28933         1         0
     28936         1         0     28939         1         0     28942         1         0
     28946         2         0     28953         2         0     28964         1         0
     28972         1         0     28981         1         0     28984         1         0
     28987         1         0     28990         1         0     28993         1         0
     28996         1         0     28999         1         0     29001         1         0
     29004         1         0     29006         1         0     29009         1         0
     29012         1         0     29015         1         0     29018         1         0
     29021         1         0     29025         1         0     29028         1         0
     29031         1         0     29034         1         0     29037         1         0
     29040         1         0     29043         1         0     29046         1         0
     29049         1         0     29052         1         0     29055         1         0
     29058         1         0     29061         1         0     29065         1         0
     29070         1         0     29074         2         0     29085         1         0
     29093         1         0     29102         1         0     29105         1         0
     29108         1         0     29111         1         0     29114         1         0
     29117         1         0     29120         1         0     29122         1         0
     29125         1         0     29127         1         0     29130         1         0
     29133         1         0     29136         1         0     29139         1         0
     29142         1         0     29146         1         0     29149         1         0
     29152         1         0     29155         1         0     29158         1         0
     29161         1         0     29164         1         0     29167         1         0
     29170         1         0     29173         1         0     29176         1         0
     29179         1         0     29182         1         0     29185         1         0
     29189         2         0     29196         2         0     29207         1         0
     29215         1         0     29224         1         0     29227         1         0
     29230         1         0     29233         1         0     29236         1         0
     29239         1         0     29242         1         0     29244         1         0
     29247         1         0     29249         1         0     29252         1         0
     29255         1         0     29258         1         0     29261         1         0
     29264         1         0     29268         1         0     29271         1         0
     29274         1         0     29277         1         0     29280         1         0
     29283         1         0     29286         1         0     29289         1         0
     29292         1         0     29295         1         0     29298         1         0
     29301         1         0     29304         1         0     29307         1         0
     29311         2         0     29318         2         0     29329         1         0
     29337         1         0     29346         1         0     29349         1         0
     29352         1         0     29355         1         0     29358         1         0
     29361         1         0     29364         1         0     29366         1         0
     29369         1         0     29371         1         0     29374         1         0
     29377         1         0     29380         1         0     29383         1         0
     29386         1         0     29390         1         0     29393         1         0
     29396         1         0     29399         1         0     29402         1         0
     29405         1         0     29408         1         0     29411         1         0
     29414         1         0     29417         1         0     29420         1         0
     29423         1         0     29426         1         0     29429         1         0
     29433         2         0     29440         2         0     29451         1         0
     29459         1         0     29468         1         0     29471         1         0
     29474         1         0     29477         1         0     29480         1         0
     29483         1         0     29486         1         0     29488         1         0
     29491         1         0     29493         1         0     29496         1         0
     29499         1         0     29502         1         0     29505         1         0
     29508         1         0     29512         1         0     29515         1         0
     29518         1         0     29521         1         0     29524         1         0
     29527         1         0     29530         1         0     29533         1         0
     29536         1         0     29539         1         0     29542         1         0
     29545         1         0     29548         1         0     29551         1         0
     29555         2         0     29562         2         0     29573         1         0
     29581         1         0     29590         1         0     29593         1         0
     29596         1         0     29599         1         0     29602         1         0
     29605         1         0     29608         1         0     29610         1         0
     29613         1         0     29615         1         0     29618         1         0
     29621         1         0     29624         1         0     29627         1         0
     29630         1         0     29634         1         0     29637         1         0
     29640         1         0     29643         1         0     29646         1         0
     29649         1         0     29652         1         0     29655         1         0
     29658         1         0     29661         1         0     29664         1         0
     29667         1         0     29670         1         0     29673         1         0
     29677         1         0     29682         1         0     29686         2         0
     29697         1         0     29705         1         0     29714         1         0
     29717         1         0     29720         1         0     29723         1         0
     29726         1         0     29729         1         0     29732         1         0
     29734         1         0     29737         1         0     29739         1         0
     29742         1         0     29745         1         0     29748         1         0
     29751         1         0     29754         1         0     29758         1         0
     29761         1         0     29764         1         0     29767         1         0
     29770         1         0     29773         1         0     29776         1         0
     29779         1         0     29782         1         0     29785         1         0
     29788         1         0     29791         1         0     29794         1         0
     29797         1         0     29801         2         0     29808         2         0
     29819         1         0     29827         1         0     29836         1         0
     29839         1         0     29842         1         0     29845         1         0
     29848         1         0     29851         1         0     29854         1         0
     29856         1         0     29859         1         0     29861         1         0
     29864         1         0     29867         1         0     29870         1         0
     29873         1         0     29876         1         0     29880         1         0
     29883         1         0     29886         1         0     29889         1         0
     29892         1         0     29895         1         0     29898         1         0
     29901         1         0     29904         1         0     29907         1         0
     29910         1         0     29913         1         0     29916         1         0
     29919         1         0     29923         2         0     29930         2         0
     29941         1         0     29949         1         0     29958         1         0
     29961         1         0     29964         1         0     29967         1         0
     29970         1         0     29973         1         0     29976         1         0
     29978         1         0     29980         1         0     29983         1         0
     29986         1         0     29989         1         0     29992         1         0
     29995         1         0     29998         1         0     30001         1         0
     30005         1         0     30008         1         0     30011         1         0
     30014         1         0     30017         1         0     30020         1         0
     30023         1         0     30026         1         0     30029         1         0
     30032         1         0     30035         1         0     30038         1         0
     30041         1         0     30044         1         0     30048         2         0
     30055         2         0     30066         1         0     30074         1         0
     30083         1         0     30086         1         0     30089         1         0
     30092         1         0     30095         1         0     30098         1         0
     30101         1         0     30103         1         0     30105         1         0
     30108         1         0     30111         1         0     30114         1         0
     30117         1         0     30120         1         0     30123         1         0
     30126         1         0     30130         1         0     30133         1         0
     30136         1         0     30139         1         0     30142         1         0
     30145         1         0     30148         1         0     30151         1         0
     30154         1         0     30157         1         0     30160         1         0
     30163         1         0     30166         1         0     30169         1         0
     30173         2         0     30180         2         0     30191         1         0
     30199         1         0     30208         1         0     30211         1         0
     30214         1         0     30217         1         0     30220         1         0
     30223         1         0     30226         1         0     30228         1         0
     30230         1         0     30233         1         0     30236         1         0
     30239         1         0     30242         1         0     30245         1         0
     30249         1         0     30252         1         0     30255         1         0
     30258         1         0     30261         1         0     30264         1         0
     30267         1         0     30269         1         0     30271         1         0
     30274         1         0     30277         1         0     30280         1         0
     30283         1         0     30286         1         0     30289         1         0
     30292         1         0     30296         2         0     30303         2         0
     30314         1         0     30322         1         0     30331         1         0
     30334         1         0     30337         1         0     30340         1         0
     30343         1         0     30346         1         0     30349         1         0
     30351         1         0     30354         1         0     30356         1         0
     30359         1         0     30362         1         0     30365         1         0
     30368         1         0     30371         1         0     30375         1         0
     30378         1         0     30381         1         0     30384         1         0
     30387         1         0     30390         1         0     30393         1         0
     30396         1         0     30399         1         0     30402         1         0
     30405         1         0     30408         1         0     30411         1         0
     30415         2         0     30422         2         0     30433         1         0
     30441         1         0     30450         1         0     30453         1         0
     30456         1         0     30459         1         0     30462         1         0
     30465         1         0     30468         1         0     30470         1         0
     30473         1         0     30475         1         0     30478         1         0
     30481         1         0     30484         1         0     30487         1         0
     30490         1         0     30494         1         0     30497         1         0
     30500         1         0     30503         1         0     30506         1         0
     30509         1         0     30512         1         0     30515         1         0
     30518         1         0     30521         1         0     30524         1         0
     30527         1         0     30530         1         0     30533         1         0
     30537         2         0     30544         2         0     30555         1         0
     30563         1         0     30572         1         0     30575         1         0
     30578         1         0     30581         1         0     30584         1         0
     30587         1         0     30590         1         0     30592         1         0
     30595         1         0     30597         1         0     30600         1         0
     30603         1         0     30606         1         0     30609         1         0
     30612         1         0     30616         1         0     30619         1         0
     30622         1         0     30625         1         0     30628         1         0
     30631         1         0     30634         1         0     30637         1         0
     30640         1         0     30643         1         0     30646         1         0
     30649         1         0     30652         1         0     30656         2         0
     30663         2         0     30674         1         0     30682         1         0
     30691         1         0     30694         1         0     30697         1         0
     30700         1         0     30703         1         0     30706         1         0
     30709         1         0     30711         1         0     30714         1         0
     30716         1         0     30719         1         0     30722         1         0
     30725         1         0     30728         1         0     30731         1         0
     30735         1         0     30738         1         0     30741         1         0
     30744         1         0     30747         1         0     30750         1         0
     30753         1         0     30756         1         0     30759         1         0
     30762         1         0     30765         1         0     30768         1         0
     30771         1         0     30774         1         0     30778         2         0
     30785         2         0     30796         1         0     30804         1         0
     30813         1         0     30816         1         0     30819         1         0
     30822         1         0     30825         1         0     30828         1         0
     30831         1         0     30833         1         0     30836         1         0
     30838         1         0     30841         1         0     30844         1         0
     30847         1         0     30850         1         0     30853         1         0
     30857         1         0     30860         1         0     30863         1         0
     30866         1         0     30869         1         0     30872         1         0
     30875         1         0     30878         1         0     30881         1         0
     30884         1         0     30887         1         0     30890         1         0
     30893         1         0     30896         1         0     30900         2         0
     30907         2         0     30918         1         0     30926         1         0
     30935         1         0     30938         1         0     30941         1         0
     30944         1         0     30947         1         0     30950         1         0
     30953         1         0     30955         1         0     30958         1         0
     30960         1         0     30963         1         0     30966         1         0
     30969         1         0     30972         1         0     30975         1         0
     30979         1         0     30982         1         0     30985         1         0
     30988         1         0     30991         1         0     30994         1         0
     30997         1         0     31000         1         0     31003         1         0
     31006         1         0     31009         1         0     31012         1         0
     31015         1         0     31018         1         0     31022         2         0
     31029         2         0     31040         1         0     31048         1         0
     31057         1         0     31060         1         0     31063         1         0
     31066         1         0     31069         1         0     31072         1         0
     31075         1         0     31077         1         0     31079         1         0
     31082         1         0     31085         1         0     31088         1         0
     31091         1         0     31094         1         0     31097         1         0
     31100         1         0     31104         1         0     31107         1         0
     31110         1         0     31113         1         0     31116         1         0
     31119         1         0     31122         1         0     31125         1         0
     31128         1         0     31131         1         0     31134         1         0
     31137         1         0     31140         1         0     31143         1         0
     31147         1         0     31152         1         0     31156         2         0
     31167         1         0     31175         1         0     31184         1         0
     31187         1         0     31190         1         0     31193         1         0
     31196         1         0     31199         1         0     31202         1         0
     31204         1         0     31207         1         0     31209         1         0
     31212         1         0     31215         1         0     31218         1         0
     31221         1         0     31224         1         0     31228         1         0
     31231         1         0     31234         1         0     31237         1         0
     31240         1         0     31243         1         0     31246         1         0
     31249         1         0     31252         1         0     31255         1         0
     31258         1         0     31261         1         0     31264         1         0
     31267         1         0     31271         2         0     31278         2         0
     31289         1         0     31297         1         0     31306         1         0
     31309         1         0     31312         1         0     31315         1         0
     31318         1         0     31321         1         0     31324         1         0
     31326         1         0     31328         1         0     31331         1         0
     31334         1         0     31337         1         0     31340         1         0
     31343         1         0     31346         1         0     31349         1         0
     31353         1         0     31356         1         0     31359         1         0
     31362         1         0     31365         1         0     31368         1         0
     31371         1         0     31374         1         0     31377         1         0
     31380         1         0     31383         1         0     31386         1         0
     31389         1         0     31392         1         0     31396         2         0
     31403         2         0     31414         1         0     31422         1         0
     31431         1         0     31434         1         0     31437         1         0
     31440         1         0     31443         1         0     31446         1         0
     31449         1         0     31451         1         0     31454         1         0
     31456         1         0     31459         1         0     31462         1         0
     31465         1         0     31468         1         0     31471         1         0
     31475         1         0     31478         1         0     31481         1         0
     31484         1         0     31487         1         0     31490         1         0
     31493         1         0     31496         1         0     31499         1         0
     31502         1         0     31505         1         0     31508         1         0
     31511         1         0     31514         1         0     31518         2         0
     31525         2         0     31536         1         0     31544         1         0
     31553         1         0     31556         1         0     31559         1         0
     31562         1         0     31565         1         0     31568         1         0
     31571         1         0     31573         1         0     31575         1         0
     31578         1         0     31581         1         0     31584         1         0
     31587         1         0     31590         1         0     31593         1         0
     31596         1         0     31600         1         0     31603         1         0
     31606         1         0     31609         1         0     31612         1         0
     31615         1         0     31618         1         0     31621         1         0
     31624         1         0     31627         1         0     31630         1         0
     31633         1         0     31636         1         0     31639         1         0
     31643         2         0     31650         2         0     31661         1         0
     31669         1         0     31678         1         0     31681         1         0
     31684         1         0     31687         1         0     31690         1         0
     31693         1         0     31696         1         0     31698         1         0
     31701         1         0     31703         1         0     31706         1         0
     31709         1         0     31712         1         0     31715         1         0
     31718         1         0     31722         1         0     31725         1         0
     31728         1         0     31731         1         0     31734         1         0
     31737         1         0     31740         1         0     31743         1         0
     31746         1         0     31749         1         0     31752         1         0
     31755         1         0     31758         1         0     31761         1         0
     31765         2         0     31772         2         0     31783         1         0
     31791         1         0     31800         1         0     31803         1         0
     31806         1         0     31809         1         0     31812         1         0
     31815         1         0     31818         1         0     31820         1         0
     31823         1         0     31825         1         0     31828         1         0
     31831         1         0     31834         1         0     31837         1         0
     31840         1         0     31844         1         0     31847         1         0
     31850         1         0     31853         1         0     31856         1         0
     31859         1         0     31862         1         0     31865         1         0
     31868         1         0     31871         1         0     31874         1         0
     31877         1         0     31880         1         0     31883         1         0
     31887         2         0     31894         2         0     31905         1         0
     31913         1         0     31922         1         0     31925         1         0
     31928         1         0     31931         1         0     31934         1         0
     31937         1         0     31940         1         0     31942         1         0
     31944         1         0     31947         1         0     31950         1         0
     31953         1         0     31956         1         0     31959         1         0
     31963         1         0     31966         1         0     31969         1         0
     31972         1         0     31975         1         0     31978         1         0
     31981         1         0     31983         1         0     31985         1         0
     31988         1         0     31991         1         0     31994         1         0
     31997         1         0     32000         1         0     32003         1         0
     32006         1         0     32010         2         0     32017         2         0
     32028         1         0     32036         1         0     32045         1         0
     32048         1         0     32051         1         0     32054         1         0
     32057         1         0     32060         1         0     32063         1         0
     32065         1         0     32068         1         0     32070         1         0
     32073         1         0     32076         1         0     32079         1         0
     32082         1         0     32085         1         0     32089         1         0
     32092         1         0     32095         1         0     32098         1         0
     32101         1         0     32104         1         0     32107         1         0
     32110         1         0     32113         1         0     32116         1         0
     32119         1         0     32122         1         0     32125         1         0
     32128         1         0     32132         2         0     32139         2         0
     32150         1         0     32158         1         0     32167         1         0
     32170         1         0     32173         1         0     32176         1         0
     32179         1         0     32182         1         0     32185         1         0
     32187         1         0     32190         1         0     32192         1         0
     32195         1         0     32198         1         0     32201         1         0
     32204         1         0     32207         1         0     32211         1         0
     32214         1         0     32217         1         0     32220         1         0
     32223         1         0     32226         1         0     32229         1         0
     32232         1         0     32235         1         0     32238         1         0
     32241         1         0     32244         1         0     32247         1         0
     32250         1         0     32254         2         0     32261         2         0
     32272         1         0     32280         1         0     32289         1         0
     32292         1         0     32295         1         0     32298         1         0
     32301         1         0     32304         1         0     32307         1         0
     32309         1         0     32311         1         0     32314         1         0
     32317         1         0     32320         1         0     32323         1         0
     32326         1         0     32329         1         0     32332         1         0
     32336         1         0     32339         1         0     32342         1         0
     32345         1         0     32348         1         0     32351         1         0
     32354         1         0     32357         1         0     32360         1         0
     32363         1         0     32366         1         0     32369         1         0
     32372         1         0     32375         1         0     32379         1         0
     32384         1         0     32388         2         0     32399         1         0
     32407         1         0     32416         1         0     32419         1         0
     32422         1         0     32425         1         0     32428         1         0
     32431         1         0     32434         1         0     32436         1         0
     32438         1         0     32441         1         0     32444         1         0
     32447         1         0     32450         1         0     32453         1         0
     32457         1         0     32460         1         0     32463         1         0
     32466         1         0     32469         1         0     32472         1         0
     32475         1         0     32478         1         0     32481         1         0
     32484         1         0     32487         1         0     32490         1         0
     32493         1         0     32496         1         0     32500         2         0
     32507         2         0     32518         1         0     32526         1         0
     32535         1         0     32538         1         0     32541         1         0
     32544         1         0     32547         1         0     32550         1         0
     32553         1         0     32555         1         0     32557         1         0
     32560         1         0     32563         1         0     32566         1         0
     32569         1         0     32572         1         0     32576         1         0
     32579         1         0     32582         1         0     32585         1         0
     32588         1         0     32591         1         0     32594         1         0
     32596         1         0     32598         1         0     32601         1         0
     32604         1         0     32607         1         0     32610         1         0
     32613         1         0     32616         1         0     32619         1         0
     32623         2         0     32630         2         0     32641         1         0
     32649         1         0     32658         1         0     32661         1         0
     32664         1         0     32667         1         0     32670         1         0
     32673         1         0     32676         1         0     32678         1         0
     32681         1         0     32683         1         0     32686         1         0
     32689         1         0     32692         1         0     32695         1         0
     32698         1         0     32702         1         0     32705         1         0
     32708         1         0     32711         1         0     32714         1         0
     32717         1         0     32720         1         0     32723         1         0
     32726         1         0     32729         1         0     32732         1         0
     32735         1         0     32738         1         0     32742         1         0
     32747         1         0     32751         2         0     32762         1         0
     32770         1         0     32779         1         0     32782         1         0
     32785         1         0     32788         1         0     32791         1         0
     32794         1         0     32797         1         0     32799         1         0
     32801         1         0     32804         1         0     32807         1         0
     32810         1         0     32813         1         0     32816         1         0
     32820         1         0     32823         1         0     32826         1         0
     32829         1         0     32832         1         0     32835         1         0
     32838         1         0     32841         1         0     32844         1         0
     32847         1         0     32850         1         0     32853         1         0
     32856         1         0     32859         1         0     32863         2         0
     32870         2         0     32881         1         0     32889         1         0
     32898         1         0     32901         1         0     32904         1         0
     32907         1         0     32910         1         0     32913         1         0
     32916         1         0     32918         1         0     32921         1         0
     32923         1         0     32926         1         0     32929         1         0
     32932         1         0     32935         1         0     32938         1         0
     32942         1         0     32945         1         0     32948         1         0
     32951         1         0     32954         1         0     32957         1         0
     32960         1         0     32963         1         0     32966         1         0
     32969         1         0     32972         1         0     32975         1         0
     32978         1         0     32982         2         0     32989         2         0
     33000         1         0     33008         1         0     33017         1         0
     33020         1         0     33023         1         0     33026         1         0
     33029         1         0     33032         1         0     33035         1         0
     33037         1         0     33039         1         0     33042         1         0
     33045         1         0     33048         1         0     33051         1         0
     33054         1         0     33057         1         0     33060         1         0
     33064         1         0     33067         1         0     33070         1         0
     33073         1         0     33076         1         0     33079         1         0
     33082         1         0     33085         1         0     33088         1         0
     33091         1         0     33094         1         0     33097         1         0
     33100         1         0     33103         1         0     33107         2         0
     33114         2         0     33125         1         0     33133         1         0
     33142         1         0     33145         1         0     33148         1         0
     33151         1         0     33154         1         0     33157         1         0
     33160         1         0     33162         1         0     33165         1         0
     33167         1         0     33170         1         0     33173         1         0
     33176         1         0     33179         1         0     33182         1         0
     33186         1         0     33189         1         0     33192         1         0
     33195         1         0     33198         1         0     33201         1         0
     33204         1         0     33207         1         0     33210         1         0
     33213         1         0     33216         1         0     33219         1         0
     33222         1         0     33225         1         0     33229         2         0
     33236         2         0     33247         1         0     33255         1         0
     33264         1         0     33267         1         0     33270         1         0
     33273         1         0     33276         1         0     33279         1         0
     33282         1         0     33284         1         0     33287         1         0
     33289         1         0     33292         1         0     33295         1         0
     33298         1         0     33301         1         0     33304         1         0
     33308         1         0     33311         1         0     33314         1         0
     33317         1         0     33320         1         0     33323         1         0
     33326         1         0     33329         1         0     33332         1         0
     33335         1         0     33338         1         0     33341         1         0
     33344         1         0     33347         1         0     33351         2         0
     33358         2         0     33369         1         0     33377         1         0
     33386         1         0     33389         1         0     33392         1         0
     33395         1         0     33398         1         0     33401         1         0
     33404         1         0     33406         1         0     33408         1         0
     33411         1         0     33414         1         0     33417         1         0
     33420         1         0     33423         1         0     33427         1         0
     33430         1         0     33433         1         0     33436         1         0
     33439         1         0     33442         1         0     33445         1         0
     33447         1         0     33449         1         0     33452         1         0
     33455         1         0     33458         1         0     33461         1         0
     33464         1         0     33467         1         0     33470         1         0
     33474         1         0     33479         1         0     33483         2         0
     33494         1         0     33502         1         0     33511         1         0
     33514         1         0     33517         1         0     33520         1         0
     33523         1         0     33526         1         0     33529         1         0
     33531         1         0     33533         1         0     33536         1         0
     33539         1         0     33542         1         0     33545         1         0
     33548         1         0     33552         1         0     33555         1         0
     33558         1         0     33561         1         0     33564         1         0
     33567         1         0     33570         1         0     33573         1         0
     33576         1         0     33579         1         0     33582         1         0
     33585         1         0     33588         1         0     33591         1         0
     33595         2         0     33602         2         0     33613         1         0
     33621         1         0     33630         1         0     33633         1         0
     33636         1         0     33639         1         0     33642         1         0
     33645         1         0     33648         1         0     33650         1         0
     33653         1         0     33655         1         0     33658         1         0
     33661         1         0     33664         1         0     33667         1         0
     33670         1         0     33674         1         0     33677         1         0
     33680         1         0     33683         1         0     33686         1         0
     33689         1         0     33692         1         0     33695         1         0
     33698         1         0     33701         1         0     33704         1         0
     33707         1         0     33710         1         0     33713         1         0
     33717         2         0     33724         2         0     33735         1         0
     33743         1         0     33752         1         0     33755         1         0
     33758         1         0     33761         1         0     33764         1         0
     33767         1         0     33770         1         0     33772         1         0
     33775         1         0     33777         1         0     33780         1         0
     33783         1         0     33786         1         0     33789         1         0
     33792         1         0     33796         1         0     33799         1         0
     33802         1         0     33805         1         0     33808         1         0
     33811         1         0     33814         1         0     33817         1         0
     33820         1         0     33823         1         0     33826         1         0
     33829         1         0     33832         1         0     33835         1         0
     33839         2         0     33846         2         0     33857         1         0
     33865         1         0     33874         1         0     33877         1         0
     33880         1         0     33883         1         0     33886         1         0
     33889         1         0     33892         1         0     33894         1         0
     33897         1         0     33899         1         0     33902         1         0
     33905         1         0     33908         1         0     33911         1         0
     33914         1         0     33918         1         0     33921         1         0
     33924         1         0     33927         1         0     33930         1         0
     33933         1         0     33936         1         0     33939         1         0
     33942         1         0     33945         1         0     33948         1         0
     33951         1         0     33954         1         0     33957         1         0
     33961         2         0     33968         2         0     33979         1         0
     33987         1         0     33996         1         0     33999         1         0
     34002         1         0     34005         1         0     34008         1         0
     34011         1         0     34014         1         0     34016         1         0
     34019         1         0     34021         1         0     34024         1         0
     34027         1         0     34030         1         0     34033         1         0
     34036         1         0     34040         1         0     34043         1         0
     34046         1         0     34049         1         0     34052         1         0
     34055         1         0     34058         1         0     34061         1         0
     34064         1         0     34067         1         0     34070         1         0
     34073         1         0     34076         1         0     34079         1         0
     34083         2         0     34090         2         0     34101         1         0
     34109         1         0     34118         1         0     34121         1         0
     34124         1         0     34127         1         0     34130         1         0
     34133         1         0     34136         1         0     34138         1         0
     34141         1         0     34143         1         0     34146         1         0
     34149         1         0     34152         1         0     34155         1         0
     34158         1         0     34162         1         0     34165         1         0
     34168         1         0     34171         1         0     34174         1         0
     34177         1         0     34180         1         0     34183         1         0
     34186         1         0     34189         1         0     34192         1         0
     34195         1         0     34198         1         0     34201         1         0
     34205         2         0     34212         2         0     34223         1         0
     34231         1         0     34240         1         0     34243         1         0
     34246         1         0     34249         1         0     34252         1         0
     34255         1         0     34258         1         0     34260         1         0
     34263         1         0     34265         1         0     34268         1         0
     34271         1         0     34274         1         0     34277         1         0
     34280         1         0     34284         1         0     34287         1         0
     34290         1         0     34293         1         0     34296         1         0
     34299         1         0     34302         1         0     34305         1         0
     34308         1         0     34311         1         0     34314         1         0
     34317         1         0     34320         1         0     34323         1         0
     34327         2         0     34334         2         0     34345         1         0
     34353         1         0     34362         1         0     34365         1         0
     34368         1         0     34371         1         0     34374         1         0
     34377         1         0     34380         1         0     34382         1         0
     34385         1         0     34387         1         0     34390         1         0
     34393         1         0     34396         1         0     34399         1         0
     34402         1         0     34406         1         0     34409         1         0
     34412         1         0     34415         1         0     34418         1         0
     34421         1         0     34424         1         0     34427         1         0
     34430         1         0     34433         1         0     34436         1         0
     34439         1         0     34442         1         0     34445         1         0
     34449         1         0     34454         1         0     34458         2         0
     34469         1         0     34477         1         0     34486         1         0
     34489         1         0     34492         1         0     34495         1         0
     34498         1         0     34501         1         0     34504         1         0
     34506         1         0     34508         1         0     34511         1         0
     34514         1         0     34517         1         0     34520         1         0
     34523         1         0     34527         1         0     34530         1         0
     34533         1         0     34536         1         0     34539         1         0
     34542         1         0     34545         1         0     34548         1         0
     34551         1         0     34554         1         0     34557         1         0
     34560         1         0     34563         1         0     34566         1         0
     34570         2         0     34577         2         0     34588         1         0
     34596         1         0     34605         1         0     34608         1         0
     34611         1         0     34614         1         0     34617         1         0
     34620         1         0     34623         1         0     34625         1         0
     34627         1         0     34630         1         0     34633         1         0
     34636         1         0     34639         1         0     34642         1         0
     34646         1         0     34649         1         0     34652         1         0
     34655         1         0     34658         1         0     34661         1         0
     34664         1         0     34666         1         0     34668         1         0
     34671         1         0     34674         1         0     34677         1         0
     34680         1         0     34683         1         0     34686         1         0
     34689         1         0     34693         2         0     34700         2         0
     34711         1         0     34719         1         0     34728         1         0
     34731         1         0     34734         1         0     34737         1         0
     34740         1         0     34743         1         0     34746         1         0
     34748         1         0     34751         1         0     34753         1         0
     34756         1         0     34759         1         0     34762         1         0
     34765         1         0     34768         1         0     34772         1         0
     34775         1         0     34778         1         0     34781         1         0
     34784         1         0     34787         1         0     34790         1         0
     34793         1         0     34796         1         0     34799         1         0
     34802         1         0     34805         1         0     34808         1         0
     34811         1         0     34815         1         0     34820         1         0
     34824         2         0     34835         1         0     34843         1         0
     34852         1         0     34855         1         0     34858         1         0
     34861         1         0     34864         1         0     34867         1         0
     34870         1         0     34872         1         0     34874         1         0
     34877         1         0     34880         1         0     34883         1         0
     34886         1         0     34889         1         0     34893         1         0
     34896         1         0     34899         1         0     34902         1         0
     34905         1         0     34908         1         0     34911         1         0
     34914         1         0     34917         1         0     34920         1         0
     34923         1         0     34926         1         0     34929         1         0
     34932         1         0     34936         1         0     34941         1         0
     34945         2         0     34956         1         0     34964         1         0
     34973         1         0     34976         1         0     34979         1         0
     34982         1         0     34985         1         0     34988         1         0
     34991         1         0     34993         1         0     34995         1         0
     34998         1         0     35001         1         0     35004         1         0
     35007         1         0     35010         1         0     35014         1         0
     35017         1         0     35020         1         0     35023         1         0
     35026         1         0     35029         1         0     35032         1         0
     35035         1         0     35038         1         0     35041         1         0
     35044         1         0     35047         1         0     35050         1         0
     35053         1         0     35057         2         0     35064         2         0
     35075         1         0     35083         1         0     35092         1         0
     35095         1         0     35098         1         0     35101         1         0
     35104         1         0     35107         1         0     35110         1         0
     35112         1         0     35115         1         0     35117         1         0
     35120         1         0     35123         1         0     35126         1         0
     35129         1         0     35132         1         0     35136         1         0
     35139         1         0     35142         1         0     35145         1         0
     35148         1         0     35151         1         0     35154         1         0
     35157         1         0     35160         1         0     35163         1         0
     35166         1         0     35169         1         0     35172         1         0
     35175         1         0     35179         1         0     35184         1         0
     35188         2         0     35199         1         0     35207         1         0
     35216         1         0     35219         1         0     35222         1         0
     35225         1         0     35228         1         0     35231         1         0
     35234         1         0     35236         1         0     35238         1         0
     35241         1         0     35244         1         0     35247         1         0
     35250         1         0     35253         1         0     35257         1         0
     35260         1         0     35263         1         0     35266         1         0
     35269         1         0     35272         1         0     35275         1         0
     35278         1         0     35281         1         0     35284         1         0
     35287         1         0     35290         1         0     35293         1         0
     35296         1         0     35300         2         0     35311         1         0
     35315         2         0     35326         1         0     35334         1         0
     35343         1         0     35351         1         0     35360         1         0
     35363         1         0     35366         1         0     35369         1         0
     35372         1         0     35375         1         0     35378         1         0
     35381         1         0     35384         1         0     35386         1         0
     35388         1         0     35391         1         0     35394         1         0
     35397         1         0     35400         1         0     35403         1         0
     35407         1         0     35410         1         0     35413         1         0
     35416         1         0     35419         1         0     35422         1         0
     35425         1         0     35428         1         0     35431         1         0
     35434         1         0     35437         1         0     35440         1         0
     35443         1         0     35446         1         0     35450         1         0
     35453         1         0     35456         1         0     35459         1         0
     35462         1         0     35465         1         0     35468         1         0
     35471         1         0     35474         1         0     35476         1         0
     35478         1         0     35481         1         0     35484         1         0
     35487         1         0     35490         1         0     35493         1         0
     35497         1         0     35500         1         0     35503         1         0
     35506         1         0     35509         1         0     35512         1         0
     35515         1         0     35518         1         0     35521         1         0
     35524         1         0     35527         1         0     35530         1         0
     35533         1         0     35536         1         0     35540         2         0
     35547         2         0     35558         1         0     35566         1         0
     35575         1         0     35578         1         0     35581         1         0
     35584         1         0     35587         1         0     35590         1         0
     35593         1         0     35595         1         0     35598         1         0
     35600         1         0     35603         1         0     35606         1         0
     35609         1         0     35612         1         0     35615         1         0
     35619         1         0     35622         1         0     35625         1         0
     35628         1         0     35631         1         0     35634         1         0
     35637         1         0     35640         1         0     35643         1         0
     35646         1         0     35649         1         0     35652         1         0
     35655         1         0     35658         1         0     35662         2         0
     35669         2         0     35680         1         0     35688         1         0
     35697         1         0     35700         1         0     35703         1         0
     35706         1         0     35709         1         0     35712         1         0
     35715         1         0     35717         1         0     35720         1         0
     35722         1         0     35725         1         0     35728         1         0
     35731         1         0     35734         1         0     35737         1         0
     35741         1         0     35744         1         0     35747         1         0
     35750         1         0     35753         1         0     35756         1         0
     35759         1         0     35762         1         0     35765         1         0
     35768         1         0     35771         1         0     35774         1         0
     35777         1         0     35780         1         0     35784         2         0
     35791         2         0     35802         1         0     35810         1         0
     35819         1         0     35822         1         0     35825         1         0
     35828         1         0     35831         1         0     35834         1         0
     35837         1         0     35839         1         0     35842         1         0
     35844         1         0     35847         1         0     35850         1         0
     35853         1         0     35856         1         0     35859         1         0
     35863         1         0     35866         1         0     35869         1         0
     35872         1         0     35875         1         0     35878         1         0
     35881         1         0     35884         1         0     35887         1         0
     35890         1         0     35893         1         0     35896         1         0
     35899         1         0     35902         1         0     35906         1         0
     35911         1         0     35915         2         0     35926         1         0
     35934         1         0     35943         1         0     35946         1         0
     35949         1         0     35952         1         0     35955         1         0
     35958         1         0     35961         1         0     35963         1         0
     35965         1         0     35968         1         0     35971         1         0
     35974         1         0     35977         1         0     35980         1         0
     35984         1         0     35987         1         0     35990         1         0
     35993         1         0     35996         1         0     35999         1         0
     36002         1         0     36005         1         0     36008         1         0
     36011         1         0     36014         1         0     36017         1         0
     36020         1         0     36023         1         0     36027         2         0
     36034         2         0     36045         1         0     36053         1         0
     36062         1         0     36065         1         0     36068         1         0
     36071         1         0     36074         1         0     36077         1         0
     36080         1         0     36082         1         0     36084         1         0
     36087         1         0     36090         1         0     36093         1         0
     36096         1         0     36099         1         0     36103         1         0
     36106         1         0     36109         1         0     36112         1         0
     36115         1         0     36118         1         0     36121         1         0
     36123         1         0     36125         1         0     36128         1         0
     36131         1         0     36134         1         0     36137         1         0
     36140         1         0     36143         1         0     36146         1         0
     36150         2         0     36157         2         0     36168         1         0
     36176         1         0     36185         1         0     36188         1         0
     36191         1         0     36194         1         0     36197         1         0
     36200         1         0     36203         1         0     36205         1         0
     36208         1         0     36210         1         0     36213         1         0
     36216         1         0     36219         1         0     36222         1         0
     36225         1         0     36229         1         0     36232         1         0
     36235         1         0     36238         1         0     36241         1         0
     36244         1         0     36247         1         0     36250         1         0
     36253         1         0     36256         1         0     36259         1         0
     36262         1         0     36265         1         0     36268         1         0
     36272         2         0     36279         2         0     36290         1         0
     36298         1         0     36307         1         0     36310         1         0
     36313         1         0     36316         1         0     36319         1         0
     36322         1         0     36325         1         0     36327         1         0
     36330         1         0     36332         1         0     36335         1         0
     36338         1         0     36341         1         0     36344         1         0
     36347         1         0     36351         1         0     36354         1         0
     36357         1         0     36360         1         0     36363         1         0
     36366         1         0     36369         1         0     36372         1         0
     36375         1         0     36378         1         0     36381         1         0
     36384         1         0     36387         1         0     36391         2         0
     36398         2         0     36409         1         0     36417         1         0
     36426         1         0     36429         1         0     36432         1         0
     36435         1         0     36438         1         0     36441         1         0
     36444         1         0     36446         1         0     36448         1         0
     36451         1         0     36454         1         0     36457         1         0
     36460         1         0     36463         1         0     36466         1         0
     36469         1         0     36473         1         0     36476         1         0
     36479         1         0     36482         1         0     36485         1         0
     36488         1         0     36491         1         0     36494         1         0
     36497         1         0     36500         1         0     36503         1         0
     36506         1         0     36509         1         0     36512         1         0
     36516         1         0     36521         1         0     36525         2         0
     36536         1         0     36544         1         0     36553         1         0
     36556         1         0     36559         1         0     36562         1         0
     36565         1         0     36568         1         0     36571         1         0
     36573         1         0     36576         1         0     36578         1         0
     36581         1         0     36584         1         0     36587         1         0
     36590         1         0     36593         1         0     36597         1         0
     36600         1         0     36603         1         0     36606         1         0
     36609         1         0     36612         1         0     36615         1         0
     36618         1         0     36621         1         0     36624         1         0
     36627         1         0     36630         1         0     36633         1         0
     36636         1         0     36640         2         0     36647         2         0
     36658         1         0     36666         1         0     36675         1         0
     36678         1         0     36681         1         0     36684         1         0
     36687         1         0     36690         1         0     36693         1         0
     36695         1         0     36698         1         0     36700         1         0
     36703         1         0     36706         1         0     36709         1         0
     36712         1         0     36715         1         0     36719         1         0
     36722         1         0     36725         1         0     36728         1         0
     36731         1         0     36734         1         0     36737         1         0
     36740         1         0     36743         1         0     36746         1         0
     36749         1         0     36752         1         0     36755         1         0
     36758         1         0     36762         2         0     36769         2         0
     36780         1         0     36788         1         0     36797         1         0
     36800         1         0     36803         1         0     36806         1         0
     36809         1         0     36812         1         0     36815         1         0
     36817         1         0     36820         1         0     36822         1         0
     36825         1         0     36828         1         0     36831         1         0
     36834         1         0     36837         1         0     36841         1         0
     36844         1         0     36847         1         0     36850         1         0
     36853         1         0     36856         1         0     36859         1         0
     36862         1         0     36865         1         0     36868         1         0
     36871         1         0     36874         1         0     36877         1         0
     36880         1         0     36884         2         0     36891         2         0
     36902         1         0     36910         1         0     36919         1         0
     36922         1         0     36925         1         0     36928         1         0
     36931         1         0     36934         1         0     36937         1         0
     36939         1         0     36942         1         0     36944         1         0
     36947         1         0     36950         1         0     36953         1         0
     36956         1         0     36959         1         0     36963         1         0
     36966         1         0     36969         1         0     36972         1         0
     36975         1         0     36978         1         0     36981         1         0
     36984         1         0     36987         1         0     36990         1         0
     36993         1         0     36996         1         0     36999         1         0
     37002         1         0     37006         2         0     37013         2         0
     37024         1         0     37032         1         0     37041         1         0
     37044         1         0     37047         1         0     37050         1         0
     37053         1         0     37056         1         0     37059         1         0
     37061         1         0     37064         1         0     37066         1         0
     37069         1         0     37072         1         0     37075         1         0
     37078         1         0     37081         1         0     37085         1         0
     37088         1         0     37091         1         0     37094         1         0
     37097         1         0     37100         1         0     37103         1         0
     37106         1         0     37109         1         0     37112         1         0
     37115         1         0     37118         1         0     37121         1         0
     37124         1         0     37128         2         0     37135         2         0
     37146         1         0     37154         1         0     37163         1         0
     37166         1         0     37169         1         0     37172         1         0
     37175         1         0     37178         1         0     37181         1         0
     37183         1         0     37186         1         0     37188         1         0
     37191         1         0     37194         1         0     37197         1         0
     37200         1         0     37203         1         0     37207         1         0
     37210         1         0     37213         1         0     37216         1         0
     37219         1         0     37222         1         0     37225         1         0
     37228         1         0     37231         1         0     37234         1         0
     37237         1         0     37240         1         0     37243         1         0
     37246         1         0     37250         2         0     37257         2         0
     37268         1         0     37276         1         0     37285         1         0
     37288         1         0     37291         1         0     37294         1         0
     37297         1         0     37300         1         0     37303         1         0
     37305         1         0     37308         1         0     37310         1         0
     37313         1         0     37316         1         0     37319         1         0
     37322         1         0     37325         1         0     37329         1         0
     37332         1         0     37335         1         0     37338         1         0
     37341         1         0     37344         1         0     37347         1         0
     37350         1         0     37353         1         0     37356         1         0
     37359         1         0     37362         1         0     37365         1         0
     37368         1         0     37372         1         0     37377         1         0
     37381         2         0     37392         1         0     37400         1         0
     37409         1         0     37412         1         0     37415         1         0
     37418         1         0     37421         1         0     37424         1         0
     37427         1         0     37429         1         0     37432         1         0
     37434         1         0     37437         1         0     37440         1         0
     37443         1         0     37446         1         0     37449         1         0
     37453         1         0     37456         1         0     37459         1         0
     37462         1         0     37465         1         0     37468         1         0
     37471         1         0     37474         1         0     37477         1         0
     37480         1         0     37483         1         0     37486         1         0
     37489         1         0     37492         1         0     37496         2         0
     37503         2         0     37514         1         0     37522         1         0
     37531         1         0     37534         1         0     37537         1         0
     37540         1         0     37543         1         0     37546         1         0
     37549         1         0     37551         1         0     37554         1         0
     37556         1         0     37559         1         0     37562         1         0
     37565         1         0     37568         1         0     37571         1         0
     37575         1         0     37578         1         0     37581         1         0
     37584         1         0     37587         1         0     37590         1         0
     37593         1         0     37596         1         0     37599         1         0
     37602         1         0     37605         1         0     37608         1         0
     37611         1         0     37614         1         0     37618         2         0
     37625         2         0     37636         1         0     37644         1         0
     37653         1         0     37656         1         0     37659         1         0
     37662         1         0     37665         1         0     37668         1         0
     37671         1         0     37673         1         0     37676         1         0
     37678         1         0     37681         1         0     37684         1         0
     37687         1         0     37690         1         0     37693         1         0
     37697         1         0     37700         1         0     37703         1         0
     37706         1         0     37709         1         0     37712         1         0
     37715         1         0     37718         1         0     37721         1         0
     37724         1         0     37727         1         0     37730         1         0
     37733         1         0     37736         1         0     37740         2         0
     37747         2         0     37758         1         0     37766         1         0
     37775         1         0     37778         1         0     37781         1         0
     37784         1         0     37787         1         0     37790         1         0
     37793         1         0     37795         1         0     37797         1         0
     37800         1         0     37803         1         0     37806         1         0
     37809         1         0     37812         1         0     37815         1         0
     37818         1         0     37822         1         0     37825         1         0
     37828         1         0     37831         1         0     37834         1         0
     37837         1         0     37840         1         0     37843         1         0
     37846         1         0     37849         1         0     37852         1         0
     37855         1         0     37858         1         0     37861         1         0
     37865         2         0     37872         2         0     37883         1         0
     37891         1         0     37900         1         0     37903         1         0
     37906         1         0     37909         1         0     37912         1         0
     37915         1         0     37918         1         0     37920         1         0
     37923         1         0     37925         1         0     37928         1         0
     37931         1         0     37934         1         0     37937         1         0
     37940         1         0     37944         1         0     37947         1         0
     37950         1         0     37953         1         0     37956         1         0
     37959         1         0     37962         1         0     37965         1         0
     37968         1         0     37971         1         0     37974         1         0
     37977         1         0     37980         1         0     37983         1         0
     37987         2         0     37994         2         0     38005         1         0
     38013         1         0     38022         1         0     38025         1         0
     38028         1         0     38031         1         0     38034         1         0
     38037         1         0     38040         1         0     38042         1         0
     38044         1         0     38047         1         0     38050         1         0
     38053         1         0     38056         1         0     38059         1         0
     38062         1         0     38065         1         0     38069         1         0
     38072         1         0     38075         1         0     38078         1         0
     38081         1         0     38084         1         0     38087         1         0
     38090         1         0     38093         1         0     38096         1         0
     38099         1         0     38102         1         0     38105         1         0
     38108         1         0     38112         2         0     38119         2         0
     38130         1         0     38138         1         0     38147         1         0
     38150         1         0     38153         1         0     38156         1         0
     38159         1         0     38162         1         0     38165         1         0
     38167         1         0     38169         1         0     38172         1         0
     38175         1         0     38178         1         0     38181         1         0
     38184         1         0     38188         1         0     38191         1         0
     38194         1         0     38197         1         0     38200         1         0
     38203         1         0     38206         1         0     38208         1         0
     38210         1         0     38213         1         0     38216         1         0
     38219         1         0     38222         1         0     38225         1         0
     38228         1         0     38231         1         0     38235         2         0
     38242         2         0     38253         1         0     38261         1         0
     38270         1         0     38273         1         0     38276         1         0
     38279         1         0     38282         1         0     38285         1         0
     38288         1         0     38290         1         0     38293         1         0
     38295         1         0     38298         1         0     38301         1         0
     38304         1         0     38307         1         0     38310         1         0
     38314         1         0     38317         1         0     38320         1         0
     38323         1         0     38326         1         0     38329         1         0
     38332         1         0     38335         1         0     38338         1         0
     38341         1         0     38344         1         0     38347         1         0
     38350         1         0     38354         2         0     38361         2         0
     38372         1         0     38380         1         0     38389         1         0
     38392         1         0     38395         1         0     38398         1         0
     38401         1         0     38404         1         0     38407         1         0
     38409         1         0     38412         1         0     38414         1         0
     38417         1         0     38420         1         0     38423         1         0
     38426         1         0     38429         1         0     38433         1         0
     38436         1         0     38439         1         0     38442         1         0
     38445         1         0     38448         1         0     38451         1         0
     38454         1         0     38457         1         0     38460         1         0
     38463         1         0     38466         1         0     38469         1         0
     38472         1         0     38476         2         0     38483         2         0
     38494         1         0     38502         1         0     38511         1         0
     38514         1         0     38517         1         0     38520         1         0
     38523         1         0     38526         1         0     38529         1         0
     38531         1         0     38534         1         0     38536         1         0
     38539         1         0     38542         1         0     38545         1         0
     38548         1         0     38551         1         0     38555         1         0
     38558         1         0     38561         1         0     38564         1         0
     38567         1         0     38570         1         0     38573         1         0
     38576         1         0     38579         1         0     38582         1         0
     38585         1         0     38588         1         0     38591         1         0
     38594         1         0     38598         2         0     38605         2         0
     38616         1         0     38624         1         0     38633         1         0
     38636         1         0     38639         1         0     38642         1         0
     38645         1         0     38648         1         0     38651         1         0
     38653         1         0     38655         1         0     38658         1         0
     38661         1         0     38664         1         0     38667         1         0
     38670         1         0     38673         1         0     38676         1         0
     38680         1         0     38683         1         0     38686         1         0
     38689         1         0     38692         1         0     38695         1         0
     38698         1         0     38701         1         0     38704         1         0
     38707         1         0     38710         1         0     38713         1         0
     38716         1         0     38719         1         0     38723         2         0
     38730         2         0     38741         1         0     38749         1         0
     38758         1         0     38761         1         0     38764         1         0
     38767         1         0     38770         1         0     38773         1         0
     38776         1         0     38778         1         0     38781         1         0
     38783         1         0     38786         1         0     38789         1         0
     38792         1         0     38795         1         0     38798         1         0
     38802         1         0     38805         1         0     38808         1         0
     38811         1         0     38814         1         0     38817         1         0
     38820         1         0     38823         1         0     38826         1         0
     38829         1         0     38832         1         0     38835         1         0
     38838         1         0     38841         1         0     38845         2         0
     38852         2         0     38863         1         0     38871         1         0
     38880         1         0     38883         1         0     38886         1         0
     38889         1         0     38892         1         0     38895         1         0
     38898         1         0     38900         1         0     38903         1         0
     38905         1         0     38908         1         0     38911         1         0
     38914         1         0     38917         1         0     38920         1         0
     38924         1         0     38927         1         0     38930         1         0
     38933         1         0     38936         1         0     38939         1         0
     38942         1         0     38945         1         0     38948         1         0
     38951         1         0     38954         1         0     38957         1         0
     38960         1         0     38964         2         0     38971         2         0
     38982         1         0     38990         1         0     38999         1         0
     39002         1         0     39005         1         0     39008         1         0
     39011         1         0     39014         1         0     39017         1         0
     39019         1         0     39022         1         0     39024         1         0
     39027         1         0     39030         1         0     39033         1         0
     39036         1         0     39039         1         0     39043         1         0
     39046         1         0     39049         1         0     39052         1         0
     39055         1         0     39058         1         0     39061         1         0
     39064         1         0     39067         1         0     39070         1         0
     39073         1         0     39076         1         0     39079         1         0
     39083         2         0     39090         2         0     39101         1         0
     39109         1         0     39118         1         0     39121         1         0
     39124         1         0     39127         1         0     39130         1         0
     39133         1         0     39136         1         0     39138         1         0
     39140         1         0     39143         1         0     39146         1         0
     39149         1         0     39152         1         0     39155         1         0
     39158         1         0     39161         1         0     39165         1         0
     39168         1         0     39171         1         0     39174         1         0
     39177         1         0     39180         1         0     39183         1         0
     39186         1         0     39189         1         0     39192         1         0
     39195         1         0     39198         1         0     39201         1         0
     39204         1         0     39208         2         0     39215         2         0
     39226         1         0     39234         1         0     39243         1         0
     39246         1         0     39249         1         0     39252         1         0
     39255         1         0     39258         1         0     39261         1         0
     39263         1         0     39266         1         0     39268         1         0
     39271         1         0     39274         1         0     39277         1         0
     39280         1         0     39283         1         0     39287         1         0
     39290         1         0     39293         1         0     39296         1         0
     39299         1         0     39302         1         0     39305         1         0
     39308         1         0     39311         1         0     39314         1         0
     39317         1         0     39320         1         0     39323         1         0
     39326         1         0     39330         1         0     39335         1         0
     39339         2         0     39350         1         0     39358         1         0
     39367         1         0     39370         1         0     39373         1         0
     39376         1         0     39379         1         0     39382         1         0
     39385         1         0     39387         1         0     39390         1         0
     39392         1         0     39395         1         0     39398         1         0
     39401         1         0     39404         1         0     39407         1         0
     39411         1         0     39414         1         0     39417         1         0
     39420         1         0     39423         1         0     39426         1         0
     39429         1         0     39432         1         0     39435         1         0
     39438         1         0     39441         1         0     39444         1         0
     39447         1         0     39450         1         0     39454         1         0
     39459         1         0     39463         2         0     39474         1         0
     39482         1         0     39491         1         0     39494         1         0
     39497         1         0     39500         1         0     39503         1         0
     39506         1         0     39509         1         0     39511         1         0
     39513         1         0     39516         1         0     39519         1         0
     39522         1         0     39525         1         0     39528         1         0
     39532         1         0     39535         1         0     39538         1         0
     39541         1         0     39544         1         0     39547         1         0
     39550         1         0     39553         1         0     39556         1         0
     39559         1         0     39562         1         0     39565         1         0
     39568         1         0     39571         1         0     39575         2         0
     39586         1         0     39590         2         0     39601         1         0
     39609         1         0     39618         1         0     39626         1         0
     39635         1         0     39638         1         0     39641         1         0
     39644         1         0     39647         1         0     39650         1         0
     39653         1         0     39656         1         0     39659         1         0
     39661         1         0     39663         1         0     39666         1         0
     39669         1         0     39672         1         0     39675         1         0
     39678         1         0     39682         1         0     39685         1         0
     39688         1         0     39691         1         0     39694         1         0
     39697         1         0     39700         1         0     39703         1         0
     39706         1         0     39709         1         0     39712         1         0
     39715         1         0     39718         1         0     39721         1         0
     39725         1         0     39728         1         0     39731         1         0
     39734         1         0     39737         1         0     39740         1         0
     39743         1         0     39746         1         0     39749         1         0
     39751         1         0     39753         1         0     39756         1         0
     39759         1         0     39762         1         0     39765         1         0
     39768         1         0     39772         1         0     39775         1         0
     39778         1         0     39781         1         0     39784         1         0
     39787         1         0     39790         1         0     39793         1         0
     39796         1         0     39799         1         0     39802         1         0
     39805         1         0     39808         1         0     39811         1         0
     39815         2         0     39822         2         0     39833         1         0
     39841         1         0     39850         1         0     39853         1         0
     39856         1         0     39859         1         0     39862         1         0
     39865         1         0     39868         1         0     39870         1         0
     39873         1         0     39875         1         0     39878         1         0
     39881         1         0     39884         1         0     39887         1         0
     39890         1         0     39894         1         0     39897         1         0
     39900         1         0     39903         1         0     39906         1         0
     39909         1         0     39912         1         0     39915         1         0
     39918         1         0     39921         1         0     39924         1         0
     39927         1         0     39930         1         0     39934         1         0
     39939         1         0     39943         2         0     39954         1         0
     39962         1         0     39971         1         0     39974         1         0
     39977         1         0     39980         1         0     39983         1         0
     39986         1         0     39989         1         0     39991         1         0
     39994         1         0     39996         1         0     39999         1         0
     40002         1         0     40005         1         0     40008         1         0
     40011         1         0     40015         1         0     40018         1         0
     40021         1         0     40024         1         0     40027         1         0
     40030         1         0     40033         1         0     40036         1         0
     40039         1         0     40042         1         0     40045         1         0
     40048         1         0     40051         1         0     40054         1         0
     40058         2         0     40065         2         0     40076         1         0
     40084         1         0     40093         1         0     40096         1         0
     40099         1         0     40102         1         0     40105         1         0
     40108         1         0     40111         1         0     40113         1         0
     40116         1         0     40118         1         0     40121         1         0
     40124         1         0     40127         1         0     40130         1         0
     40133         1         0     40137         1         0     40140         1         0
     40143         1         0     40146         1         0     40149         1         0
     40152         1         0     40155         1         0     40158         1         0
     40161         1         0     40164         1         0     40167         1         0
     40170         1         0     40173         1         0     40176         1         0
     40180         2         0     40187         2         0     40198         1         0
     40206         1         0     40215         1         0     40218         1         0
     40221         1         0     40224         1         0     40227         1         0
     40230         1         0     40233         1         0     40235         1         0
     40238         1         0     40240         1         0     40243         1         0
     40246         1         0     40249         1         0     40252         1         0
     40255         1         0     40259         1         0     40262         1         0
     40265         1         0     40268         1         0     40271         1         0
     40274         1         0     40277         1         0     40280         1         0
     40283         1         0     40286         1         0     40289         1         0
     40292         1         0     40295         1         0     40298         1         0
     40302         2         0     40309         2         0     40320         1         0
     40328         1         0     40337         1         0     40340         1         0
     40343         1         0     40346         1         0     40349         1         0
     40352         1         0     40355         1         0     40357         1         0
     40360         1         0     40362         1         0     40365         1         0
     40368         1         0     40371         1         0     40374         1         0
     40377         1         0     40381         1         0     40384         1         0
     40387         1         0     40390         1         0     40393         1         0
     40396         1         0     40399         1         0     40402         1         0
     40405         1         0     40408         1         0     40411         1         0
     40414         1         0     40417         1         0     40421         1         0
     40426         1         0     40430         2         0     40441         1         0
     40449         1         0     40458         1         0     40461         1         0
     40464         1         0     40467         1         0     40470         1         0
     40473         1         0     40476         1         0     40478         1         0
     40480         1         0     40483         1         0     40486         1         0
     40489         1         0     40492         1         0     40495         1         0
     40499         1         0     40502         1         0     40505         1         0
     40508         1         0     40511         1         0     40514         1         0
     40517         1         0     40520         1         0     40523         1         0
     40526         1         0     40529         1         0     40532         1         0
     40535         1         0     40538         1         0     40542         2         0
     40549         2         0     40560         1         0     40568         1         0
     40577         1         0     40580         1         0     40583         1         0
     40586         1         0     40589         1         0     40592         1         0
     40595         1         0     40597         1         0     40600         1         0
     40602         1         0     40605         1         0     40608         1         0
     40611         1         0     40614         1         0     40617         1         0
     40621         1         0     40624         1         0     40627         1         0
     40630         1         0     40633         1         0     40636         1         0
     40639         1         0     40642         1         0     40645         1         0
     40648         1         0     40651         1         0     40654         1         0
     40657         1         0     40661         1         0     40666         1         0
     40670         2         0     40681         1         0     40689         1         0
     40698         1         0     40701         1         0     40704         1         0
     40707         1         0     40710         1         0     40713         1         0
     40716         1         0     40718         1         0     40720         1         0
     40723         1         0     40726         1         0     40729         1         0
     40732         1         0     40735         1         0     40739         1         0
     40742         1         0     40745         1         0     40748         1         0
     40751         1         0     40754         1         0     40757         1         0
     40760         1         0     40763         1         0     40766         1         0
     40769         1         0     40772         1         0     40775         1         0
     40778         1         0     40782         1         0     40787         1         0
     40791         2         0     40802         1         0     40810         1         0
     40819         1         0     40822         1         0     40825         1         0
     40828         1         0     40831         1         0     40834         1         0
     40837         1         0     40839         1         0     40842         1         0
     40844         1         0     40847         1         0     40850         1         0
     40853         1         0     40856         1         0     40859         1         0
     40863         1         0     40866         1         0     40869         1         0
     40872         1         0     40875         1         0     40878         1         0
     40881         1         0     40884         1         0     40887         1         0
     40890         1         0     40893         1         0     40896         1         0
     40899         1         0     40902         1         0     40906         2         0
     40913         2         0     40924         1         0     40932         1         0
     40941         1         0     40944         1         0     40947         1         0
     40950         1         0     40953         1         0     40956         1         0
     40959         1         0     40961         1         0     40964         1         0
     40966         1         0     40969         1         0     40972         1         0
     40975         1         0     40978         1         0     40981         1         0
     40985         1         0     40988         1         0     40991         1         0
     40994         1         0     40997         1         0     41000         1         0
     41003         1         0     41006         1         0     41009         1         0
     41012         1         0     41015         1         0     41018         1         0
     41021         1         0     41024         1         0     41028         2         0
     41035         2         0     41046         1         0     41054         1         0
     41063         1         0     41066         1         0     41069         1         0
     41072         1         0     41075         1         0     41078         1         0
     41081         1         0     41083         1         0     41085         1         0
     41088         1         0     41091         1         0     41094         1         0
     41097         1         0     41100         1         0     41104         1         0
     41107         1         0     41110         1         0     41113         1         0
     41116         1         0     41119         1         0     41122         1         0
     41124         1         0     41126         1         0     41129         1         0
     41132         1         0     41135         1         0     41138         1         0
     41141         1         0     41144         1         0     41147         1         0
     41151         2         0     41158         2         0     41169         1         0
     41177         1         0     41186         1         0     41189         1         0
     41192         1         0     41195         1         0     41198         1         0
     41201         1         0     41204         1         0     41206         1         0
     41208         1         0     41211         1         0     41214         1         0
     41217         1         0     41220         1         0     41223         1         0
     41227         1         0     41230         1         0     41233         1         0
     41236         1         0     41239         1         0     41242         1         0
     41245         1         0     41247         1         0     41249         1         0
     41252         1         0     41255         1         0     41258         1         0
     41261         1         0     41264         1         0     41267         1         0
     41270         1         0     41274         2         0     41281         2         0
     41292         1         0     41300         1         0     41309         1         0
     41312         1         0     41315         1         0     41318         1         0
     41321         1         0     41324         1         0     41327         1         0
     41329         1         0     41332         1         0     41334         1         0
     41337         1         0     41340         1         0     41343         1         0
     41346         1         0     41349         1         0     41353         1         0
     41356         1         0     41359         1         0     41362         1         0
     41365         1         0     41368         1         0     41371         1         0
     41374         1         0     41377         1         0     41380         1         0
     41383         1         0     41386         1         0     41389         1         0
     41393         2         0     41400         2         0     41411         1         0
     41419         1         0     41428         1         0     41431         1         0
     41434         1         0     41437         1         0     41440         1         0
     41443         1         0     41446         1         0     41448         1         0
     41450         1         0     41453         1         0     41456         1         0
     41459         1         0     41462         1         0     41465         1         0
     41469         1         0     41472         1         0     41475         1         0
     41478         1         0     41481         1         0     41484         1         0
     41487         1         0     41489         1         0     41491         1         0
     41494         1         0     41497         1         0     41500         1         0
     41503         1         0     41506         1         0     41509         1         0
     41512         1         0     41516         1         0     41521         1         0
     41525         2         0     41536         1         0     41544         1         0
     41553         1         0     41556         1         0     41559         1         0
     41562         1         0     41565         1         0     41568         1         0
     41571         1         0     41573         1         0     41576         1         0
     41578         1         0     41581         1         0     41584         1         0
     41587         1         0     41590         1         0     41593         1         0
     41597         1         0     41600         1         0     41603         1         0
     41606         1         0     41609         1         0     41612         1         0
     41615         1         0     41618         1         0     41621         1         0
     41624         1         0     41627         1         0     41630         1         0
     41633         1         0     41636         1         0     41640         2         0
     41647         2         0     41658         1         0     41666         1         0
     41675         1         0     41678         1         0     41681         1         0
     41684         1         0     41687         1         0     41690         1         0
     41693         1         0     41695         1         0     41698         1         0
     41700         1         0     41703         1         0     41706         1         0
     41709         1         0     41712         1         0     41715         1         0
     41719         1         0     41722         1         0     41725         1         0
     41728         1         0     41731         1         0     41734         1         0
     41737         1         0     41740         1         0     41743         1         0
     41746         1         0     41749         1         0     41752         1         0
     41755         1         0     41759         2         0     41766         2         0
     41777         1         0     41785         1         0     41794         1         0
     41797         1         0     41800         1         0     41803         1         0
     41806         1         0     41809         1         0     41812         1         0
     41814         1         0     41817         1         0     41819         1         0
     41822         1         0     41825         1         0     41828         1         0
     41831         1         0     41834         1         0     41838         1         0
     41841         1         0     41844         1         0     41847         1         0
     41850         1         0     41853         1         0     41856         1         0
     41859         1         0     41862         1         0     41865         1         0
     41868         1         0     41871         1         0     41874         1         0
     41877         1         0     41881         2         0     41888         2         0
     41899         1         0     41907         1         0     41916         1         0
     41919         1         0     41922         1         0     41925         1         0
     41928         1         0     41931         1         0     41934         1         0
     41936         1         0     41938         1         0     41941         1         0
     41944         1         0     41947         1         0     41950         1         0
     41953         1         0     41956         1         0     41959         1         0
     41963         1         0     41966         1         0     41969         1         0
     41972         1         0     41975         1         0     41978         1         0
     41981         1         0     41984         1         0     41987         1         0
     41990         1         0     41993         1         0     41996         1         0
     41999         1         0     42002         1         0     42006         2         0
     42013         2         0     42024         1         0     42032         1         0
     42041         1         0     42044         1         0     42047         1         0
     42050         1         0     42053         1         0     42056         1         0
     42059         1         0     42061         1         0     42063         1         0
     42066         1         0     42069         1         0     42072         1         0
     42075         1         0     42078         1         0     42081         1         0
     42084         1         0     42088         1         0     42091         1         0
     42094         1         0     42097         1         0     42100         1         0
     42103         1         0     42106         1         0     42109         1         0
     42112         1         0     42115         1         0     42118         1         0
     42121         1         0     42124         1         0     42127         1         0
     42131         2         0     42138         2         0     42149         1         0
     42157         1         0     42166         1         0     42169         1         0
     42172         1         0     42175         1         0     42178         1         0
     42181         1         0     42184         1         0     42186         1         0
     42189         1         0     42191         1         0     42194         1         0
     42197         1         0     42200         1         0     42203         1         0
     42206         1         0     42210         1         0     42213         1         0
     42216         1         0     42219         1         0     42222         1         0
     42225         1         0     42228         1         0     42231         1         0
     42234         1         0     42237         1         0     42240         1         0
     42243         1         0     42246         1         0     42249         1         0
     42253         2         0     42260         2         0     42271         1         0
     42279         1         0     42288         1         0     42291         1         0
     42294         1         0     42297         1         0     42300         1         0
     42303         1         0     42306         1         0     42308         1         0
     42311         1         0     42313         1         0     42316         1         0
     42319         1         0     42322         1         0     42325         1         0
     42328         1         0     42332         1         0     42335         1         0
     42338         1         0     42341         1         0     42344         1         0
     42347         1         0     42350         1         0     42353         1         0
     42356         1         0     42359         1         0     42362         1         0
     42365         1         0     42368         1         0     42371         1         0
     42375         2         0     42382         2         0     42393         1         0
     42401         1         0     42410         1         0     42413         1         0
     42416         1         0     42419         1         0     42422         1         0
     42425         1         0     42428         1         0     42430         1         0
     42433         1         0     42435         1         0     42438         1         0
     42441         1         0     42444         1         0     42447         1         0
     42450         1         0     42454         1         0     42457         1         0
     42460         1         0     42463         1         0     42466         1         0
     42469         1         0     42472         1         0     42475         1         0
     42478         1         0     42481         1         0     42484         1         0
     42487         1         0     42490         1         0     42493         1         0
     42497         2         0     42504         2         0     42515         1         0
     42523         1         0     42532         1         0     42535         1         0
     42538         1         0     42541         1         0     42544         1         0
     42547         1         0     42550         1         0     42552         1         0
     42555         1         0     42557         1         0     42560         1         0
     42563         1         0     42566         1         0     42569         1         0
     42572         1         0     42576         1         0     42579         1         0
     42582         1         0     42585         1         0     42588         1         0
     42591         1         0     42594         1         0     42597         1         0
     42600         1         0     42603         1         0     42606         1         0
     42609         1         0     42612         1         0     42615         1         0
     42619         2         0     42626         2         0     42637         1         0
     42645         1         0     42654         1         0     42657         1         0
     42660         1         0     42663         1         0     42666         1         0
     42669         1         0     42672         1         0     42674         1         0
     42677         1         0     42679         1         0     42682         1         0
     42685         1         0     42688         1         0     42691         1         0
     42694         1         0     42698         1         0     42701         1         0
     42704         1         0     42707         1         0     42710         1         0
     42713         1         0     42716         1         0     42719         1         0
     42722         1         0     42725         1         0     42728         1         0
     42731         1         0     42734         1         0     42738         2         0
     42745         2         0     42756         1         0     42764         1         0
     42773         1         0     42776         1         0     42779         1         0
     42782         1         0     42785         1         0     42788         1         0
     42791         1         0     42793         1         0     42795         1         0
     42798         1         0     42801         1         0     42804         1         0
     42807         1         0     42810         1         0     42814         1         0
     42817         1         0     42820         1         0     42823         1         0
     42826         1         0     42829         1         0     42832         1         0
     42834         1         0     42836         1         0     42839         1         0
     42842         1         0     42845         1         0     42848         1         0
     42851         1         0     42854         1         0     42857         1         0
     42861         2         0     42868         2         0     42879         1         0
     42887         1         0     42896         1         0     42899         1         0
     42902         1         0     42905         1         0     42908         1         0
     42911         1         0     42914         1         0     42916         1         0
     42918         1         0     42921         1         0     42924         1         0
     42927         1         0     42930         1         0     42933         1         0
     42936         1         0     42939         1         0     42943         1         0
     42946         1         0     42949         1         0     42952         1         0
     42955         1         0     42958         1         0     42961         1         0
     42964         1         0     42967         1         0     42970         1         0
     42973         1         0     42976         1         0     42979         1         0
     42982         1         0     42986         2         0     42993         2         0
     43004         1         0     43012         1         0     43021         1         0
     43024         1         0     43027         1         0     43030         1         0
     43033         1         0     43036         1         0     43039         1         0
     43041         1         0     43043         1         0     43046         1         0
     43049         1         0     43052         1         0     43055         1         0
     43058         1         0     43061         1         0     43064         1         0
     43068         1         0     43071         1         0     43074         1         0
     43077         1         0     43080         1         0     43083         1         0
     43086         1         0     43089         1         0     43092         1         0
     43095         1         0     43098         1         0     43101         1         0
     43104         1         0     43107         1         0     43111         1         0
     43116         1         0     43120         2         0     43131         1         0
     43139         1         0     43148         1         0     43151         1         0
     43154         1         0     43157         1         0     43160         1         0
     43163         1         0     43166         1         0     43168         1         0
     43170         1         0     43173         1         0     43176         1         0
     43179         1         0     43182         1         0     43185         1         0
     43189         1         0     43192         1         0     43195         1         0
     43198         1         0     43201         1         0     43204         1         0
     43207         1         0     43210         1         0     43213         1         0
     43216         1         0     43219         1         0     43222         1         0
     43225         1         0     43228         1         0     43232         2         0
     43239         2         0     43250         1         0     43258         1         0
     43267         1         0     43270         1         0     43273         1         0
     43276         1         0     43279         1         0     43282         1         0
     43285         1         0     43287         1         0     43290         1         0
     43292         1         0     43295         1         0     43298         1         0
     43301         1         0     43304         1         0     43307         1         0
     43311         1         0     43314         1         0     43317         1         0
     43320         1         0     43323         1         0     43326         1         0
     43329         1         0     43332         1         0     43335         1         0
     43338         1         0     43341         1         0     43344         1         0
     43347         1         0     43350         1         0     43354         2         0
     43361         2         0     43372         1         0     43380         1         0
     43389         1         0     43392         1         0     43395         1         0
     43398         1         0     43401         1         0     43404         1         0
     43407         1         0     43409         1         0     43411         1         0
     43414         1         0     43417         1         0     43420         1         0
     43423         1         0     43426         1         0     43429         1         0
     43432         1         0     43436         1         0     43439         1         0
     43442         1         0     43445         1         0     43448         1         0
     43451         1         0     43454         1         0     43457         1         0
     43460         1         0     43463         1         0     43466         1         0
     43469         1         0     43472         1         0     43475         1         0
     43479         2         0     43486         2         0     43497         1         0
     43505         1         0     43514         1         0     43517         1         0
     43520         1         0     43523         1         0     43526         1         0
     43529         1         0     43532         1         0     43534         1         0
     43537         1         0     43539         1         0     43542         1         0
     43545         1         0     43548         1         0     43551         1         0
     43554         1         0     43558         1         0     43561         1         0
     43564         1         0     43567         1         0     43570         1         0
     43573         1         0     43576         1         0     43579         1         0
     43582         1         0     43585         1         0     43588         1         0
     43591         1         0     43594         1         0     43598         2         0
     43605         2         0     43616         1         0     43624         1         0
     43633         1         0     43636         1         0     43639         1         0
     43642         1         0     43645         1         0     43648         1         0
     43651         1         0     43653         1         0     43655         1         0
     43658         1         0     43661         1         0     43664         1         0
     43667         1         0     43670         1         0     43673         1         0
     43676         1         0     43680         1         0     43683         1         0
     43686         1         0     43689         1         0     43692         1         0
     43695         1         0     43698         1         0     43701         1         0
     43704         1         0     43707         1         0     43710         1         0
     43713         1         0     43716         1         0     43719         1         0
     43723         2         0     43730         2         0     43741         1         0
     43749         1         0     43758         1         0     43761         1         0
     43764         1         0     43767         1         0     43770         1         0
     43773         1         0     43776         1         0     43778         1         0
     43781         1         0     43783         1         0     43786         1         0
     43789         1         0     43792         1         0     43795         1         0
     43798         1         0     43802         1         0     43805         1         0
     43808         1         0     43811         1         0     43814         1         0
     43817         1         0     43820         1         0     43823         1         0
     43826         1         0     43829         1         0     43832         1         0
     43835         1         0     43838         1         0     43841         1         0
     43845         1         0     43850         1         0     43854         2         0
     43865         1         0     43873         1         0     43882         1         0
     43885         1         0     43888         1         0     43891         1         0
     43894         1         0     43897         1         0     43900         1         0
     43902         1         0     43905         1         0     43907         1         0
     43910         1         0     43913         1         0     43916         1         0
     43919         1         0     43922         1         0     43926         1         0
     43929         1         0     43932         1         0     43935         1         0
     43938         1         0     43941         1         0     43944         1         0
     43947         1         0     43950         1         0     43953         1         0
     43956         1         0     43959         1         0     43962         1         0
     43965         1         0     43969         2         0     43976         2         0
     43987         1         0     43995         1         0     44004         1         0
     44007         1         0     44010         1         0     44013         1         0
     44016         1         0     44019         1         0     44022         1         0
     44024         1         0     44027         1         0     44029         1         0
     44032         1         0     44035         1         0     44038         1         0
     44041         1         0     44044         1         0     44048         1         0
     44051         1         0     44054         1         0     44057         1         0
     44060         1         0     44063         1         0     44066         1         0
     44069         1         0     44072         1         0     44075         1         0
     44078         1         0     44081         1         0     44084         1         0
     44087         1         0     44091         1         0     44096         1         0
     44100         2         0     44111         1         0     44119         1         0
     44128         1         0     44131         1         0     44134         1         0
     44137         1         0     44140         1         0     44143         1         0
     44146         1         0     44148         1         0     44150         1         0
     44153         1         0     44156         1         0     44159         1         0
     44162         1         0     44165         1         0     44169         1         0
     44172         1         0     44175         1         0     44178         1         0
     44181         1         0     44184         1         0     44187         1         0
     44190         1         0     44193         1         0     44196         1         0
     44199         1         0     44202         1         0     44205         1         0
     44208         1         0     44212         2         0     44219         2         0
     44230         1         0     44238         1         0     44247         1         0
     44250         1         0     44253         1         0     44256         1         0
     44259         1         0     44262         1         0     44265         1         0
     44267         1         0     44270         1         0     44272         1         0
     44275         1         0     44278         1         0     44281         1         0
     44284         1         0     44287         1         0     44291         1         0
     44294         1         0     44297         1         0     44300         1         0
     44303         1         0     44306         1         0     44309         1         0
     44312         1         0     44315         1         0     44318         1         0
     44321         1         0     44324         1         0     44327         1         0
     44330         1         0     44334         1         0     44339         1         0
     44343         2         0     44354         1         0     44362         1         0
     44371         1         0     44374         1         0     44377         1         0
     44380         1         0     44383         1         0     44386         1         0
     44389         1         0     44391         1         0     44394         1         0
     44396         1         0     44399         1         0     44402         1         0
     44405         1         0     44408         1         0     44411         1         0
     44415         1         0     44418         1         0     44421         1         0
     44424         1         0     44427         1         0     44430         1         0
     44433         1         0     44436         1         0     44439         1         0
     44442         1         0     44445         1         0     44448         1         0
     44451         1         0     44454         1         0     44458         2         0
     44465         2         0     44476         1         0     44484         1         0
     44493         1         0     44496         1         0     44499         1         0
     44502         1         0     44505         1         0     44508         1         0
     44511         1         0     44513         1         0     44516         1         0
     44518         1         0     44521         1         0     44524         1         0
     44527         1         0     44530         1         0     44533         1         0
     44537         1         0     44540         1         0     44543         1         0
     44546         1         0     44549         1         0     44552         1         0
     44555         1         0     44558         1         0     44561         1         0
     44564         1         0     44567         1         0     44570         1         0
     44573         1         0     44576         1         0     44580         2         0
     44587         2         0     44598         1         0     44606         1         0
     44615         1         0     44618         1         0     44621         1         0
     44624         1         0     44627         1         0     44630         1         0
     44633         1         0     44635         1         0     44638         1         0
     44640         1         0     44643         1         0     44646         1         0
     44649         1         0     44652         1         0     44655         1         0
     44659         1         0     44662         1         0     44665         1         0
     44668         1         0     44671         1         0     44674         1         0
     44677         1         0     44680         1         0     44683         1         0
     44686         1         0     44689         1         0     44692         1         0
     44695         1         0     44698         1         0     44702         1         0
     44707         1         0     44711         2         0     44722         1         0
     44730         1         0     44739         1         0     44742         1         0
     44745         1         0     44748         1         0     44751         1         0
     44754         1         0     44757         1         0     44759         1         0
     44761         1         0     44764         1         0     44767         1         0
     44770         1         0     44773         1         0     44776         1         0
     44780         1         0     44783         1         0     44786         1         0
     44789         1         0     44792         1         0     44795         1         0
     44798         1         0     44801         1         0     44804         1         0
     44807         1         0     44810         1         0     44813         1         0
     44816         1         0     44819         1         0     44823         2         0
     44830         2         0     44841         1         0     44849         1         0
     44858         1         0     44861         1         0     44864         1         0
     44867         1         0     44870         1         0     44873         1         0
     44876         1         0     44878         1         0     44881         1         0
     44883         1         0     44886         1         0     44889         1         0
     44892         1         0     44895         1         0     44898         1         0
     44902         1         0     44905         1         0     44908         1         0
     44911         1         0     44914         1         0     44917         1         0
     44920         1         0     44923         1         0     44926         1         0
     44929         1         0     44932         1         0     44935         1         0
     44938         1         0     44941         1         0     44945         2         0
     44952         2         0     44963         1         0     44971         1         0
     44980         1         0     44983         1         0     44986         1         0
     44989         1         0     44992         1         0     44995         1         0
     44998         1         0     45000         1         0     45003         1         0
     45005         1         0     45008         1         0     45011         1         0
     45014         1         0     45017         1         0     45020         1         0
     45024         1         0     45027         1         0     45030         1         0
     45033         1         0     45036         1         0     45039         1         0
     45042         1         0     45045         1         0     45048         1         0
     45051         1         0     45054         1         0     45057         1         0
     45060         1         0     45063         1         0     45067         2         0
     45074         2         0     45085         1         0     45093         1         0
     45102         1         0     45105         1         0     45108         1         0
     45111         1         0     45114         1         0     45117         1         0
     45120         1         0     45122         1         0     45125         1         0
     45127         1         0     45130         1         0     45133         1         0
     45136         1         0     45139         1         0     45142         1         0
     45146         1         0     45149         1         0     45152         1         0
     45155         1         0     45158         1         0     45161         1         0
     45164         1         0     45167         1         0     45170         1         0
     45173         1         0     45176         1         0     45179         1         0
     45182         1         0     45185         1         0     45189         2         0
     45196         2         0     45207         1         0     45215         1         0
     45224         1         0     45227         1         0     45230         1         0
     45233         1         0     45236         1         0     45239         1         0
     45242         1         0     45244         1         0     45247         1         0
     45249         1         0     45252         1         0     45255         1         0
     45258         1         0     45261         1         0     45264         1         0
     45268         1         0     45271         1         0     45274         1         0
     45277         1         0     45280         1         0     45283         1         0
     45286         1         0     45289         1         0     45292         1         0
     45295         1         0     45298         1         0     45301         1         0
     45304         1         0     45307         1         0     45311         2         0
     45318         2         0     45329         1         0     45337         1         0
     45346         1         0     45349         1         0     45352         1         0
     45355         1         0     45358         1         0     45361         1         0
     45364         1         0     45366         1         0     45368         1         0
     45371         1         0     45374         1         0     45377         1         0
     45380         1         0     45383         1         0     45386         1         0
     45389         1         0     45393         1         0     45396         1         0
     45399         1         0     45402         1         0     45405         1         0
     45408         1         0     45411         1         0     45414         1         0
     45417         1         0     45420         1         0     45423         1         0
     45426         1         0     45429         1         0     45432         1         0
     45436         2         0     45443         2         0     45454         1         0
     45462         1         0     45471         1         0     45474         1         0
     45477         1         0     45480         1         0     45483         1         0
     45486         1         0     45489         1         0     45491         1         0
     45494         1         0     45496         1         0     45499         1         0
     45502         1         0     45505         1         0     45508         1         0
     45511         1         0     45515         1         0     45518         1         0
     45521         1         0     45524         1         0     45527         1         0
     45530         1         0     45533         1         0     45536         1         0
     45539         1         0     45542         1         0     45545         1         0
     45548         1         0     45551         1         0     45554         1         0
     45558         2         0     45565         2         0     45576         1         0
     45584         1         0     45593         1         0     45596         1         0
     45599         1         0     45602         1         0     45605         1         0
     45608         1         0     45611         1         0     45613         1         0
     45616         1         0     45618         1         0     45621         1         0
     45624         1         0     45627         1         0     45630         1         0
     45633         1         0     45637         1         0     45640         1         0
     45643         1         0     45646         1         0     45649         1         0
     45652         1         0     45655         1         0     45658         1         0
     45661         1         0     45664         1         0     45667         1         0
     45670         1         0     45673         1         0     45676         1         0
     45680         2         0     45687         2         0     45698         1         0
     45706         1         0     45715         1         0     45718         1         0
     45721         1         0     45724         1         0     45727         1         0
     45730         1         0     45733         1         0     45735         1         0
     45737         1         0     45740         1         0     45743         1         0
     45746         1         0     45749         1         0     45752         1         0
     45755         1         0     45758         1         0     45762         1         0
     45765         1         0     45768         1         0     45771         1         0
     45774         1         0     45777         1         0     45780         1         0
     45783         1         0     45786         1         0     45789         1         0
     45792         1         0     45795         1         0     45798         1         0
     45801         1         0     45805         2         0     45812         2         0
     45823         1         0     45831         1         0     45840         1         0
     45843         1         0     45846         1         0     45849         1         0
     45852         1         0     45855         1         0     45858         1         0
     45860         1         0     45863         1         0     45865         1         0
     45868         1         0     45871         1         0     45874         1         0
     45877         1         0     45880         1         0     45884         1         0
     45887         1         0     45890         1         0     45893         1         0
     45896         1         0     45899         1         0     45902         1         0
     45905         1         0     45908         1         0     45911         1         0
     45914         1         0     45917         1         0     45920         1         0
     45923         1         0     45927         2         0     45934         2         0
     45945         1         0     45953         1         0     45962         1         0
     45965         1         0     45968         1         0     45971         1         0
     45974         1         0     45977         1         0     45980         1         0
     45982         1         0     45985         1         0     45987         1         0
     45990         1         0     45993         1         0     45996         1         0
     45999         1         0     46002         1         0     46006         1         0
     46009         1         0     46012         1         0     46015         1         0
     46018         1         0     46021         1         0     46024         1         0
     46027         1         0     46030         1         0     46033         1         0
     46036         1         0     46039         1         0     46042         1         0
     46045         1         0     46049         2         0     46056         2         0
     46067         1         0     46075         1         0     46084         1         0
     46087         1         0     46090         1         0     46093         1         0
     46096         1         0     46099         1         0     46102         1         0
     46104         1         0     46106         1         0     46109         1         0
     46112         1         0     46115         1         0     46118         1         0
     46121         1         0     46124         1         0     46127         1         0
     46131         1         0     46134         1         0     46137         1         0
     46140         1         0     46143         1         0     46146         1         0
     46149         1         0     46152         1         0     46155         1         0
     46158         1         0     46161         1         0     46164         1         0
     46167         1         0     46170         1         0     46174         2         0
     46181         2         0     46192         1         0     46200         1         0
     46209         1         0     46212         1         0     46215         1         0
     46218         1         0     46221         1         0     46224         1         0
     46227         1         0     46229         1         0     46232         1         0
     46234         1         0     46237         1         0     46240         1         0
     46243         1         0     46246         1         0     46249         1         0
     46253         1         0     46256         1         0     46259         1         0
     46262         1         0     46265         1         0     46268         1         0
     46271         1         0     46274         1         0     46277         1         0
     46280         1         0     46283         1         0     46286         1         0
     46289         1         0     46292         1         0     46296         1         0
     46301         1         0     46305         2         0     46316         1         0
     46324         1         0     46333         1         0     46336         1         0
     46339         1         0     46342         1         0     46345         1         0
     46348         1         0     46351         1         0     46353         1         0
     46355         1         0     46358         1         0     46361         1         0
     46364         1         0     46367         1         0     46370         1         0
     46374         1         0     46377         1         0     46380         1         0
     46383         1         0     46386         1         0     46389         1         0
     46392         1         0     46395         1         0     46398         1         0
     46401         1         0     46404         1         0     46407         1         0
     46410         1         0     46413         1         0     46417         2         0
     46424         2         0     46435         1         0     46443         1         0
     46452         1         0     46455         1         0     46458         1         0
     46461         1         0     46464         1         0     46467         1         0
     46470         1         0     46472         1         0     46475         1         0
     46477         1         0     46480         1         0     46483         1         0
     46486         1         0     46489         1         0     46492         1         0
     46496         1         0     46499         1         0     46502         1         0
     46505         1         0     46508         1         0     46511         1         0
     46514         1         0     46517         1         0     46520         1         0
     46523         1         0     46526         1         0     46529         1         0
     46532         1         0     46535         1         0     46539         2         0
     46546         2         0     46557         1         0     46565         1         0
     46574         1         0     46577         1         0     46580         1         0
     46583         1         0     46586         1         0     46589         1         0
     46592         1         0     46594         1         0     46597         1         0
     46599         1         0     46602         1         0     46605         1         0
     46608         1         0     46611         1         0     46614         1         0
     46618         1         0     46621         1         0     46624         1         0
     46627         1         0     46630         1         0     46633         1         0
     46636         1         0     46639         1         0     46642         1         0
     46645         1         0     46648         1         0     46651         1         0
     46654         1         0     46658         2         0     46665         2         0
     46676         1         0     46684         1         0     46693         1         0
     46696         1         0     46699         1         0     46702         1         0
     46705         1         0     46708         1         0     46711         1         0
     46713         1         0     46715         1         0     46718         1         0
     46721         1         0     46724         1         0     46727         1         0
     46730         1         0     46734         1         0     46737         1         0
     46740         1         0     46743         1         0     46746         1         0
     46749         1         0     46752         1         0     46754         1         0
     46756         1         0     46759         1         0     46762         1         0
     46765         1         0     46768         1         0     46771         1         0
     46774         1         0     46777         1         0     46781         2         0
     46788         2         0     46799         1         0     46807         1         0
     46816         1         0     46819         1         0     46822         1         0
     46825         1         0     46828         1         0     46831         1         0
     46834         1         0     46836         1         0     46839         1         0
     46841         1         0     46844         1         0     46847         1         0
     46850         1         0     46853         1         0     46856         1         0
     46860         1         0     46863         1         0     46866         1         0
     46869         1         0     46872         1         0     46875         1         0
     46878         1         0     46881         1         0     46884         1         0
     46887         1         0     46890         1         0     46893         1         0
     46896         1         0     46899         1         0     46903         2         0
     46910         2         0     46921         1         0     46929         1         0
     46938         1         0     46941         1         0     46944         1         0
     46947         1         0     46950         1         0     46953         1         0
     46956         1         0     46958         1         0     46961         1         0
     46963         1         0     46966         1         0     46969         1         0
     46972         1         0     46975         1         0     46978         1         0
     46982         1         0     46985         1         0     46988         1         0
     46991         1         0     46994         1         0     46997         1         0
     47000         1         0     47003         1         0     47006         1         0
     47009         1         0     47012         1         0     47015         1         0
     47018         1         0     47021         1         0     47025         2         0
     47032         2         0     47043         1         0     47051         1         0
     47060         1         0     47063         1         0     47066         1         0
     47069         1         0     47072         1         0     47075         1         0
     47078         1         0     47080         1         0     47083         1         0
     47085         1         0     47088         1         0     47091         1         0
     47094         1         0     47097         1         0     47100         1         0
     47104         1         0     47107         1         0     47110         1         0
     47113         1         0     47116         1         0     47119         1         0
     47122         1         0     47125         1         0     47128         1         0
     47131         1         0     47134         1         0     47137         1         0
     47140         1         0     47143         1         0     47147         2         0
     47154         2         0     47165         1         0     47173         1         0
     47182         1         0     47185         1         0     47188         1         0
     47191         1         0     47194         1         0     47197         1         0
     47200         1         0     47202         1         0     47204         1         0
     47207         1         0     47210         1         0     47213         1         0
     47216         1         0     47219         1         0     47222         1         0
     47225         1         0     47229         1         0     47232         1         0
     47235         1         0     47238         1         0     47241         1         0
     47244         1         0     47247         1         0     47250         1         0
     47253         1         0     47256         1         0     47259         1         0
     47262         1         0     47265         1         0     47268         1         0
     47272         2         0     47279         2         0     47290         1         0
     47298         1         0     47307         1         0     47310         1         0
     47313         1         0     47316         1         0     47319         1         0
     47322         1         0     47325         1         0     47327         1         0
     47330         1         0     47332         1         0     47335         1         0
     47338         1         0     47341         1         0     47344         1         0
     47347         1         0     47351         1         0     47354         1         0
     47357         1         0     47360         1         0     47363         1         0
     47366         1         0     47369         1         0     47372         1         0
     47375         1         0     47378         1         0     47381         1         0
     47384         1         0     47387         1         0     47390         1         0
     47394         2         0     47405         1         0     47409         2         0
     47420         1         0     47428         1         0     47437         1         0
     47445         1         0     47454         1         0     47457         1         0
     47460         1         0     47463         1         0     47466         1         0
     47469         1         0     47472         1         0     47475         1         0
     47478         1         0     47480         1         0     47482         1         0
     47485         1         0     47488         1         0     47491         1         0
     47494         1         0     47497         1         0     47501         1         0
     47504         1         0     47507         1         0     47510         1         0
     47513         1         0     47516         1         0     47519         1         0
     47522         1         0     47525         1         0     47528         1         0
     47531         1         0     47534         1         0     47537         1         0
     47540         1         0     47544         1         0     47547         1         0
     47550         1         0     47553         1         0     47556         1         0
     47559         1         0     47562         1         0     47565         1         0
     47568         1         0     47570         1         0     47572         1         0
     47575         1         0     47578         1         0     47581         1         0
     47584         1         0     47587         1         0     47591         1         0
     47594         1         0     47597         1         0     47600         1         0
     47603         1         0     47606         1         0     47609         1         0
     47612         1         0     47615         1         0     47618         1         0
     47621         1         0     47624         1         0     47627         1         0
     47630         1         0     47634         2         0     47641         2         0
     47652         1         0     47660         1         0     47669         1         0
     47672         1         0     47675         1         0     47678         1         0
     47681         1         0     47684         1         0     47687         1         0
     47689         1         0     47692         1         0     47694         1         0
     47697         1         0     47700         1         0     47703         1         0
     47706         1         0     47709         1         0     47713         1         0
     47716         1         0     47719         1         0     47722         1         0
     47725         1         0     47728         1         0     47731         1         0
     47734         1         0     47737         1         0     47740         1         0
     47743         1         0     47746         1         0     47749         1         0
     47752         1         0     47756         2         0     47763         2         0
     47774         1         0     47782         1         0     47791         1         0
     47794         1         0     47797         1         0     47800         1         0
     47803         1         0     47806         1         0     47809         1         0
     47811         1         0     47814         1         0     47816         1         0
     47819         1         0     47822         1         0     47825         1         0
     47828         1         0     47831         1         0     47835         1         0
     47838         1         0     47841         1         0     47844         1         0
     47847         1         0     47850         1         0     47853         1         0
     47856         1         0     47859         1         0     47862         1         0
     47865         1         0     47868         1         0     47871         1         0
     47874         1         0     47878         2         0     47885         2         0
     47896         1         0     47904         1         0     47913         1         0
     47916         1         0     47919         1         0     47922         1         0
     47925         1         0     47928         1         0     47931         1         0
     47933         1         0     47936         1         0     47938         1         0
     47941         1         0     47944         1         0     47947         1         0
     47950         1         0     47953         1         0     47957         1         0
     47960         1         0     47963         1         0     47966         1         0
     47969         1         0     47972         1         0     47975         1         0
     47978         1         0     47981         1         0     47984         1         0
     47987         1         0     47990         1         0     47993         1         0
     47996         1         0     48000         2         0     48007         2         0
     48018         1         0     48026         1         0     48035         1         0
     48038         1         0     48041         1         0     48044         1         0
     48047         1         0     48050         1         0     48053         1         0
     48055         1         0     48057         1         0     48060         1         0
     48063         1         0     48066         1         0     48069         1         0
     48072         1         0     48075         1         0     48078         1         0
     48082         1         0     48085         1         0     48088         1         0
     48091         1         0     48094         1         0     48097         1         0
     48100         1         0     48103         1         0     48106         1         0
     48109         1         0     48112         1         0     48115         1         0
     48118         1         0     48121         1         0     48125         2         0
     48132         2         0     48143         1         0     48151         1         0
     48160         1         0     48163         1         0     48166         1         0
     48169         1         0     48172         1         0     48175         1         0
     48178         1         0     48180         1         0     48183         1         0
     48185         1         0     48188         1         0     48191         1         0
     48194         1         0     48197         1         0     48200         1         0
     48204         1         0     48207         1         0     48210         1         0
     48213         1         0     48216         1         0     48219         1         0
     48222         1         0     48225         1         0     48228         1         0
     48231         1         0     48234         1         0     48237         1         0
     48240         1         0     48244         1         0     48249         1         0
     48253         2         0     48264         1         0     48272         1         0
     48281         1         0     48284         1         0     48287         1         0
     48290         1         0     48293         1         0     48296         1         0
     48299         1         0     48301         1         0     48304         1         0
     48306         1         0     48309         1         0     48312         1         0
     48315         1         0     48318         1         0     48321         1         0
     48325         1         0     48328         1         0     48331         1         0
     48334         1         0     48337         1         0     48340         1         0
     48343         1         0     48346         1         0     48349         1         0
     48352         1         0     48355         1         0     48358         1         0
     48361         1         0     48364         1         0     48368         1         0
     48373         1         0     48377         2         0     48388         1         0
     48396         1         0     48405         1         0     48408         1         0
     48411         1         0     48414         1         0     48417         1         0
     48420         1         0     48423         1         0     48425         1         0
     48428         1         0     48430         1         0     48433         1         0
     48436         1         0     48439         1         0     48442         1         0
     48445         1         0     48449         1         0     48452         1         0
     48455         1         0     48458         1         0     48461         1         0
     48464         1         0     48467         1         0     48470         1         0
     48473         1         0     48476         1         0     48479         1         0
     48482         1         0     48485         1         0     48488         1         0
     48492         1         0     48497         1         0     48501         2         0
     48512         1         0     48520         1         0     48529         1         0
     48532         1         0     48535         1         0     48538         1         0
     48541         1         0     48544         1         0     48547         1         0
     48549         1         0     48552         1         0     48554         1         0
     48557         1         0     48560         1         0     48563         1         0
     48566         1         0     48569         1         0     48573         1         0
     48576         1         0     48579         1         0     48582         1         0
     48585         1         0     48588         1         0     48591         1         0
     48594         1         0     48597         1         0     48600         1         0
     48603         1         0     48606         1         0     48609         1         0
     48612         1         0     48616         2         0     48623         2         0
     48634         1         0     48642         1         0     48651         1         0
     48654         1         0     48657         1         0     48660         1         0
     48663         1         0     48666         1         0     48669         1         0
     48671         1         0     48674         1         0     48676         1         0
     48679         1         0     48682         1         0     48685         1         0
     48688         1         0     48691         1         0     48695         1         0
     48698         1         0     48701         1         0     48704         1         0
     48707         1         0     48710         1         0     48713         1         0
     48716         1         0     48719         1         0     48722         1         0
     48725         1         0     48728         1         0     48731         1         0
     48734         1         0     48738         2         0     48745         2         0
     48756         1         0     48764         1         0     48773         1         0
     48776         1         0     48779         1         0     48782         1         0
     48785         1         0     48788         1         0     48791         1         0
     48793         1         0     48796         1         0     48798         1         0
     48801         1         0     48804         1         0     48807         1         0
     48810         1         0     48813         1         0     48817         1         0
     48820         1         0     48823         1         0     48826         1         0
     48829         1         0     48832         1         0     48835         1         0
     48838         1         0     48841         1         0     48844         1         0
     48847         1         0     48850         1         0     48853         1         0
     48856         1         0     48860         2         0     48867         2         0
     48878         1         0     48886         1         0     48895         1         0
     48898         1         0     48901         1         0     48904         1         0
     48907         1         0     48910         1         0     48913         1         0
     48915         1         0     48918         1         0     48920         1         0
     48923         1         0     48926         1         0     48929         1         0
     48932         1         0     48935         1         0     48939         1         0
     48942         1         0     48945         1         0     48948         1         0
     48951         1         0     48954         1         0     48957         1         0
     48960         1         0     48963         1         0     48966         1         0
     48969         1         0     48972         1         0     48975         1         0
     48979         2         0     48986         2         0     48997         1         0
     49005         1         0     49014         1         0     49017         1         0
     49020         1         0     49023         1         0     49026         1         0
     49029         1         0     49032         1         0     49034         1         0
     49037         1         0     49039         1         0     49042         1         0
     49045         1         0     49048         1         0     49051         1         0
     49054         1         0     49058         1         0     49061         1         0
     49064         1         0     49067         1         0     49070         1         0
     49073         1         0     49076         1         0     49079         1         0
     49082         1         0     49085         1         0     49088         1         0
     49091         1         0     49094         1         0     49097         1         0
     49101         2         0     49108         2         0     49119         1         0
     49127         1         0     49136         1         0     49139         1         0
     49142         1         0     49145         1         0     49148         1         0
     49151         1         0     49154         1         0     49156         1         0
     49159         1         0     49161         1         0     49164         1         0
     49167         1         0     49170         1         0     49173         1         0
     49176         1         0     49180         1         0     49183         1         0
     49186         1         0     49189         1         0     49192         1         0
     49195         1         0     49198         1         0     49201         1         0
     49204         1         0     49207         1         0     49210         1         0
     49213         1         0     49216         1         0     49220         2         0
     49227         2         0     49238         1         0     49246         1         0
     49255         1         0     49258         1         0     49261         1         0
     49264         1         0     49267         1         0     49270         1         0
     49273         1         0     49275         1         0     49278         1         0
     49280         1         0     49283         1         0     49286         1         0
     49289         1         0     49292         1         0     49295         1         0
     49299         1         0     49302         1         0     49305         1         0
     49308         1         0     49311         1         0     49314         1         0
     49317         1         0     49320         1         0     49323         1         0
     49326         1         0     49329         1         0     49332         1         0
     49335         1         0     49339         2         0     49346         2         0
     49357         1         0     49365         1         0     49374         1         0
     49377         1         0     49380         1         0     49383         1         0
     49386         1         0     49389         1         0     49392         1         0
     49394         1         0     49397         1         0     49399         1         0
     49402         1         0     49405         1         0     49408         1         0
     49411         1         0     49414         1         0     49418         1         0
     49421         1         0     49424         1         0     49427         1         0
     49430         1         0     49433         1         0     49436         1         0
     49439         1         0     49442         1         0     49445         1         0
     49448         1         0     49451         1         0     49454         1         0
     49457         1         0     49461         2         0     49468         2         0
     49479         1         0     49487         1         0     49496         1         0
     49499         1         0     49502         1         0     49505         1         0
     49508         1         0     49511         1         0     49514         1         0
     49516         1         0     49518         1         0     49521         1         0
     49524         1         0     49527         1         0     49530         1         0
     49533         1         0     49536         1         0     49539         1         0
     49543         1         0     49546         1         0     49549         1         0
     49552         1         0     49555         1         0     49558         1         0
     49561         1         0     49564         1         0     49567         1         0
     49570         1         0     49573         1         0     49576         1         0
     49579         1         0     49582         1         0     49586         2         0
     49593         2         0     49604         1         0     49612         1         0
     49621         1         0     49624         1         0     49627         1         0
     49630         1         0     49633         1         0     49636         1         0
     49639         1         0     49641         1         0     49643         1         0
     49646         1         0     49649         1         0     49652         1         0
     49655         1         0     49658         1         0     49661         1         0
     49664         1         0     49668         1         0     49671         1         0
     49674         1         0     49677         1         0     49680         1         0
     49683         1         0     49686         1         0     49689         1         0
     49692         1         0     49695         1         0     49698         1         0
     49701         1         0     49704         1         0     49707         1         0
     49711         1         0     49716         1         0     49720         2         0
     49731         1         0     49739         1         0     49748         1         0
     49751         1         0     49754         1         0     49757         1         0
     49760         1         0     49763         1         0     49766         1         0
     49768         1         0     49770         1         0     49773         1         0
     49776         1         0     49779         1         0     49782         1         0
     49785         1         0     49789         1         0     49792         1         0
     49795         1         0     49798         1         0     49801         1         0
     49804         1         0     49807         1         0     49810         1         0
     49813         1         0     49816         1         0     49819         1         0
     49822         1         0     49825         1         0     49828         1         0

         0         0 !NUMLP NUMLPH

         0 !NCRTERM: cross-terms

